Membrane in water
40167
    1TCq1    O1    1   3.842   1.703  11.920  0.4477 -0.7555 -0.1446
    1TCq1    C1    2   3.790   1.591  11.968 -0.2824 -0.7194 -0.6889
    1TCq1    O2    3   3.847   1.526  12.051  0.1316  0.0026  0.1927
    1TCq1    C2    4   3.664   1.561  11.904 -0.5122 -0.1568  0.0732
    1TCq1    C3    5   3.639   1.604  11.780 -0.1045  0.0747 -0.3822
    1TCq1    C4    6   3.525   1.561  11.720 -0.2034 -0.5510  0.0701
    1TCq1    C5    7   3.439   1.473  11.781  0.0397 -0.1198  1.3045
    1TCq1    C6    8   3.470   1.430  11.906  0.6916  0.1816 -0.1868
    1TCq1    C7    9   3.585   1.468  11.968  0.0439  0.0681 -0.1514
    1TCq1    C8   10   3.398   1.314  11.950  0.1251 -0.1109  0.1647
    1TCq1    O4   11   3.281   1.321  11.914  0.2566 -0.2279 -0.4511
    1TCq1    C9   12   3.514   1.589  11.581 -0.6127  0.1451 -0.0431
    1TCq1    O5   13   3.592   1.673  11.538 -0.5535 -0.0767  1.0261
    1TCq1    O6   14   3.433   1.530  11.504  0.6060  0.8025 -0.4380
    1TCq1    H1   15   3.772   1.755  11.876  0.9955  0.5424  0.4955
    1TCq1    H2   16   3.709   1.665  11.724  0.5718  1.3560  1.8633
    1TCq1    H3   17   3.359   1.423  11.727 -0.4125 -0.1634  2.0087
    1TCq1    H4   18   3.605   1.440  12.071 -0.9317 -0.0733 -0.0019
    2MPD2     C   19   3.345   0.889  12.220 -0.6831 -0.1780 -0.2151
    2MPD2    C1   20   3.250   0.955  12.142  0.1957  0.6661 -0.2235
    2MPD2    C2   21   3.285   1.073  12.083 -0.0248  0.1970 -0.0091
    2MPD2    C3   22   3.417   1.113  12.088  0.6165 -0.1232  0.6421
    2MPD2    C4   23   3.514   1.044  12.153 -0.5804 -0.1395 -0.3144
    2MPD2    C5   24   3.475   0.936  12.225  0.6473  0.4689 -0.2861
    2MPD2     H   25   3.206   1.126  12.031  0.1699 -0.2483 -0.7663
    2MPD2    H1   26   3.615   1.081  12.164 -1.2048  0.5619  3.2258
    2MPD2    H2   27   3.329   0.791  12.265  3.2944 -0.4560  0.5814
    2MPD2    H3   28   3.542   0.874  12.284 -0.4415  0.7423  1.2314
    2MPD2     N   29   3.470   1.229  12.025 -0.0256 -0.7581 -0.0166
    2MPD2    H5   30   3.570   1.247  12.030  0.0364 -0.8630 -0.7735
    2MPD2    N1   31   3.121   0.898  12.115  0.0075  0.4137  0.2022
    2MPD2    H7   32   3.069   0.942  12.040 -0.8450 -1.2538 -0.1877
    3TCq1    O1   33   3.090   2.402  10.660  0.0588  0.0764  0.1334
    3TCq1    C1   34   3.107   2.363  10.786  0.1214 -0.2050  0.7845
    3TCq1    O2   35   3.098   2.251  10.828  0.1235  0.0288 -0.1219
    3TCq1    C2   36   3.077   2.476  10.867 -0.2572  0.3816 -0.1979
    3TCq1    C3   37   3.143   2.593  10.854  0.9587 -0.0665 -0.0266
    3TCq1    C4   38   3.129   2.688  10.950  0.1617  0.6992  0.1959
    3TCq1    C5   39   3.046   2.674  11.060 -0.2071 -0.5815  0.4264
    3TCq1    C6   40   2.982   2.555  11.070  0.0586 -0.0122 -0.2316
    3TCq1    C7   41   2.997   2.454  10.977 -0.0545  0.7686 -0.3325
    3TCq1    C8   42   2.879   2.530  11.165  0.7570  0.6024 -0.4498
    3TCq1    O4   43   2.854   2.415  11.193  0.1481  0.1188  0.3044
    3TCq1    C9   44   3.215   2.804  10.930 -0.2833 -0.4245 -0.3885
    3TCq1    O5   45   3.338   2.785  10.935  0.5400 -0.0149  0.1793
    3TCq1    O6   46   3.162   2.917  10.911 -0.8157  0.1905  0.5604
    3TCq1    H1   47   3.063   2.495  10.643 -0.7403 -0.2596 -0.4005
    3TCq1    H2   48   3.213   2.609  10.772  0.3392 -1.9945 -0.9553
    3TCq1    H3   49   3.042   2.758  11.128  1.0450 -0.1046 -0.1019
    3TCq1    H4   50   2.933   2.367  10.983 -0.6856  1.2993  0.7642
    4MPD2     C   51   2.511   2.670  11.489 -0.2437 -0.7253  0.2794
    4MPD2    C1   52   2.594   2.777  11.474 -0.6314  0.0777  0.4014
    4MPD2    C2   53   2.699   2.766  11.377  0.4731 -0.0117  0.0681
    4MPD2    C3   54   2.714   2.648  11.300 -0.3927 -0.2296  0.3942
    4MPD2    C4   55   2.634   2.541  11.330  0.1146  0.0573  0.4407
    4MPD2    C5   56   2.533   2.549  11.427  0.1457 -0.2996  0.2372
    4MPD2     H   57   2.771   2.844  11.355 -1.0302  1.0280 -1.2718
    4MPD2    H1   58   2.639   2.452  11.268 -0.9732  0.1217  0.2669
    4MPD2    H2   59   2.426   2.679  11.555 -0.8055  0.6360 -0.6158
    4MPD2    H3   60   2.459   2.470  11.430  2.0091 -2.0236  0.2637
    4MPD2     N   61   2.829   2.643  11.221 -1.3761  0.2257 -0.5329
    4MPD2    H5   62   2.861   2.736  11.194  0.1507 -0.0272  0.4056
    4MPD2    N1   63   2.596   2.892  11.555 -0.1715  0.0650  0.1653
    4MPD2    H7   64   2.652   2.964  11.510  0.5952 -0.8748 -0.3886
    5TCq1    O1   65   3.593   4.348  11.063 -0.4688  0.9313  0.0115
    5TCq1    C1   66   3.498   4.347  11.160  0.1733  0.4937  0.1832
    5TCq1    O2   67   3.395   4.420  11.162 -0.3290  0.1805 -0.3547
    5TCq1    C2   68   3.504   4.217  11.228  0.1127 -0.7517  0.1422
    5TCq1    C3   69   3.439   4.209  11.352  0.1283 -0.5478  0.4409
    5TCq1    C4   70   3.456   4.094  11.427 -0.3730  0.2653  0.1348
    5TCq1    C5   71   3.522   3.988  11.366 -0.4110  0.0955  0.1661
    5TCq1    C6   72   3.570   3.995  11.239 -0.8050  0.2428 -0.0246
    5TCq1    C7   73   3.568   4.112  11.169 -0.3740 -0.7518  1.1317
    5TCq1    C8   74   3.609   3.869  11.173 -0.1078 -0.1552  0.5696
    5TCq1    O4   75   3.577   3.755  11.217  0.4885  0.8733 -0.6908
    5TCq1    C9   76   3.403   4.087  11.560  0.1912  0.9957  0.1042
    5TCq1    O5   77   3.436   3.990  11.629  0.2258  0.5186 -0.2303
    5TCq1    O6   78   3.342   4.191  11.593 -0.2137  0.0237  0.5383
    5TCq1    H1   79   3.651   4.270  11.073 -0.6032  0.9521  1.0168
    5TCq1    H2   80   3.386   4.298  11.384  0.2193 -0.7778  1.2421
    5TCq1    H3   81   3.531   3.892  11.416 -0.2222 -0.9401 -1.8557
    5TCq1    H4   82   3.586   4.112  11.062  2.1241 -3.3963  1.5678
    6MPD2     C   83   3.828   3.826  10.874  0.6866 -0.2371  0.0915
    6MPD2    C1   84   3.742   3.788  10.974 -0.3071 -0.1156 -0.0519
    6MPD2    C2   85   3.713   3.655  10.983  0.4002  0.0415  0.5368
    6MPD2    C3   86   3.769   3.567  10.894 -0.0413  0.2066 -0.7887
    6MPD2    C4   87   3.851   3.608  10.795  0.3317 -0.0308  0.6645
    6MPD2    C5   88   3.877   3.740  10.783  0.2074 -0.1659 -0.1501
    6MPD2     H   89   3.644   3.614  11.055  0.1456 -0.1864  0.1616
    6MPD2    H1   90   3.893   3.545  10.717  0.8356  0.6999  0.3386
    6MPD2    H2   91   3.842   3.933  10.869 -3.1390  0.2193 -0.7905
    6MPD2    H3   92   3.937   3.776  10.700 -1.0059  1.1838 -0.4289
    6MPD2     N   93   3.722   3.437  10.909 -0.7858 -0.1521  0.2999
    6MPD2    H5   94   3.668   3.419  10.993 -2.1938  0.8292 -0.3819
    6MPD2    N1   95   3.707   3.889  11.069 -0.4838 -0.1991 -0.1081
    6MPD2    H7   96   3.729   3.986  11.048  1.7574 -1.3159 -2.8827
    7TCq1    O1   97   0.642   3.385  13.399  0.4955  0.5640 -0.5378
    7TCq1    C1   98   0.598   3.380  13.527 -0.6964 -0.0333 -0.3767
    7TCq1    O2   99   0.616   3.472  13.607 -0.2662 -0.0403 -0.0542
    7TCq1    C2  100   0.571   3.247  13.577  0.0160  0.5272  0.3408
    7TCq1    C3  101   0.512   3.157  13.494 -0.2713 -0.5560  0.2114
    7TCq1    C4  102   0.466   3.043  13.549  0.1278  0.4030  0.2917
    7TCq1    C5  103   0.483   3.016  13.675  0.5879  0.5021 -0.0131
    7TCq1    C6  104   0.534   3.106  13.763 -0.7311  0.3442 -0.3276
    7TCq1    C7  105   0.582   3.228  13.711 -0.1593 -1.0431  0.1427
    7TCq1    C8  106   0.577   3.063  13.891  0.2640  0.1274  1.2963
    7TCq1    O4  107   0.582   2.944  13.919  0.1285  0.0912  0.1658
    7TCq1    C9  108   0.396   2.952  13.465  0.2770  0.0320  0.5322
    7TCq1    O5  109   0.347   2.850  13.518  0.4728 -0.1120 -0.7860
    7TCq1    O6  110   0.377   2.978  13.346  0.0314  0.3557  0.4681
    7TCq1    H1  111   0.629   3.303  13.347  1.3595 -0.7911  1.3931
    7TCq1    H2  112   0.486   3.172  13.389  0.4365 -1.0641 -0.0326
    7TCq1    H3  113   0.439   2.922  13.709  1.3544  1.2423  3.0602
    7TCq1    H4  114   0.619   3.314  13.766  1.7497 -1.6267 -0.2233
    8MPD2     C  115   0.684   3.107  14.383  0.0170  0.1052  0.3403
    8MPD2    C1  116   0.621   3.011  14.309 -0.4105  0.4137  0.2408
    8MPD2    C2  117   0.583   3.033  14.176  0.1725  0.6771 -0.2798
    8MPD2    C3  118   0.623   3.148  14.113  0.3911 -0.3950  0.1824
    8MPD2    C4  119   0.687   3.245  14.195  0.1699 -0.5749 -0.5760
    8MPD2    C5  120   0.713   3.228  14.325  0.0937 -0.6715 -0.2527
    8MPD2     H  121   0.525   2.956  14.126  1.5108 -0.8935  0.5733
    8MPD2    H1  122   0.718   3.342  14.157  0.1085 -0.1082  0.5779
    8MPD2    H2  123   0.690   3.100  14.491  0.7698 -0.8455  0.2341
    8MPD2    H3  124   0.742   3.306  14.394 -2.4913 -0.7709  0.9576
    8MPD2     N  125   0.608   3.167  13.978 -0.0357 -0.7066  0.1187
    8MPD2    H5  126   0.604   3.265  13.953  3.2210 -0.6465 -0.1919
    8MPD2    N1  127   0.599   2.883  14.365 -0.3320  0.1630 -0.2554
    8MPD2    H7  128   0.623   2.880  14.464 -2.8751 -0.4459  0.3569
    9TCq1    O1  129   2.465   2.045  10.954 -0.3916  0.0660  0.9793
    9TCq1    C1  130   2.473   1.912  10.937 -0.0522  0.3684  0.4754
    9TCq1    O2  131   2.377   1.841  10.923  0.1006 -0.1261  0.2595
    9TCq1    C2  132   2.583   1.890  10.850 -0.3959 -0.1493 -0.3645
    9TCq1    C3  133   2.555   1.847  10.722 -0.1385 -0.0318 -0.0206
    9TCq1    C4  134   2.662   1.793  10.656  0.3555  0.8006 -0.0443
    9TCq1    C5  135   2.792   1.787  10.708  0.5997 -0.7868 -0.4716
    9TCq1    C6  136   2.817   1.840  10.831  0.5264 -0.9859 -0.0552
    9TCq1    C7  137   2.706   1.885  10.904 -0.2693 -0.1920  0.0146
    9TCq1    C8  138   2.950   1.825  10.886  0.6332  0.1583 -0.3005
    9TCq1    O4  139   3.044   1.827  10.806  0.6409  0.0283  0.0282
    9TCq1    C9  140   2.650   1.747  10.518 -0.2161 -0.4537 -0.8487
    9TCq1    O5  141   2.533   1.749  10.467 -0.1078  0.4022 -0.2557
    9TCq1    O6  142   2.751   1.686  10.468  0.4045  1.0335 -0.4070
    9TCq1    H1  143   2.552   2.089  10.944  0.4265 -1.9567 -0.8571
    9TCq1    H2  144   2.454   1.851  10.683  0.1250  1.6911 -0.4911
    9TCq1    H3  145   2.879   1.752  10.653 -0.6672 -4.9570  0.1359
    9TCq1    H4  146   2.721   1.914  11.007  2.7546  0.6814 -0.6726
   10MPD2     C  147   3.199   1.782  11.042 -0.4209 -0.1099  0.3902
   10MPD2    C1  148   3.071   1.776  11.093  0.1371 -0.3067  0.3185
   10MPD2    C2  149   3.058   1.739  11.223 -0.1950 -0.2781  0.2930
   10MPD2    C3  150   3.162   1.701  11.299  0.0399  0.1411 -0.1778
   10MPD2    C4  151   3.288   1.710  11.248  0.8721  0.4110 -0.1804
   10MPD2    C5  152   3.302   1.744  11.118 -0.5518 -0.1118 -0.2918
   10MPD2     H  153   2.962   1.735  11.274 -0.2049 -1.2728  0.1918
   10MPD2    H1  154   3.375   1.685  11.308  1.7055  0.4340 -1.3743
   10MPD2    H2  155   3.224   1.803  10.938 -0.8205  3.2230  0.9673
   10MPD2    H3  156   3.402   1.748  11.078 -0.0763 -1.7665  0.7292
   10MPD2     N  157   3.158   1.647  11.429 -0.1113 -0.1512 -0.2340
   10MPD2    H5  158   3.250   1.627  11.467 -1.0033 -2.1796  0.8525
   10MPD2    N1  159   2.954   1.799  11.020  0.2495  0.3810 -0.3673
   10MPD2    H7  160   2.864   1.802  11.066 -0.6935  0.3647 -2.2154
   11TCq1    O1  161   3.211   1.953  14.293 -0.3396 -0.2938  0.3122
   11TCq1    C1  162   3.316   2.019  14.235 -0.0346  0.1142  0.0803
   11TCq1    O2  163   3.318   2.068  14.123  0.4385 -0.7626  0.2938
   11TCq1    C2  164   3.429   1.997  14.324 -0.1621 -0.2593 -0.4089
   11TCq1    C3  165   3.539   2.086  14.309 -0.2094 -1.2294 -0.2444
   11TCq1    C4  166   3.658   2.041  14.355 -0.4813 -0.2895  1.2398
   11TCq1    C5  167   3.671   1.921  14.418 -0.0716 -0.0016  0.2091
   11TCq1    C6  168   3.565   1.842  14.428  0.0014 -0.1250  0.2540
   11TCq1    C7  169   3.443   1.868  14.375 -0.3583 -0.0509  0.2003
   11TCq1    C8  170   3.584   1.713  14.495 -0.2538  0.1405 -0.3789
   11TCq1    O4  171   3.674   1.691  14.574 -0.7457  0.0909  0.5651
   11TCq1    C9  172   3.774   2.121  14.346  0.2309  0.1794 -0.1864
   11TCq1    O5  173   3.883   2.066  14.369 -0.3326  0.0673 -0.1919
   11TCq1    O6  174   3.763   2.225  14.279  0.1421 -0.2426 -0.4867
   11TCq1    H1  175   3.213   1.939  14.390  1.9940 -2.3364 -0.0490
   11TCq1    H2  176   3.540   2.168  14.238  0.4174 -0.3774  0.7478
   11TCq1    H3  177   3.765   1.894  14.464 -0.0022  0.5187  0.3758
   11TCq1    H4  178   3.358   1.802  14.388 -1.6457  1.1834 -1.7319
   12MPD2     C  179   3.518   1.456  14.611  0.3817  0.0603 -0.3826
   12MPD2    C1  180   3.477   1.495  14.483  0.1408 -0.5089 -0.1047
   12MPD2    C2  181   3.413   1.399  14.407 -0.3710  0.0146 -0.2422
   12MPD2    C3  182   3.393   1.275  14.445 -0.2597 -0.2579 -0.4365
   12MPD2    C4  183   3.432   1.233  14.574 -0.1796  0.2779 -0.3689
   12MPD2    C5  184   3.498   1.326  14.651 -0.4605 -0.3036  0.1997
   12MPD2     H  185   3.393   1.429  14.305  0.6826  0.7866 -0.2192
   12MPD2    H1  186   3.399   1.139  14.616 -0.1504  0.1622 -0.6041
   12MPD2    H2  187   3.563   1.520  14.685 -1.4025  1.2488 -0.3217
   12MPD2    H3  188   3.498   1.310  14.759 -0.5767  1.8316  0.5186
   12MPD2     N  189   3.315   1.194  14.362  0.3716  0.0923 -0.2030
   12MPD2    H5  190   3.288   1.232  14.272  0.9221  1.9707  0.4321
   12MPD2    N1  191   3.501   1.628  14.438 -0.0105 -0.1625  0.2816
   12MPD2    H7  192   3.458   1.649  14.349  2.4484 -0.8399 -1.0405
   13TCq1    O1  193   3.577   1.365  10.758  0.1358 -0.3106  0.0122
   13TCq1    C1  194   3.491   1.322  10.850 -0.0011 -0.8016  0.7677
   13TCq1    O2  195   3.512   1.312  10.969  0.0722 -0.2274 -0.3489
   13TCq1    C2  196   3.369   1.381  10.801  0.6937  0.5520  0.0568
   13TCq1    C3  197   3.344   1.408  10.669 -0.1749  0.1834  0.1040
   13TCq1    C4  198   3.226   1.450  10.636 -0.6768 -0.3893  0.0225
   13TCq1    C5  199   3.126   1.473  10.721  0.1167 -0.0347  0.2339
   13TCq1    C6  200   3.162   1.461  10.854  0.3220  0.2978 -0.3603
   13TCq1    C7  201   3.282   1.418  10.898  0.0619  0.9440  0.2109
   13TCq1    C8  202   3.059   1.461  10.958 -0.5904  1.2024 -0.5329
   13TCq1    O4  203   3.101   1.430  11.070 -0.0087  0.6606  0.0530
   13TCq1    C9  204   3.194   1.468  10.499  0.9715 -0.4289  0.0342
   13TCq1    O5  205   3.292   1.466  10.421  0.4680  0.5909  0.4476
   13TCq1    O6  206   3.072   1.475  10.463 -0.7134 -0.3854 -0.0762
   13TCq1    H1  207   3.536   1.355  10.670  1.8145 -1.7640 -0.6098
   13TCq1    H2  208   3.409   1.382  10.585 -0.7356  0.3547 -0.3814
   13TCq1    H3  209   3.033   1.512  10.681 -0.6020 -0.5099  1.4446
   13TCq1    H4  210   3.306   1.400  11.002  1.4153 -0.3358 -0.3283
   14MPD2     C  211   2.698   1.531  10.926 -0.3439  0.1809  0.8383
   14MPD2    C1  212   2.814   1.509  10.992 -0.4085  0.5188  0.2770
   14MPD2    C2  213   2.821   1.520  11.129 -0.0059 -0.0875 -0.3849
   14MPD2    C3  214   2.700   1.539  11.202 -0.5153 -0.9079 -0.2430
   14MPD2    C4  215   2.582   1.555  11.132 -0.6578 -0.0735 -0.4612
   14MPD2    C5  216   2.582   1.556  10.995 -0.1358  0.2917 -0.6668
   14MPD2     H  217   2.919   1.527  11.175 -0.5508 -1.5429  0.9921
   14MPD2    H1  218   2.491   1.585  11.183 -1.0168 -1.1576 -0.4588
   14MPD2    H2  219   2.681   1.540  10.820 -0.3078 -0.7971  0.7465
   14MPD2    H3  220   2.492   1.578  10.938 -0.8390 -1.4295 -0.2350
   14MPD2     N  221   2.701   1.564  11.341 -0.1450 -0.3721 -0.2949
   14MPD2    H5  222   2.789   1.571  11.391  0.5924  1.1178 -1.8086
   14MPD2    N1  223   2.936   1.487  10.908 -0.3780 -0.0417 -0.2294
   14MPD2    H7  224   2.935   1.480  10.807 -2.9544  0.2574 -0.2364
   15TCq1    O1  225   4.210   1.044   1.371  0.2307 -0.4839  0.2515
   15TCq1    C1  226   4.157   0.983   1.481  0.1462  0.4330 -0.3776
   15TCq1    O2  227   4.056   1.021   1.541 -0.0097  0.0151 -0.0076
   15TCq1    C2  228   4.270   0.918   1.552  0.2765 -0.3345  0.3645
   15TCq1    C3  229   4.277   0.945   1.682 -0.1399 -0.2407  0.6209
   15TCq1    C4  230   4.376   0.873   1.746 -0.0373 -0.4298 -0.0839
   15TCq1    C5  231   4.460   0.788   1.679  0.4123 -1.0209  0.3111
   15TCq1    C6  232   4.449   0.776   1.542 -0.1415 -0.0752 -0.0711
   15TCq1    C7  233   4.359   0.847   1.472  0.5146  0.6862  0.3605
   15TCq1    C8  234   4.552   0.707   1.469 -0.2883  0.1854 -0.1357
   15TCq1    O4  235   4.623   0.629   1.532  0.5230 -0.1983 -0.0340
   15TCq1    C9  236   4.392   0.896   1.887 -0.6755 -0.4421 -0.5300
   15TCq1    O5  237   4.495   0.863   1.946 -0.1827 -0.4024 -0.2394
   15TCq1    O6  238   4.294   0.958   1.943 -1.1520  0.2267 -0.3932
   15TCq1    H1  239   4.300   1.022   1.339  0.5855  0.4134  0.6290
   15TCq1    H2  240   4.218   1.023   1.728 -1.2683 -2.5116  2.9588
   15TCq1    H3  241   4.532   0.731   1.738  0.6507  1.6512  2.5689
   15TCq1    H4  242   4.335   0.835   1.367 -1.9037 -0.5673  1.0545
   16MPD2     C  243   4.619   0.739   1.109  0.4309 -0.2749 -0.0002
   16MPD2    C1  244   4.645   0.687   1.232  0.4832 -0.7907 -0.4402
   16MPD2    C2  245   0.018   0.594   1.262 -0.1719 -0.2962  0.3848
   16MPD2    C3  246   0.075   0.524   1.157 -0.5137  0.0386 -0.2679
   16MPD2    C4  247   0.050   0.569   1.027  0.2532  0.4074  0.4501
   16MPD2    C5  248   4.694   0.680   1.009  0.2041  0.1151 -0.2123
   16MPD2     H  249   0.035   0.556   1.362  0.9943 -0.1921  0.2293
   16MPD2    H1  250   0.102   0.524   0.943  0.8351 -1.2749  1.7176
   16MPD2    H2  251   4.552   0.822   1.091  0.4873 -0.0093  0.9736
   16MPD2    H3  252   4.679   0.702   0.904  2.4383  0.6908 -0.3909
   16MPD2     N  253   0.159   0.410   1.185  0.3324 -0.3440 -0.4040
   16MPD2    H5  254   0.156   0.377   1.281 -1.0369 -1.4536 -0.8350
   16MPD2    N1  255   4.555   0.742   1.333 -0.3953 -0.4624  0.1839
   16MPD2    H7  256   4.493   0.812   1.294  1.1279  0.6130 -0.3423
   17TCq1    O1  257   3.387   1.038  11.309  0.0538 -0.0405  0.0530
   17TCq1    C1  258   3.495   1.112  11.334  0.3615  0.8720  0.0383
   17TCq1    O2  259   3.554   1.187  11.256 -0.1468  0.0662  0.4260
   17TCq1    C2  260   3.529   1.096  11.478 -0.2038 -0.5243  0.8099
   17TCq1    C3  261   3.536   0.967  11.526  0.3850 -0.3273 -0.6374
   17TCq1    C4  262   3.620   0.949  11.633  0.6637  0.9347  1.2526
   17TCq1    C5  263   3.686   1.051  11.696 -0.5120  0.0154  0.6995
   17TCq1    C6  264   3.676   1.173  11.643  0.4725  0.4029  0.1751
   17TCq1    C7  265   3.597   1.199  11.535 -0.5531  0.5592 -0.7597
   17TCq1    C8  266   3.784   1.267  11.683  0.1312  0.0455  1.0994
   17TCq1    O4  267   3.818   1.260  11.800 -0.1541 -0.1350  0.4506
   17TCq1    C9  268   3.652   0.813  11.671 -0.2271  0.1650 -0.1470
   17TCq1    O5  269   3.763   0.797  11.733  0.4776  0.0478 -0.9183
   17TCq1    O6  270   3.580   0.726  11.617  0.9570 -1.0094  0.1035
   17TCq1    H1  271   3.354   1.002  11.394 -0.9339  1.7098  0.4062
   17TCq1    H2  272   3.505   0.884  11.463 -0.8443 -0.4998  0.1687
   17TCq1    H3  273   3.749   1.027  11.782 -0.9572  0.5427  1.1756
   17TCq1    H4  274   3.581   1.296  11.489 -0.5669  1.3375  0.8801
   18MPD2     C  275   3.993   1.469  11.709  0.1776  0.2771  0.4460
   18MPD2    C1  276   3.908   1.462  11.601  0.9966  0.7950 -0.3012
   18MPD2    C2  277   3.923   1.548  11.488 -0.7857  0.1347 -0.0126
   18MPD2    C3  278   4.020   1.645  11.487 -0.2714 -0.3943 -0.3364
   18MPD2    C4  279   4.109   1.652  11.590  0.0117 -0.3799 -0.1369
   18MPD2    C5  280   4.090   1.570  11.704  0.0953 -0.6185 -0.9654
   18MPD2     H  281   3.855   1.532  11.405 -1.1879 -1.5046  0.6280
   18MPD2    H1  282   4.194   1.720  11.597 -0.7678  0.5937 -0.1942
   18MPD2    H2  283   3.987   1.405  11.797  4.9058  1.6175  1.7331
   18MPD2    H3  284   4.161   1.573  11.785  0.0834 -3.1131 -0.8648
   18MPD2     N  285   4.047   1.729  11.376 -0.4200 -0.0870  0.5495
   18MPD2    H5  286   4.141   1.768  11.383 -0.2238 -0.3055 -0.8876
   18MPD2    N1  287   3.805   1.359  11.589  0.3208 -0.0503 -0.6032
   18MPD2    H7  288   3.746   1.355  11.507  0.2543  4.4579 -0.8053
   19TMC2    C1  289   4.641   1.494  13.851  0.8070 -1.1220  1.0148
   19TMC2    C2  290   4.609   1.553  13.737 -0.4826 -0.7035 -0.2123
   19TMC2    C3  291   4.471   1.579  13.715 -0.0668 -0.1917  0.1415
   19TMC2    C4  292   4.554   1.440  13.941 -0.0579  0.3024  0.5675
   19TMC2    C5  293   4.421   1.457  13.904  0.2732  0.5636 -0.0019
   19TMC2    C6  294   4.382   1.522  13.790  0.1550  0.0842  0.5635
   19TMC2     C  295   0.064   1.499  13.884 -0.5505  0.6117 -0.5183
   19TMC2     O  296   0.133   1.562  13.804  0.0342  0.2162  0.3972
   19TMC2     H  297   4.676   1.593  13.661 -0.0521  0.6946  0.8966
   19TMC2    H1  298   4.587   1.388  14.030 -1.8609 -1.1038  0.4380
   19TMC2    H2  299   4.280   1.532  13.757  0.8010 -2.1819 -2.0771
   19TMC2    C7  300   4.329   1.375  13.974 -0.5821  0.2334 -0.1761
   19TMC2    C8  301   4.442   1.602  13.572 -0.6090  0.1593  0.2416
   19TMC2    O1  302   4.367   1.311  14.073 -0.4243  0.2818  0.5075
   19TMC2    O2  303   4.335   1.573  13.520 -0.6613 -0.4613 -0.8812
   19TMC2    O5  304   4.508   1.714  13.546 -0.0452  0.2174 -0.2433
   19TMC2    H5  305   4.548   1.739  13.632  0.5903 -1.3891 -0.0656
   20MPD2     C  306   0.322   1.546  14.018  0.4568 -0.6348 -0.4819
   20MPD2    C1  307   0.221   1.470  14.075  0.6211 -0.6118  0.0185
   20MPD2    C2  308   0.249   1.410  14.196  0.5892 -0.2008  0.3772
   20MPD2    C3  309   0.372   1.426  14.261 -0.2576  0.0810  0.9540
   20MPD2    C4  310   0.467   1.505  14.203  0.0568 -0.1332  0.5088
   20MPD2    C5  311   0.435   1.567  14.082  0.0516 -0.1511 -0.5575
   20MPD2     H  312   0.173   1.348  14.244  0.6117 -0.1940  0.4216
   20MPD2    H1  313   0.565   1.524  14.245  0.9391 -1.0687 -1.0963
   20MPD2    H2  314   0.315   1.600  13.925 -2.2242  1.3995  0.8809
   20MPD2    H3  315   0.509   1.636  14.043 -0.5541  1.6385  1.4671
   20MPD2     N  316   0.407   1.369  14.386  0.1584  0.0504 -0.3531
   20MPD2    H5  317   0.506   1.369  14.410  0.7230  0.0753 -2.6498
   20MPD2    N1  318   0.096   1.450  14.010  0.4918 -0.2388  0.1504
   20MPD2    H7  319   0.026   1.397  14.061 -2.0939  3.1163  0.1017
   21MPD2     C  320   2.702   1.963  14.389  0.3282  0.0119 -0.2034
   21MPD2    C1  321   2.712   1.863  14.297 -0.1223  0.5335  0.5266
   21MPD2    C2  322   2.641   1.879  14.179  0.8526 -0.6466 -0.1197
   21MPD2    C3  323   2.556   1.987  14.159  0.0167  0.0723  0.0487
   21MPD2    C4  324   2.547   2.090  14.255  0.0909 -0.2010  0.0088
   21MPD2    C5  325   2.614   2.069  14.373 -0.1500 -0.3818 -1.0600
   21MPD2     H  326   2.654   1.802  14.104 -1.6302 -0.7765 -0.4093
   21MPD2    H1  327   2.480   2.175  14.246  2.8956  1.6588 -3.4915
   21MPD2    H2  328   2.751   1.969  14.486  0.0265  1.8462 -0.1630
   21MPD2    H3  329   2.597   2.153  14.439  0.8316  0.0119 -1.3064
   21MPD2     N  330   2.465   1.998  14.049 -0.1710  0.2355  0.1621
   21MPD2    H5  331   2.395   2.070  14.064  1.7625  2.4507 -1.3875
   21MPD2    N1  332   2.799   1.745  14.306  0.6204 -0.0264  0.5488
   21MPD2    H7  333   2.815   1.693  14.221 -0.6795 -1.2869  1.0586
   22TCq2    C1  334   2.479   1.928  13.928 -0.0408  0.5185  1.1939
   22TCq2    O2  335   2.568   1.858  13.886 -0.3642  0.3055  0.0804
   22TCq2    C2  336   2.367   1.934  13.840  0.7199 -0.1037  0.5725
   22TCq2    C3  337   2.374   1.847  13.728 -0.0216  0.2764 -0.4342
   22TCq2    C4  338   2.256   1.780  13.693 -0.5035 -0.1625 -0.0635
   22TCq2    C5  339   2.140   1.814  13.757 -0.6514  0.1440  0.2896
   22TCq2    C6  340   2.132   1.916  13.850 -0.3268  0.3561  0.9020
   22TCq2    C7  341   2.245   1.989  13.887 -0.5295 -0.0201  0.7993
   22TCq2    C8  342   2.033   1.894  13.954  0.2453 -0.3412 -0.3660
   22TCq2    O4  343   1.973   1.786  13.949  0.1239 -0.1597 -0.1516
   22TCq2    C9  344   2.267   1.671  13.600 -0.2287 -0.0853  0.1285
   22TCq2    O5  345   2.382   1.639  13.571  0.0316 -0.2321 -0.4733
   22TCq2    O6  346   2.163   1.601  13.594  0.1836 -0.0017  0.0088
   22TCq2    H2  347   2.472   1.809  13.701  0.0186  0.4549 -0.5403
   22TCq2    H3  348   2.046   1.766  13.732 -0.3744  0.6940 -1.7916
   22TCq2    H4  349   2.245   2.048  13.978  1.0295  1.5332 -0.2098
   23MPD2     C  350   3.919   2.723  15.318  0.3865 -0.0509  0.9661
   23MPD2    C1  351   3.845   2.627  15.374 -0.1041  0.2430  0.4545
   23MPD2    C2  352   3.729   2.581  15.310 -0.6920  0.0253  0.2216
   23MPD2    C3  353   3.682   2.652  15.200 -1.0036 -0.0022 -0.0565
   23MPD2    C4  354   3.763   2.755  15.144  0.1943  0.2045 -0.2472
   23MPD2    C5  355   3.874   2.795  15.208 -0.8385  1.1788 -0.0001
   23MPD2     H  356   3.665   2.508  15.358 -0.4940  0.0009  0.4471
   23MPD2    H1  357   3.743   2.798  15.047  0.1252 -1.5064 -0.9874
   23MPD2    H2  358   4.014   2.748  15.363  1.7188 -0.4902 -1.5962
   23MPD2    H3  359   3.930   2.882  15.175  0.1095  0.7196  0.4032
   23MPD2     N  360   3.556   2.631  15.135  0.5773  0.2461  0.1328
   23MPD2    H5  361   3.541   2.684  15.050  0.1780 -1.1666 -0.6623
   23MPD2    N1  362   3.891   2.558  15.495  0.7834  0.1215 -0.1085
   23MPD2    H7  363   3.837   2.474  15.515  2.0167 -0.4963  0.6613
   24TCq2    C1  364   3.459   2.543  15.181  0.0107  1.0832 -0.8786
   24TCq2    O2  365   3.464   2.472  15.274  0.3712  0.4411 -0.6913
   24TCq2    C2  366   3.352   2.526  15.086  0.3172 -0.9700 -0.4820
   24TCq2    C3  367   3.344   2.583  14.963  0.1983 -0.1137 -0.3469
   24TCq2    C4  368   3.229   2.569  14.890 -0.1878 -0.2944  0.0047
   24TCq2    C5  369   3.123   2.499  14.933 -0.1046  0.3037 -0.1318
   24TCq2    C6  370   3.133   2.439  15.056 -0.5994 -0.0335 -0.1834
   24TCq2    C7  371   3.249   2.449  15.130 -0.3200 -0.3114  0.6249
   24TCq2    C8  372   3.034   2.337  15.098  0.4996  1.0051  0.0902
   24TCq2    O4  373   3.069   2.247  15.179 -0.2507 -0.1919  0.4045
   24TCq2    C9  374   3.232   2.626  14.755 -0.2512  0.7028 -0.5254
   24TCq2    O5  375   3.123   2.616  14.692 -0.0196 -0.2534  0.1340
   24TCq2    O6  376   3.340   2.645  14.695  0.7279  0.2214 -0.1742
   24TCq2    H2  377   3.425   2.643  14.924 -1.1260  0.2757 -2.5243
   24TCq2    H3  378   3.040   2.479  14.865 -0.1300  2.5604 -0.7606
   24TCq2    H4  379   3.254   2.394  15.223  1.0565  0.5894  1.0890
   25TMC2    C1  380   2.921   0.376  11.449  0.0758 -0.0795 -0.1081
   25TMC2    C2  381   3.033   0.434  11.506 -1.1128 -0.1241  0.5933
   25TMC2    C3  382   3.030   0.475  11.639 -0.0122 -0.5185  0.3193
   25TMC2    C4  383   2.808   0.353  11.538  0.0013  0.1379 -0.1469
   25TMC2    C5  384   2.818   0.390  11.670 -0.6087  0.6364 -0.5786
   25TMC2    C6  385   2.924   0.453  11.720 -0.3334  0.0272  0.0607
   25TMC2     C  386   2.941   0.276  11.343  0.9562  1.1466 -0.2048
   25TMC2     O  387   3.055   0.263  11.300 -0.0794  0.5164  0.1396
   25TMC2     H  388   3.129   0.429  11.458 -0.8209  0.8219  1.0721
   25TMC2    H1  389   2.716   0.309  11.499  0.7448 -2.1881  0.7252
   25TMC2    H2  390   2.930   0.475  11.826  0.3137 -2.6171  0.5829
   25TMC2    C7  391   2.697   0.398  11.749 -0.5132  0.3315 -0.3544
   25TMC2    C8  392   3.149   0.537  11.703  0.2475  0.9235 -0.7241
   25TMC2    O1  393   2.711   0.403  11.869 -0.5562  0.0735 -0.0078
   25TMC2    O2  394   3.260   0.537  11.649  0.1212 -0.0992  0.1932
   25TMC2    O5  395   3.105   0.641  11.777 -0.2013 -0.2193 -0.3820
   25TMC2    H5  396   3.007   0.652  11.770 -0.2115 -1.9251 -3.0788
   26MPD2     C  397   2.776   4.594  11.081  0.7102  0.0938 -0.4586
   26MPD2    C1  398   2.668   4.656  11.137  0.4719 -0.2493  0.0771
   26MPD2    C2  399   2.689   0.040  11.218  0.2570  0.1854 -0.5456
   26MPD2    C3  400   2.815   0.099  11.226  0.4549  0.1455 -0.2850
   26MPD2    C4  401   2.917   0.039  11.162 -0.2173 -0.4459 -0.7224
   26MPD2    C5  402   2.899   4.649  11.091  0.2040 -0.0738 -0.1635
   26MPD2     H  403   2.610   0.082  11.278  0.5767 -1.5941  1.1042
   26MPD2    H1  404   3.017   0.080  11.176 -1.1044  1.5678 -0.3229
   26MPD2    H2  405   2.757   4.511  11.013  0.7481  0.2847 -0.7007
   26MPD2    H3  406   2.973   4.588  11.040  2.1677  0.1802  2.3746
   26MPD2     N  407   2.825   0.210  11.306 -0.2626 -0.2823 -0.2882
   26MPD2    H5  408   2.741   0.253  11.342 -0.4123 -1.3062  0.5842
   26MPD2    N1  409   2.551   4.592  11.133  0.1616  0.2452  0.3618
   26MPD2    H7  410   2.550   4.519  11.063  1.0364  0.8441 -0.2742
   27TMC2    C1  411   1.749   2.725  12.358 -0.2323 -0.5163 -0.3660
   27TMC2    C2  412   1.873   2.683  12.384  0.7445  0.1125  0.9651
   27TMC2    C3  413   1.941   2.760  12.470 -0.1812 -1.0887  1.1404
   27TMC2    C4  414   1.700   2.840  12.409  0.2195  0.3495 -0.2805
   27TMC2    C5  415   1.769   2.913  12.496  0.2893 -0.0038  0.8473
   27TMC2    C6  416   1.891   2.866  12.539 -0.2362 -0.2391  0.1766
   27TMC2     C  417   1.657   2.616  12.354  0.3703 -0.1471 -0.0733
   27TMC2     O  418   1.677   2.526  12.274  0.0440 -0.0797  1.2577
   27TMC2     H  419   1.917   2.592  12.343  3.3222  1.8120 -0.0530
   27TMC2    H1  420   1.597   2.867  12.389  0.9775  1.5759 -2.5076
   27TMC2    H2  421   1.943   2.919  12.618 -0.0311 -0.2494  0.0484
   27TMC2    C7  422   1.684   2.925  12.616 -0.4071  0.4120  0.0102
   27TMC2    C8  423   2.037   2.688  12.549  0.2798  1.0450 -0.3548
   27TMC2    O1  424   1.582   2.859  12.620 -0.1966  0.0344  0.2411
   27TMC2    O2  425   1.989   2.625  12.642 -0.4982 -0.6975  0.8896
   27TMC2    O5  426   2.139   2.770  12.567  0.2424 -0.5945 -0.4068
   27TMC2    H5  427   2.160   2.805  12.478  1.1900  2.1111  0.8750
   28MPD2     C  428   1.237   2.377  12.533 -0.5035  0.2777 -0.1988
   28MPD2    C1  429   1.243   2.492  12.599 -0.1062 -0.2785  0.2816
   28MPD2    C2  430   1.351   2.576  12.576 -0.4839  0.6244  0.5598
   28MPD2    C3  431   1.441   2.551  12.469  0.1904 -0.5805 -0.3443
   28MPD2    C4  432   1.428   2.437  12.402  0.5949 -0.0790  0.0917
   28MPD2    C5  433   1.335   2.347  12.447 -0.5673 -0.5648  0.8879
   28MPD2     H  434   1.358   2.667  12.634  1.9982  0.1275  1.0346
   28MPD2    H1  435   1.501   2.408  12.327 -0.0492 -0.7043 -0.2955
   28MPD2    H2  436   1.166   2.296  12.544  0.3701 -0.3659  0.8325
   28MPD2    H3  437   1.310   2.257  12.391 -1.6976 -1.0816  2.2165
   28MPD2     N  438   1.550   2.640  12.443  0.2525 -0.0302 -0.1500
   28MPD2    H5  439   1.550   2.718  12.508  0.2917 -0.6560  0.5917
   28MPD2    N1  440   1.145   2.521  12.703  0.6765 -0.2379  0.1370
   28MPD2    H7  441   1.064   2.460  12.704  1.4329 -1.2268 -0.0521
   29MPD2     C  442   0.461   4.589  14.254 -0.2144 -0.2193  0.8927
   29MPD2    C1  443   0.578   4.597  14.330 -0.7554 -0.4833  0.5924
   29MPD2    C2  444   0.614   4.718  14.383 -0.2578 -0.0340  0.1395
   29MPD2    C3  445   0.527   0.102  14.380  0.0115 -0.1383 -0.3329
   29MPD2    C4  446   0.424   0.093  14.292  0.1396  0.2665 -0.0976
   29MPD2    C5  447   0.397   4.699  14.230  0.5626 -0.1567  0.2671
   29MPD2     H  448   0.704   4.724  14.443  0.1689 -0.0473 -0.4968
   29MPD2    H1  449   0.353   0.173  14.276  0.3558  0.0522 -2.1588
   29MPD2    H2  450   0.434   4.493  14.211  0.9441  0.4929 -1.4455
   29MPD2    H3  451   0.309   4.685  14.168  1.4956 -3.3810 -0.3291
   29MPD2     N  452   0.550   0.222  14.442 -0.6111  0.1577  0.0377
   29MPD2    H5  453   0.488   0.298  14.414 -0.9565 -0.0938  0.1224
   29MPD2    N1  454   0.666   4.484  14.337 -0.4989 -0.4113 -0.0388
   29MPD2    H7  455   0.756   4.503  14.380 -1.4824  1.3652  1.2331
   30TCq2    C1  456   0.635   0.237  14.546 -0.3658  0.1290 -0.1379
   30TCq2    O2  457   0.690   0.155  14.616 -0.8556 -0.0476 -0.0222
   30TCq2    C2  458   0.631   0.370  14.596 -0.1089  0.1738  0.3315
   30TCq2    C3  459   0.636   0.388  14.731  0.0037  0.4234  0.1732
   30TCq2    C4  460   0.615   0.508  14.787 -1.0139 -0.6971  0.1032
   30TCq2    C5  461   0.601   0.616  14.707  0.7319 -0.5834  0.2326
   30TCq2    C6  462   0.595   0.603  14.570 -1.2498  0.0402 -0.7132
   30TCq2    C7  463   0.611   0.476  14.511 -0.6321  0.3624 -0.0240
   30TCq2    C8  464   0.587   0.724  14.486 -0.4762  0.1676  0.5087
   30TCq2    O4  465   0.541   0.704  14.374  0.5200 -0.1876 -0.1678
   30TCq2    C9  466   0.616   0.514  14.931 -0.0266  0.6726 -0.4468
   30TCq2    O5  467   0.654   0.626  14.982  0.4263  0.9616 -0.0636
   30TCq2    O6  468   0.612   0.407  15.000 -0.3391  0.2364 -0.0076
   30TCq2    H2  469   0.632   0.299  14.792 -0.4088  1.8731  2.2492
   30TCq2    H3  470   0.592   0.704  14.770 -1.4983 -0.8386  0.2554
   30TCq2    H4  471   0.615   0.472  14.402  0.6074  0.2515  0.0271
   31MPD2     C  472   3.425   3.919  14.576 -0.0356 -0.3897 -0.7686
   31MPD2    C1  473   3.348   3.875  14.475 -0.0250  0.8099 -0.8141
   31MPD2    C2  474   3.300   3.741  14.477 -0.0092 -0.1610 -1.0533
   31MPD2    C3  475   3.314   3.664  14.595 -0.4230  0.1324 -0.2248
   31MPD2    C4  476   3.387   3.719  14.699 -0.3713  0.4772 -0.2329
   31MPD2    C5  477   3.446   3.847  14.690 -0.2625  0.4796  0.8961
   31MPD2     H  478   3.247   3.704  14.389 -0.1404 -0.7262 -0.7347
   31MPD2    H1  479   3.411   3.662  14.788 -0.9687  1.2655  0.4412
   31MPD2    H2  480   3.478   4.012  14.562 -0.8296 -0.1994 -2.5275
   31MPD2    H3  481   3.518   3.883  14.763  2.0087 -0.3558 -0.8999
   31MPD2     N  482   3.286   3.529  14.609  0.5198 -0.5263 -0.3616
   31MPD2    H5  483   3.294   3.491  14.703  0.9262  0.5911  0.0525
   31MPD2    N1  484   3.337   3.953  14.361  0.6124  0.5442 -0.0090
   31MPD2    H7  485   3.406   4.028  14.357  0.1019  1.0309  0.3708
   32TCq2    C1  486   3.241   3.444  14.514  0.2496 -0.0084 -0.4556
   32TCq2    O2  487   3.207   3.471  14.399 -0.2161  0.2117  0.0289
   32TCq2    C2  488   3.227   3.304  14.567 -0.9829 -0.3129  0.1237
   32TCq2    C3  489   3.155   3.221  14.490  0.0630 -0.1771 -0.1371
   32TCq2    C4  490   3.134   3.092  14.533  0.7132  0.2897 -0.0092
   32TCq2    C5  491   3.179   3.058  14.658 -0.3363  0.3813 -0.3048
   32TCq2    C6  492   3.244   3.149  14.734 -0.1963  0.9013 -0.0092
   32TCq2    C7  493   3.281   3.273  14.692  0.2534  0.7124  0.1767
   32TCq2    C8  494   3.273   3.114  14.868 -0.4290  0.1550 -1.1365
   32TCq2    O4  495   3.373   3.160  14.918 -0.5470  0.2033  0.1302
   32TCq2    C9  496   3.054   3.002  14.453  0.1079  0.1251  0.3332
   32TCq2    O5  497   2.954   3.055  14.395  0.2865 -0.1051  0.0884
   32TCq2    O6  498   3.052   2.875  14.476 -0.5163  0.9505 -0.6157
   32TCq2    H2  499   3.124   3.255  14.392  1.9055  0.4095 -0.5127
   32TCq2    H3  500   3.169   2.954  14.688 -0.4213 -0.0516 -1.8294
   32TCq2    H4  501   3.332   3.340  14.761  3.7201 -0.7923 -0.9297
   33MPD2     C  502   3.553   1.725  10.822 -0.4386 -0.0705 -0.4453
   33MPD2    C1  503   3.668   1.744  10.753 -0.4231 -0.1241  0.2002
   33MPD2    C2  504   3.658   1.761  10.619 -0.2733 -0.1702  0.1642
   33MPD2    C3  505   3.538   1.744  10.551 -0.1935 -0.0473  1.5973
   33MPD2    C4  506   3.421   1.729  10.621 -0.3977  0.0271  1.0073
   33MPD2    C5  507   3.439   1.720  10.756  0.1314 -0.5225 -0.2207
   33MPD2     H  508   3.752   1.784  10.569 -1.1425  1.8256 -0.5629
   33MPD2    H1  509   3.320   1.707  10.587 -0.6411 -0.5825  2.0994
   33MPD2    H2  510   3.563   1.704  10.928 -0.6979 -0.0608 -0.4181
   33MPD2    H3  511   3.350   1.699  10.815 -1.1738  1.9488 -1.3065
   33MPD2     N  512   3.522   1.757  10.409 -0.3870  0.1186  1.1370
   33MPD2    H5  513   3.428   1.740  10.374 -0.2125 -0.7414  1.1084
   33MPD2    N1  514   3.782   1.745  10.838 -0.1001  0.1806 -0.0899
   33MPD2    H7  515   3.769   1.726  10.937  0.7926  0.4636  0.0842
   34TCq2    C1  516   3.622   1.791  10.319 -0.1135 -0.3560  0.4468
   34TCq2    O2  517   3.733   1.834  10.342 -0.3231 -0.0173  0.1876
   34TCq2    C2  518   3.575   1.809  10.181  0.0836 -0.4525  0.1241
   34TCq2    C3  519   3.450   1.753  10.164 -0.2546  0.4004  0.2117
   34TCq2    C4  520   3.381   1.803  10.062  0.8862  0.4274  0.7660
   34TCq2    C5  521   3.420   1.914   9.991  0.7367  0.8398 -0.0983
   34TCq2    C6  522   3.538   1.974  10.015 -0.3397 -0.7067  0.2245
   34TCq2    C7  523   3.618   1.918  10.113  0.6067 -0.0111 -0.0641
   34TCq2    C8  524   3.591   2.075   9.924  0.6863 -0.4940  0.0774
   34TCq2    O4  525   3.700   2.123   9.949 -0.0487  0.0604 -0.9384
   34TCq2    C9  526   3.250   1.746  10.028  0.2922  0.1493  0.7609
   34TCq2    O5  527   3.194   1.778   9.918 -0.6617  0.6734 -0.2168
   34TCq2    O6  528   3.206   1.645  10.094  0.3048 -0.8706 -0.5988
   34TCq2    H2  529   3.426   1.662  10.217  0.4444  1.0456  1.6504
   34TCq2    H3  530   3.346   1.962   9.928 -0.1059 -1.2858 -0.7229
   34TCq2    H4  531   3.707   1.975  10.138  0.2535  0.9093 -0.8972
   35MPD2     C  532   0.994   3.377  12.194 -0.4470  0.0078  0.2639
   35MPD2    C1  533   0.896   3.280  12.175 -0.4366  0.3283  0.9600
   35MPD2    C2  534   0.839   3.264  12.052 -0.5940  0.6547  0.1742
   35MPD2    C3  535   0.877   3.338  11.941  0.6151 -0.0788  0.6101
   35MPD2    C4  536   0.981   3.425  11.957  0.3999  0.0711 -0.2636
   35MPD2    C5  537   1.036   3.446  12.078  0.4216 -0.2584  0.1574
   35MPD2     H  538   0.755   3.197  12.044  0.7567 -0.6969 -2.7987
   35MPD2    H1  539   1.026   3.481  11.875  0.1033  0.7740  0.0502
   35MPD2    H2  540   1.046   3.397  12.287  0.1805 -0.9322  0.1228
   35MPD2    H3  541   1.120   3.510  12.099  0.2599  0.4137 -1.2329
   35MPD2     N  542   0.809   3.308  11.821  0.3630 -0.6834 -0.0713
   35MPD2    H5  543   0.747   3.228  11.827  0.6481 -0.8590  0.5945
   35MPD2    N1  544   0.848   3.212  12.287 -0.6132  0.0733  0.5128
   35MPD2    H7  545   0.910   3.217  12.367 -1.1619 -0.4764  0.9753
   36TCq2    C1  546   0.840   3.356  11.696  0.4279 -0.4518  0.0627
   36TCq2    O2  547   0.911   3.449  11.660 -0.1839 -0.0316 -0.0812
   36TCq2    C2  548   0.763   3.286  11.587  0.7623 -0.1939 -0.0090
   36TCq2    C3  549   0.757   3.348  11.466 -0.2816 -0.3859  0.0147
   36TCq2    C4  550   0.701   3.282  11.357 -0.1784  0.1763  0.3951
   36TCq2    C5  551   0.659   3.154  11.366 -0.3888  0.4006 -0.5347
   36TCq2    C6  552   0.672   3.097  11.489 -0.6477 -0.2539 -0.4859
   36TCq2    C7  553   0.718   3.163  11.605 -0.1645  0.4623  0.3771
   36TCq2    C8  554   0.619   2.961  11.505  0.5593  0.0825 -0.1264
   36TCq2    O4  555   0.640   2.902  11.608  0.4886 -0.0499  0.8232
   36TCq2    C9  556   0.676   3.354  11.239 -0.3913  0.3834 -0.2612
   36TCq2    O5  557   0.648   3.298  11.134 -0.1420  0.3328  0.3409
   36TCq2    O6  558   0.674   3.482  11.250  0.3650  0.1797  0.6099
   36TCq2    H2  559   0.775   3.455  11.455 -1.2233 -0.2736 -0.3980
   36TCq2    H3  560   0.627   3.113  11.271 -2.2171  2.5081 -0.8345
   36TCq2    H4  561   0.735   3.102  11.693 -1.0412  0.2677  0.4189
   37TMC2    C1  562   2.598   2.238  11.583 -0.0604  0.5339  0.0487
   37TMC2    C2  563   2.577   2.161  11.472  0.9669  0.2572 -0.8309
   37TMC2    C3  564   2.685   2.150  11.384 -0.1066  0.0594 -0.6078
   37TMC2    C4  565   2.717   2.303  11.610  0.0177 -0.2995 -0.8637
   37TMC2    C5  566   2.821   2.288  11.525  0.0085  0.5858  0.0043
   37TMC2    C6  567   2.812   2.204  11.410  0.2899  0.1933  0.8496
   37TMC2     C  568   2.482   2.275  11.654  0.4129  0.0754 -0.2670
   37TMC2     O  569   2.375   2.236  11.609 -0.1561 -0.1165  0.1828
   37TMC2     H  570   2.482   2.110  11.456  0.9741 -0.0766  0.2002
   37TMC2    H1  571   2.718   2.386  11.680  1.4776 -1.5748  0.6378
   37TMC2    H2  572   2.892   2.188  11.339 -0.7179 -2.8681  0.3981
   37TMC2    C7  573   2.934   2.378  11.542  0.1769  0.0786  0.1001
   37TMC2    C8  574   2.690   2.023  11.317  0.0918 -0.1677  0.0302
   37TMC2    O1  575   2.942   2.442  11.645  0.1457 -0.3542 -0.5841
   37TMC2    O2  576   2.790   1.950  11.312 -0.0861 -0.8014 -0.5137
   37TMC2    O5  577   2.594   2.030  11.222  0.2219  0.7003  0.0760
   37TMC2    H5  578   2.551   2.119  11.225 -1.6669 -0.2205  0.3720
   38MPD2     C  579   2.211   2.470  12.040 -0.1204  0.1349 -0.1908
   38MPD2    C1  580   2.343   2.448  12.082  0.5345 -0.5586  0.3080
   38MPD2    C2  581   2.433   2.398  11.991  0.2022  0.7418 -0.3683
   38MPD2    C3  582   2.395   2.363  11.864 -0.4171 -0.2356 -0.4063
   38MPD2    C4  583   2.265   2.389  11.817 -0.5541 -0.0724 -0.3537
   38MPD2    C5  584   2.183   2.457  11.903 -0.4752  0.3059 -0.6468
   38MPD2     H  585   2.537   2.387  12.020 -0.3446 -0.9401  0.9571
   38MPD2    H1  586   2.225   2.357  11.722  1.5963 -0.4583 -1.1354
   38MPD2    H2  587   2.130   2.514  12.097 -2.8082 -0.4113 -3.5976
   38MPD2    H3  588   2.081   2.474  11.871 -0.7961 -0.6392 -0.1194
   38MPD2     N  589   2.503   2.327  11.776  0.3954  0.0408 -0.2975
   38MPD2    H5  590   2.599   2.334  11.811  0.2045 -2.0213  0.6579
   38MPD2    N1  591   2.390   2.468  12.214 -0.8060 -0.2349 -0.1296
   38MPD2    H7  592   2.490   2.466  12.231 -0.6414 -0.1074 -1.0432
   39MPD2     C  593   0.967   4.495   1.347  0.7700  0.7528 -0.0978
   39MPD2    C1  594   0.917   4.537   1.467 -0.0035 -0.7004 -0.4617
   39MPD2    C2  595   0.781   4.541   1.491  0.0765 -0.3234  0.6605
   39MPD2    C3  596   0.693   4.490   1.397  0.1318 -0.3596  0.5001
   39MPD2    C4  597   0.744   4.452   1.274 -0.3251 -0.6886 -0.4668
   39MPD2    C5  598   0.878   4.455   1.248 -0.5077 -1.2640  0.0960
   39MPD2     H  599   0.737   4.553   1.589  0.2028  2.1531  0.4046
   39MPD2    H1  600   0.684   4.399   1.201  1.2369 -2.5490 -0.4034
   39MPD2    H2  601   1.073   4.498   1.326  0.3980 -0.2178 -2.1372
   39MPD2    H3  602   0.923   4.415   1.158  0.1517  1.6261 -0.8615
   39MPD2     N  603   0.554   4.481   1.410  0.4547  0.2933  0.2278
   39MPD2    H5  604   0.498   4.461   1.328 -1.7663 -0.3931  1.8979
   39MPD2    N1  605   1.018   4.570   1.560  0.2401  0.3375 -0.3265
   39MPD2    H7  606   1.109   4.556   1.516  0.0400 -0.9477 -0.3518
   40TCq2    C1  607   1.007   4.615   1.685 -0.1728 -0.4279  1.0388
   40TCq2    O2  608   0.901   4.626   1.745 -0.6572  0.2129 -0.4894
   40TCq2    C2  609   1.134   4.681   1.733 -0.0149  0.8313  0.5722
   40TCq2    C3  610   1.113   0.077   1.798 -0.2107 -0.0947  0.5372
   40TCq2    C4  611   1.215   0.162   1.799 -0.2354  0.2699 -0.3548
   40TCq2    C5  612   1.338   0.127   1.744  0.5102 -0.1338 -0.7917
   40TCq2    C6  613   1.354   4.720   1.700  0.2804 -0.0048  0.0215
   40TCq2    C7  614   1.249   4.640   1.677  0.0097 -0.1859  0.9955
   40TCq2    C8  615   1.467   4.672   1.620  0.1159  0.3106 -0.0498
   40TCq2    O4  616   1.480   4.555   1.594  0.7084  0.3951  0.2017
   40TCq2    C9  617   1.201   0.283   1.876  0.2569 -0.3559  0.3530
   40TCq2    O5  618   1.298   0.361   1.871  0.2051 -0.5213 -0.3151
   40TCq2    O6  619   1.097   0.296   1.950 -0.5525 -0.3773  0.0910
   40TCq2    H2  620   1.012   0.093   1.831 -1.4732  0.6459 -3.6027
   40TCq2    H3  621   1.430   0.177   1.771  0.3387  0.2879 -0.9879
   40TCq2    H4  622   1.267   4.537   1.647  0.6881  0.8757 -2.2279
   41TMC2    C1  623   4.286   3.219  13.736 -0.3336  1.0360  0.4137
   41TMC2    C2  624   4.239   3.333  13.789 -0.0807 -0.3892  0.5079
   41TMC2    C3  625   4.244   3.441  13.709  0.7030  0.4433 -0.3445
   41TMC2    C4  626   4.314   3.204  13.600 -0.0639  0.7628  0.4613
   41TMC2    C5  627   4.313   3.318  13.527 -0.2579  0.2041  0.7035
   41TMC2    C6  628   4.262   3.433  13.578  0.8464 -1.2265 -0.1132
   41TMC2     C  629   4.376   3.149  13.826 -0.1890  0.2566 -0.3306
   41TMC2     O  630   4.475   3.105  13.772 -0.5564 -0.2124  0.3836
   41TMC2     H  631   4.228   3.345  13.897 -2.1948 -3.3360  0.6124
   41TMC2    H1  632   4.357   3.115  13.556  0.8811  0.7862  1.3460
   41TMC2    H2  633   4.250   3.520  13.515 -1.6395 -0.6764  1.1164
   41TMC2    C7  634   4.343   3.328  13.382  0.6884 -0.4671  0.6035
   41TMC2    C8  635   4.191   3.561  13.770 -0.1290 -0.6576 -1.4192
   41TMC2    O1  636   4.298   3.422  13.323 -0.5223 -0.5071 -0.0572
   41TMC2    O2  637   4.144   3.550  13.882  0.0689 -0.2223 -0.6561
   41TMC2    O5  638   4.278   3.662  13.739 -0.3673  0.0412 -0.0128
   41TMC2    H5  639   4.308   3.670  13.646 -1.0374  2.6532 -0.0320
   42MPD2     C  640   4.533   3.005  14.040 -0.1868  0.2847  1.0737
   42MPD2    C1  641   4.411   3.068  14.063 -0.4274  0.0483  0.6516
   42MPD2    C2  642   4.355   3.060  14.188 -0.9486  0.3547  0.8609
   42MPD2    C3  643   4.413   2.980  14.284 -0.2630  0.3518  1.1222
   42MPD2    C4  644   4.513   2.893  14.247 -0.2005  0.7568 -0.4576
   42MPD2    C5  645   4.570   2.915  14.131 -0.4258  0.2708 -1.2019
   42MPD2     H  646   4.280   3.130  14.223 -1.2259  0.5200 -0.0518
   42MPD2    H1  647   4.566   2.824  14.312 -0.1022  0.3244 -0.9980
   42MPD2    H2  648   4.586   3.019  13.946 -1.3855 -0.3479  0.3103
   42MPD2    H3  649   4.651   2.848  14.101  0.7118  0.3315  1.7002
   42MPD2     N  650   4.365   2.969  14.423  0.1272  0.0237  0.2679
   42MPD2    H5  651   4.416   2.905  14.482  3.3888  1.3262 -1.1354
   42MPD2    N1  652   4.346   3.150  13.966  0.2499 -0.7778 -0.7955
   42MPD2    H7  653   4.255   3.184  13.993  0.6692  0.5848 -1.1093
   43MPD2     C  654   0.710   0.605   0.452 -0.0213 -0.8399  0.4430
   43MPD2    C1  655   0.827   0.617   0.527  0.1277  0.5919 -0.3812
   43MPD2    C2  656   0.831   0.662   0.659  0.3501 -0.5726  0.2515
   43MPD2    C3  657   0.714   0.690   0.722 -0.2809 -0.5318  0.7790
   43MPD2    C4  658   0.599   0.672   0.648 -0.5387  0.9382  0.1995
   43MPD2    C5  659   0.593   0.647   0.517 -0.2565  0.3656 -0.8249
   43MPD2     H  660   0.925   0.676   0.710 -0.1929  2.4079  0.4633
   43MPD2    H1  661   0.503   0.687   0.695 -0.9326  2.8506 -1.2346
   43MPD2    H2  662   0.699   0.579   0.347 -1.7503  2.3615 -0.1636
   43MPD2    H3  663   0.499   0.627   0.468  0.2360 -1.1895 -1.1503
   43MPD2     N  664   0.700   0.739   0.853  0.4380 -0.1598  0.2500
   43MPD2    H5  665   0.619   0.779   0.898  0.1595 -0.7583  0.2867
   43MPD2    N1  666   0.956   0.587   0.478 -0.1786 -0.1745 -0.2866
   43MPD2    H7  667   1.030   0.592   0.548  0.2674 -1.8579 -0.6515
   44TCq2    C1  668   1.027   0.951   1.302  0.1280  0.1869 -0.2770
   44TCq2    O2  669   1.122   0.877   1.264 -0.4124  0.7542  0.2709
   44TCq2    C2  670   0.908   0.949   1.217  1.0693 -0.1434 -0.2018
   44TCq2    C3  671   0.820   1.051   1.213 -0.2827 -0.6557  0.3533
   44TCq2    C4  672   0.723   1.043   1.126 -0.0674 -0.3019  0.2105
   44TCq2    C5  673   0.703   0.940   1.044  0.2178 -0.3899  0.1454
   44TCq2    C6  674   0.788   0.829   1.055  0.2871 -0.4119  0.1317
   44TCq2    C7  675   0.901   0.838   1.139  0.4863 -0.1172  0.2261
   44TCq2    C8  676   0.807   0.737   0.940 -1.0978  0.4158  0.1166
   44TCq2    O4  677   0.918   0.688   0.934  0.0081 -0.2748 -0.1857
   44TCq2    C9  678   0.628   1.153   1.121  0.3310  0.1275  0.4385
   44TCq2    O5  679   0.649   1.255   1.202  0.2099  0.4177 -0.1539
   44TCq2    O6  680   0.581   1.175   1.011  0.2684 -0.2182 -0.4938
   44TCq2    H2  681   0.824   1.135   1.280 -1.7553  0.5961 -1.1266
   44TCq2    H3  682   0.615   0.946   0.981  1.0115  1.1620 -0.8171
   44TCq2    H4  683   0.973   0.759   1.158  1.2104  0.4216 -0.2838
   45TMC2    C1  684   2.231   2.445   9.800  0.1667 -0.1762  0.3377
   45TMC2    C2  685   2.341   2.401   9.739  0.2625 -0.0202  0.1043
   45TMC2    C3  686   2.458   2.460   9.779 -0.7831 -0.3730 -0.2723
   45TMC2    C4  687   2.231   2.547   9.893 -0.6298 -0.9973  0.4792
   45TMC2    C5  688   2.351   2.601   9.925 -0.3742  0.0760 -0.3373
   45TMC2    C6  689   2.469   2.558   9.868 -0.4193 -0.1427 -0.2842
   45TMC2     C  690   2.106   2.373   9.785 -0.2321  0.4313  0.1693
   45TMC2     O  691   2.115   2.259   9.738 -0.1837  0.3368 -0.3018
   45TMC2     H  692   2.341   2.309   9.681 -0.7732  0.1520 -0.1539
   45TMC2    H1  693   2.146   2.576   9.953 -0.7261 -2.7974  1.1994
   45TMC2    H2  694   2.560   2.617   9.869 -2.4046  2.9525  1.3157
   45TMC2    C7  695   2.354   2.688  10.039 -0.5474  0.0513  0.3350
   45TMC2    C8  696   2.575   2.401   9.714 -0.2574  0.5840  0.9659
   45TMC2    O1  697   2.250   2.744  10.069  0.2949 -0.0161  0.1815
   45TMC2    O2  698   2.577   2.325   9.614 -0.4921 -0.2499 -0.6993
   45TMC2    O5  699   2.686   2.409   9.797  0.2024 -0.0848  0.0796
   45TMC2    H5  700   2.662   2.451   9.883 -1.8211  0.6205 -0.8259
   46MPD2     C  701   1.831   2.279   9.747 -0.0846  1.0221 -0.1534
   46MPD2    C1  702   1.868   2.414   9.764  0.6398  0.3813 -0.0738
   46MPD2    C2  703   1.764   2.506   9.770  0.1406  0.1879 -0.8583
   46MPD2    C3  704   1.630   2.463   9.748  0.1663 -0.2773  0.2672
   46MPD2    C4  705   1.593   2.333   9.748 -0.5115 -0.2017  0.4136
   46MPD2    C5  706   1.700   2.235   9.746 -0.4810 -0.0900 -0.1027
   46MPD2     H  707   1.790   2.611   9.781  0.1178  0.2889 -1.7124
   46MPD2    H1  708   1.493   2.293   9.739 -0.6524 -0.5077  3.3083
   46MPD2    H2  709   1.897   2.194   9.734 -0.7753  0.8419 -2.3354
   46MPD2    H3  710   1.662   2.135   9.732  1.6531 -1.2403  2.3844
   46MPD2     N  711   1.535   2.562   9.745 -0.2381 -0.3419 -0.9006
   46MPD2    H5  712   1.578   2.653   9.747  2.9836 -1.8938  0.5073
   46MPD2    N1  713   1.997   2.455   9.790  0.5980 -0.2148 -0.1477
   46MPD2    H7  714   2.008   2.556   9.798 -1.1379  0.1680 -2.6649
   47TMC2    C1  715   4.104   4.488   9.750 -0.4234 -0.1417  0.2792
   47TMC2    C2  716   4.066   4.457   9.627  0.8206  0.1444 -0.0894
   47TMC2    C3  717   3.941   4.493   9.590  0.7800 -0.3712 -0.1424
   47TMC2    C4  718   4.035   4.580   9.824 -0.0331 -0.0497  0.2176
   47TMC2    C5  719   3.910   4.617   9.785 -0.1869 -0.3293 -0.0562
   47TMC2    C6  720   3.862   4.578   9.662  0.1592 -0.0828  0.0870
   47TMC2     C  721   4.241   4.454   9.794 -0.5480 -0.3406 -0.0031
   47TMC2     O  722   4.282   4.517   9.893  0.3072  1.5770  0.1639
   47TMC2     H  723   4.133   4.403   9.561 -0.5698  0.2522 -1.5846
   47TMC2    H1  724   4.065   4.605   9.925  1.5186  0.7789 -0.4599
   47TMC2    H2  725   3.766   4.613   9.626  0.1642  0.4129  0.5509
   47TMC2    C7  726   3.823   4.705   9.872  0.1795 -0.7341  0.0539
   47TMC2    C8  727   3.892   4.443   9.462 -0.4255 -0.0941  0.6068
   47TMC2    O1  728   3.702   4.719   9.846  0.1888  0.0880  0.2654
   47TMC2    O2  729   3.772   4.426   9.447  0.4553  0.4778 -0.3304
   47TMC2    O5  730   3.984   4.485   9.372 -0.0153  1.0920 -0.2334
   47TMC2    H5  731   4.068   4.516   9.411 -0.1259 -1.4958  2.0498
   48MPD2     C  732   4.517   4.366   9.812  0.1580 -0.5233 -0.3018
   48MPD2    C1  733   4.413   4.289   9.757  0.0255  0.4125 -0.1324
   48MPD2    C2  734   4.439   4.169   9.698  0.2068 -1.1868  0.4545
   48MPD2    C3  735   4.562   4.108   9.706 -0.1754 -0.0028  0.0848
   48MPD2    C4  736   4.668   4.185   9.756 -0.3483  0.0794 -0.0599
   48MPD2    C5  737   4.644   4.310   9.809 -0.2991  0.0336  0.3552
   48MPD2     H  738   4.353   4.122   9.653 -0.2720 -0.9950  1.1689
   48MPD2    H1  739   0.047   4.152   9.762 -0.3274 -0.0292 -0.9622
   48MPD2    H2  740   4.492   4.460   9.860 -3.2564 -0.9651 -1.1997
   48MPD2    H3  741   0.001   4.364   9.857 -0.2721  0.7408 -0.4679
   48MPD2     N  742   4.566   3.971   9.663  0.0606  0.0473  0.5138
   48MPD2    H5  743   4.475   3.927   9.657 -0.3766  0.8653  1.1341
   48MPD2    N1  744   4.285   4.337   9.735 -0.2502  0.2617 -0.8244
   48MPD2    H7  745   4.216   4.288   9.679  1.5264 -1.3720 -1.5841
   49MPD2     C  746   3.267   1.027  10.437 -0.3362  0.3823 -0.3578
   49MPD2    C1  747   3.128   1.057  10.433  0.5238 -0.0098 -0.7003
   49MPD2    C2  748   3.072   1.089  10.557  0.8812  0.1389  0.2544
   49MPD2    C3  749   3.142   1.093  10.675 -0.5494 -0.6934  0.4764
   49MPD2    C4  750   3.279   1.074  10.667 -0.4348  0.2326 -0.8312
   49MPD2    C5  751   3.342   1.044  10.549 -0.0181  0.3453  0.7667
   49MPD2     H  752   2.965   1.105  10.550  0.8287  0.6395  2.3168
   49MPD2    H1  753   3.340   1.074  10.756 -2.3818 -0.2926  0.5065
   49MPD2    H2  754   3.316   0.987  10.349  0.7838  1.1398 -0.0805
   49MPD2    H3  755   3.447   1.018  10.552  0.4485  2.1473 -0.1269
   49MPD2     N  756   3.086   1.104  10.803 -0.0623  0.3552  1.0052
   49MPD2    H5  757   3.149   1.086  10.881 -1.5134 -1.7182  1.7036
   49MPD2    N1  758   3.051   1.042  10.317  0.0781 -0.1124  0.1760
   49MPD2    H7  759   2.950   1.044  10.327  0.2061  2.0062  1.1684
   50TCq2    C1  760   3.103   1.030  10.190  0.4794 -0.4614 -0.0501
   50TCq2    O2  761   3.212   1.070  10.153  0.3466  0.0786 -0.2154
   50TCq2    C2  762   3.014   0.991  10.086  0.2792 -0.8670 -0.0334
   50TCq2    C3  763   3.054   1.009   9.961 -0.4068 -0.4903  0.8396
   50TCq2    C4  764   2.966   0.980   9.861 -0.0180  0.1837 -0.2273
   50TCq2    C5  765   2.838   0.940   9.883  0.2568 -0.1408  0.2344
   50TCq2    C6  766   2.797   0.916  10.014 -0.0055 -1.0189 -0.4587
   50TCq2    C7  767   2.887   0.949  10.115 -0.1549  0.4432  0.1931
   50TCq2    C8  768   2.690   0.823  10.043  0.3761 -0.4616  0.0343
   50TCq2    O4  769   2.623   0.786   9.946 -0.4142 -0.2721 -0.2362
   50TCq2    C9  770   3.013   0.983   9.730 -0.0614 -0.8593  0.1661
   50TCq2    O5  771   3.117   1.051   9.697  0.0831  0.0302 -0.0623
   50TCq2    O6  772   2.945   0.917   9.649 -0.4439  0.0104 -0.4273
   50TCq2    H2  773   3.155   1.029   9.928  0.3339 -1.1007  2.7330
   50TCq2    H3  774   2.769   0.917   9.802  1.0221  1.5641 -0.8914
   50TCq2    H4  775   2.862   0.931  10.219  1.2119 -1.2527  0.2348
   51MPD2     C  776   3.078   3.793   1.244  0.1764  0.6514  0.3249
   51MPD2    C1  777   3.054   3.684   1.321  0.2211  0.1851 -0.6066
   51MPD2    C2  778   3.137   3.652   1.427  0.3221  0.1931  0.2086
   51MPD2    C3  779   3.243   3.730   1.459 -0.1795 -0.5625  0.1496
   51MPD2    C4  780   3.266   3.840   1.385 -0.1625 -0.6244  0.4068
   51MPD2    C5  781   3.195   3.858   1.270 -0.0778  0.2178  0.1729
   51MPD2     H  782   3.114   3.558   1.476  0.7359 -0.1639 -0.2884
   51MPD2    H1  783   3.353   3.902   1.402 -0.9945  0.4514  0.7642
   51MPD2    H2  784   3.029   3.826   1.153 -0.7267 -0.5853  0.3627
   51MPD2    H3  785   3.230   3.920   1.188  0.1306  1.6955  1.3852
   51MPD2     N  786   3.334   3.702   1.568  0.4018 -0.9636  0.2688
   51MPD2    H5  787   3.410   3.766   1.588 -0.6241 -0.4025  2.4109
   51MPD2    N1  788   2.945   3.605   1.293 -0.0446 -0.2389 -0.3074
   51MPD2    H7  789   2.923   3.518   1.340 -0.5962 -2.0032 -3.7753
   52TCq2    C1  790   3.345   3.577   1.626  0.1986 -0.6762 -0.4557
   52TCq2    O2  791   3.267   3.483   1.630  0.0151 -0.3809  0.5399
   52TCq2    C2  792   3.467   3.566   1.705  0.7577  0.0572  0.0347
   52TCq2    C3  793   3.522   3.442   1.734  0.1001 -0.2647  0.1143
   52TCq2    C4  794   3.637   3.441   1.802 -0.7305  0.1505 -0.1452
   52TCq2    C5  795   3.708   3.549   1.844 -0.0631  0.0104  0.0820
   52TCq2    C6  796   3.658   3.672   1.812 -0.0758 -0.6169  0.4069
   52TCq2    C7  797   3.536   3.679   1.747 -0.2275  0.4070  0.2030
   52TCq2    C8  798   3.692   3.797   1.882  0.1094  0.1459 -0.4622
   52TCq2    O4  799   3.606   3.883   1.887  0.2717 -0.2165  0.1544
   52TCq2    C9  800   3.665   3.315   1.864  0.8467  0.2617  0.0165
   52TCq2    O5  801   3.566   3.234   1.871 -0.0537 -0.1166  0.2660
   52TCq2    O6  802   3.763   3.310   1.942  0.1444 -0.2891  0.1331
   52TCq2    H2  803   3.464   3.353   1.710 -0.8548 -0.2750  2.4393
   52TCq2    H3  804   3.789   3.538   1.916 -0.7006  2.1698  1.1612
   52TCq2    H4  805   3.490   3.775   1.726  2.8671  1.8458  0.0262
   53TMC2    C1  806   3.572   2.647  11.816  0.6151 -0.2479 -0.0222
   53TMC2    C2  807   3.701   2.694  11.832 -0.4505  0.7859 -0.3291
   53TMC2    C3  808   3.737   2.751  11.953 -0.0031 -0.2480 -0.1859
   53TMC2    C4  809   3.482   2.666  11.918 -0.0173 -0.2145  0.2451
   53TMC2    C5  810   3.516   2.725  12.036 -0.3595 -0.1870  0.1691
   53TMC2    C6  811   3.644   2.774  12.053 -0.6154 -0.0780 -0.3447
   53TMC2     C  812   3.541   2.592  11.685 -0.7512  0.2968  0.3345
   53TMC2     O  813   3.635   2.593  11.606  0.1252 -0.6653  0.3209
   53TMC2     H  814   3.780   2.683  11.759 -0.9062 -1.6667 -0.4294
   53TMC2    H1  815   3.386   2.614  11.914 -1.0713  1.7698 -0.4427
   53TMC2    H2  816   3.662   2.845  12.133  0.8503  0.2439 -0.9462
   53TMC2    C7  817   3.410   2.744  12.126  0.1348  0.5134  0.3446
   53TMC2    C8  818   3.860   2.822  11.956  0.3670 -0.2892  0.4025
   53TMC2    O1  819   3.300   2.704  12.096  0.0808 -0.1185 -0.0857
   53TMC2    O2  820   3.907   2.886  11.862 -0.3198  0.1798  0.2485
   53TMC2    O5  821   3.910   2.821  12.078 -0.1113 -0.2883 -0.1487
   53TMC2    H5  822   3.886   2.743  12.133  0.9973 -0.3577  0.2427
   54MPD2     C  823   3.401   2.536  11.424 -0.2297  0.2344  0.2848
   54MPD2    C1  824   3.335   2.534  11.541  0.4743  0.5416  0.2897
   54MPD2    C2  825   3.209   2.485  11.550  0.0894  0.2125 -0.1134
   54MPD2    C3  826   3.156   2.424  11.442  0.3197  0.3472  0.2142
   54MPD2    C4  827   3.223   2.421  11.321 -0.5035  0.1271  0.0067
   54MPD2    C5  828   3.342   2.483  11.311  0.1980 -0.5925  0.3354
   54MPD2     H  829   3.176   2.472  11.653 -0.3801  2.6205  0.0492
   54MPD2    H1  830   3.179   2.379  11.231 -0.7973  1.0549 -0.2830
   54MPD2    H2  831   3.501   2.574  11.412  0.1185 -0.6294  0.4459
   54MPD2    H3  832   3.397   2.473  11.219 -1.7679 -0.3159 -0.8744
   54MPD2     N  833   3.025   2.375  11.441 -0.4682 -0.4531 -0.0480
   54MPD2    H5  834   2.995   2.352  11.346  0.8038  1.1396 -0.8368
   54MPD2    N1  835   3.403   2.569  11.662  0.1185  1.1915 -0.7977
   54MPD2    H7  836   3.343   2.582  11.742  0.7470 -0.2469 -0.0975
   55MPD2     C  837   4.029   1.111  17.651  0.3891 -0.6255 -0.0569
   55MPD2    C1  838   3.987   0.993   0.008 -0.6980  0.1110  0.5390
   55MPD2    C2  839   3.900   0.986   0.111 -0.0329  0.2483 -0.2389
   55MPD2    C3  840   3.862   1.101   0.174 -0.4228  0.5684 -0.5743
   55MPD2    C4  841   3.901   1.226   0.125  0.3333  0.4464  0.0243
   55MPD2    C5  842   3.979   1.224   0.017 -0.3037 -0.6497 -0.1649
   55MPD2     H  843   3.845   0.894   0.129 -0.6944  1.0129  1.5302
   55MPD2    H1  844   3.865   1.323   0.158  0.2967  0.8273 -1.1534
   55MPD2    H2  845   4.091   1.120  17.563 -1.5786  0.1536 -1.3665
   55MPD2    H3  846   4.014   1.321  17.680 -1.6304 -0.0151  0.2548
   55MPD2     N  847   3.777   1.090   0.286 -0.1257 -0.0248 -0.7345
   55MPD2    H5  848   3.777   0.997   0.326  1.2656  0.8545  1.2719
   55MPD2    N1  849   4.021   0.873  17.638 -0.0846  0.1265  0.1101
   55MPD2    H7  850   4.094   0.883  17.568 -2.4490 -1.5583 -2.5481
   56TCq2    C1  851   3.972   0.746  17.658  0.5592  0.6168 -0.6413
   56TCq2    O2  852   3.898   0.696   0.046  0.1480 -0.1915  0.1354
   56TCq2    C2  853   4.038   0.648  17.572  0.7386  0.0791 -0.5935
   56TCq2    C3  854   4.058   0.690  17.443  0.5676  0.0408  0.1855
   56TCq2    C4  855   4.046   0.597  17.344 -0.7322  0.3128  0.3622
   56TCq2    C5  856   4.015   0.465  17.374 -0.4467  0.2277  0.0283
   56TCq2    C6  857   4.015   0.427  17.506  0.8225  0.1011 -0.2075
   56TCq2    C7  858   4.016   0.514  17.608  0.2152  0.0860  0.2121
   56TCq2    C8  859   4.013   0.284  17.534 -0.8921 -1.2608  0.2269
   56TCq2    O4  860   4.056   0.216  17.439  0.3565 -0.7909  0.3292
   56TCq2    C9  861   4.036   0.632  17.202 -0.6888 -0.0643  0.7866
   56TCq2    O5  862   4.042   0.543  17.112  0.2628 -0.1106  0.4473
   56TCq2    O6  863   4.037   0.757  17.178 -0.1484  0.1935  0.4296
   56TCq2    H2  864   4.049   0.796  17.423 -1.0900 -0.3517 -1.1768
   56TCq2    H3  865   3.993   0.390  17.299 -1.1351 -1.8969  2.3745
   56TCq2    H4  866   4.011   0.483   0.013 -2.2316 -0.4460 -0.0692
   57TMC2    C1  867   3.157   1.832  13.864 -0.0411  0.2899  0.1804
   57TMC2    C2  868   3.195   1.779  13.983  0.5292  0.4660 -0.6638
   57TMC2    C3  869   3.301   1.696  13.984  0.6450  0.0012 -0.5708
   57TMC2    C4  870   3.230   1.817  13.748  0.9070  0.0337  0.1376
   57TMC2    C5  871   3.344   1.749  13.754 -0.0987 -0.0596  0.4960
   57TMC2    C6  872   3.375   1.686  13.878  0.6083 -0.1692  0.3406
   57TMC2     C  873   3.050   1.926  13.865  0.4366 -0.2306 -0.5528
   57TMC2     O  874   3.006   1.971  13.762 -0.1971 -0.9021 -0.4306
   57TMC2     H  875   3.144   1.787  14.078 -1.9485 -1.0467 -1.8778
   57TMC2    H1  876   3.200   1.859  13.653  2.0810 -1.8510 -1.0594
   57TMC2    H2  877   3.475   1.643  13.875  1.0341  0.6133  2.8292
   57TMC2    C7  878   3.377   1.658  13.646 -0.0051 -0.6084  0.1835
   57TMC2    C8  879   3.353   1.664  14.113 -0.7885 -0.0025  0.0879
   57TMC2    O1  880   3.416   1.547  13.677  1.1966 -0.2683  0.0421
   57TMC2    O2  881   3.471   1.694  14.143 -0.0072 -0.1914  0.5584
   57TMC2    O5  882   3.267   1.604  14.198 -0.0691 -0.3298  0.5755
   57TMC2    H5  883   3.188   1.565  14.154  1.1419 -0.6650 -1.2668
   58MPD2     C  884   2.781   2.299  14.117 -0.2251  0.1057 -0.2768
   58MPD2    C1  885   2.764   2.249  13.986 -0.0696 -0.5488 -0.5537
   58MPD2    C2  886   2.842   2.148  13.942 -0.0998  0.1357  0.7788
   58MPD2    C3  887   2.929   2.081  14.026  0.6629 -0.9356  0.1710
   58MPD2    C4  888   2.927   2.110  14.161  0.5176  0.3256 -0.5594
   58MPD2    C5  889   2.852   2.218  14.200  0.1278  1.1303  0.0330
   58MPD2     H  890   2.841   2.123  13.837 -0.8589  0.9324  0.5986
   58MPD2    H1  891   2.985   2.055  14.234  0.6042  1.7578  0.4368
   58MPD2    H2  892   2.723   2.380  14.162  0.3571  0.9507 -1.0394
   58MPD2    H3  893   2.852   2.244  14.305  2.9332 -1.4312  0.6481
   58MPD2     N  894   3.017   1.979  13.986 -0.0343 -0.3365  0.3235
   58MPD2    H5  895   3.062   1.935  14.065  0.9005 -0.4121 -0.2583
   58MPD2    N1  896   2.654   2.283  13.906  0.2804  0.2770 -0.0727
   58MPD2    H7  897   2.651   2.237  13.815 -2.3602  0.9277 -0.3019
   59MPD2     C  898   0.542   2.179  13.234 -0.2184  0.3053  0.1008
   59MPD2    C1  899   0.659   2.098  13.221  0.0830 -0.2360 -0.1369
   59MPD2    C2  900   0.743   2.081  13.329  0.5845  0.6107 -0.1026
   59MPD2    C3  901   0.726   2.156  13.450 -0.3694 -0.2889  0.3603
   59MPD2    C4  902   0.618   2.245  13.453 -0.1814  0.2878 -0.3617
   59MPD2    C5  903   0.529   2.248  13.353  0.3741 -0.3862 -0.3859
   59MPD2     H  904   0.827   2.013  13.321  0.0468 -0.2367  1.4814
   59MPD2    H1  905   0.601   2.312  13.537 -0.3574  1.4246 -1.3044
   59MPD2    H2  906   0.461   2.176  13.162  0.7455  0.7151 -0.9990
   59MPD2    H3  907   0.449   2.320  13.364 -0.5673 -1.1548 -2.3287
   59MPD2     N  908   0.828   2.165  13.547  0.1527 -0.4472  1.0270
   59MPD2    H5  909   0.815   2.235  13.619 -0.7217  0.7514 -0.2900
   59MPD2    N1  910   0.693   2.034  13.099  0.0450 -1.1887 -0.5797
   59MPD2    H7  911   0.785   1.990  13.108  0.6357  0.4010  1.3081
   60TCq2    C1  912   0.628   2.052  12.978 -0.2489 -0.6838 -0.2877
   60TCq2    O2  913   0.527   2.116  12.955  0.4199  0.5087 -0.1668
   60TCq2    C2  914   0.710   2.005  12.864 -1.1241  0.2493 -0.0996
   60TCq2    C3  915   0.802   1.906  12.892  0.0975 -0.4013 -0.0701
   60TCq2    C4  916   0.908   1.880  12.815 -0.2469  0.3083  0.1228
   60TCq2    C5  917   0.923   1.953  12.703  0.0840 -0.5469 -0.0372
   60TCq2    C6  918   0.835   2.057  12.675  0.5449 -0.4306  0.2811
   60TCq2    C7  919   0.720   2.083  12.752  0.8929  0.2058 -0.1826
   60TCq2    C8  920   0.870   2.131  12.555  0.1742  0.1454  0.0356
   60TCq2    O4  921   0.948   2.081  12.476  0.4114  0.0393  0.3086
   60TCq2    C9  922   0.995   1.772  12.846 -0.8830 -0.3057  0.3955
   60TCq2    O5  923   0.961   1.681  12.928  0.7513 -0.1831 -0.0787
   60TCq2    O6  924   1.089   1.744  12.766  0.4617 -0.2933  0.4244
   60TCq2    H2  925   0.792   1.841  12.978  1.1219 -3.2609 -2.1228
   60TCq2    H3  926   1.011   1.937  12.642 -0.1869 -1.2234 -0.2515
   60TCq2    H4  927   0.634   2.143  12.722  0.4354  0.3190  1.3767
   61MPD2     C  928   4.520   3.247  14.585 -0.4452 -0.3001  0.2543
   61MPD2    C1  929   4.562   3.327  14.688  0.6393 -0.8864 -0.4115
   61MPD2    C2  930   4.556   3.464  14.678 -0.6457 -0.2638  0.0287
   61MPD2    C3  931   4.517   3.519  14.562  0.2017  0.1476  0.1741
   61MPD2    C4  932   4.464   3.441  14.463 -0.6766  0.0429 -0.2679
   61MPD2    C5  933   4.475   3.307  14.470 -0.1252  0.1278  0.4392
   61MPD2     H  934   4.586   3.531  14.758  0.3470 -0.3870 -0.2393
   61MPD2    H1  935   4.446   3.485  14.366 -0.4065 -1.4167 -0.9794
   61MPD2    H2  936   4.532   3.139  14.584 -0.5009 -0.3386  2.3671
   61MPD2    H3  937   4.445   3.255  14.379 -1.3798 -0.4348  1.1780
   61MPD2     N  938   4.528   3.655  14.539 -0.2395  0.3070 -0.1908
   61MPD2    H5  939   4.477   3.696  14.462  0.4031  1.0151 -0.2365
   61MPD2    N1  940   4.618   3.276  14.809 -0.2120  0.5756 -0.5383
   61MPD2    H7  941   4.649   3.342  14.879  0.7274 -0.8692  0.4095
   62TCq2    C1  942   4.609   3.140  14.846  0.5662 -0.0685 -0.6605
   62TCq2    O2  943   4.573   3.041  14.785  0.4635  0.6455 -0.8611
   62TCq2    C2  944   4.631   3.135  14.992  0.3575 -0.0881 -0.3326
   62TCq2    C3  945   4.607   3.015  15.063  0.0762 -0.1565 -0.7092
   62TCq2    C4  946   4.634   3.005  15.197  0.3242 -0.7488 -0.1816
   62TCq2    C5  947   4.676   3.115  15.266  0.1787  0.2598 -0.4444
   62TCq2    C6  948   4.695   3.229  15.190  1.0359 -1.0949  0.4434
   62TCq2    C7  949   4.681   3.249  15.056  0.5995 -0.7823  0.2068
   62TCq2    C8  950   4.719   3.351  15.268  0.6510 -0.7340 -0.3652
   62TCq2    O4  951   0.049   3.441  15.208  0.1314 -0.2123 -0.0249
   62TCq2    C9  952   4.609   2.886  15.276  0.3227  0.5073 -0.2249
   62TCq2    O5  953   4.566   2.786  15.216  0.2561 -0.3754  0.0781
   62TCq2    O6  954   4.599   2.896  15.404  0.4404  0.4189  0.0174
   62TCq2    H2  955   4.578   2.922  15.015 -1.8521  0.2643 -0.3159
   62TCq2    H3  956   4.698   3.105  15.372 -0.5916 -3.0242 -0.5987
   62TCq2    H4  957   4.706   3.344  15.011  0.6750 -1.4119 -1.0854
   63TMC2    C1  958   4.113   3.393  11.006  0.1077 -0.5419  0.3447
   63TMC2    C2  959   4.137   3.420  11.137  0.1860 -0.1986  0.2017
   63TMC2    C3  960   4.242   3.500  11.159  0.1266 -1.0958  0.1142
   63TMC2    C4  961   4.172   3.456  10.902  0.0710  0.8250  0.0294
   63TMC2    C5  962   4.274   3.539  10.929 -1.1111 -0.3903 -0.4118
   63TMC2    C6  963   4.310   3.563  11.063 -0.1340  1.0433 -0.1086
   63TMC2     C  964   4.047   3.267  10.971 -0.0127  0.3221 -0.0216
   63TMC2     O  965   3.942   3.233  11.028  0.5075  0.0627  0.0592
   63TMC2     H  966   4.096   3.356  11.214 -0.6843 -0.0650 -0.1472
   63TMC2    H1  967   4.136   3.448  10.800 -2.1946 -0.6810  0.9645
   63TMC2    H2  968   4.377   3.647  11.080  0.0297  1.2160 -1.6343
   63TMC2    C7  969   4.357   3.581  10.816 -0.2936  0.4768  0.2240
   63TMC2    C8  970   4.282   3.508  11.297 -0.6194  0.0804 -0.3485
   63TMC2    O1  971   4.298   3.585  10.710 -0.3354  0.0489 -0.6864
   63TMC2    O2  972   4.202   3.484  11.383 -0.0883  0.4193 -0.0096
   63TMC2    O5  973   4.414   3.487  11.289  0.3065 -0.7064 -0.2841
   63TMC2    H5  974   4.452   3.485  11.199  1.6000 -1.3300  0.2807
   64MPD2     C  975   4.048   2.830  10.722  0.2204 -0.5944  0.6043
   64MPD2    C1  976   4.182   2.855  10.752 -0.1921  0.2276  0.0437
   64MPD2    C2  977   4.205   2.987  10.798  0.1803 -0.1119 -0.7823
   64MPD2    C3  978   4.097   3.072  10.832  0.5287  0.1072 -0.6605
   64MPD2    C4  979   3.972   3.041  10.803  0.1490 -0.3069 -0.1192
   64MPD2    C5  980   3.948   2.919  10.754  0.0750  0.0266 -0.0826
   64MPD2     H  981   4.308   2.996  10.833 -0.4835 -1.6254  1.5162
   64MPD2    H1  982   3.890   3.111  10.816 -0.6051 -0.9514 -1.3590
   64MPD2    H2  983   4.025   2.729  10.692 -1.4083 -0.3483  1.0280
   64MPD2    H3  984   3.844   2.889  10.746  0.5070 -1.1669 -1.2623
   64MPD2     N  985   4.123   3.202  10.880 -0.3568  0.0231  0.5859
   64MPD2    H5  986   4.216   3.241  10.866 -0.3611 -0.3650 -0.5083
   64MPD2    N1  987   4.292   2.774  10.729 -0.0235  0.4423 -0.5067
   64MPD2    H7  988   4.375   2.805  10.778 -0.9349  1.7931  0.1788
   65MPD2     C  989   0.770   2.577  15.972 -0.0115  0.7448  0.4272
   65MPD2    C1  990   0.719   2.607  15.851  0.0154  0.4025 -0.0003
   65MPD2    C2  991   0.614   2.533  15.796  0.1800  0.4309  0.3979
   65MPD2    C3  992   0.564   2.434  15.867  0.3412 -0.9656  0.1200
   65MPD2    C4  993   0.603   2.408  15.995  0.2261 -0.1636  0.2012
   65MPD2    C5  994   0.712   2.473  16.043 -0.4631 -0.0164  0.4453
   65MPD2     H  995   0.564   2.558  15.703  1.9796  1.1108 -0.3709
   65MPD2    H1  996   0.560   2.331  16.058 -1.7927 -0.7246 -1.8516
   65MPD2    H2  997   0.849   2.634  16.020  0.3656  1.1465 -0.6908
   65MPD2    H3  998   0.747   2.442  16.141 -0.9343 -0.9437  0.3218
   65MPD2     N  999   0.485   2.337  15.812  0.1947 -0.4649 -0.3462
   65MPD2    H5 1000   0.451   2.259  15.868  1.7995  0.5502  2.0466
   65MPD2    N1 1001   0.753   2.715  15.765 -0.5166  0.1324  0.1640
   65MPD2    H7 1002   0.694   2.746  15.688 -0.5636 -1.6090 -0.5013
   66TCq2    C1 1003   0.851   2.802  15.784  0.0618  0.0318 -0.1960
   66TCq2    O2 1004   0.939   2.815  15.873  0.1304 -0.1934  0.3118
   66TCq2    C2 1005   0.867   2.900  15.674  0.5999  0.3695 -0.0101
   66TCq2    C3 1006   0.979   2.906  15.596  0.8867  0.2937  1.0121
   66TCq2    C4 1007   0.969   2.978  15.482 -0.8868  0.3040  0.0129
   66TCq2    C5 1008   0.848   3.034  15.440  0.1496  0.0395  1.0675
   66TCq2    C6 1009   0.744   3.029  15.522 -0.1588  0.1044  0.4414
   66TCq2    C7 1010   0.752   2.967  15.643 -0.6470  0.3567  0.9806
   66TCq2    C8 1011   0.663   3.150  15.520 -0.4146  0.1922  0.3351
   66TCq2    O4 1012   0.650   3.207  15.415 -0.4984  0.4217  0.2825
   66TCq2    C9 1013   1.089   2.976  15.395  0.3944 -0.3411  0.1551
   66TCq2    O5 1014   1.201   2.921  15.432  0.2150 -0.2407 -0.4348
   66TCq2    O6 1015   1.073   3.048  15.291 -0.0429 -0.3953 -0.2931
   66TCq2    H2 1016   1.074   2.861  15.622  1.0798  2.0984  3.3785
   66TCq2    H3 1017   0.851   3.092  15.349 -0.2385  0.0502  1.0630
   66TCq2    H4 1018   0.663   2.958  15.705 -1.0437  0.4551  0.4278
   67MPD2     C 1019   0.282   1.815  14.771 -0.3332  0.2573 -0.9517
   67MPD2    C1 1020   0.257   1.913  14.676  0.7428  0.1533  0.8085
   67MPD2    C2 1021   0.229   1.873  14.547  0.2786 -0.2763 -0.9187
   67MPD2    C3 1022   0.205   1.736  14.510 -0.0381 -0.0192  0.8509
   67MPD2    C4 1023   0.227   1.642  14.604  0.2185 -0.3551  0.5324
   67MPD2    C5 1024   0.266   1.685  14.727  0.3963 -0.5855  1.3928
   67MPD2     H 1025   0.216   1.948  14.470  1.6801  0.9051  0.0064
   67MPD2    H1 1026   0.198   1.539  14.585 -0.7504 -0.6727  3.6236
   67MPD2    H2 1027   0.309   1.832  14.875 -0.5477 -0.0052 -0.8524
   67MPD2    H3 1028   0.263   1.608  14.803 -1.3097  0.2274  2.1582
   67MPD2     N 1029   0.165   1.706  14.376 -0.3685 -0.2249  0.5636
   67MPD2    H5 1030   0.095   1.633  14.376  1.5477 -2.0755  0.3515
   67MPD2    N1 1031   0.252   2.054  14.712 -0.0317  0.4880 -0.8023
   67MPD2    H7 1032   0.231   2.123  14.641  1.6317  0.9249 -0.8629
   68TCq2    C1 1033   0.275   2.109  14.835  1.0718 -0.1051  0.0515
   68TCq2    O2 1034   0.305   2.049  14.935 -0.8191 -0.4532  0.0970
   68TCq2    C2 1035   0.239   2.249  14.844  1.0262  0.2387  0.3772
   68TCq2    C3 1036   0.132   2.289  14.773  0.8279  0.4565  0.1529
   68TCq2    C4 1037   0.110   2.426  14.773 -0.4134 -0.1088 -0.0503
   68TCq2    C5 1038   0.188   2.512  14.848 -0.6160 -0.0982 -0.3379
   68TCq2    C6 1039   0.291   2.460  14.919 -0.9769  0.7949  0.5497
   68TCq2    C7 1040   0.315   2.324  14.925  0.8074  0.3444 -0.7471
   68TCq2    C8 1041   0.383   2.547  14.991 -0.8254  0.4528 -0.2598
   68TCq2    O4 1042   0.382   2.661  14.943 -0.2199 -0.0492 -0.3063
   68TCq2    C9 1043   0.003   2.482  14.682  0.6799  0.3240  0.8016
   68TCq2    O5 1044   4.641   2.403  14.646 -0.4893 -0.2214  0.5943
   68TCq2    O6 1045   4.699   2.602  14.692 -0.3002  0.6794 -0.2286
   68TCq2    H2 1046   0.070   2.237  14.700  0.5910  1.1959 -0.1720
   68TCq2    H3 1047   0.181   2.618  14.825 -2.0443 -0.4333 -1.4453
   68TCq2    H4 1048   0.396   2.276  14.978  1.1657  2.6430  0.7805
   69TMC2    C1 1049   2.753   3.288  12.676  0.1783  0.9651 -0.0983
   69TMC2    C2 1050   2.641   3.343  12.626  0.1597  0.5598  0.4141
   69TMC2    C3 1051   2.650   3.388  12.494  0.3735 -0.3187  0.6560
   69TMC2    C4 1052   2.874   3.280  12.613  0.2910 -0.0365 -0.0854
   69TMC2    C5 1053   2.878   3.306  12.478 -0.2741  0.3970 -0.6331
   69TMC2    C6 1054   2.762   3.367  12.420 -0.2218 -0.2358 -0.0804
   69TMC2     C 1055   2.737   3.210  12.803 -0.1106 -0.2396  0.7288
   69TMC2     O 1056   2.624   3.174  12.834 -0.6619  0.1494  0.0407
   69TMC2     H 1057   2.549   3.339  12.683  0.7952  0.3052  1.4206
   69TMC2    H1 1058   2.952   3.215  12.651  1.3080  1.7213  0.9021
   69TMC2    H2 1059   2.763   3.367  12.312 -1.6496  3.0804 -0.0965
   69TMC2    C7 1060   3.001   3.282  12.409  0.1208  0.1987 -0.4582
   69TMC2    C8 1061   2.540   3.463  12.434 -0.0735  0.1585 -0.2395
   69TMC2    O1 1062   2.993   3.276  12.286  0.5449 -0.5990  0.0228
   69TMC2    O2 1063   2.447   3.495  12.505 -0.1799 -0.3431 -0.7103
   69TMC2    O5 1064   2.600   3.548  12.345 -1.0799  0.0082  0.2437
   69TMC2    H5 1065   2.675   3.509  12.295 -1.7997 -0.1502 -0.7090
   70MPD2     C 1066   3.012   3.135  13.039  0.0066 -0.3484 -0.5231
   70MPD2    C1 1067   2.890   3.113  12.978 -0.8099  0.2609 -0.4724
   70MPD2    C2 1068   2.813   3.008  13.012  0.0687 -1.0827 -0.6553
   70MPD2    C3 1069   2.853   2.924  13.109  0.2678  0.2286 -0.5482
   70MPD2    C4 1070   2.977   2.934  13.174  0.7404  0.0978 -0.1795
   70MPD2    C5 1071   3.055   3.039  13.131  0.4077  0.6463  0.1766
   70MPD2     H 1072   2.715   2.994  12.967 -0.8751  0.3292  0.9863
   70MPD2    H1 1073   3.012   2.866  13.251 -0.1102 -0.7444 -0.5267
   70MPD2    H2 1074   3.072   3.223  13.018  0.3983 -0.5791 -0.3669
   70MPD2    H3 1075   3.149   3.041  13.184 -0.2017 -0.9936  1.3089
   70MPD2     N 1076   2.776   2.808  13.144  0.0675  0.1692  0.9771
   70MPD2    H5 1077   2.813   2.751  13.220 -2.4777 -3.1829 -0.2854
   70MPD2    N1 1078   2.857   3.203  12.875 -0.0192 -0.3368  0.2365
   70MPD2    H7 1079   2.938   3.258  12.851 -0.1860  0.4029  1.3975
   71TMC2    C1 1080   4.661   3.228   1.731 -0.1403 -0.4624  0.6605
   71TMC2    C2 1081   4.717   3.150   1.829  0.3446  0.0922 -0.1670
   71TMC2    C3 1082   4.639   3.047   1.877  0.1884 -0.1674  0.0554
   71TMC2    C4 1083   4.531   3.208   1.694 -0.5700 -0.5813 -0.5995
   71TMC2    C5 1084   4.461   3.102   1.757  0.0501 -0.2873  0.2017
   71TMC2    C6 1085   4.514   3.011   1.844  0.4978 -0.0540  0.4230
   71TMC2     C 1086   0.014   3.320   1.647 -0.2791  0.0185 -0.0289
   71TMC2     O 1087   4.687   3.358   1.543 -0.3373  0.1816 -0.1692
   71TMC2     H 1088   0.097   3.148   1.856  0.0777 -1.2584  0.7989
   71TMC2    H1 1089   4.493   3.265   1.611 -1.6512 -0.0529  0.2698
   71TMC2    H2 1090   4.457   2.935   1.895 -2.8077  1.4355 -0.9869
   71TMC2    C7 1091   4.316   3.095   1.734  0.5789 -0.3634 -0.2314
   71TMC2    C8 1092   4.717   2.961   1.958  0.3888  0.2053  0.2740
   71TMC2    O1 1093   4.256   2.997   1.781  0.1335  0.6690 -0.2651
   71TMC2    O2 1094   0.098   3.002   2.016  0.5472 -0.4816  0.8766
   71TMC2    O5 1095   4.690   2.831   1.937 -0.1066 -0.5722 -0.4362
   71TMC2    H5 1096   4.634   2.822   1.857  1.1646 -1.3848 -1.2351
   72MPD2     C 1097   0.474   3.531   1.524 -0.4067 -0.0931  0.2594
   72MPD2    C1 1098   0.356   3.539   1.454  0.4887 -0.1220 -0.8368
   72MPD2    C2 1099   0.242   3.474   1.505  0.1111  0.0420  0.3342
   72MPD2    C3 1100   0.248   3.415   1.636  0.0466 -0.3116  0.1381
   72MPD2    C4 1101   0.366   3.422   1.704  0.7578 -0.6390 -0.3042
   72MPD2    C5 1102   0.479   3.472   1.648 -0.3004  0.4822 -0.7370
   72MPD2     H 1103   0.152   3.479   1.444  0.8269  0.6820 -0.6662
   72MPD2    H1 1104   0.383   3.385   1.804  1.1206  3.3508  1.1118
   72MPD2    H2 1105   0.570   3.561   1.482 -0.0539 -2.5160 -0.7096
   72MPD2    H3 1106   0.570   3.477   1.708  0.0206  2.6915 -1.4184
   72MPD2     N 1107   0.143   3.343   1.701  0.1387  0.3216  0.1474
   72MPD2    H5 1108   0.158   3.324   1.799 -0.3838  0.1563  0.1963
   72MPD2    N1 1109   0.350   3.596   1.332  1.0378 -0.0844 -0.2293
   72MPD2    H7 1110   0.261   3.596   1.283 -0.2262 -1.7380  2.0564
   73TMC2    C1 1111   4.577   0.995  14.071  0.9763  0.1749 -0.0119
   73TMC2    C2 1112   4.542   1.074  14.174  0.2535  0.0232  0.3459
   73TMC2    C3 1113   4.635   1.092  14.269  0.0283 -0.1962  0.3182
   73TMC2    C4 1114   4.707   0.945  14.067  0.8204 -0.5387  0.4779
   73TMC2    C5 1115   0.074   0.970  14.165  0.1664  0.3625 -0.0758
   73TMC2    C6 1116   0.036   1.057  14.264  0.6051 -0.9068 -0.0783
   73TMC2     C 1117   4.554   1.051  13.936  0.2255  0.2932  0.2767
   73TMC2     O 1118   4.655   1.096  13.886 -0.0560 -0.5042  0.4489
   73TMC2     H 1119   4.446   1.123  14.185 -0.1611 -1.2152  2.3009
   73TMC2    H1 1120   0.015   0.891  13.979 -0.6492 -1.3996  0.4713
   73TMC2    H2 1121   0.112   1.084  14.337 -1.9711  0.8346  1.9692
   73TMC2    C7 1122   0.202   1.010  14.112  0.0486  0.6623 -1.0037
   73TMC2    C8 1123   4.599   1.214  14.336  0.2671  0.0820  0.5025
   73TMC2    O1 1124   0.299   1.013  14.185  0.6626 -0.4848  0.9686
   73TMC2    O2 1125   4.612   1.323  14.280 -0.0709 -0.8677  0.7141
   73TMC2    O5 1126   4.648   1.193  14.459 -0.2722  0.0965  0.0336
   73TMC2    H5 1127   4.626   1.101  14.483 -3.6062  0.6608 -0.8651
   74MPD2     C 1128   4.282   1.189  13.534  0.5247  0.1451 -0.4637
   74MPD2    C1 1129   4.417   1.194  13.556 -0.1795 -0.7463 -1.2305
   74MPD2    C2 1130   4.470   1.149  13.676  0.0661 -0.2751  0.6291
   74MPD2    C3 1131   4.386   1.084  13.767  0.0865 -0.3346  0.0787
   74MPD2    C4 1132   4.248   1.079  13.741  0.1549  0.4226  0.1401
   74MPD2    C5 1133   4.194   1.142  13.633  0.2503  0.1095 -0.1032
   74MPD2     H 1134   4.577   1.148  13.688  0.1091  2.1635  0.6109
   74MPD2    H1 1135   4.188   1.020  13.809  2.4609 -0.3062  1.5728
   74MPD2    H2 1136   4.231   1.221  13.443 -0.8003 -0.2173  0.1567
   74MPD2    H3 1137   4.086   1.149  13.622  0.4212  2.7948 -0.1944
   74MPD2     N 1138   4.427   1.039  13.898  1.2732 -0.0704 -0.5695
   74MPD2    H5 1139   4.359   1.004  13.966 -0.5571  0.3679 -2.1635
   74MPD2    N1 1140   4.499   1.256  13.450  0.9498 -0.1863  0.6656
   74MPD2    H7 1141   4.455   1.275  13.361  1.0069 -0.3050  0.6111
   75TCq2    C1 1142   0.165   1.794  14.270  0.2824  0.4843 -0.2115
   75TCq2    O2 1143   0.252   1.873  14.234  0.1663 -0.4873 -0.8029
   75TCq2    C2 1144   0.041   1.782  14.186  0.4414 -0.2135  0.7475
   75TCq2    C3 1145   4.645   1.738  14.231 -0.0343 -0.9660  0.1113
   75TCq2    C4 1146   4.540   1.751  14.142  0.5310 -0.0796 -0.2782
   75TCq2    C5 1147   4.558   1.785  14.012  0.0571 -0.2152  0.4744
   75TCq2    C6 1148   4.680   1.825  13.980 -0.0097  0.4729  0.1096
   75TCq2    C7 1149   0.059   1.825  14.063 -0.5555 -0.7441  0.2456
   75TCq2    C8 1150   4.701   1.880  13.843  0.7657  0.0725  0.1004
   75TCq2    O4 1151   4.607   1.864  13.765 -0.0166  0.2754 -0.2356
   75TCq2    C9 1152   4.410   1.709  14.190 -0.0870  0.4652  0.2692
   75TCq2    O5 1153   4.393   1.722  14.313 -0.4034 -0.0427  0.0457
   75TCq2    O6 1154   4.319   1.714  14.101  0.0035 -0.2302 -0.6882
   75TCq2    H2 1155   4.615   1.706  14.330  1.5049  2.7304  1.7522
   75TCq2    H3 1156   4.474   1.795  13.944  1.2821  0.6320 -0.9077
   75TCq2    H4 1157   0.157   1.860  14.032 -0.8439 -2.2509 -2.3962
   76MPD2     C 1158   4.181   3.254  12.022 -0.2558  0.6219  0.1086
   76MPD2    C1 1159   4.121   3.135  11.972  0.2756 -0.0719  0.0349
   76MPD2    C2 1160   4.196   3.020  11.954 -0.1065  0.3188  0.3903
   76MPD2    C3 1161   4.337   3.024  11.981 -0.8371 -0.3258 -0.1324
   76MPD2    C4 1162   4.387   3.133  12.046  0.0804  0.2264  0.0082
   76MPD2    C5 1163   4.315   3.249  12.064  0.0737 -0.2491  0.9601
   76MPD2     H 1164   4.148   2.935  11.908  1.3565  0.9332 -2.2622
   76MPD2    H1 1165   4.485   3.134  12.093  0.4412 -0.6416 -0.7253
   76MPD2    H2 1166   4.127   3.340  12.058 -1.9985 -1.7866  3.2472
   76MPD2    H3 1167   4.363   3.334  12.110  1.2853 -0.3556 -0.1021
   76MPD2     N 1168   4.428   2.915  11.965  0.0345 -0.0988 -0.1709
   76MPD2    H5 1169   4.521   2.915  12.007 -0.3146  1.8975  0.5784
   76MPD2    N1 1170   3.987   3.136  11.923  0.2910  0.1056 -0.1148
   76MPD2    H7 1171   3.948   3.052  11.882 -0.9482 -0.5041  2.3323
   77TCq2    C1 1172   4.389   2.811  11.881  0.2349  0.0734  0.6469
   77TCq2    O2 1173   4.313   2.818  11.782 -0.3690  0.3311 -0.1941
   77TCq2    C2 1174   4.473   2.702  11.900 -0.9030  0.2792  0.1726
   77TCq2    C3 1175   4.445   2.597  11.813 -0.2487 -0.6374  0.3756
   77TCq2    C4 1176   4.545   2.502  11.801 -0.5785 -0.8320  0.0210
   77TCq2    C5 1177   4.657   2.499  11.876 -0.0337  0.2013  0.4736
   77TCq2    C6 1178   4.668   2.601  11.972  0.5026 -0.2378 -0.5217
   77TCq2    C7 1179   4.586   2.707  11.974  0.3651  0.4062  0.6641
   77TCq2    C8 1180   0.075   2.609  12.047  0.8259 -0.2742 -0.5048
   77TCq2    O4 1181   0.164   2.535  12.004  0.2688  0.4793 -0.1208
   77TCq2    C9 1182   4.537   2.407  11.692 -0.2384  0.2828  0.2250
   77TCq2    O5 1183   4.433   2.398  11.624  0.2893 -0.6880 -0.0367
   77TCq2    O6 1184   4.639   2.337  11.670  0.1835  0.8894 -0.1857
   77TCq2    H2 1185   4.353   2.591  11.756  1.0442 -0.8212 -1.7225
   77TCq2    H3 1186   4.724   2.413  11.877  1.0118  0.9862 -1.2663
   77TCq2    H4 1187   4.613   2.782  12.047 -0.1819  0.6317  0.6288
   78MPD1     C 1188   1.656   1.990   3.165  0.1985 -1.0707  0.5837
   78MPD1    C1 1189   1.678   2.110   3.099 -0.6808 -0.3632  0.2432
   78MPD1    C2 1190   1.582   2.155   3.015  0.3210  0.2209 -0.5002
   78MPD1    C3 1191   1.470   2.075   2.981 -0.6952 -0.0374  0.1222
   78MPD1    C4 1192   1.451   1.952   3.044  0.2612 -0.5901  0.1438
   78MPD1    C5 1193   1.546   1.918   3.141  0.1335  0.4306  0.0771
   78MPD1     H 1194   1.598   2.246   2.958  1.6818 -0.2318 -0.8135
   78MPD1    H1 1195   1.358   1.899   3.024 -2.2073  3.1303  1.6495
   78MPD1    H2 1196   1.729   1.943   3.231  2.0215  2.1056  0.8532
   78MPD1    H3 1197   1.533   1.821   3.187  1.7351  0.1278 -0.1120
   78MPD1     N 1198   1.370   2.114   2.888 -0.2492  0.1378  0.3808
   78MPD1    H5 1199   1.292   2.051   2.873  0.1936 -0.2804 -0.1342
   78MPD1    N1 1200   1.793   2.177   3.140 -0.1147  0.0131 -0.5085
   78MPD1    H6 1201   1.835   2.239   3.071  2.3448  0.0791  1.0374
   78MPD1    H7 1202   1.864   2.129   3.195 -0.5896  1.4426  1.3795
   79TCq2    C1 1203   1.373   2.224   2.807 -0.2091 -0.5664 -0.5778
   79TCq2    O2 1204   1.458   2.310   2.794  0.7622 -0.4582  0.2425
   79TCq2    C2 1205   1.268   2.223   2.705  0.7854 -0.1188 -0.3566
   79TCq2    C3 1206   1.148   2.157   2.718  0.0320  0.1397  0.2007
   79TCq2    C4 1207   1.045   2.175   2.626 -0.2276  0.5694  0.1181
   79TCq2    C5 1208   1.051   2.263   2.527  0.3476  0.1264  0.2243
   79TCq2    C6 1209   1.163   2.342   2.525  0.4181  0.1136  0.0392
   79TCq2    C7 1210   1.277   2.316   2.606  0.1214 -0.6119  0.1047
   79TCq2    C8 1211   1.172   2.461   2.448  0.6482  0.0056  0.1698
   79TCq2    O4 1212   1.283   2.495   2.404 -0.8705  0.7067 -0.1377
   79TCq2    C9 1213   0.913   2.116   2.652 -0.4828 -1.1415  0.1189
   79TCq2    O5 1214   0.894   2.095   2.776  0.5385  0.2914 -0.3546
   79TCq2    O6 1215   0.827   2.095   2.564  0.2530  0.1645  0.4376
   79TCq2    H2 1216   1.130   2.082   2.794 -3.0336 -0.8955 -1.5383
   79TCq2    H3 1217   0.961   2.285   2.470  2.0628  0.9587 -2.1733
   79TCq2    H4 1218   1.357   2.389   2.606 -1.0524  0.6849  0.3525
   80MPD2     C 1219   3.167   2.641  12.800  0.2863 -0.6301 -0.2592
   80MPD2    C1 1220   3.146   2.612  12.663 -1.4226 -0.3558 -0.4814
   80MPD2    C2 1221   3.018   2.610  12.611 -0.1733 -0.5550  0.2863
   80MPD2    C3 1222   2.915   2.649  12.694 -0.0912  0.5579 -0.1017
   80MPD2    C4 1223   2.939   2.688  12.825  0.4932 -0.0152 -0.0077
   80MPD2    C5 1224   3.061   2.676  12.879  0.3300  0.6569 -0.5309
   80MPD2     H 1225   2.999   2.576  12.510 -2.2900 -0.3272  0.6154
   80MPD2    H1 1226   2.867   2.736  12.890 -0.0061 -1.4360  0.4814
   80MPD2    H2 1227   3.265   2.634  12.845 -1.1945 -1.9749  2.7802
   80MPD2    H3 1228   3.078   2.711  12.980 -0.6268 -0.3898 -0.0155
   80MPD2     N 1229   2.779   2.637  12.661  0.0106  0.3447 -0.1238
   80MPD2    H5 1230   2.721   2.668  12.738 -0.6325 -2.1435  0.4011
   80MPD2    N1 1231   3.246   2.569  12.572  0.2846 -0.2448  0.5592
   80MPD2    H7 1232   3.213   2.549  12.479 -0.7477 -1.0954  1.1108
   81TCq2    C1 1233   3.380   2.571  12.603 -0.7542  0.1217  0.1229
   81TCq2    O2 1234   3.433   2.597  12.708 -0.4527  0.4166 -0.9137
   81TCq2    C2 1235   3.456   2.535  12.486  0.4123  1.1588 -0.3405
   81TCq2    C3 1236   3.584   2.582  12.478  0.3440 -0.1194 -0.1039
   81TCq2    C4 1237   3.660   2.557  12.373  0.6075  0.3437  0.3941
   81TCq2    C5 1238   3.606   2.467  12.281 -1.0116 -0.3022  0.6000
   81TCq2    C6 1239   3.495   2.397  12.304  0.1305  0.1260  0.9812
   81TCq2    C7 1240   3.416   2.433  12.406  0.0937 -0.7754 -0.5078
   81TCq2    C8 1241   3.425   2.349  12.187 -0.2059  0.0499  0.3873
   81TCq2    O4 1242   3.442   2.402  12.081  0.2583 -0.1436  0.9593
   81TCq2    C9 1243   3.789   2.624  12.351  0.7196 -1.1053  0.2381
   81TCq2    O5 1244   3.844   2.620  12.236  0.0033 -0.4144  0.1281
   81TCq2    O6 1245   3.821   2.704  12.442  0.6019  0.1025 -0.0002
   81TCq2    H2 1246   3.603   2.667  12.543  2.5801  0.5776 -1.6765
   81TCq2    H3 1247   3.668   2.434  12.199  0.1758 -1.2222  1.8752
   81TCq2    H4 1248   3.318   2.390  12.420 -0.6191  0.5808 -1.2863
   82MPD2     C 1249   1.337   2.486  10.793 -0.7712  0.3778  0.1307
   82MPD2    C1 1250   1.260   2.392  10.724  0.3661 -0.9371 -0.6229
   82MPD2    C2 1251   1.293   2.254  10.732  0.5872 -0.2262 -0.4057
   82MPD2    C3 1252   1.396   2.207  10.815 -0.6981 -0.4137  0.0049
   82MPD2    C4 1253   1.473   2.305  10.874 -0.6535  0.5404 -0.0933
   82MPD2    C5 1254   1.447   2.437  10.861 -0.8063  0.8915  0.5009
   82MPD2     H 1255   1.240   2.173  10.683  0.4031  0.2884 -1.0589
   82MPD2    H1 1256   1.562   2.276  10.928 -1.2405 -1.2175 -0.0847
   82MPD2    H2 1257   1.321   2.592  10.782  0.9573  0.4980 -1.2393
   82MPD2    H3 1258   1.498   2.509  10.924  0.3808  0.4128  0.0719
   82MPD2     N 1259   1.434   2.076  10.832  0.3374 -0.4892  0.5049
   82MPD2    H5 1260   1.515   2.070  10.893  1.6113  2.0549 -0.9033
   82MPD2    N1 1261   1.153   2.451  10.652 -0.4265  0.4184  0.4380
   82MPD2    H7 1262   1.145   2.552  10.656 -1.9766  0.2831  0.6184
   83TCq2    C1 1263   1.383   1.956  10.798  0.1117  0.8008 -1.1769
   83TCq2    O2 1264   1.275   1.921  10.758 -0.0789 -0.1783  0.0704
   83TCq2    C2 1265   1.454   1.857  10.872  0.4995 -0.4008  0.1140
   83TCq2    C3 1266   1.574   1.885  10.915  0.3340 -0.3438  0.4708
   83TCq2    C4 1267   1.633   1.805  11.007 -1.0201 -0.6205  0.0314
   83TCq2    C5 1268   1.564   1.693  11.051 -0.5922 -0.0828  0.0561
   83TCq2    C6 1269   1.442   1.661  10.993  0.0358 -1.0438  0.1965
   83TCq2    C7 1270   1.377   1.748  10.912 -0.3646 -0.1516 -0.1279
   83TCq2    C8 1271   1.370   1.545  11.042  0.2660 -0.2327  0.3199
   83TCq2    O4 1272   1.387   1.498  11.153  0.3520  0.6253  0.4768
   83TCq2    C9 1273   1.765   1.836  11.065  0.2040  0.3380  0.2423
   83TCq2    O5 1274   1.803   1.957  11.064 -0.1397  0.7670  0.6594
   83TCq2    O6 1275   1.823   1.737  11.115 -0.5817 -0.0886  0.3619
   83TCq2    H2 1276   1.638   1.963  10.875 -0.1169  0.8310  1.9971
   83TCq2    H3 1277   1.610   1.626  11.123  1.5950 -0.4199 -1.6551
   83TCq2    H4 1278   1.277   1.730  10.875  0.1239  0.0086 -1.5294
   84TCq2    C1 1279   2.959   1.135  10.831 -0.3475  0.1529 -0.0638
   84TCq2    O2 1280   2.869   1.175  10.758 -0.1427  0.5870  0.2476
   84TCq2    C2 1281   2.929   1.115  10.965 -0.2389  0.1893  0.2903
   84TCq2    C3 1282   3.010   1.045  11.051  0.3309 -0.1540 -0.3890
   84TCq2    C4 1283   2.978   1.029  11.178 -0.4768  0.5228 -0.5452
   84TCq2    C5 1284   2.851   1.060  11.224  0.1621  0.2565  0.2192
   84TCq2    C6 1285   2.766   1.128  11.141 -0.2402  0.5908 -0.0243
   84TCq2    C7 1286   2.807   1.166  11.012 -0.4683  0.3539  0.9977
   84TCq2    C8 1287   2.634   1.172  11.181  0.1098 -0.4357 -0.3627
   84TCq2    O4 1288   2.626   1.213  11.299  0.5195 -0.3697  0.0804
   84TCq2    C9 1289   3.060   0.944  11.264 -0.3341  0.6700  0.1520
   84TCq2    O5 1290   3.022   0.925  11.377 -0.4446  0.1381  0.3552
   84TCq2    O6 1291   3.161   0.885  11.219 -0.3070  0.2146  0.7405
   84TCq2    H2 1292   3.103   1.011  11.006  0.7636 -1.5165  1.5702
   84TCq2    H3 1293   2.822   1.036  11.326  2.2976 -4.4778 -0.2878
   84TCq2    H4 1294   2.755   1.232  10.944 -0.6180 -1.0843 -0.2901
   85MPD2     C 1295   2.525   3.739  16.231  0.1980 -0.8846 -0.2807
   85MPD2    C1 1296   2.598   3.631  16.179 -0.5035 -0.1264 -0.2809
   85MPD2    C2 1297   2.688   3.658  16.080 -0.2210 -0.3876 -0.4015
   85MPD2    C3 1298   2.712   3.783  16.035 -0.0123  0.1278  0.0191
   85MPD2    C4 1299   2.638   3.890  16.089  0.2837  0.7657 -0.1032
   85MPD2    C5 1300   2.556   3.868  16.191  0.1244 -0.6481 -0.1152
   85MPD2     H 1301   2.725   3.576  16.020  0.1418  1.4680 -2.7310
   85MPD2    H1 1302   2.651   3.988  16.047 -0.8791  2.2729  3.0535
   85MPD2    H2 1303   2.449   3.740  16.309  0.9236 -1.0278  0.4233
   85MPD2    H3 1304   2.507   3.953  16.237  0.1074 -1.3177  1.1218
   85MPD2     N 1305   2.795   3.791  15.924 -0.1369  0.2899 -0.0142
   85MPD2    H5 1306   2.840   3.703  15.900 -1.3050  0.3350 -2.3980
   85MPD2    N1 1307   2.556   3.501  16.192  0.5403 -0.2344 -0.0430
   85MPD2    H7 1308   2.620   3.428  16.163  0.8813 -0.0512  0.2550
   86TCq2    C1 1309   2.816   3.901  15.841  1.1566  0.5456 -0.3417
   86TCq2    O2 1310   2.744   3.999  15.841 -0.2259 -0.1897 -0.7469
   86TCq2    C2 1311   2.914   3.880  15.742 -0.5124  0.5998 -0.1305
   86TCq2    C3 1312   2.923   3.966  15.640 -0.4087 -0.3691  0.5834
   86TCq2    C4 1313   2.999   3.930  15.532  0.0041 -0.1398  0.5208
   86TCq2    C5 1314   3.048   3.804  15.515 -0.1405 -0.7382 -0.4068
   86TCq2    C6 1315   3.044   3.719  15.620  0.3102 -0.4091 -0.7936
   86TCq2    C7 1316   2.971   3.753  15.733  0.4962 -0.2137 -0.2711
   86TCq2    C8 1317   3.072   3.580  15.593 -0.4846  0.0049 -0.5374
   86TCq2    O4 1318   3.081   3.514  15.692 -0.4964 -0.5607  0.2911
   86TCq2    C9 1319   3.008   4.022  15.429  0.4503  0.3469 -0.1066
   86TCq2    O5 1320   2.966   4.145  15.441 -0.4405  0.0039  0.4198
   86TCq2    O6 1321   3.014   3.972  15.314  0.1264  0.2632 -0.0958
   86TCq2    H2 1322   2.874   4.063  15.642 -1.3932 -0.9118  2.0771
   86TCq2    H3 1323   3.116   3.779  15.434  0.0317 -0.2442 -0.4204
   86TCq2    H4 1324   2.963   3.673  15.805  2.9496  0.3336  0.5997
   87MPD2     C 1325   0.870   2.962   1.786 -0.4096 -0.1749 -0.7207
   87MPD2    C1 1326   0.760   2.900   1.832 -0.0647 -0.5654 -0.1204
   87MPD2    C2 1327   0.647   2.947   1.781 -0.4270 -0.1684 -0.2112
   87MPD2    C3 1328   0.637   3.058   1.691 -0.5667 -0.5865  0.6669
   87MPD2    C4 1329   0.752   3.132   1.666 -0.5525 -0.6737  0.5823
   87MPD2    C5 1330   0.872   3.072   1.706 -0.9110  0.4555  0.1849
   87MPD2     H 1331   0.555   2.892   1.798  0.5569 -2.0317 -0.8475
   87MPD2    H1 1332   0.749   3.218   1.600 -0.7808 -3.0132 -2.4958
   87MPD2    H2 1333   0.966   2.924   1.819  0.1318 -0.4558 -2.6076
   87MPD2    H3 1334   0.967   3.119   1.687  0.3643 -1.4647  1.8486
   87MPD2     N 1335   0.523   3.098   1.619  0.0919  0.1408  0.3790
   87MPD2    H5 1336   0.529   3.184   1.565  0.2334 -0.2971 -0.2971
   87MPD2    N1 1337   0.774   2.782   1.904 -0.4553  0.2481 -0.0834
   87MPD2    H7 1338   0.866   2.740   1.899  0.0135  1.0502  1.7829
   88TCq2    C1 1339   0.682   2.719   1.973  0.7289  0.3065  0.8581
   88TCq2    O2 1340   0.580   2.763   2.019 -0.1325  0.2231 -0.2360
   88TCq2    C2 1341   0.714   2.583   1.993 -0.2668  0.1274 -0.5663
   88TCq2    C3 1342   0.687   2.528   2.116  0.7315 -0.9690 -0.1297
   88TCq2    C4 1343   0.721   2.396   2.131  0.3393  1.0635  0.7400
   88TCq2    C5 1344   0.776   2.317   2.029  0.6920  0.4054  0.9532
   88TCq2    C6 1345   0.801   2.378   1.909  0.5742 -1.2066 -0.1565
   88TCq2    C7 1346   0.783   2.512   1.894 -0.3869 -0.5950 -0.1148
   88TCq2    C8 1347   0.811   2.303   1.781 -0.7355 -0.0534  0.5174
   88TCq2    O4 1348   0.825   2.370   1.683  1.0181  0.4839 -0.2634
   88TCq2    C9 1349   0.693   2.331   2.253  0.3411  0.1677  0.4553
   88TCq2    O5 1350   0.622   2.388   2.339 -0.3361 -0.2838  0.0888
   88TCq2    O6 1351   0.734   2.212   2.273  0.2437  0.0459 -0.2104
   88TCq2    H2 1352   0.641   2.576   2.202 -1.5094  0.8709 -2.3606
   88TCq2    H3 1353   0.797   2.213   2.046 -0.4310  0.2678  1.5141
   88TCq2    H4 1354   0.816   2.560   1.803 -2.0869  0.1631 -0.3309
   89MPD2     C 1355   1.729   4.645   1.508  0.1018 -0.1465  0.1224
   89MPD2    C1 1356   1.659   0.041   1.508 -0.1529  0.6400 -0.3980
   89MPD2    C2 1357   1.705   0.150   1.429  0.0596  0.0144 -0.1257
   89MPD2    C3 1358   1.828   0.133   1.365  0.0075 -0.0507 -0.2722
   89MPD2    C4 1359   1.897   0.014   1.365  0.1001  0.7629 -0.2000
   89MPD2    C5 1360   1.849   4.641   1.447  0.8077 -0.7221  0.0662
   89MPD2     H 1361   1.655   0.246   1.420 -0.6754 -0.3969 -0.3765
   89MPD2    H1 1362   2.001   4.721   1.337  0.3796  0.0325  1.2915
   89MPD2    H2 1363   1.705   4.554   1.562  0.4532 -0.5446 -0.3854
   89MPD2    H3 1364   1.905   4.548   1.450  0.8476 -0.7298 -0.9240
   89MPD2     N 1365   1.874   0.244   1.291 -0.5505  0.4836  0.4355
   89MPD2    H5 1366   1.821   0.331   1.301  0.0109  0.9955 -1.1240
   89MPD2    N1 1367   1.543   0.054   1.588 -0.0537  0.2272  0.5479
   89MPD2    H7 1368   1.509   0.148   1.600  3.3311  1.6673 -1.1779
   90TCq2    C1 1369   1.989   0.242   1.211  1.1378  0.4088 -1.2482
   90TCq2    O2 1370   2.074   0.158   1.208 -0.2434  0.5200  0.3868
   90TCq2    C2 1371   2.025   0.366   1.144  1.0900 -0.6557 -0.2691
   90TCq2    C3 1372   2.115   0.345   1.049  0.1351  0.0981 -0.3511
   90TCq2    C4 1373   2.165   0.454   0.985  0.0616 -0.8495 -0.1626
   90TCq2    C5 1374   2.127   0.579   1.019 -0.2518  0.7879  0.5238
   90TCq2    C6 1375   2.034   0.602   1.116  0.5529  0.3117 -0.5654
   90TCq2    C7 1376   1.973   0.491   1.176 -0.1336 -0.1872  0.2385
   90TCq2    C8 1377   2.020   0.733   1.180 -0.3270  0.5081 -0.4679
   90TCq2    O4 1378   1.938   0.746   1.268  0.3091  0.2929  0.1773
   90TCq2    C9 1379   2.264   0.430   0.888 -0.3632 -0.2452  0.5169
   90TCq2    O5 1380   2.298   0.309   0.860 -0.0411  0.0546  0.4477
   90TCq2    O6 1381   2.336   0.530   0.866 -0.1974 -0.3422  0.1448
   90TCq2    H2 1382   2.155   0.251   1.012 -0.0685  0.0007 -0.3263
   90TCq2    H3 1383   2.172   0.662   0.965  1.9921 -0.3809  0.6022
   90TCq2    H4 1384   1.929   0.512   1.273  0.7918  1.6706  0.2605
   91TMC2    C1 1385   3.407   0.033  16.936  0.2828  0.1798 -0.0544
   91TMC2    C2 1386   3.454   0.151  16.884  0.7114  0.8030 -0.0955
   91TMC2    C3 1387   3.367   0.252  16.866 -0.2408  0.5291  0.1249
   91TMC2    C4 1388   3.273   0.011  16.956 -0.4646  0.4626 -0.2382
   91TMC2    C5 1389   3.187   0.105  16.905  0.1226 -0.1853 -0.3262
   91TMC2    C6 1390   3.235   0.229  16.860 -0.0081  0.6624  0.4589
   91TMC2     C 1391   3.465   4.631  16.888  0.6496  0.2931  0.5479
   91TMC2     O 1392   3.433   4.527  16.943  0.5218 -0.1086  0.5565
   91TMC2     H 1393   3.559   0.178  16.895  0.6708  0.7051  0.5635
   91TMC2    H1 1394   3.236   4.641  16.997  0.3672  0.4934  0.5767
   91TMC2    H2 1395   3.164   0.307  16.835 -0.3698  0.1727 -0.0798
   91TMC2    C7 1396   3.045   0.082  16.919 -1.0165 -0.0232 -0.3190
   91TMC2    C8 1397   3.414   0.378  16.804 -0.4834 -0.2499  0.1609
   91TMC2    O1 1398   3.004   0.010  17.013  0.5146 -0.3470 -0.1042
   91TMC2    O2 1399   3.517   0.374  16.735 -0.4027  0.0803  0.2204
   91TMC2    O5 1400   3.370   0.473  16.882 -0.2515 -0.2701 -0.3075
   91TMC2    H5 1401   3.291   0.443  16.931 -0.1711  1.9538  1.1806
   92MPD2     C 1402   3.559   4.418  16.703 -0.1049  0.5028  0.3183
   92MPD2    C1 1403   3.591   4.552  16.694 -1.3865  0.2945 -0.3415
   92MPD2    C2 1404   3.676   4.585  16.597 -0.2667 -0.5996  0.0675
   92MPD2    C3 1405   3.733   4.490  16.504  0.5960 -0.1061  0.4192
   92MPD2    C4 1406   3.709   4.353  16.524 -0.1188 -0.3091 -0.4793
   92MPD2    C5 1407   3.613   4.319  16.616  0.5979 -0.0797  0.3893
   92MPD2     H 1408   3.695   4.691  16.579  1.7068 -0.9983 -0.2307
   92MPD2    H1 1409   3.748   4.272  16.464  0.8959  0.6660 -1.1184
   92MPD2    H2 1410   3.489   4.387  16.780 -0.1241  0.4219  0.2686
   92MPD2    H3 1411   3.577   4.217  16.621 -0.7135  0.3105 -1.2294
   92MPD2     N 1412   3.819   4.539  16.397  0.5608  0.0649 -0.8085
   92MPD2    H5 1413   3.839   4.638  16.398  0.7191  0.0160  1.7400
   92MPD2    N1 1414   3.545   4.652  16.782 -0.6517 -0.4468  0.4925
   92MPD2    H7 1415   3.560   0.020  16.743 -0.1958 -1.8041 -2.5393
   93MPD2     C 1416   4.106   0.683  13.861  0.0024 -0.3880 -0.3025
   93MPD2    C1 1417   4.130   0.584  13.956 -0.0146  0.1349 -0.5362
   93MPD2    C2 1418   4.027   0.501  13.984  0.0578  0.3025 -0.3519
   93MPD2    C3 1419   3.906   0.502  13.923 -0.1518  0.5425  0.3459
   93MPD2    C4 1420   3.880   0.605  13.837  0.3538 -0.3861 -0.2229
   93MPD2    C5 1421   3.976   0.700  13.812  1.0172  0.7386 -0.7428
   93MPD2     H 1422   4.038   0.433  14.068  0.9356 -0.5426 -1.1478
   93MPD2    H1 1423   3.780   0.627  13.801 -0.0876 -2.1861 -0.1430
   93MPD2    H2 1424   4.176   0.761  13.832  0.0461 -0.3492 -0.0924
   93MPD2    H3 1425   3.966   0.781  13.741 -0.2823  1.1691 -0.0564
   93MPD2     N 1426   3.794   0.419  13.952  1.3995  0.5097 -0.3195
   93MPD2    H5 1427   3.711   0.441  13.899 -0.5327 -1.4614  1.9020
   93MPD2    N1 1428   4.247   0.580  14.040 -0.6027  0.4578 -0.1768
   93MPD2    H7 1429   4.258   0.503  14.105 -1.9707 -1.6151 -2.3955
   94TCq2    C1 1430   4.365   0.645  14.018 -0.1185  0.3982 -0.2865
   94TCq2    O2 1431   4.396   0.721  13.927  0.1528  0.2900 -0.3921
   94TCq2    C2 1432   4.476   0.602  14.108  0.1633 -0.1811  0.4153
   94TCq2    C3 1433   4.443   0.547  14.233 -0.4862 -0.2352  0.6987
   94TCq2    C4 1434   4.537   0.510  14.322  0.2863 -0.0057 -0.1202
   94TCq2    C5 1435   4.669   0.523  14.286 -0.9236 -0.4887 -0.7998
   94TCq2    C6 1436   4.704   0.583  14.168  0.2530  0.6043  0.4208
   94TCq2    C7 1437   4.609   0.624  14.082  0.0244  0.2058  0.1995
   94TCq2    C8 1438   0.118   0.618  14.147 -0.6220  0.2232  0.4915
   94TCq2    O4 1439   0.185   0.625  14.251  0.3841  0.4839  0.3170
   94TCq2    C9 1440   4.508   0.429  14.433  0.4002 -0.5454 -0.4170
   94TCq2    O5 1441   4.386   0.396  14.452  0.5372  0.0933  0.0498
   94TCq2    O6 1442   4.606   0.399  14.509 -0.1622  0.5516  0.1917
   94TCq2    H2 1443   4.341   0.522  14.259 -0.3239 -1.6793 -0.0487
   94TCq2    H3 1444   0.027   0.495  14.352 -0.9616  1.1971 -0.0122
   94TCq2    H4 1445   4.634   0.680  13.993 -1.1221 -0.4746 -0.5571
   95TMC2    C1 1446   4.465   1.702  16.217  0.8290  0.1782 -0.0004
   95TMC2    C2 1447   4.531   1.589  16.255 -0.5979  0.0257  0.2096
   95TMC2    C3 1448   4.444   1.493  16.300  0.1552  0.1075  0.2992
   95TMC2    C4 1449   4.332   1.711  16.193 -0.5117  0.1583  0.3173
   95TMC2    C5 1450   4.251   1.616  16.246 -0.4496  0.4940 -0.4696
   95TMC2    C6 1451   4.310   1.501  16.298 -0.0993  0.1405 -0.1979
   95TMC2     C 1452   4.543   1.805  16.158  0.3320 -0.2686 -0.2097
   95TMC2     O 1453   4.649   1.766  16.110  0.6540 -0.2572 -0.0752
   95TMC2     H 1454   4.638   1.589  16.266 -0.6098 -3.7091  0.4350
   95TMC2    H1 1455   4.278   1.793  16.147  0.4358  1.3788  1.3794
   95TMC2    H2 1456   4.253   1.409  16.308  0.3266 -0.0564  0.4103
   95TMC2    C7 1457   4.101   1.623  16.218 -0.2312  0.0743  0.7235
   95TMC2    C8 1458   4.500   1.403  16.397  0.4480  0.0127 -0.0475
   95TMC2    O1 1459   4.033   1.521  16.227 -0.5372  0.1320 -0.0110
   95TMC2    O2 1460   4.431   1.334  16.473  0.0759  0.6065 -0.6574
   95TMC2    O5 1461   4.605   1.354  16.329 -0.8890 -0.4694  0.4291
   95TMC2    H5 1462   4.640   1.404  16.252  0.2995 -3.2470 -0.8228
   96MPD2     C 1463   4.606   2.284  16.008  0.0534  0.0355 -0.6035
   96MPD2    C1 1464   4.662   2.170  15.963 -0.6326  0.4214  0.2218
   96MPD2    C2 1465   4.631   2.051  16.026 -0.0355  0.5378  0.1027
   96MPD2    C3 1466   4.534   2.047  16.126  0.3878 -0.6723  0.6266
   96MPD2    C4 1467   4.474   2.164  16.167 -0.4355  0.1857 -0.6927
   96MPD2    C5 1468   4.524   2.285  16.113  0.1095 -0.0105  1.0071
   96MPD2     H 1469   4.678   1.962  15.985  0.7327  0.3310  1.4287
   96MPD2    H1 1470   4.406   2.160  16.251  0.9742 -2.2243  0.3145
   96MPD2    H2 1471   4.637   2.381  15.971  1.7300  0.1841  1.1977
   96MPD2    H3 1472   4.479   2.374  16.154  0.0406  1.0180 -1.3397
   96MPD2     N 1473   4.488   1.931  16.180  0.3804  0.0049 -0.2771
   96MPD2    H5 1474   4.412   1.945  16.246  1.6595  1.8923  0.8173
   96MPD2    N1 1475   0.029   2.176  15.860 -0.3928 -0.9820 -0.7170
   96MPD2    H7 1476   0.065   2.268  15.839 -1.2298 -0.6922 -0.8754
   97MPD2     C 1477   2.402   4.223   0.867 -0.0963 -0.8708  0.8080
   97MPD2    C1 1478   2.295   4.155   0.801  0.0773  0.1060 -0.0993
   97MPD2    C2 1479   2.259   4.200   0.677 -0.4169  0.3741  0.2134
   97MPD2    C3 1480   2.320   4.310   0.619  0.2025  0.1144 -0.3378
   97MPD2    C4 1481   2.422   4.371   0.681  0.1814  0.1256  0.1869
   97MPD2    C5 1482   2.461   4.329   0.806 -1.3885 -0.2348 -0.3495
   97MPD2     H 1483   2.175   4.153   0.628  0.0825  1.4283 -1.6619
   97MPD2    H1 1484   2.474   4.456   0.639 -0.4068  1.5787  2.3648
   97MPD2    H2 1485   2.440   4.186   0.961 -0.7977  0.9353  1.8042
   97MPD2    H3 1486   2.532   4.387   0.863 -0.6611  1.5497 -3.0867
   97MPD2     N 1487   2.293   4.347   0.483  0.1823 -0.5695 -0.3125
   97MPD2    H5 1488   2.353   4.421   0.450 -0.3560 -0.5031 -1.1374
   97MPD2    N1 1489   2.255   4.040   0.864  0.1062 -0.3536 -0.6826
   97MPD2    H7 1490   2.307   4.017   0.948 -0.4416  2.6276  0.4534
   98TCq2    C1 1491   2.201   4.283   0.400 -0.5856 -0.8029  0.0616
   98TCq2    O2 1492   2.104   4.213   0.423  0.5219  0.4348  0.0502
   98TCq2    C2 1493   2.213   4.325   0.261  0.0999  0.1435 -0.5415
   98TCq2    C3 1494   2.117   4.280   0.172  1.1161 -0.3220 -0.1911
   98TCq2    C4 1495   2.108   4.328   0.048 -0.3235 -0.3426 -0.6165
   98TCq2    C5 1496   2.185   4.430   0.005  0.1382  0.3692 -0.5537
   98TCq2    C6 1497   2.278   4.476   0.089  0.7600 -0.2632 -0.3625
   98TCq2    C7 1498   2.297   4.431   0.218  0.1491  0.2608  0.0897
   98TCq2    C8 1499   2.359   4.592   0.053  0.1993 -0.5363  0.1582
   98TCq2    O4 1500   2.466   4.607   0.113  0.5643 -0.0846  0.1518
   98TCq2    C9 1501   2.010   4.285  17.658  0.1184 -0.4150 -0.1680
   98TCq2    O5 1502   1.998   4.162  17.635 -0.2514 -0.0549  0.5493
   98TCq2    O6 1503   1.954   4.374  17.589  0.1274 -0.3310  0.2966
   98TCq2    H2 1504   2.041   4.209   0.203  0.5194 -0.4077 -1.8311
   98TCq2    H3 1505   2.178   4.472  17.603 -0.6274  1.0985 -0.2012
   98TCq2    H4 1506   2.365   4.489   0.280  0.1623  2.9118 -2.4074
   99MPD2     C 1507   1.280   1.155   1.688  0.5784  0.1365  0.5979
   99MPD2    C1 1508   1.149   1.193   1.701  0.7435  0.3429 -0.3228
   99MPD2    C2 1509   1.054   1.155   1.609  0.2476  0.1160  0.1693
   99MPD2    C3 1510   1.100   1.068   1.506  0.9121  0.1155  0.1609
   99MPD2    C4 1511   1.226   1.024   1.502  0.4934 -0.1828 -0.0140
   99MPD2    C5 1512   1.315   1.061   1.595 -0.1899 -0.2274 -0.0721
   99MPD2     H 1513   0.951   1.188   1.603  0.1121  0.2943  3.4717
   99MPD2    H1 1514   1.255   0.953   1.426 -2.5997 -0.7704 -0.6642
   99MPD2    H2 1515   1.350   1.176   1.769  1.8259 -1.1622 -0.1396
   99MPD2    H3 1516   1.417   1.027   1.580  0.1731  0.6717  0.3916
   99MPD2     N 1517   1.000   1.027   1.413  0.3876 -0.6098  0.0938
   99MPD2    H5 1518   0.903   1.053   1.426  0.3378  0.6897 -2.9671
   99MPD2    N1 1519   1.099   1.272   1.808  0.7396  0.3927 -0.6737
   99MPD2    H7 1520   0.999   1.276   1.819  0.9055 -0.2138  1.0325
  100TCq2    C1 1521   1.172   1.343   1.895  0.3216 -0.7132  0.6875
  100TCq2    O2 1522   1.283   1.391   1.875 -0.5618  0.1213  0.1320
  100TCq2    C2 1523   1.092   1.402   2.001 -0.1645  0.2030 -0.7967
  100TCq2    C3 1524   1.145   1.505   2.071 -0.1512  0.1443 -0.3550
  100TCq2    C4 1525   1.081   1.540   2.183  1.0009  0.7000 -0.0663
  100TCq2    C5 1526   0.968   1.482   2.218 -0.0196  0.0135 -0.6023
  100TCq2    C6 1527   0.908   1.382   2.146 -0.2720 -0.1048  0.1765
  100TCq2    C7 1528   0.974   1.336   2.034  0.1344  0.2899  0.4814
  100TCq2    C8 1529   0.775   1.336   2.185 -0.3964 -0.5540  0.2502
  100TCq2    O4 1530   0.739   1.349   2.300 -0.3349 -0.1203  0.2286
  100TCq2    C9 1531   1.131   1.659   2.260  0.1452  0.6250  0.1840
  100TCq2    O5 1532   1.181   1.753   2.188  0.5607 -0.3520  0.0716
  100TCq2    O6 1533   1.125   1.662   2.386 -0.5979 -0.3254 -0.1959
  100TCq2    H2 1534   1.237   1.556   2.046 -0.9756  1.9281  0.2491
  100TCq2    H3 1535   0.924   1.526   2.307  0.1206 -0.9850 -0.0383
  100TCq2    H4 1536   0.938   1.249   1.981  0.9846  0.9754 -1.2444
  101MPD2     C 1537   1.668   2.476  13.123  0.5369  0.2796 -0.7267
  101MPD2    C1 1538   1.651   2.561  13.229 -0.1911 -0.4028  0.7688
  101MPD2    C2 1539   1.590   2.501  13.345  0.4403  0.4040  0.0088
  101MPD2    C3 1540   1.547   2.370  13.346  0.0132  0.3986 -0.3222
  101MPD2    C4 1541   1.577   2.293  13.241  0.4028 -0.3597 -0.6542
  101MPD2    C5 1542   1.631   2.345  13.132  0.3926 -0.8338  0.6730
  101MPD2     H 1543   1.585   2.553  13.440  1.7254 -0.2171  0.4180
  101MPD2    H1 1544   1.549   2.189  13.226  1.5962 -0.6604 -0.8442
  101MPD2    H2 1545   1.728   2.504  13.037 -1.3696  2.4949 -1.3457
  101MPD2    H3 1546   1.653   2.275  13.051 -0.6361 -0.7321  0.2952
  101MPD2     N 1547   1.467   2.318  13.456 -0.2636 -0.0301  0.2686
  101MPD2    H5 1548   1.463   2.380  13.536 -0.4168  0.4843 -0.1472
  101MPD2    N1 1549   1.720   2.687  13.228  0.6215  0.0393  0.6725
  101MPD2    H7 1550   1.752   2.723  13.139  2.7489  1.8354  2.1561
  102TCq2    C1 1551   2.045   2.983  13.042 -0.8996 -0.2571  0.7275
  102TCq2    O2 1552   2.075   2.872  12.991  0.6138  0.1543 -0.4299
  102TCq2    C2 1553   1.985   2.980  13.173  0.0080  0.8189 -0.0698
  102TCq2    C3 1554   1.962   3.093  13.245 -0.3138  0.4190  0.0269
  102TCq2    C4 1555   1.887   3.098  13.357 -0.1903 -0.4629  0.3339
  102TCq2    C5 1556   1.816   2.984  13.400 -0.4270 -0.2130  0.8391
  102TCq2    C6 1557   1.831   2.871  13.322  0.7338 -0.6147 -0.1982
  102TCq2    C7 1558   1.915   2.865  13.213  0.1117 -0.5229  0.1542
  102TCq2    C8 1559   1.729   2.767  13.341  0.0758  0.2828 -0.2089
  102TCq2    O4 1560   1.667   2.766  13.443  0.3290  0.1133 -0.2294
  102TCq2    C9 1561   1.889   3.222  13.437 -0.4389 -0.5749  0.1235
  102TCq2    O5 1562   1.842   3.218  13.552 -0.5464 -0.2608  0.4415
  102TCq2    O6 1563   1.907   3.332  13.386  1.0943 -0.4548 -0.1796
  102TCq2    H2 1564   2.019   3.183  13.223 -1.4060  0.3486 -3.1329
  102TCq2    H3 1565   1.748   2.979  13.484 -0.8190 -0.1104  0.5263
  102TCq2    H4 1566   1.931   2.775  13.155  1.0889 -0.0716 -0.2722
  103TMC2    C1 1567   0.201   2.729  12.829  0.0151  0.2705  0.2438
  103TMC2    C2 1568   0.330   2.742  12.871 -0.4786  0.7765 -0.8695
  103TMC2    C3 1569   0.355   2.792  13.002  0.3005 -0.6298  0.1740
  103TMC2    C4 1570   0.096   2.758  12.911 -0.2447  0.1156 -0.3051
  103TMC2    C5 1571   0.126   2.804  13.041  0.1853 -0.3601  0.2170
  103TMC2    C6 1572   0.255   2.820  13.091  0.1192  0.2221 -0.1932
  103TMC2     C 1573   0.176   2.684  12.695 -0.5009 -0.8576 -0.2092
  103TMC2     O 1574   0.059   2.684  12.656  0.1568 -0.1003  0.7037
  103TMC2     H 1575   0.417   2.716  12.811 -0.1274  1.7639 -0.7871
  103TMC2    H1 1576   4.714   2.745  12.893 -0.5132  1.3824  0.3973
  103TMC2    H2 1577   0.266   2.855  13.193 -0.9517  3.3758 -1.1842
  103TMC2    C7 1578   0.024   2.886  13.105  0.3423  0.0655  0.3333
  103TMC2    C8 1579   0.484   2.853  13.032 -0.0865  0.1261  0.1669
  103TMC2    O1 1580   0.021   2.888  13.228  0.0436  0.5324 -0.5063
  103TMC2    O2 1581   0.577   2.836  12.954  0.5049 -0.8811 -0.1448
  103TMC2    O5 1582   0.462   2.967  13.102  0.7093  0.0042 -0.0508
  103TMC2    H5 1583   0.410   2.963  13.185 -0.0894  0.1080 -0.5484
  104MPD2     C 1584   0.417   2.689  12.411  0.2574  0.0597  0.1279
  104MPD2    C1 1585   0.295   2.695  12.464 -0.8213 -0.8409  0.6840
  104MPD2    C2 1586   0.183   2.697  12.382 -0.2576  0.0265 -0.2284
  104MPD2    C3 1587   0.197   2.683  12.247  0.3335 -0.2528  0.4464
  104MPD2    C4 1588   0.320   2.693  12.199  0.5905  0.0451 -0.1320
  104MPD2    C5 1589   0.427   2.698  12.281 -0.0338  0.4495 -0.1719
  104MPD2     H 1590   0.082   2.690  12.421  1.0018 -2.8153  2.5676
  104MPD2    H1 1591   0.335   2.699  12.092  0.4556  2.0914 -0.0464
  104MPD2    H2 1592   0.505   2.692  12.474 -0.5593 -1.6397  1.3685
  104MPD2    H3 1593   0.526   2.706  12.237 -0.1299 -0.2020 -0.5048
  104MPD2     N 1594   0.074   2.672  12.166  0.1606 -0.2311 -0.3610
  104MPD2    H5 1595   4.711   2.702  12.208 -0.3555 -0.1658 -1.4828
  104MPD2    N1 1596   0.287   2.688  12.609 -0.1002  0.5327  0.5308
  104MPD2    H7 1597   0.374   2.712  12.655 -0.6425  0.6331  1.4979
  105MPD2     C 1598   1.214   1.763   0.381  0.1915  0.5572  0.3063
  105MPD2    C1 1599   1.124   1.865   0.360 -0.1657  0.4624 -0.1343
  105MPD2    C2 1600   1.049   1.908   0.470  0.4266  0.1160  0.1176
  105MPD2    C3 1601   1.066   1.850   0.591  0.1559 -0.5185 -0.1307
  105MPD2    C4 1602   1.150   1.743   0.607 -0.1471  0.8575 -0.3524
  105MPD2    C5 1603   1.210   1.693   0.498  0.5878 -0.4566 -0.2876
  105MPD2     H 1604   0.988   1.997   0.464 -2.2431 -1.7459 -0.4669
  105MPD2    H1 1605   1.164   1.688   0.699  1.4652 -1.8587 -2.2196
  105MPD2    H2 1606   1.278   1.729   0.301 -0.2964 -0.7338  0.4740
  105MPD2    H3 1607   1.272   1.605   0.509 -0.2617 -0.7468  2.0544
  105MPD2     N 1608   0.986   1.899   0.700  0.6496  0.0337  0.2246
  105MPD2    H5 1609   0.924   1.977   0.680  1.0751 -0.0759 -1.5270
  105MPD2    N1 1610   1.124   1.931   0.237  0.7473 -0.0941 -0.0693
  105MPD2    H7 1611   1.088   2.026   0.241  1.2533  0.1254 -0.8535
  106TCq2    C1 1612   0.975   1.854   0.827 -0.3549  0.3657  0.3022
  106TCq2    O2 1613   1.015   1.746   0.872 -0.5052 -0.0453  0.0325
  106TCq2    C2 1614   0.911   1.953   0.916 -0.4825  0.0122  0.5908
  106TCq2    C3 1615   0.933   2.087   0.893  0.3457 -0.5999 -1.0830
  106TCq2    C4 1616   0.883   2.173   0.987 -0.4122  0.7573 -0.8072
  106TCq2    C5 1617   0.824   2.122   1.097 -0.3189 -0.5197  0.9550
  106TCq2    C6 1618   0.807   1.987   1.111  0.3576  0.1800  0.0171
  106TCq2    C7 1619   0.851   1.897   1.019 -0.8732 -0.3495  0.6872
  106TCq2    C8 1620   0.780   1.930   1.248  0.6198  0.1184  0.1927
  106TCq2    O4 1621   0.756   1.807   1.245 -0.4306  0.8579 -0.1705
  106TCq2    C9 1622   0.899   2.317   0.978 -0.5440 -0.0514 -0.8035
  106TCq2    O5 1623   0.871   2.385   1.077 -0.2174 -0.5319 -0.1070
  106TCq2    O6 1624   0.936   2.369   0.875  0.2201 -0.2577 -0.4085
  106TCq2    H2 1625   0.981   2.140   0.812  2.5147 -0.5726  0.2199
  106TCq2    H3 1626   0.790   2.189   1.175 -1.7108  0.2198 -0.2886
  106TCq2    H4 1627   0.852   1.790   1.035  0.5078 -0.8988 -2.9348
  107TMC2    C1 1628   2.079   1.658  11.700 -0.1878  0.4516 -0.0868
  107TMC2    C2 1629   2.155   1.772  11.678 -0.0673  0.7695 -0.2650
  107TMC2    C3 1630   2.231   1.769  11.563 -1.0035  0.1301 -0.0144
  107TMC2    C4 1631   2.069   1.562  11.599  0.0056  0.1333  0.0782
  107TMC2    C5 1632   2.143   1.567  11.478  0.3622 -0.0019 -0.5421
  107TMC2    C6 1633   2.228   1.675  11.462 -0.5438  0.0303 -0.7963
  107TMC2     C 1634   1.996   1.645  11.822 -0.1584 -0.0165  0.0361
  107TMC2     O 1635   1.974   1.534  11.867 -0.3817  0.0978 -0.0075
  107TMC2     H 1636   2.168   1.846  11.756 -2.0267  1.5055 -0.6411
  107TMC2    H1 1637   2.011   1.477  11.632  0.9027 -0.1171  1.0048
  107TMC2    H2 1638   2.289   1.673  11.373  1.4126 -0.2000  0.5424
  107TMC2    C7 1639   2.122   1.456  11.385  0.5637 -0.3812  0.4745
  107TMC2    C8 1640   2.324   1.884  11.541 -0.3943 -0.6553  0.0128
  107TMC2    O1 1641   2.017   1.394  11.394 -0.0928  0.0788 -0.3935
  107TMC2    O2 1642   2.372   1.941  11.638 -0.2285  0.2744  0.3131
  107TMC2    O5 1643   2.317   1.925  11.415  0.2981 -0.0762 -0.3706
  107TMC2    H5 1644   2.242   1.884  11.367  1.0420 -1.8686  0.0059
  108MPD2     C 1645   1.807   1.919  11.974  0.1696  0.1637  0.0832
  108MPD2    C1 1646   1.864   1.795  11.969 -0.2696  0.1776  0.4539
  108MPD2    C2 1647   1.835   1.698  12.069  0.7099  0.3442 -0.1226
  108MPD2    C3 1648   1.760   1.734  12.175 -0.4136 -0.1837 -0.1788
  108MPD2    C4 1649   1.703   1.859  12.186 -0.0522  0.5576  0.1149
  108MPD2    C5 1650   1.730   1.947  12.087 -0.9255 -0.3573  0.3232
  108MPD2     H 1651   1.882   1.601  12.074 -0.5757 -0.3124 -0.7782
  108MPD2    H1 1652   1.644   1.902  12.266 -1.9549 -4.1664  1.2412
  108MPD2    H2 1653   1.835   1.995  11.901 -0.2964  0.9129  0.6954
  108MPD2    H3 1654   1.687   2.047  12.091 -0.4472 -0.1021 -0.8967
  108MPD2     N 1655   1.719   1.643  12.276 -0.2660 -0.1789  0.0222
  108MPD2    H5 1656   1.648   1.678  12.341 -0.6610  1.4998 -1.3168
  108MPD2    N1 1657   1.946   1.769  11.858 -0.1572  0.2760 -0.2815
  108MPD2    H7 1658   1.956   1.850  11.798  0.5243  0.3082 -0.1349
  109MPD2     C 1659   1.970   2.902   2.182 -0.8470 -0.3579 -0.5798
  109MPD2    C1 1660   1.935   2.946   2.052 -0.6010 -0.1190 -0.1893
  109MPD2    C2 1661   2.035   3.001   1.973 -0.5482 -0.5856  0.4818
  109MPD2    C3 1662   2.161   3.026   2.029  0.3117 -0.7674 -0.9766
  109MPD2    C4 1663   2.190   2.981   2.156  0.6301  0.1017  0.0098
  109MPD2    C5 1664   2.099   2.912   2.224 -0.0490  0.6486  0.1673
  109MPD2     H 1665   2.012   3.041   1.876 -0.9015  0.6125  1.0626
  109MPD2    H1 1666   2.287   2.976   2.203  0.3944  1.6212  0.6687
  109MPD2    H2 1667   1.904   2.844   2.246  0.4029  0.5090  1.4831
  109MPD2    H3 1668   2.109   2.866   2.322 -0.4778  2.4247  1.0421
  109MPD2     N 1669   2.262   3.077   1.950 -0.6345 -0.1994  0.0644
  109MPD2    H5 1670   2.232   3.120   1.863 -1.1546 -0.1863  0.2538
  109MPD2    N1 1671   1.801   2.928   2.013  0.7772  0.4604 -0.5801
  109MPD2    H7 1672   1.743   2.881   2.081  0.3121 -1.2173 -2.1242
  110TCq2    C1 1673   2.399   3.077   1.975  0.1022  0.5226  0.2626
  110TCq2    O2 1674   2.471   3.023   2.058 -0.1626  0.4576 -0.2880
  110TCq2    C2 1675   2.479   3.153   1.882 -0.3965  0.2356 -0.0028
  110TCq2    C3 1676   2.617   3.135   1.879  0.4063  0.5890 -0.2365
  110TCq2    C4 1677   2.694   3.192   1.787 -0.1772  0.2528 -0.1029
  110TCq2    C5 1678   2.636   3.268   1.692 -0.1665 -0.3428  0.0947
  110TCq2    C6 1679   2.499   3.285   1.686  0.4130 -0.1374 -0.6964
  110TCq2    C7 1680   2.417   3.228   1.781  0.4982  0.2789  0.1922
  110TCq2    C8 1681   2.443   3.398   1.602 -0.0212  0.3660 -0.0787
  110TCq2    O4 1682   2.322   3.409   1.589 -0.7082 -0.2167  0.2278
  110TCq2    C9 1683   2.828   3.155   1.778 -0.1470 -0.3084  0.3773
  110TCq2    O5 1684   2.895   3.220   1.692 -0.5550  0.1274 -0.1571
  110TCq2    O6 1685   2.876   3.080   1.863 -0.2334 -0.1262  0.1255
  110TCq2    H2 1686   2.670   3.069   1.947  0.0035  1.3062  0.7874
  110TCq2    H3 1687   2.703   3.297   1.612 -1.6033  2.2640 -0.1532
  110TCq2    H4 1688   2.311   3.251   1.786  0.3814 -0.3211  0.4805
  111TMC2    C1 1689   1.874   3.620  12.024 -0.3462  0.1818  0.3243
  111TMC2    C2 1690   1.775   3.636  12.117 -0.2348  0.5672 -0.6477
  111TMC2    C3 1691   1.804   3.595  12.246 -0.4088  0.6566 -0.4099
  111TMC2    C4 1692   1.991   3.557  12.053 -0.2648  0.2006 -0.5597
  111TMC2    C5 1693   2.008   3.514  12.184  0.0116  0.2580 -0.4487
  111TMC2    C6 1694   1.918   3.530  12.288 -0.5150 -0.2161  0.0430
  111TMC2     C 1695   1.846   3.668  11.890  0.1493  0.0684  0.5517
  111TMC2     O 1696   1.735   3.699  11.848 -0.1501  0.2402  0.0006
  111TMC2     H 1697   1.676   3.676  12.096  0.3676  2.6474  0.4833
  111TMC2    H1 1698   2.055   3.526  11.970 -0.1529  1.0858 -0.8046
  111TMC2    H2 1699   1.939   3.505  12.392  2.3336  1.9310 -0.0305
  111TMC2    C7 1700   2.132   3.441  12.215 -0.7674 -0.3106 -0.1950
  111TMC2    C8 1701   1.722   3.633  12.359 -0.4274  0.2323 -0.5011
  111TMC2    O1 1702   2.124   3.350  12.296 -0.5566  0.0322  0.1521
  111TMC2    O2 1703   1.751   3.597  12.473 -0.4931 -0.2236 -0.1347
  111TMC2    O5 1704   1.665   3.753  12.332  0.2672 -0.0456  0.5218
  111TMC2    H5 1705   1.672   3.787  12.240 -2.0876 -0.3407  0.2481
  112MPD2     C 1706   2.029   3.806  11.435 -0.4334 -0.1307  0.0542
  112MPD2    C1 1707   1.899   3.807  11.484  0.0986 -0.4087 -0.3046
  112MPD2    C2 1708   1.875   3.785  11.612 -0.9351  0.2630  0.1744
  112MPD2    C3 1709   1.978   3.744  11.693 -0.1798 -0.4356 -0.6505
  112MPD2    C4 1710   2.102   3.744  11.648 -0.2215 -0.2917  0.3175
  112MPD2    C5 1711   2.126   3.776  11.520  0.0928  0.3706 -0.3714
  112MPD2     H 1712   1.769   3.783  11.636 -0.9757  3.2834  0.1954
  112MPD2    H1 1713   2.183   3.709  11.711 -0.5859 -1.9493 -0.1380
  112MPD2    H2 1714   2.052   3.839  11.334 -4.0137 -0.5530 -0.9198
  112MPD2    H3 1715   2.226   3.790  11.481  1.5119  1.3315  3.6459
  112MPD2     N 1716   1.965   3.701  11.827  0.0986  0.6424 -0.1513
  112MPD2    H5 1717   2.052   3.678  11.874 -0.3842 -0.5405  0.1695
  112MPD2    N1 1718   1.789   3.814  11.394 -0.4050  0.5010  0.0862
  112MPD2    H7 1719   1.695   3.790  11.424 -0.7212  1.9832  0.2838
  113MPD2     C 1720   0.244   1.202   1.158  0.4537 -1.0040  0.2932
  113MPD2    C1 1721   0.133   1.273   1.197 -0.7581  0.1565  0.0540
  113MPD2    C2 1722   0.016   1.264   1.127 -0.1159  0.2337 -0.2588
  113MPD2    C3 1723   0.004   1.176   1.013  0.2953 -0.2637 -0.1092
  113MPD2    C4 1724   0.117   1.106   0.981 -0.1359 -0.3571 -0.4296
  113MPD2    C5 1725   0.234   1.118   1.052  0.6767  0.6081  0.3680
  113MPD2     H 1726   4.653   1.308   1.173  1.5037  0.9906  2.0799
  113MPD2    H1 1727   0.112   1.055   0.885  1.0998 -1.1760 -0.0656
  113MPD2    H2 1728   0.342   1.195   1.203  1.1704 -0.0183 -1.0950
  113MPD2    H3 1729   0.319   1.063   1.013 -0.7536 -2.8037  2.1042
  113MPD2     N 1730   4.607   1.154   0.939  0.2703  0.3161 -0.1221
  113MPD2    H5 1731   4.620   1.104   0.852 -2.4913 -1.1974  0.3504
  113MPD2    N1 1732   0.128   1.354   1.313 -0.0069 -0.1355 -0.4168
  113MPD2    H7 1733   0.068   1.436   1.318 -0.3449 -0.2625 -2.3360
  114TCq2    C1 1734   4.483   1.202   0.980 -0.2119  0.1201 -0.3593
  114TCq2    O2 1735   4.446   1.251   1.086 -0.3044 -0.4580 -0.2635
  114TCq2    C2 1736   4.381   1.143   0.904  0.4688 -0.1018 -0.6750
  114TCq2    C3 1737   4.256   1.198   0.925 -0.2631 -0.9645  0.2674
  114TCq2    C4 1738   4.141   1.121   0.895  0.0796 -0.7835  0.3026
  114TCq2    C5 1739   4.158   0.992   0.871  0.1474  0.0349 -0.2599
  114TCq2    C6 1740   4.282   0.947   0.853  0.5638  0.3954  0.2974
  114TCq2    C7 1741   4.401   1.015   0.863  0.2456  0.1069 -0.2314
  114TCq2    C8 1742   4.312   0.810   0.867  0.5614 -0.4624  0.0302
  114TCq2    O4 1743   4.380   0.762   0.777 -0.2490 -0.0405 -0.4657
  114TCq2    C9 1744   4.022   1.169   0.953 -0.5254 -0.1575 -0.0517
  114TCq2    O5 1745   4.017   1.282   1.007  0.0136 -0.4754  0.4251
  114TCq2    O6 1746   3.944   1.074   0.980 -0.9985 -0.0649  0.0082
  114TCq2    H2 1747   4.240   1.298   0.962 -0.0722 -1.0540  0.5958
  114TCq2    H3 1748   4.078   0.920   0.870 -0.3699  0.6058  0.7565
  114TCq2    H4 1749   4.495   0.963   0.876  1.5844  2.6758  0.4432
  115TMC2    C1 1750   0.702   3.587  17.658  0.8555  0.0976 -0.4015
  115TMC2    C2 1751   0.725   3.552  17.530  0.3595  0.0514 -0.4246
  115TMC2    C3 1752   0.701   3.652  17.441 -0.2898  0.4810 -0.0342
  115TMC2    C4 1753   0.691   3.719   0.003 -0.6166 -0.4051 -0.0084
  115TMC2    C5 1754   0.687   3.815  17.604  0.1448  0.7384  0.0720
  115TMC2    C6 1755   0.684   3.786  17.473  0.0897 -0.6839 -0.7459
  115TMC2     C 1756   0.594   3.514   0.016  0.4735 -0.2470  0.5643
  115TMC2     O 1757   0.585   3.394   0.011 -0.0530 -0.5112  0.2692
  115TMC2     H 1758   0.721   3.446  17.505  1.7090  0.2700 -1.6010
  115TMC2    H1 1759   0.682   3.745   0.107 -1.5231  0.8698 -0.4182
  115TMC2    H2 1760   0.671   3.860  17.395 -2.1965  1.0937  1.3166
  115TMC2    C7 1761   0.617   3.932  17.653  0.1149 -0.5768 -0.3753
  115TMC2    C8 1762   0.653   3.625  17.303 -0.5193  0.0581 -0.3308
  115TMC2    O1 1763   0.554   3.927   0.063 -0.1243  0.1914 -0.3774
  115TMC2    O2 1764   0.588   3.709  17.242 -0.4257 -0.3285 -0.5490
  115TMC2    O5 1765   0.678   3.502  17.265  0.4779  0.2883 -0.1980
  115TMC2    H5 1766   0.741   3.461  17.327 -0.0088 -0.7783 -0.4017
  116MPD2     C 1767   0.092   3.499  17.681 -0.6423  0.0726  0.3664
  116MPD2    C1 1768   0.179   3.427  17.619 -0.2910  0.4643  0.0474
  116MPD2    C2 1769   0.313   3.459  17.635 -0.7785 -0.1337  0.1122
  116MPD2    C3 1770   0.353   3.567   0.016  0.4246  0.4778  0.1215
  116MPD2    C4 1771   0.256   3.645   0.073  0.1371 -0.2094 -0.1297
  116MPD2    C5 1772   0.123   3.610   0.057 -0.2666 -0.2192 -0.0735
  116MPD2     H 1773   0.385   3.390  17.591 -1.2230  0.2842 -1.2874
  116MPD2    H1 1774   0.277   3.729   0.138 -1.0015  1.4339 -1.8839
  116MPD2    H2 1775   4.714   3.464  17.670 -0.3285 -0.9211  0.6295
  116MPD2    H3 1776   0.052   3.659   0.123 -1.3251 -1.3690 -0.3697
  116MPD2     N 1777   0.487   3.599   0.045  0.1064  0.1655 -0.0443
  116MPD2    H5 1778   0.505   3.699   0.052 -0.3433  0.2286  0.2788
  116MPD2    N1 1779   0.133   3.316  17.551 -0.6532  0.1367 -0.6119
  116MPD2    H7 1780   0.036   3.304  17.523 -0.1972 -0.2897 -2.0372
  117TMC2    C1 1781   4.020   0.627  14.348 -0.5604  0.1697 -0.4664
  117TMC2    C2 1782   4.120   0.613  14.443 -0.7260 -0.1812 -0.3074
  117TMC2    C3 1783   4.203   0.719  14.457 -0.3696 -0.2940 -0.0620
  117TMC2    C4 1784   4.022   0.729  14.255 -0.2958  0.3867 -0.1328
  117TMC2    C5 1785   4.129   0.816  14.264 -0.1718 -0.1133  0.1457
  117TMC2    C6 1786   4.214   0.818  14.364  0.1614 -0.2892  0.0608
  117TMC2     C 1787   3.906   0.533  14.366  0.1423 -0.2613 -0.3182
  117TMC2     O 1788   3.931   0.434  14.433  0.4984 -0.6250 -0.5625
  117TMC2     H 1789   4.112   0.536  14.519  0.2725  0.1134  0.0879
  117TMC2    H1 1790   3.944   0.745  14.182  1.6496  0.9316 -2.0802
  117TMC2    H2 1791   4.273   0.906  14.389  0.1009  0.2901 -1.7830
  117TMC2    C7 1792   4.152   0.910  14.152 -0.1097  0.4631 -0.5794
  117TMC2    C8 1793   4.284   0.736  14.581 -0.4252 -0.0242 -0.5825
  117TMC2    O1 1794   4.267   0.950  14.125 -0.3111  0.0437  0.5592
  117TMC2    O2 1795   4.327   0.847  14.608 -0.1412 -0.2383  0.1489
  117TMC2    O5 1796   4.360   0.624  14.595  0.0333  0.3562 -0.3184
  117TMC2    H5 1797   4.333   0.540  14.551 -1.4919  0.2635  0.7660
  118MPD2     C 1798   3.884   1.142  14.034 -0.0738  0.0715 -0.4842
  118MPD2    C1 1799   4.017   1.099  14.058 -0.1416 -0.0084  1.3816
  118MPD2    C2 1800   4.120   1.175  14.019  0.4767  0.2529 -0.4031
  118MPD2    C3 1801   4.095   1.299  13.962 -0.5153  0.5164 -0.8035
  118MPD2    C4 1802   3.971   1.338  13.936 -0.2200  0.5768 -1.0217
  118MPD2    C5 1803   3.864   1.268  13.984 -0.0486 -0.3066  0.0729
  118MPD2     H 1804   4.221   1.150  14.047  0.0512 -0.2935  0.6437
  118MPD2    H1 1805   3.951   1.427  13.876 -1.7480  1.7643  1.2773
  118MPD2    H2 1806   3.804   1.080  14.071 -1.4957  2.1252 -0.1708
  118MPD2    H3 1807   3.769   1.317  13.966 -0.3855 -1.5451 -1.4565
  118MPD2     N 1808   4.201   1.388  13.929 -0.3925 -0.0460  0.2554
  118MPD2    H5 1809   4.182   1.474  13.877 -4.0117 -1.0205 -0.0327
  118MPD2    N1 1810   4.033   0.972  14.125 -0.5718 -0.0653  0.2334
  118MPD2    H7 1811   3.947   0.932  14.160 -1.2819 -0.9401 -2.4884
  119MPD2     C 1812   2.700   2.208  13.350  0.3574 -0.1538  0.3870
  119MPD2    C1 1813   2.570   2.217  13.382  0.7210 -0.0895  0.1946
  119MPD2    C2 1814   2.482   2.116  13.337  0.6096 -0.1694  0.2287
  119MPD2    C3 1815   2.528   2.006  13.261  0.2879  0.5184  0.3345
  119MPD2    C4 1816   2.664   1.999  13.236  0.4706 -0.0489 -0.4787
  119MPD2    C5 1817   2.746   2.100  13.283  1.0141 -0.5411  0.0326
  119MPD2     H 1818   2.378   2.111  13.368  0.5695 -1.0358 -0.0393
  119MPD2    H1 1819   2.703   1.915  13.178 -2.2185 -0.6958 -1.3646
  119MPD2    H2 1820   2.778   2.277  13.380 -0.5690  1.1983 -0.3418
  119MPD2    H3 1821   2.849   2.093  13.250  1.2609  2.1712  0.1906
  119MPD2     N 1822   2.453   1.893  13.227 -0.4158 -0.5196  0.1425
  119MPD2    H5 1823   2.507   1.811  13.203 -1.2961 -0.8186 -0.7991
  119MPD2    N1 1824   2.520   2.320  13.463  0.0031  0.8007 -0.0831
  119MPD2    H7 1825   2.593   2.383  13.493 -0.7535  0.3565  2.6795
  120TCq2    C1 1826   2.321   1.881  13.257  0.1797 -0.5418  0.0347
  120TCq2    O2 1827   2.236   1.966  13.282 -0.2064  0.6146 -0.2760
  120TCq2    C2 1828   2.259   1.754  13.214  0.4050 -0.1537  0.1252
  120TCq2    C3 1829   2.285   1.715  13.082  0.7519  0.4097 -0.1421
  120TCq2    C4 1830   2.202   1.630  13.019 -0.2487 -0.0216 -1.0521
  120TCq2    C5 1831   2.097   1.586  13.094  0.2023  0.3897  0.2630
  120TCq2    C6 1832   2.066   1.632  13.220 -0.2947  0.0266  0.4415
  120TCq2    C7 1833   2.141   1.730  13.274 -0.7464  0.5518  0.7760
  120TCq2    C8 1834   1.935   1.620  13.271 -0.1946 -0.1037 -0.5409
  120TCq2    O4 1835   1.848   1.595  13.188 -0.4864 -0.2044  0.1936
  120TCq2    C9 1836   2.238   1.587  12.885  0.5933  0.6645  0.0767
  120TCq2    O5 1837   2.362   1.576  12.864  0.3854 -0.1896  0.0332
  120TCq2    O6 1838   2.144   1.554  12.807  0.1868 -0.1080  0.1025
  120TCq2    H2 1839   2.379   1.740  13.034  0.9035 -3.6060 -1.9051
  120TCq2    H3 1840   2.042   1.505  13.048 -0.1433  0.4083  0.6451
  120TCq2    H4 1841   2.129   1.773  13.372  1.0523  0.9526  0.8078
  121TMC2    C1 1842   3.767   3.598  13.671  0.4395  0.1651 -0.1630
  121TMC2    C2 1843   3.859   3.500  13.627  0.2559 -0.4664 -0.1704
  121TMC2    C3 1844   3.817   3.372  13.626  0.0122 -0.4450  0.6873
  121TMC2    C4 1845   3.630   3.566  13.686  0.1134 -0.3302  0.2069
  121TMC2    C5 1846   3.597   3.433  13.679  0.0150 -0.4678 -0.2318
  121TMC2    C6 1847   3.686   3.333  13.647  0.1912 -0.6304 -0.6892
  121TMC2     C 1848   3.809   3.741  13.674 -0.3931  0.4181 -0.4913
  121TMC2     O 1849   3.740   3.815  13.739  0.0064 -0.4296  0.0181
  121TMC2     H 1850   3.963   3.526  13.608  0.2159 -0.6713 -0.6763
  121TMC2    H1 1851   3.556   3.642  13.704  0.9187  0.5268 -0.0926
  121TMC2    H2 1852   3.642   3.234  13.637 -0.5912 -0.3450 -0.1555
  121TMC2    C7 1853   3.457   3.402  13.714 -0.4983  0.3649 -0.4686
  121TMC2    C8 1854   3.907   3.272  13.571  0.7724 -0.4862 -0.1055
  121TMC2    O1 1855   3.439   3.322  13.808  0.3126 -0.1320  0.2959
  121TMC2    O2 1856   3.982   3.286  13.478 -0.1372 -0.0332  0.0873
  121TMC2    O5 1857   3.885   3.148  13.626  0.4968  0.3549  0.4712
  121TMC2    H5 1858   3.838   3.158  13.712 -2.3208 -2.9005 -0.7119
  122MPD2     C 1859   3.954   4.008  13.694 -0.4125 -1.0394  0.1503
  122MPD2    C1 1860   3.989   3.899  13.607  0.8783  0.1224  0.3795
  122MPD2    C2 1861   4.083   3.925  13.505 -0.5798 -0.0456 -0.0789
  122MPD2    C3 1862   4.150   4.051  13.502 -0.1171 -0.0991 -0.0168
  122MPD2    C4 1863   4.131   4.138  13.604 -0.2458 -0.1520 -0.6368
  122MPD2    C5 1864   4.024   4.124  13.690 -0.2152  0.0884  0.0518
  122MPD2     H 1865   4.092   3.846  13.432 -0.4454 -1.7897  1.8153
  122MPD2    H1 1866   4.165   4.240  13.598 -0.9041  0.1834  1.2436
  122MPD2    H2 1867   3.863   4.016  13.752  2.1308  3.4612  3.4471
  122MPD2    H3 1868   3.987   4.207  13.748  1.1901 -0.2778  1.4851
  122MPD2     N 1869   4.241   4.088  13.402  0.6485 -0.1016  0.3993
  122MPD2    H5 1870   4.264   4.187  13.404  1.3422 -0.2724  0.8099
  122MPD2    N1 1871   3.923   3.777  13.605  0.0454  0.0348 -0.3138
  122MPD2    H7 1872   3.939   3.723  13.521 -0.3211 -1.9116  0.8648
  123MPD2     C 1873   3.128   2.171   9.447  0.3231  0.2512 -0.5356
  123MPD2    C1 1874   3.019   2.094   9.484 -0.4619  0.2304  0.2041
  123MPD2    C2 1875   2.976   2.012   9.387 -0.8718  1.0900  0.7068
  123MPD2    C3 1876   3.042   1.986   9.272 -0.2692  0.1154  0.5434
  123MPD2    C4 1877   3.153   2.056   9.246  0.2665 -0.6097 -0.6622
  123MPD2    C5 1878   3.204   2.151   9.334 -0.5319  0.2363 -0.3168
  123MPD2     H 1879   2.892   1.944   9.398  0.4719 -0.7462 -0.2705
  123MPD2    H1 1880   3.199   2.046   9.149  0.3439  1.5305 -0.8559
  123MPD2    H2 1881   3.161   2.249   9.515  1.2080 -1.0466  0.5328
  123MPD2    H3 1882   3.291   2.209   9.307  0.4076  0.1172  2.4355
  123MPD2     N 1883   2.993   1.883   9.184 -0.2571  0.0519 -1.0125
  123MPD2    H5 1884   2.912   1.833   9.220  0.2381 -0.5076 -0.6877
  123MPD2    N1 1885   2.963   2.106   9.612 -0.2851  0.3615 -0.6293
  123MPD2    H7 1886   2.992   2.184   9.670  0.9825  0.6283 -1.6191
  124TCq2    C1 1887   3.022   1.856   9.058  0.1067 -0.1310 -0.0782
  124TCq2    O2 1888   3.083   1.928   8.976 -0.3608 -0.1426  0.1748
  124TCq2    C2 1889   2.966   1.724   9.019  0.4212 -0.0765 -0.4798
  124TCq2    C3 1890   2.940   1.701   8.885 -0.1921  0.3314  0.1600
  124TCq2    C4 1891   2.877   1.578   8.856  0.1898 -0.2010 -0.1420
  124TCq2    C5 1892   2.856   1.486   8.954 -0.0942  0.0445 -0.2304
  124TCq2    C6 1893   2.888   1.512   9.077  0.2052  0.3886  0.2818
  124TCq2    C7 1894   2.945   1.629   9.118  0.4929 -0.4422  0.2387
  124TCq2    C8 1895   2.852   1.414   9.183  0.2188 -0.1501  0.1072
  124TCq2    O4 1896   2.915   1.427   9.289 -0.3401  0.6390  0.4451
  124TCq2    C9 1897   2.847   1.539   8.726  0.2126 -0.0699  0.2164
  124TCq2    O5 1898   2.910   1.598   8.638  0.0769 -0.0595  0.1952
  124TCq2    O6 1899   2.754   1.453   8.718 -0.0929 -0.2076  0.5964
  124TCq2    H2 1900   2.968   1.770   8.807 -0.8446 -1.0101 -1.2795
  124TCq2    H3 1901   2.812   1.390   8.929 -1.8417  0.4681  1.2133
  124TCq2    H4 1902   2.971   1.641   9.223  1.5566 -0.2998 -0.0388
  125TMC2    C1 1903   3.272   0.099  10.446  0.0020  0.2045  0.6355
  125TMC2    C2 1904   3.176   0.190  10.470 -0.2094  0.4511  0.6116
  125TMC2    C3 1905   3.199   0.319  10.439  0.1775  0.0628  0.5505
  125TMC2    C4 1906   3.397   0.130  10.409  0.2610  0.0075  1.4513
  125TMC2    C5 1907   3.423   0.262  10.415  0.4140 -0.4416 -0.0036
  125TMC2    C6 1908   3.333   0.356  10.430  0.4079  0.0601  0.5683
  125TMC2     C 1909   3.231   4.687  10.452 -0.3304 -0.2173 -0.5748
  125TMC2     O 1910   3.127   4.670  10.514 -0.9861 -0.5072  0.1721
  125TMC2     H 1911   3.077   0.158  10.499 -0.1474 -2.0410 -1.9092
  125TMC2    H1 1912   3.477   0.057  10.411  0.0604 -0.2877 -1.2242
  125TMC2    H2 1913   3.360   0.460  10.442  0.7291  0.2013 -1.3617
  125TMC2    C7 1914   3.556   0.312  10.380 -0.3145 -0.6277  0.3021
  125TMC2    C8 1915   3.109   0.419  10.488  0.2353 -0.4652  0.4178
  125TMC2    O1 1916   3.585   0.423  10.418 -0.4411  0.1599 -0.1480
  125TMC2    O2 1917   3.010   0.440  10.423 -0.0952  0.3114  0.2271
  125TMC2    O5 1918   3.103   0.381  10.615 -0.1653  0.4816  0.0313
  125TMC2    H5 1919   3.174   0.326  10.653 -1.2040  0.2296  1.6528
  126MPD1     C 1920   3.281   4.189  10.344  0.1401  0.1655  0.2932
  126MPD1    C1 1921   3.375   4.260  10.274  0.4469  0.4895  0.7119
  126MPD1    C2 1922   3.386   4.403  10.288  0.3504 -0.7350  0.3362
  126MPD1    C3 1923   3.307   4.467  10.382  0.2725  0.6134  0.1157
  126MPD1    C4 1924   3.225   4.394  10.462  0.2510  0.1046  0.4193
  126MPD1    C5 1925   3.208   4.257  10.439  0.8565 -0.3740  0.0015
  126MPD1     H 1926   3.452   4.464  10.227  0.1047  0.1317  0.9371
  126MPD1    H1 1927   3.173   4.443  10.544 -0.3530 -0.3264  0.3001
  126MPD1    H2 1928   3.271   4.081  10.336 -0.4528  0.4548 -2.5831
  126MPD1    H3 1929   3.155   4.200  10.514  0.1998  2.7512  1.9427
  126MPD1     N 1930   3.309   4.605  10.381 -0.3296  0.3891  0.4889
  126MPD1    H5 1931   3.380   4.653  10.326 -0.6874 -1.0315 -1.2214
  126MPD1    N1 1932   3.443   4.197  10.163  0.3992  0.3118 -0.4461
  126MPD1    H6 1933   3.456   4.096  10.168  0.3250  0.3896  1.3252
  126MPD1    H7 1934   3.537   4.231  10.147  2.1389 -5.2029 -2.0198
  127MPD2     C 1935   4.032   3.188   9.420  0.3352  0.0756 -0.2544
  127MPD2    C1 1936   4.090   3.159   9.540 -0.5671 -0.4508 -0.6077
  127MPD2    C2 1937   4.194   3.238   9.582 -0.3111 -0.0661  0.5117
  127MPD2    C3 1938   4.240   3.349   9.505  0.6745 -0.7700 -0.1002
  127MPD2    C4 1939   4.167   3.382   9.394 -0.8741  0.1078  0.6063
  127MPD2    C5 1940   4.069   3.296   9.345 -0.7377  0.3274  0.2617
  127MPD2     H 1941   4.244   3.212   9.675  0.0222 -0.0149  0.3474
  127MPD2    H1 1942   4.203   3.456   9.323 -2.0723 -2.3789 -2.6415
  127MPD2    H2 1943   3.956   3.129   9.370  0.0876  0.6628 -0.5684
  127MPD2    H3 1944   4.024   3.302   9.246  1.2270 -1.9391 -0.7734
  127MPD2     N 1945   4.356   3.418   9.539 -0.1748  0.2671  0.0129
  127MPD2    H5 1946   4.407   3.384   9.620  1.4907 -0.3183 -1.2913
  127MPD2    N1 1947   4.033   3.052   9.610  0.0132 -0.1922 -0.0780
  127MPD2    H7 1948   3.961   2.996   9.565 -0.2912  1.3264 -1.4772
  128TCq2    C1 1949   4.059   3.023   9.742  0.4230 -0.7023  0.1813
  128TCq2    O2 1950   4.119   3.092   9.824 -0.1402 -0.1263  0.1934
  128TCq2    C2 1951   3.988   2.907   9.791  0.4375 -0.3858 -0.4192
  128TCq2    C3 1952   4.040   2.853   9.905  0.6836  0.3843 -0.0103
  128TCq2    C4 1953   3.995   2.734   9.948 -0.4278  0.1227 -0.3416
  128TCq2    C5 1954   3.905   2.665   9.877 -0.1070 -0.0729 -0.4905
  128TCq2    C6 1955   3.857   2.725   9.769 -0.3101 -0.4721  0.4832
  128TCq2    C7 1956   3.894   2.849   9.728 -0.3137  0.2713  0.6719
  128TCq2    C8 1957   3.743   2.667   9.701 -0.2533 -0.0477  0.9255
  128TCq2    O4 1958   3.710   2.711   9.595  0.0474  0.7912  0.2662
  128TCq2    C9 1959   4.045   2.678  10.068  0.7889  0.7610 -0.5775
  128TCq2    O5 1960   4.002   2.568  10.105 -0.2449  0.0394 -0.5571
  128TCq2    O6 1961   4.144   2.732  10.127 -0.2296 -0.2187  0.0060
  128TCq2    H2 1962   4.111   2.906   9.967  0.5209  1.0366 -0.3786
  128TCq2    H3 1963   3.878   2.567   9.913 -0.5769 -0.6563 -2.3839
  128TCq2    H4 1964   3.852   2.889   9.636 -1.1975 -0.7195  0.6491
  129MPD2     C 1965   2.580   2.796   1.603  0.7977 -0.0724 -0.6516
  129MPD2    C1 1966   2.460   2.858   1.580  0.3935 -0.2997 -0.3422
  129MPD2    C2 1967   2.468   2.966   1.492 -0.2584  0.2768  0.9312
  129MPD2    C3 1968   2.589   3.009   1.434  0.5838  0.3927  0.1353
  129MPD2    C4 1969   2.703   2.933   1.455 -1.0172  0.2432 -0.1877
  129MPD2    C5 1970   2.695   2.831   1.542  0.5376 -0.1263  0.5057
  129MPD2     H 1971   2.380   3.029   1.484 -0.1917  0.0860 -1.3515
  129MPD2    H1 1972   2.798   2.969   1.416 -1.4879  0.0241 -1.5550
  129MPD2    H2 1973   2.580   2.703   1.658 -1.1122 -0.5537 -1.4419
  129MPD2    H3 1974   2.777   2.767   1.573  0.9396 -0.2968 -0.9058
  129MPD2     N 1975   2.586   3.124   1.352  0.6619 -0.4325 -0.1977
  129MPD2    H5 1976   2.494   3.164   1.367  1.0587  0.4524 -0.1285
  129MPD2    N1 1977   2.336   2.818   1.632  0.7158  0.1794 -0.0712
  129MPD2    H7 1978   2.259   2.868   1.588  0.9630  0.1804 -0.5014
  130TCq2    C1 1979   2.323   2.739   1.748  0.0036  0.3588 -0.8069
  130TCq2    O2 1980   2.412   2.688   1.814  0.1013  0.1958  0.6153
  130TCq2    C2 1981   2.193   2.690   1.788  0.2413  0.5283  0.1019
  130TCq2    C3 1982   2.174   2.651   1.912  0.0565 -0.0289 -0.2000
  130TCq2    C4 1983   2.051   2.615   1.963  0.0333  0.4051  0.8104
  130TCq2    C5 1984   1.941   2.638   1.889 -0.0244 -0.1035  0.3559
  130TCq2    C6 1985   1.956   2.689   1.758 -0.3159  0.2354  0.5732
  130TCq2    C7 1986   2.080   2.711   1.704 -0.1124 -0.3000 -0.2008
  130TCq2    C8 1987   1.841   2.703   1.673  0.1337  0.5860  0.3270
  130TCq2    O4 1988   1.737   2.652   1.713 -0.3022  0.0108 -0.2214
  130TCq2    C9 1989   2.053   2.560   2.097  0.2206  0.1429 -0.2014
  130TCq2    O5 1990   2.159   2.504   2.140 -0.2867 -0.1127 -0.0822
  130TCq2    O6 1991   1.937   2.541   2.138 -0.0560 -0.0036  0.3228
  130TCq2    H2 1992   2.264   2.637   1.971 -0.0705  0.3800  0.0864
  130TCq2    H3 1993   1.844   2.619   1.934  0.0292  1.5811  1.1814
  130TCq2    H4 1994   2.096   2.728   1.598 -1.6314 -1.8464 -0.6802
  131MPD2     C 1995   2.246   2.443  10.247  0.3790 -0.1351  0.9164
  131MPD2    C1 1996   2.376   2.459  10.280  0.1300  0.0192  0.2697
  131MPD2    C2 1997   2.472   2.367  10.243 -0.5837 -0.2840  0.0127
  131MPD2    C3 1998   2.437   2.266  10.159 -0.2352  0.1660 -0.4354
  131MPD2    C4 1999   2.306   2.259  10.118 -0.2583 -0.5019 -0.4319
  131MPD2    C5 2000   2.211   2.341  10.160  0.5961 -0.9682  0.2133
  131MPD2     H 2001   2.577   2.376  10.267 -0.0694 -1.3567 -1.8546
  131MPD2    H1 2002   2.280   2.183  10.045  2.2331 -1.2671 -0.5280
  131MPD2    H2 2003   2.177   2.513  10.289  0.2841  0.3507 -0.0396
  131MPD2    H3 2004   2.112   2.329  10.116  1.1523  0.1787 -1.3732
  131MPD2     N 2005   2.535   2.170  10.125  0.8006  0.6840  0.6615
  131MPD2    H5 2006   2.624   2.182  10.171  1.4408 -2.7110  0.3550
  131MPD2    N1 2007   2.394   2.553  10.386  0.1133  0.0400 -0.2608
  131MPD2    H7 2008   2.311   2.601  10.419 -2.1548 -2.8306 -1.7735
  132TCq2    C1 2009   2.742   2.931  10.657 -0.4686  0.0587 -0.1681
  132TCq2    O2 2010   2.841   2.858  10.660  0.3102 -0.1549  0.1685
  132TCq2    C2 2011   2.614   2.874  10.648 -0.0340 -0.0490  0.4367
  132TCq2    C3 2012   2.499   2.953  10.644  0.6221  0.3643  0.6103
  132TCq2    C4 2013   2.383   2.907  10.596 -0.3041  0.7386 -0.4463
  132TCq2    C5 2014   2.379   2.779  10.544  0.1100  0.9900  0.2000
  132TCq2    C6 2015   2.492   2.698  10.550  0.3101 -0.1865 -0.3790
  132TCq2    C7 2016   2.612   2.745  10.594 -0.3145  0.7135  0.2134
  132TCq2    C8 2017   2.510   2.587  10.454 -0.0747  0.3958 -0.3488
  132TCq2    O4 2018   2.619   2.543  10.435  0.2240 -0.1076  0.0998
  132TCq2    C9 2019   2.269   2.992  10.603  0.2514 -0.3670 -0.2663
  132TCq2    O5 2020   2.293   3.108  10.658  0.5625 -0.4935 -0.0822
  132TCq2    O6 2021   2.162   2.952  10.547 -0.0613 -0.5444  0.4587
  132TCq2    H2 2022   2.498   3.054  10.684 -0.1704  1.4091 -2.0767
  132TCq2    H3 2023   2.285   2.738  10.509  1.0955 -0.8759 -0.2675
  132TCq2    H4 2024   2.699   2.681  10.589 -0.7975 -0.2224  3.2444
  133MPD2     C 2025   1.686   3.401   9.965 -0.5699 -1.0242 -0.2542
  133MPD2    C1 2026   1.746   3.292   9.905 -0.9026  0.1007  0.0726
  133MPD2    C2 2027   1.666   3.209   9.826 -0.9092  0.7248 -0.1443
  133MPD2    C3 2028   1.523   3.224   9.830 -0.8382 -0.2657  0.7313
  133MPD2    C4 2029   1.471   3.336   9.885  0.6632 -0.2313  0.1162
  133MPD2    C5 2030   1.550   3.428   9.957  0.9149  0.3012 -0.1646
  133MPD2     H 2031   1.717   3.122   9.788 -0.3453  0.7092  0.6279
  133MPD2    H1 2032   1.365   3.359   9.876  0.2123 -1.1972  2.9479
  133MPD2    H2 2033   1.750   3.477  10.006 -1.9095 -0.0785  0.0886
  133MPD2    H3 2034   1.505   3.523   9.984  0.7047  0.2633 -0.3784
  133MPD2     N 2035   1.434   3.130   9.772  0.3604  0.7137  0.4137
  133MPD2    H5 2036   1.337   3.141   9.800  0.0541  0.5000 -0.5856
  133MPD2    N1 2037   1.888   3.280   9.922  0.5484  0.1637 -0.0078
  133MPD2    H7 2038   1.929   3.351   9.982  1.4367 -1.5746  1.4626
  134TCq2    C1 2039   1.966   3.204   9.842 -0.4982  0.7534 -0.4153
  134TCq2    O2 2040   1.934   3.137   9.746 -0.5440 -0.5177 -0.2143
  134TCq2    C2 2041   2.105   3.210   9.876  0.7048 -0.5250 -0.6567
  134TCq2    C3 2042   2.164   3.320   9.926 -0.5554  0.6264  0.5569
  134TCq2    C4 2043   2.297   3.315   9.953  0.1769 -0.2958  0.5354
  134TCq2    C5 2044   2.373   3.201   9.926 -0.4800  0.4765  0.2209
  134TCq2    C6 2045   2.313   3.098   9.864 -0.5960  0.2043  0.3208
  134TCq2    C7 2046   2.180   3.103   9.831 -0.1431 -0.8894 -0.0637
  134TCq2    C8 2047   2.393   2.992   9.804  0.7825  1.0947 -0.4701
  134TCq2    O4 2048   2.335   2.927   9.721  0.0298 -0.1723 -0.2956
  134TCq2    C9 2049   2.356   3.427  10.013  0.8732  0.2030 -0.0149
  134TCq2    O5 2050   2.481   3.423  10.008  0.7452 -0.0848  0.1514
  134TCq2    O6 2051   2.294   3.530  10.017 -0.3951 -0.1869  0.5130
  134TCq2    H2 2052   2.106   3.410   9.942 -0.0631  0.9946  0.2819
  134TCq2    H3 2053   2.479   3.202   9.952 -0.4268  0.9504 -0.0317
  134TCq2    H4 2054   2.132   3.018   9.784 -0.9828 -0.8663  0.7324
  135MPD2     C 2055   4.645   0.090  10.021  0.1474  0.2943  0.3627
  135MPD2    C1 2056   4.534   0.024   9.965  0.4228  0.4088  1.3073
  135MPD2    C2 2057   4.547   4.700   9.834  0.2973 -0.6359 -0.6761
  135MPD2    C3 2058   4.654   0.005   9.752  0.0554 -0.7587  0.8305
  135MPD2    C4 2059   0.039   0.075   9.806  0.1287  0.6321  0.7180
  135MPD2    C5 2060   0.026   0.118   9.937  0.3144  0.1738  0.3257
  135MPD2     H 2061   4.465   4.644   9.791  1.5068 -2.6203 -0.4047
  135MPD2    H1 2062   0.130   0.110   9.759 -0.6467 -0.5079 -1.5963
  135MPD2    H2 2063   4.649   0.125  10.123 -0.1569 -0.3537  0.5955
  135MPD2    H3 2064   0.117   0.156   9.982  0.8166 -0.3066 -0.2806
  135MPD2     N 2065   4.671   4.674   9.621  0.9364  0.1787 -0.3663
  135MPD2    H5 2066   0.038   4.700   9.586  1.0026  1.1962  0.5694
  135MPD2    N1 2067   4.423   4.712  10.036  0.0436 -0.5351  0.1238
  135MPD2    H7 2068   4.367   4.641   9.990 -0.5081  1.2267 -1.9598
  136TCq2    C1 2069   4.390   0.038  10.160 -0.1612  0.4685 -0.1786
  136TCq2    O2 2070   4.424   0.145  10.209 -0.1565 -0.8065 -0.4712
  136TCq2    C2 2071   4.266   4.704  10.204 -0.2436 -0.3813  0.1919
  136TCq2    C3 2072   4.257   4.565  10.194  0.1619  0.2850  0.4237
  136TCq2    C4 2073   4.132   4.515  10.216 -0.3699 -0.1739 -0.5900
  136TCq2    C5 2074   4.032   4.593  10.265 -0.4280 -0.5281 -0.4187
  136TCq2    C6 2075   4.056   0.001  10.291 -0.4254 -0.1864  0.2106
  136TCq2    C7 2076   4.171   0.064  10.262  0.0974  0.5668  0.0920
  136TCq2    C8 2077   3.981   0.063  10.395 -0.2034  0.1495 -0.3210
  136TCq2    O4 2078   4.046   0.146  10.456 -0.2311 -0.1888 -0.3777
  136TCq2    C9 2079   4.106   4.372  10.193  0.2778  0.2859 -0.4960
  136TCq2    O5 2080   3.985   4.340  10.199 -0.0327 -0.2427 -0.6330
  136TCq2    O6 2081   4.204   4.291  10.188 -0.2137 -0.1132 -0.1764
  136TCq2    H2 2082   4.336   4.496  10.169 -0.8159  0.3281 -2.7489
  136TCq2    H3 2083   3.948   4.546  10.316  0.5445 -0.7962  0.9464
  136TCq2    H4 2084   4.189   0.171  10.266  1.2083  0.3662  0.5628
  137MPD2     C 2085   3.261   3.203   9.821  0.2630  0.2867  0.3595
  137MPD2    C1 2086   3.356   3.308   9.828  0.2672 -1.3722  0.0394
  137MPD2    C2 2087   3.423   3.334   9.947 -0.1622 -0.1345  0.3124
  137MPD2    C3 2088   3.403   3.251  10.057  0.4050 -0.0731 -1.0340
  137MPD2    C4 2089   3.311   3.150  10.056  0.3003 -0.1334 -0.2422
  137MPD2    C5 2090   3.240   3.131   9.937 -0.2305  0.4057 -0.3030
  137MPD2     H 2091   3.490   3.419   9.952 -0.5879  0.1417  1.3584
  137MPD2    H1 2092   3.299   3.077  10.136  0.8133  1.9637  1.7598
  137MPD2    H2 2093   3.215   3.191   9.724  1.0208 -1.3830  0.2088
  137MPD2    H3 2094   3.168   3.050   9.924  0.5166 -0.1049 -1.2409
  137MPD2     N 2095   3.485   3.274  10.174  0.0500  0.5115 -0.0294
  137MPD2    H5 2096   3.566   3.336  10.170  0.0700  0.3277 -2.7227
  137MPD2    N1 2097   3.367   3.385   9.710  0.0318 -0.1932 -0.5128
  137MPD2    H7 2098   3.321   3.357   9.624 -2.5418 -2.0531  1.4751
  138TCq2    C1 2099   3.437   3.500   9.694  0.1857 -0.3086  0.2518
  138TCq2    O2 2100   3.504   3.567   9.769 -0.0577 -0.2196  0.1211
  138TCq2    C2 2101   3.368   3.559   9.588 -0.7378  0.2880 -0.0876
  138TCq2    C3 2102   3.338   3.498   9.476  0.4769  0.9340 -0.2007
  138TCq2    C4 2103   3.289   3.572   9.370  0.2874 -0.6984  0.1184
  138TCq2    C5 2104   3.254   3.704   9.382  0.0702 -0.4527  0.5405
  138TCq2    C6 2105   3.264   3.755   9.504 -0.3950 -0.7237 -0.6136
  138TCq2    C7 2106   3.332   3.688   9.603 -0.3165 -0.1525 -0.0456
  138TCq2    C8 2107   3.195   3.877   9.534  0.0412  0.4253  0.3824
  138TCq2    O4 2108   3.156   3.946   9.440  0.5766 -0.2966 -0.5738
  138TCq2    C9 2109   3.249   3.496   9.249 -0.5066  0.9347 -0.3994
  138TCq2    O5 2110   3.260   3.373   9.271  0.1176 -0.7227  0.4134
  138TCq2    O6 2111   3.167   3.547   9.169 -0.3148  0.3473 -0.3023
  138TCq2    H2 2112   3.360   3.393   9.461 -3.0475 -0.0116  1.3382
  138TCq2    H3 2113   3.204   3.755   9.300 -0.2299 -0.3916  0.7639
  138TCq2    H4 2114   3.369   3.741   9.690 -3.3556  2.0623 -0.1282
  139TMC2    C1 2115   3.932   1.495  13.398  0.6134  0.1538 -0.5108
  139TMC2    C2 2116   3.952   1.543  13.268 -0.6581 -0.2812  0.2374
  139TMC2    C3 2117   3.907   1.668  13.233  0.5855  0.0353 -1.1911
  139TMC2    C4 2118   3.879   1.576  13.491  0.7740 -0.2444  1.1073
  139TMC2    C5 2119   3.832   1.700  13.448 -0.9321 -0.1830 -0.1021
  139TMC2    C6 2120   3.833   1.744  13.320  0.1291 -0.4319  0.5239
  139TMC2     C 2121   3.929   1.348  13.412  0.0768 -0.3349 -0.3744
  139TMC2     O 2122   3.982   1.285  13.320  0.0304 -0.0565  0.2222
  139TMC2     H 2123   4.014   1.483  13.202 -1.0290 -1.8654  1.3315
  139TMC2    H1 2124   3.880   1.549  13.595 -0.6020  1.0436  1.4650
  139TMC2    H2 2125   3.787   1.838  13.291 -0.8456 -0.4597  1.9791
  139TMC2    C7 2126   3.776   1.805  13.532  0.1877 -0.3904 -0.1173
  139TMC2    C8 2127   3.966   1.738  13.124 -0.2965 -0.4405 -0.3894
  139TMC2    O1 2128   3.724   1.900  13.482  0.2229 -0.3499  0.6556
  139TMC2    O2 2129   3.937   1.855  13.100  0.7150 -0.2220 -0.3553
  139TMC2    O5 2130   3.999   1.647  13.026 -0.1026  0.0096 -0.1670
  139TMC2    H5 2131   3.963   1.558  13.043  1.2471 -0.3269  0.8493
  140MPD2     C 2132   3.746   1.140  13.657  0.2010  0.3960  0.5737
  140MPD2    C1 2133   3.826   1.169  13.544 -0.2961  0.3497  0.2665
  140MPD2    C2 2134   3.891   1.070  13.479  0.3265 -0.0148  0.6124
  140MPD2    C3 2135   3.868   0.937  13.510  0.0281 -0.7247 -0.8826
  140MPD2    C4 2136   3.793   0.907  13.621 -0.3597  0.1954 -0.0776
  140MPD2    C5 2137   3.730   1.007  13.696  0.1100 -0.0479 -0.9968
  140MPD2     H 2138   3.951   1.088  13.391  2.3706 -0.2641  1.9655
  140MPD2    H1 2139   3.773   0.806  13.655 -0.5379  0.6126  1.0441
  140MPD2    H2 2140   3.696   1.216  13.716 -0.3235  0.9837 -0.6416
  140MPD2    H3 2141   3.680   0.976  13.787 -2.9742 -0.1436 -2.7227
  140MPD2     N 2142   3.909   0.845  13.413 -0.3604  0.9937 -0.3421
  140MPD2    H5 2143   3.955   0.877  13.329 -0.0154  1.2081 -0.0737
  140MPD2    N1 2144   3.846   1.304  13.509 -0.1050 -0.6579  0.1318
  140MPD2    H7 2145   3.800   1.382  13.555 -0.5216  0.6925 -2.6042
  141TCq2    C1 2146   4.248   3.017  14.476 -0.5744 -0.6720 -0.0699
  141TCq2    O2 2147   4.171   3.097  14.426 -0.2627 -0.2341 -0.2734
  141TCq2    C2 2148   4.236   2.970  14.611  0.0498 -0.3396  0.0210
  141TCq2    C3 2149   4.274   2.838  14.646 -0.3903  0.3317 -0.1790
  141TCq2    C4 2150   4.307   2.809  14.775 -0.5054  0.3191 -0.5420
  141TCq2    C5 2151   4.279   2.898  14.881 -0.5879  0.3790 -0.1756
  141TCq2    C6 2152   4.248   3.023  14.837 -0.2359  0.0361 -0.4845
  141TCq2    C7 2153   4.229   3.061  14.712  0.0765  0.3027  0.2111
  141TCq2    C8 2154   4.271   3.117  14.938  0.3231 -0.2406  0.6003
  141TCq2    O4 2155   4.298   3.077  15.051  0.0229  1.1975 -0.1285
  141TCq2    C9 2156   4.357   2.678  14.803 -0.3551 -0.4448  0.1393
  141TCq2    O5 2157   4.378   2.608  14.699  0.7432  0.1129  0.9673
  141TCq2    O6 2158   4.377   2.650  14.919  0.3738  0.1442  0.3818
  141TCq2    H2 2159   4.280   2.766  14.564 -1.5638 -1.3715  1.2204
  141TCq2    H3 2160   4.309   2.882  14.983  1.4565 -0.4076 -0.9047
  141TCq2    H4 2161   4.203   3.159  14.673  2.0861  0.2444 -1.2365
  142MPD2     C 2162   2.380   0.884  10.496  0.4051  0.2972 -1.2373
  142MPD2    C1 2163   2.310   0.913  10.381  0.2605 -0.1714  0.4336
  142MPD2    C2 2164   2.361   1.008  10.294  0.0940  0.0278  0.2877
  142MPD2    C3 2165   2.480   1.071  10.326  0.6095  0.2126 -0.1953
  142MPD2    C4 2166   2.541   1.051  10.447 -0.7189  0.4992 -0.1489
  142MPD2    C5 2167   2.490   0.956  10.534  0.9043  0.5971 -0.2537
  142MPD2     H 2168   2.302   1.025  10.204  0.2577 -0.2291  0.1315
  142MPD2    H1 2169   2.627   1.113  10.471 -1.7788  2.2279 -0.8171
  142MPD2    H2 2170   2.335   0.809  10.560 -2.7814  1.7727 -1.7514
  142MPD2    H3 2171   2.529   0.956  10.635  0.6175 -0.6225 -0.1323
  142MPD2     N 2172   2.544   1.149  10.228 -0.5553  0.7876 -0.5153
  142MPD2    H5 2173   2.643   1.168  10.246 -0.2764 -0.5881 -0.6326
  142MPD2    N1 2174   2.177   0.863  10.367  0.0664  0.1257  0.6237
  142MPD2    H7 2175   2.136   0.796  10.431  0.1466 -0.6549 -0.1472
  143TCq2    C1 2176   2.504   1.183  10.102  0.0822  0.3368  0.3413
  143TCq2    O2 2177   2.406   1.150  10.041  0.3489  0.3132  0.5060
  143TCq2    C2 2178   2.609   1.249  10.028 -0.2482  0.3635 -1.0167
  143TCq2    C3 2179   2.707   1.316  10.102 -0.6331 -0.5577  0.0532
  143TCq2    C4 2180   2.818   1.343  10.028 -0.0437 -0.1203  0.0357
  143TCq2    C5 2181   2.824   1.317   9.896  0.0681 -0.1660  0.1808
  143TCq2    C6 2182   2.720   1.260   9.830 -0.8733 -0.1002  0.4979
  143TCq2    C7 2183   2.609   1.224   9.889 -0.5995 -0.2365  0.3187
  143TCq2    C8 2184   2.741   1.254   9.682  0.5214 -0.1335 -0.6219
  143TCq2    O4 2185   2.853   1.283   9.637 -1.4463 -0.2425  0.0963
  143TCq2    C9 2186   2.923   1.412  10.087 -0.6245 -0.2989 -0.1669
  143TCq2    O5 2187   2.932   1.408  10.210 -0.2511 -0.5067  0.0801
  143TCq2    O6 2188   3.013   1.467  10.021  0.0399 -0.6249  0.3031
  143TCq2    H2 2189   2.702   1.345  10.206 -0.6238 -0.8405  0.1316
  143TCq2    H3 2190   2.915   1.343   9.843 -1.7260 -0.8123 -3.2468
  143TCq2    H4 2191   2.537   1.161   9.837 -2.3001  3.4029 -1.7360
  144MPD2     C 2192   4.458   0.287   0.755  0.3127  0.1414 -0.3550
  144MPD2    C1 2193   4.493   0.379   0.654  0.6578 -0.6685  0.4584
  144MPD2    C2 2194   4.627   0.390   0.626  0.3169 -1.6591 -0.0099
  144MPD2    C3 2195   4.720   0.338   0.708  0.8765  0.1372  0.3504
  144MPD2    C4 2196   4.680   0.261   0.811 -0.2842 -0.3640  0.6938
  144MPD2    C5 2197   4.554   0.233   0.834 -0.1829 -0.2075  0.1499
  144MPD2     H 2198   4.660   0.451   0.543 -0.4038 -1.6508 -0.2964
  144MPD2    H1 2199   0.010   0.227   0.899  0.4995 -0.0479  0.3434
  144MPD2    H2 2200   4.355   0.262   0.778  0.9991 -0.7932  1.6596
  144MPD2    H3 2201   4.514   0.168   0.911 -0.2916 -0.5562 -0.1985
  144MPD2     N 2202   0.132   0.355   0.691  0.8831  0.5864  0.3136
  144MPD2    H5 2203   0.185   0.326   0.772 -0.9365 -1.4000  0.8092
  144MPD2    N1 2204   4.395   0.436   0.574  0.2556 -0.2719 -0.2278
  144MPD2    H7 2205   4.437   0.491   0.500  3.2283 -1.0754  0.8601
  145TCq2    C1 2206   0.195   0.402   0.577  0.3569 -0.5673 -0.5063
  145TCq2    O2 2207   0.151   0.407   0.461 -0.2443  0.7903 -0.7901
  145TCq2    C2 2208   0.344   0.392   0.598 -0.2697  0.1974 -0.0097
  145TCq2    C3 2209   0.411   0.319   0.507  0.9575 -0.2610  0.8126
  145TCq2    C4 2210   0.533   0.265   0.530 -0.2602 -0.7520  0.6547
  145TCq2    C5 2211   0.585   0.280   0.656  0.2427 -0.1692  0.2240
  145TCq2    C6 2212   0.517   0.352   0.757  0.6686 -0.5031 -0.2272
  145TCq2    C7 2213   0.398   0.412   0.726  0.2025 -0.7709  1.0674
  145TCq2    C8 2214   0.579   0.363   0.887  0.6544 -0.2505  0.4098
  145TCq2    O4 2215   0.668   0.278   0.912 -0.3168  0.2394  0.2240
  145TCq2    C9 2216   0.610   0.195   0.428  0.9391 -0.4766  0.0456
  145TCq2    O5 2217   0.549   0.169   0.321  0.0161  0.1886 -0.0991
  145TCq2    O6 2218   0.730   0.172   0.456 -0.0998  0.0525  0.4055
  145TCq2    H2 2219   0.352   0.297   0.418 -0.3254  0.7843  1.3918
  145TCq2    H3 2220   0.685   0.241   0.673  0.5547  0.9674  0.9907
  145TCq2    H4 2221   0.343   0.483   0.786  4.9207  1.1724  3.0877
  146TMC2    C1 2222   1.525   4.206  12.702 -0.8007  0.2662  0.2357
  146TMC2    C2 2223   1.418   4.221  12.622 -0.1101  0.3858 -0.7050
  146TMC2    C3 2224   1.419   4.171  12.500 -0.4938  0.4470  0.9107
  146TMC2    C4 2225   1.634   4.127  12.654  0.3248  0.0453 -0.0908
  146TMC2    C5 2226   1.632   4.087  12.520 -0.7555 -0.3783  0.0052
  146TMC2    C6 2227   1.519   4.101  12.445 -0.5630 -0.6913 -1.0250
  146TMC2     C 2228   1.510   4.272  12.832  0.0525 -0.2791 -1.1068
  146TMC2     O 2229   1.431   4.366  12.837 -0.4539  0.2815 -0.0787
  146TMC2     H 2230   1.329   4.268  12.661  0.3740 -1.3244  2.4266
  146TMC2    H1 2231   1.726   4.116  12.711  1.1826  1.7156 -1.1413
  146TMC2    H2 2232   1.515   4.064  12.343 -3.8034  0.7628 -1.4334
  146TMC2    C7 2233   1.755   4.057  12.452 -0.1078 -0.3001 -0.2820
  146TMC2    C8 2234   1.304   4.178  12.419  0.8004  0.3413 -0.2700
  146TMC2    O1 2235   1.757   4.089  12.337  0.2393 -0.4089  0.3824
  146TMC2    O2 2236   1.214   4.256  12.458  0.7768 -0.1383 -0.0327
  146TMC2    O5 2237   1.282   4.060  12.355 -0.0814  0.1155 -0.3131
  146TMC2    H5 2238   1.332   3.983  12.389 -0.4653 -0.1424 -0.3426
  147MPD2     C 2239   2.181   3.783  12.386  0.0150  0.3068 -0.0213
  147MPD2    C1 2240   2.154   3.786  12.521 -0.6960  0.3383  0.1636
  147MPD2    C2 2241   2.048   3.862  12.564  0.1289  0.1275  0.3154
  147MPD2    C3 2242   1.963   3.923  12.475 -0.6091 -0.1313  0.5979
  147MPD2    C4 2243   1.987   3.911  12.344  0.6242  0.1715 -0.0450
  147MPD2    C5 2244   2.099   3.847  12.298 -0.2938 -0.2926 -0.1372
  147MPD2     H 2245   2.037   3.888  12.668  0.4862  0.9705  0.1408
  147MPD2    H1 2246   1.919   3.942  12.266 -0.9684 -3.2712 -0.0102
  147MPD2    H2 2247   2.273   3.739  12.348 -0.1401 -1.4211  1.6364
  147MPD2    H3 2248   2.124   3.846  12.193 -0.8395  1.1535 -0.2822
  147MPD2     N 2249   1.850   3.998  12.530 -0.0287 -0.2709  0.3109
  147MPD2    H5 2250   1.853   4.005  12.631 -2.1439 -1.2139  0.4388
  147MPD2    N1 2251   2.244   3.724  12.611  0.1951 -0.7535  0.1278
  147MPD2    H7 2252   2.336   3.698  12.575  0.7565 -0.8716  1.6499
  148MPD2     C 2253   1.765   2.940  11.240 -0.0460 -0.1235 -0.2846
  148MPD2    C1 2254   1.877   2.875  11.198  0.4867 -0.6514 -0.8504
  148MPD2    C2 2255   1.858   2.786  11.094  1.3005 -0.2111  0.6478
  148MPD2    C3 2256   1.738   2.774  11.021  0.7830  0.1858  0.0267
  148MPD2    C4 2257   1.632   2.834  11.075  0.3931 -0.4658 -0.2811
  148MPD2    C5 2258   1.646   2.915  11.177 -0.7309  0.4388 -0.0254
  148MPD2     H 2259   1.943   2.735  11.051 -0.3982 -1.4505 -1.2044
  148MPD2    H1 2260   1.540   2.833  11.018  0.4889 -0.3546 -0.4398
  148MPD2    H2 2261   1.771   3.018  11.315  0.6250 -0.6209  0.1845
  148MPD2    H3 2262   1.557   2.971  11.205 -0.6967 -0.6446  2.1759
  148MPD2     N 2263   1.721   2.713  10.893  0.4504 -0.6324  0.2540
  148MPD2    H5 2264   1.626   2.729  10.860  0.3354  0.9751  1.3614
  148MPD2    N1 2265   2.007   2.896  11.245 -0.0304  0.6311  0.6486
  148MPD2    H7 2266   2.085   2.844  11.207 -0.9243  0.5582 -1.0991
  149TCq2    C1 2267   2.036   2.967  11.354  0.2649 -0.3531 -0.4393
  149TCq2    O2 2268   1.973   3.061  11.398 -0.2149  0.1069 -0.1932
  149TCq2    C2 2269   2.180   2.958  11.378 -0.3697  0.0494 -0.2852
  149TCq2    C3 2270   2.253   3.077  11.368 -0.2378 -0.2047  0.4502
  149TCq2    C4 2271   2.385   3.065  11.328 -0.3872 -0.7421 -1.0363
  149TCq2    C5 2272   2.426   2.959  11.251 -0.0749  0.0419 -0.2113
  149TCq2    C6 2273   2.347   2.846  11.251  0.0405  0.9132 -0.0365
  149TCq2    C7 2274   2.231   2.843  11.326 -0.0621  0.0854 -0.6217
  149TCq2    C8 2275   2.348   2.749  11.138  0.0375  0.4507 -0.1238
  149TCq2    O4 2276   2.238   2.697  11.114 -0.0709  0.4404  0.9960
  149TCq2    C9 2277   2.458   3.184  11.311  0.4691  0.0456 -0.1057
  149TCq2    O5 2278   2.579   3.181  11.272 -0.7624 -0.0214  0.5906
  149TCq2    O6 2279   2.391   3.289  11.312 -0.1996 -0.0177 -0.1714
  149TCq2    H2 2280   2.207   3.167  11.406  1.0405  0.6494 -0.0391
  149TCq2    H3 2281   2.521   2.963  11.198 -1.0312 -0.7606 -1.9808
  149TCq2    H4 2282   2.176   2.749  11.333  0.8384 -0.5010 -1.5203
  150MPD2     C 2283   3.409   1.763  12.204 -1.0576 -0.0979  0.2690
  150MPD2    C1 2284   3.400   1.827  12.085  0.2840 -0.0095 -0.2530
  150MPD2    C2 2285   3.496   1.925  12.046  0.1359 -0.6314 -0.0901
  150MPD2    C3 2286   3.601   1.941  12.131  0.1382 -0.3425 -0.0253
  150MPD2    C4 2287   3.609   1.868  12.253 -0.4305 -0.1950  0.4370
  150MPD2    C5 2288   3.504   1.796  12.298  0.3469  0.2682  0.1566
  150MPD2     H 2289   3.482   1.983  11.955 -0.1027  2.4070  1.8699
  150MPD2    H1 2290   3.692   1.878  12.321  1.8701 -0.0282 -2.3890
  150MPD2    H2 2291   3.330   1.694  12.233 -0.5200  0.2246  2.5146
  150MPD2    H3 2292   3.508   1.754  12.398  2.4443  1.1046  0.4175
  150MPD2     N 2293   3.708   2.015  12.073 -0.0439 -0.1238  0.6550
  150MPD2    H5 2294   3.688   2.062  11.986  0.3356 -1.0384  0.0704
  150MPD2    N1 2295   3.294   1.787  12.006  0.5295 -0.4189  0.1768
  150MPD2    H7 2296   3.238   1.711  12.042  1.6184 -0.6572  1.4075
  151TCq2    C1 2297   3.830   2.038  12.128  0.1634  1.0204  0.5321
  151TCq2    O2 2298   3.878   2.004  12.232 -0.0476 -0.2702 -0.0249
  151TCq2    C2 2299   3.915   2.105  12.035 -0.1174 -0.1005 -0.3902
  151TCq2    C3 2300   3.891   2.118  11.900 -0.0965 -0.0121 -1.1099
  151TCq2    C4 2301   3.987   2.182  11.826 -0.4249  0.0234  0.2228
  151TCq2    C5 2302   4.103   2.227  11.877 -0.3106  0.7735 -0.0348
  151TCq2    C6 2303   4.120   2.215  12.014 -0.5239 -0.9275  0.2240
  151TCq2    C7 2304   4.032   2.151  12.092  0.6471 -0.6803  0.6443
  151TCq2    C8 2305   4.231   2.278  12.064 -0.3118  0.0109  0.1779
  151TCq2    O4 2306   4.254   2.382  12.008 -0.0788  0.3640  0.1057
  151TCq2    C9 2307   3.962   2.210  11.682  0.2469 -0.0740 -0.1302
  151TCq2    O5 2308   3.849   2.178  11.635 -0.2177 -0.3890 -0.3061
  151TCq2    O6 2309   4.065   2.246  11.618 -0.6725  0.8327  0.0625
  151TCq2    H2 2310   3.801   2.083  11.851 -0.3549 -0.3769 -0.3679
  151TCq2    H3 2311   4.167   2.293  11.820 -0.9880  1.5603  0.1277
  151TCq2    H4 2312   4.046   2.146  12.199  1.2922 -0.8879  0.5493
  152MPD2     C 2313   3.201   1.267  12.727  0.4191  0.7447  0.1611
  152MPD2    C1 2314   3.252   1.390  12.673 -0.4597 -0.2633 -0.1140
  152MPD2    C2 2315   3.163   1.480  12.630 -0.0017  0.2666 -0.0477
  152MPD2    C3 2316   3.030   1.450  12.641 -0.6025 -0.1192 -0.3846
  152MPD2    C4 2317   2.981   1.334  12.685  0.1535  0.2550 -0.1097
  152MPD2    C5 2318   3.066   1.241  12.731  0.3023 -0.4371  0.5897
  152MPD2     H 2319   3.198   1.568  12.577 -1.4231 -0.7474 -2.6439
  152MPD2    H1 2320   2.875   1.318  12.669  0.3884 -1.1916 -0.2717
  152MPD2    H2 2321   3.267   1.192  12.769 -0.0676  0.8896  1.2018
  152MPD2    H3 2322   3.042   1.145  12.777  2.0614 -1.0420  0.2185
  152MPD2     N 2323   2.944   1.550  12.584 -0.5451 -0.2127 -0.2595
  152MPD2    H5 2324   2.992   1.636  12.561  0.7104 -0.8963 -0.2037
  152MPD2    N1 2325   3.389   1.401  12.661 -0.3531  0.2390  0.3060
  152MPD2    H7 2326   3.443   1.333  12.713 -1.1139 -1.2665 -0.8863
  153TCq2    C1 2327   3.452   1.503  12.605  0.0285 -0.3311 -0.5391
  153TCq2    O2 2328   3.422   1.572  12.509 -0.6098  0.0549 -0.3725
  153TCq2    C2 2329   3.584   1.512  12.660  0.2852 -0.4910  0.2999
  153TCq2    C3 2330   3.605   1.446  12.779  0.1872  0.0637  0.3138
  153TCq2    C4 2331   3.730   1.455  12.833 -0.5857 -0.0203  0.3386
  153TCq2    C5 2332   3.828   1.527  12.781  0.7322 -1.1286 -0.4258
  153TCq2    C6 2333   3.810   1.571  12.654 -0.2579  0.2526 -0.4241
  153TCq2    C7 2334   3.689   1.564  12.588 -0.0442 -0.7294  1.0601
  153TCq2    C8 2335   3.903   1.666  12.596 -0.4933 -0.1537  0.3760
  153TCq2    O4 2336   3.883   1.688  12.475 -0.1423 -0.4101  0.0658
  153TCq2    C9 2337   3.764   1.384  12.949 -0.4542  0.3747  0.2455
  153TCq2    O5 2338   3.859   1.437  13.009  0.1684  0.2232 -0.2212
  153TCq2    O6 2339   3.685   1.294  12.985 -0.0025 -0.1713  0.6461
  153TCq2    H2 2340   3.535   1.396  12.845  0.2140  1.8050  1.6854
  153TCq2    H3 2341   3.931   1.517  12.812  0.8590  1.8816  0.0657
  153TCq2    H4 2342   3.663   1.610  12.493 -0.9630 -0.3792  1.4806
  154MPD2     C 2343   0.444   2.217   0.563 -0.3973 -0.3913 -0.5333
  154MPD2    C1 2344   0.407   2.121   0.654  0.5163 -0.1636  0.3694
  154MPD2    C2 2345   0.288   2.135   0.727  0.4993  0.1386 -0.0589
  154MPD2    C3 2346   0.212   2.252   0.714 -0.4380  0.2553 -0.4313
  154MPD2    C4 2347   0.250   2.353   0.631  0.1357  0.3543 -0.1453
  154MPD2    C5 2348   0.369   2.333   0.557  0.2428  0.0787 -0.7126
  154MPD2     H 2349   0.260   2.053   0.793  1.0766  1.2948  1.6151
  154MPD2    H1 2350   0.202   2.450   0.616 -0.2463  0.1250 -0.3996
  154MPD2    H2 2351   0.539   2.199   0.514 -0.5981 -3.4471  0.2025
  154MPD2    H3 2352   0.401   2.411   0.488 -2.5834  1.1093 -0.8825
  154MPD2     N 2353   0.094   2.251   0.787  0.6309 -0.1040  0.4860
  154MPD2    H5 2354   0.093   2.191   0.869 -3.6036 -0.0115  0.4596
  154MPD2    N1 2355   0.480   1.998   0.653  0.7436 -0.0722  1.3401
  154MPD2    H7 2356   0.536   1.978   0.571 -0.7957  0.2953  0.1801
  155TCq2    C1 2357   0.483   1.912   0.761 -0.7999 -0.6591  0.8724
  155TCq2    O2 2358   0.436   1.934   0.875  0.3669  0.0177  0.6282
  155TCq2    C2 2359   0.571   1.795   0.737  0.2981 -0.4911  0.2724
  155TCq2    C3 2360   0.607   1.725   0.845 -1.4116  0.3228  0.0077
  155TCq2    C4 2361   0.699   1.624   0.836  0.4963 -0.5895  0.3748
  155TCq2    C5 2362   0.751   1.585   0.710 -0.9809 -0.1926 -0.0902
  155TCq2    C6 2363   0.704   1.657   0.603  0.5182 -0.3102  0.1318
  155TCq2    C7 2364   0.621   1.766   0.614  0.8497 -0.4605  0.1127
  155TCq2    C8 2365   0.760   1.636   0.472 -0.5145 -0.5174  0.6062
  155TCq2    O4 2366   0.757   1.735   0.403 -0.1909 -0.2436 -0.1468
  155TCq2    C9 2367   0.724   1.546   0.957  0.5027  0.1073 -0.5219
  155TCq2    O5 2368   0.647   1.555   1.056 -0.4676 -0.3877 -0.2942
  155TCq2    O6 2369   0.827   1.475   0.956  0.0010 -0.0686  0.3945
  155TCq2    H2 2370   0.572   1.750   0.944  0.7944  3.0996  0.0963
  155TCq2    H3 2371   0.824   1.504   0.702 -2.4849 -1.6544  0.9799
  155TCq2    H4 2372   0.585   1.816   0.525  0.8776 -0.1956  0.2505
  156MPD2     C 2373   4.337   4.648  12.008  0.6095  0.1767  0.4163
  156MPD2    C1 2374   4.288   0.001  11.904  0.2674 -0.4868 -0.3683
  156MPD2    C2 2375   4.178   0.089  11.929  0.6896 -0.1062  0.2226
  156MPD2    C3 2376   4.124   0.099  12.058 -0.7569 -0.3490 -0.0043
  156MPD2    C4 2377   4.179   0.012  12.153 -0.1735  0.1992  0.3542
  156MPD2    C5 2378   4.288   4.659  12.128 -0.8994 -0.5046  0.5635
  156MPD2     H 2379   4.149   0.157  11.850 -0.4275  1.4055  1.9135
  156MPD2    H1 2380   4.138   0.012  12.253  0.2528  1.4083  0.5329
  156MPD2    H2 2381   4.419   4.581  11.990 -0.6116 -0.2033 -3.8037
  156MPD2    H3 2382   4.324   4.586  12.199  0.6603 -0.1718  0.1069
  156MPD2     N 2383   4.011   0.177  12.096  0.0567 -0.0646  0.4131
  156MPD2    H5 2384   3.987   0.153  12.191 -0.8462  0.7655  0.3977
  156MPD2    N1 2385   4.336   4.708  11.772  0.1607 -0.1013  0.5240
  156MPD2    H7 2386   4.383   4.621  11.752  0.5865 -0.4516  3.0835
  157TCq2    C1 2387   4.300   0.062  11.661 -0.9127 -0.6239  0.4137
  157TCq2    O2 2388   4.274   0.179  11.669  0.3983  0.5058 -0.0334
  157TCq2    C2 2389   4.304   4.715  11.538  0.4668  0.4810  0.6815
  157TCq2    C3 2390   4.293   4.576  11.536 -0.8518  0.4492 -0.7162
  157TCq2    C4 2391   4.223   4.510  11.444  0.0899  0.6193  0.9165
  157TCq2    C5 2392   4.153   4.589  11.353 -0.3320 -0.6578  0.0042
  157TCq2    C6 2393   4.172   0.001  11.353  0.4485  0.4881  0.6758
  157TCq2    C7 2394   4.248   0.067  11.438  0.5912  0.1815 -0.1931
  157TCq2    C8 2395   4.068   0.079  11.279 -0.3101  0.1390  0.1279
  157TCq2    O4 2396   4.090   0.196  11.251 -0.0643  0.1743 -0.2339
  157TCq2    C9 2397   4.210   4.371  11.452 -0.3320 -0.0842 -0.2424
  157TCq2    O5 2398   4.286   4.303  11.525  0.3018 -0.2410  0.1619
  157TCq2    O6 2399   4.096   4.327  11.410  0.1936  0.0353 -0.3248
  157TCq2    H2 2400   4.356   4.520  11.604  0.6700 -1.7122 -3.9378
  157TCq2    H3 2401   4.095   4.534  11.280 -2.0349 -0.4816  1.2114
  157TCq2    H4 2402   4.263   0.175  11.435 -0.4388  0.2859 -1.5921
  158TMC2    C1 2403   4.067   2.962  13.332 -0.4316  0.2241  0.3975
  158TMC2    C2 2404   4.139   2.971  13.215 -1.1499 -0.5020  0.4312
  158TMC2    C3 2405   4.080   2.977  13.095  0.9882 -0.3976  0.5839
  158TMC2    C4 2406   3.928   2.936  13.324  0.6967 -0.0998  0.1833
  158TMC2    C5 2407   3.882   2.926  13.195 -0.2040  0.2149  0.0608
  158TMC2    C6 2408   3.950   2.945  13.083  0.0724  0.5107  0.4892
  158TMC2     C 2409   4.143   2.931  13.448  0.0566 -0.2697  0.6584
  158TMC2     O 2410   4.262   2.907  13.433  0.3338  0.0240 -0.0247
  158TMC2     H 2411   4.245   2.993  13.221 -1.0953 -0.2235 -1.7680
  158TMC2    H1 2412   3.862   2.932  13.410  1.9651  0.0465  1.1778
  158TMC2    H2 2413   3.908   2.945  12.983  4.0585 -2.1076 -1.2202
  158TMC2    C7 2414   3.740   2.897  13.181 -0.2606 -0.2261  0.5475
  158TMC2    C8 2415   4.141   3.044  12.980  0.1799  0.1245  0.9468
  158TMC2    O1 2416   3.693   2.924  13.068  0.2647  0.2894 -0.2061
  158TMC2    O2 2417   4.161   2.980  12.881  0.0106 -0.3464 -0.1845
  158TMC2    O5 2418   4.050   3.145  12.964  0.0579 -0.2952 -0.0778
  158TMC2    H5 2419   4.035   3.166  13.058  3.2663 -0.4188  0.4657
  159MPD2     C 2420   4.212   2.814  13.948  0.1832 -0.7725  0.0697
  159MPD2    C1 2421   4.086   2.865  13.933 -1.1062 -0.6886  0.3702
  159MPD2    C2 2422   4.048   2.919  13.805  0.6759  0.3639  0.0429
  159MPD2    C3 2423   4.129   2.904  13.694  0.3246  0.1501  0.6312
  159MPD2    C4 2424   4.255   2.840  13.713 -0.6605 -0.0019 -0.0629
  159MPD2    C5 2425   4.299   2.814  13.840 -0.0832 -0.6937  0.6708
  159MPD2     H 2426   3.946   2.953  13.788  1.4815  1.7817 -1.9127
  159MPD2    H1 2427   4.333   2.843  13.637 -0.9116 -0.4325 -0.3362
  159MPD2    H2 2428   4.248   2.784  14.046 -1.0396 -0.5926  0.5707
  159MPD2    H3 2429   4.401   2.781  13.854  0.8617  1.3791 -1.1675
  159MPD2     N 2430   4.078   2.943  13.568 -0.4608 -0.4720  0.0435
  159MPD2    H5 2431   3.985   2.985  13.571 -0.3747 -0.2291 -0.6706
  159MPD2    N1 2432   4.008   2.868  14.053 -0.3742 -0.0733 -0.2329
  159MPD2    H7 2433   4.053   2.843  14.140 -0.5670 -1.1192 -0.4356
  160TMC2    C1 2434   3.196   0.904   1.001 -0.2887  0.7640 -0.6985
  160TMC2    C2 2435   3.292   0.807   1.019 -0.2452 -0.4153 -0.4528
  160TMC2    C3 2436   3.420   0.842   0.993 -0.3589 -0.1080 -0.0006
  160TMC2    C4 2437   3.233   1.029   0.959 -0.1344 -0.2287  1.0364
  160TMC2    C5 2438   3.362   1.055   0.934  0.6381 -0.3864  0.0207
  160TMC2    C6 2439   3.458   0.962   0.949  0.3784 -0.3680  0.0987
  160TMC2     C 2440   3.058   0.870   1.021 -0.2298  0.1223 -0.2774
  160TMC2     O 2441   3.026   0.752   1.035 -0.3680  0.3765  0.6099
  160TMC2     H 2442   3.262   0.708   1.051  0.9915 -0.7739 -0.3917
  160TMC2    H1 2443   3.161   1.105   0.929  1.0764  0.4803 -0.0791
  160TMC2    H2 2444   3.564   0.971   0.929  0.0602  1.4341 -0.7834
  160TMC2    C7 2445   3.399   1.191   0.884 -1.1231  0.5364  0.3526
  160TMC2    C8 2446   3.525   0.753   1.020  0.2060  0.4005  0.2230
  160TMC2    O1 2447   3.305   1.256   0.844  0.5094 -0.1573 -0.3742
  160TMC2    O2 2448   3.637   0.795   1.046  0.7233 -0.2567  0.1677
  160TMC2    O5 2449   3.492   0.622   0.990  0.4719  0.0915 -0.2685
  160TMC2    H5 2450   3.425   0.625   0.919  0.8881 -0.6817 -0.6830
  161MPD2     C 2451   2.751   0.881   1.107  0.3728 -0.0775  0.1696
  161MPD2    C1 2452   2.840   0.989   1.090  0.4245 -0.0096 -0.2898
  161MPD2    C2 2453   2.793   1.113   1.123  0.6214 -0.3009  0.2819
  161MPD2    C3 2454   2.663   1.123   1.167  0.5890 -0.3882  0.1314
  161MPD2    C4 2455   2.587   1.018   1.202  0.5628 -0.4560  0.8786
  161MPD2    C5 2456   2.627   0.898   1.163 -0.7764 -0.1161 -0.0722
  161MPD2     H 2457   2.863   1.195   1.121  0.3929 -0.1439 -0.9279
  161MPD2    H1 2458   2.481   1.030   1.224  0.9462  0.2774  2.2830
  161MPD2    H2 2459   2.785   0.780   1.089 -0.6254 -0.2706 -0.6410
  161MPD2    H3 2460   2.553   0.819   1.174 -1.6661  0.7257 -0.0228
  161MPD2     N 2461   2.614   1.248   1.216 -0.1619  0.7333  0.3618
  161MPD2    H5 2462   2.523   1.248   1.261 -0.6471  0.0542 -0.5925
  161MPD2    N1 2463   2.983   0.982   1.051  0.1710 -0.1687 -0.2246
  161MPD2    H7 2464   3.043   1.064   1.060 -1.0916  0.7694 -0.2372
  162TMC2    C1 2465   0.348   3.161   0.722  0.7264  0.2719 -0.2674
  162TMC2    C2 2466   0.242   3.156   0.628  0.2051  0.0437 -0.2470
  162TMC2    C3 2467   0.138   3.079   0.673 -0.2918  0.0010  0.3446
  162TMC2    C4 2468   0.363   3.088   0.832  0.3881  0.0194  0.3159
  162TMC2    C5 2469   0.248   3.024   0.879  0.4077 -0.2351 -0.2846
  162TMC2    C6 2470   0.138   3.015   0.797 -0.1631 -0.7152  0.8553
  162TMC2     C 2471   0.466   3.221   0.658  0.3649 -0.5861 -0.1826
  162TMC2     O 2472   0.448   3.302   0.568 -1.0859 -0.4716 -0.3936
  162TMC2     H 2473   0.238   3.203   0.531 -3.8479  0.3128  0.0378
  162TMC2    H1 2474   0.433   3.114   0.911  1.6119  0.7302 -1.0230
  162TMC2    H2 2475   0.051   2.959   0.833  1.3813 -1.7272  3.0037
  162TMC2    C7 2476   0.244   2.932   0.996  0.3927 -0.4671 -0.4202
  162TMC2    C8 2477   0.022   3.064   0.592 -0.5922 -0.0439 -0.3812
  162TMC2    O1 2478   0.134   2.895   1.041 -1.3071 -0.3089  0.2811
  162TMC2    O2 2479   4.633   3.040   0.639  0.2932 -0.0605  0.0059
  162TMC2    O5 2480   0.066   3.028   0.471  0.2032 -0.3807 -0.2175
  162TMC2    H5 2481   0.164   3.035   0.466  0.3204 -1.8042  0.0437
  163MPD2     C 2482   0.934   3.286   0.500 -0.0962  0.3736 -0.8268
  163MPD2    C1 2483   0.924   3.165   0.557 -0.3432 -0.8672 -1.1131
  163MPD2    C2 2484   0.811   3.132   0.635  0.4571  1.0261 -0.3901
  163MPD2    C3 2485   0.705   3.218   0.647 -0.5879 -0.0765 -0.2815
  163MPD2    C4 2486   0.720   3.337   0.582 -0.5657  1.4967 -0.4014
  163MPD2    C5 2487   0.836   3.375   0.517  0.7053  0.1201  0.2112
  163MPD2     H 2488   0.807   3.037   0.687  0.0845  1.3547  0.1927
  163MPD2    H1 2489   0.648   3.418   0.576 -0.7595  1.2372 -1.7561
  163MPD2    H2 2490   1.023   3.309   0.441  0.6422  1.3193  0.6482
  163MPD2    H3 2491   0.849   3.474   0.476 -0.9377  0.2907  0.0824
  163MPD2     N 2492   0.584   3.178   0.711 -0.1459  0.8080  0.3858
  163MPD2    H5 2493   0.578   3.088   0.756 -1.5246  1.3516  1.2950
  163MPD2    N1 2494   1.038   3.084   0.553  0.3982  0.1502 -0.4614
  163MPD2    H7 2495   1.119   3.106   0.496  1.3253 -0.4579  0.6216
  164TCq2    C1 2496   2.548   2.910  11.682 -0.6740 -0.0446 -0.2657
  164TCq2    O2 2497   2.479   2.828  11.741  0.1683 -0.8809 -0.7163
  164TCq2    C2 2498   2.526   3.054  11.701 -0.2458  0.0822  0.4101
  164TCq2    C3 2499   2.616   3.141  11.654  0.0164 -0.2291 -0.1143
  164TCq2    C4 2500   2.587   3.272  11.628 -0.7824  0.5312 -0.1776
  164TCq2    C5 2501   2.461   3.310  11.668 -0.3449 -0.0040  0.6316
  164TCq2    C6 2502   2.373   3.221  11.726 -0.1262 -1.0958  0.3525
  164TCq2    C7 2503   2.407   3.094  11.747  0.3195 -0.0535 -0.1779
  164TCq2    C8 2504   2.236   3.270  11.750  0.7961  0.4072  0.4575
  164TCq2    O4 2505   2.191   3.362  11.675 -0.5940  0.6141 -0.4190
  164TCq2    C9 2506   2.671   3.362  11.560  0.1300 -0.5373  0.2723
  164TCq2    O5 2507   2.790   3.327  11.536  0.0134 -0.5950 -0.7220
  164TCq2    O6 2508   2.613   3.458  11.503 -0.6020  0.2912 -0.1246
  164TCq2    H2 2509   2.717   3.112  11.629 -0.8614 -2.9619 -0.5373
  164TCq2    H3 2510   2.428   3.412  11.653 -1.3888 -0.9361 -3.3741
  164TCq2    H4 2511   2.320   3.032  11.767  0.5002 -0.1401  0.3251
  165MPD2     C 2512   4.027   3.944   1.891  0.4045  0.4404 -0.6006
  165MPD2    C1 2513   3.895   3.928   1.934 -0.3278 -0.2668 -0.2518
  165MPD2    C2 2514   3.835   4.028   2.006 -0.2551  0.9150 -0.1627
  165MPD2    C3 2515   3.907   4.141   2.040 -0.1874  0.0367 -0.1234
  165MPD2    C4 2516   4.027   4.165   1.987  0.6802 -0.6294  0.1409
  165MPD2    C5 2517   4.085   4.063   1.920 -0.8788  0.2023  0.5517
  165MPD2     H 2518   3.732   4.019   2.038 -0.8200  0.6295 -2.0713
  165MPD2    H1 2519   4.078   4.260   1.983 -0.1659 -0.1718  0.2705
  165MPD2    H2 2520   4.077   3.861   1.841  0.0059 -0.6180  0.7494
  165MPD2    H3 2521   4.188   4.086   1.896 -0.9621 -0.6055 -0.5694
  165MPD2     N 2522   3.854   4.248   2.121  0.1929  0.1911 -0.1500
  165MPD2    H5 2523   3.918   4.327   2.128 -3.3763  3.1583 -1.4628
  165MPD2    N1 2524   3.830   3.811   1.898  0.2011 -0.2566 -0.4780
  165MPD2    H7 2525   3.889   3.735   1.866 -0.1574 -0.4974 -0.5791
  166TCq2    C1 2526   3.724   4.257   2.169 -0.1701  0.0844  0.4412
  166TCq2    O2 2527   3.639   4.169   2.174 -0.3101  0.1924  0.7710
  166TCq2    C2 2528   3.703   4.384   2.237  0.4570 -0.0931  0.5390
  166TCq2    C3 2529   3.592   4.395   2.316 -0.0853  0.2983  0.3760
  166TCq2    C4 2530   3.552   4.514   2.365  0.0886 -0.5863  0.7136
  166TCq2    C5 2531   3.617   4.631   2.323 -0.6563 -0.1751  0.1136
  166TCq2    C6 2532   3.725   4.616   2.241  0.3276  0.5941 -0.5193
  166TCq2    C7 2533   3.775   4.496   2.200  0.7162  0.6912 -0.4634
  166TCq2    C8 2534   3.780   0.012   2.178  0.1653  0.7675  0.3711
  166TCq2    O4 2535   3.902   0.012   2.153 -0.3441  0.4452 -0.4993
  166TCq2    C9 2536   3.451   4.529   2.463 -0.7248 -0.2517  0.2786
  166TCq2    O5 2537   3.386   4.430   2.502 -0.2839 -0.3809  0.3226
  166TCq2    O6 2538   3.467   4.626   2.545  0.0360 -0.1321  0.0731
  166TCq2    H2 2539   3.537   4.305   2.342  0.6018 -0.3421 -0.3907
  166TCq2    H3 2540   3.578   4.721   2.367 -2.5336 -0.9661  0.0867
  166TCq2    H4 2541   3.858   4.494   2.130  1.5961  1.2982  0.5763
  167TMC2    C1 2542   1.306   2.723  13.203  0.2331 -0.1734  0.3198
  167TMC2    C2 2543   1.231   2.712  13.322  0.4704  0.7603 -0.0194
  167TMC2    C3 2544   1.142   2.611  13.331 -0.0494 -0.0254  0.0898
  167TMC2    C4 2545   1.311   2.618  13.114  0.2418  0.2021  0.0155
  167TMC2    C5 2546   1.235   2.507  13.143 -0.1588 -0.9545  0.2486
  167TMC2    C6 2547   1.137   2.514  13.240  0.2293  0.3043  0.0282
  167TMC2     C 2548   1.386   2.847  13.188 -0.1454  0.2888 -0.7010
  167TMC2     O 2549   1.396   2.927  13.281  0.2091 -0.9251 -0.1753
  167TMC2     H 2550   1.222   2.798  13.388 -2.8811 -0.0854  0.6199
  167TMC2    H1 2551   1.388   2.616  13.038  0.9155 -1.3929  0.7167
  167TMC2    H2 2552   1.069   2.432  13.256 -0.7126  1.0113 -0.3237
  167TMC2    C7 2553   1.244   2.390  13.064  0.4329  0.2543 -0.3380
  167TMC2    C8 2554   1.063   2.592  13.448  0.4199  0.4863 -0.3120
  167TMC2    O1 2555   1.178   2.299  13.105 -0.1889 -0.5787 -0.0039
  167TMC2    O2 2556   0.977   2.507  13.468 -0.2193  0.5603  0.5658
  167TMC2    O5 2557   1.143   2.635  13.547  0.6583 -0.1436 -0.3775
  167TMC2    H5 2558   1.230   2.665  13.515  1.5223 -1.4046  0.8039
  168MPD2     C 2559   1.590   3.052  13.103 -0.5950  0.0790 -0.7643
  168MPD2    C1 2560   1.546   2.955  13.020  0.0467  0.0434 -0.1758
  168MPD2    C2 2561   1.592   2.942  12.888 -0.0664  0.4117 -0.0345
  168MPD2    C3 2562   1.682   3.029  12.836  0.1420 -0.1461 -0.3048
  168MPD2    C4 2563   1.728   3.127  12.919 -0.2991  0.3629 -0.1695
  168MPD2    C5 2564   1.699   3.133  13.055  0.1473 -0.0319 -0.0320
  168MPD2     H 2565   1.554   2.852  12.840  1.2566 -1.0177  1.6047
  168MPD2    H1 2566   1.806   3.196  12.891 -0.3892  0.1047 -1.0553
  168MPD2    H2 2567   1.571   3.058  13.210  1.4358  0.1095 -0.3931
  168MPD2    H3 2568   1.745   3.206  13.121 -1.0342  0.5644  0.1259
  168MPD2     N 2569   1.730   3.020  12.700  0.0719 -0.2817 -0.0934
  168MPD2    H5 2570   1.814   3.067  12.668  1.1853 -2.3304 -0.1873
  168MPD2    N1 2571   1.450   2.847  13.062  0.1358 -0.1040 -0.0863
  168MPD2    H7 2572   1.425   2.773  12.996 -1.0762 -0.2616  0.5520
  169MPD1     C 2573   3.290   1.571   9.428 -0.0082 -0.1991 -0.5914
  169MPD1    C1 2574   3.393   1.522   9.506  0.6194 -0.4330 -0.5333
  169MPD1    C2 2575   3.499   1.607   9.529  0.3685 -0.2866  0.4772
  169MPD1    C3 2576   3.514   1.740   9.490  0.2966 -0.4944 -0.0344
  169MPD1    C4 2577   3.401   1.792   9.419  0.0125  0.3125 -0.1599
  169MPD1    C5 2578   3.301   1.703   9.383  0.3808 -0.2802 -0.4131
  169MPD1     H 2579   3.587   1.574   9.583  0.6018 -0.5234 -0.0384
  169MPD1    H1 2580   3.389   1.895   9.389 -1.5454 -0.1848 -1.2740
  169MPD1    H2 2581   3.198   1.519   9.404 -0.7360 -0.1503  2.0589
  169MPD1    H3 2582   3.219   1.740   9.323 -1.9074 -2.1354  1.6251
  169MPD1     N 2583   3.628   1.808   9.523  0.1782  0.0169  0.1382
  169MPD1    H5 2584   3.705   1.756   9.563 -0.0868 -0.3004  0.2330
  169MPD1    N1 2585   3.401   1.391   9.538 -0.1702  0.2260  0.0843
  169MPD1    H6 2586   3.464   1.360   9.612  0.0240  1.7965  0.5748
  169MPD1    H7 2587   3.312   1.342   9.540 -0.1813  0.2286 -0.2768
  170MPD1     C 2588   2.314   4.529  12.787 -0.0790 -0.2274 -0.6204
  170MPD1    C1 2589   2.304   4.668  12.790 -1.0857  0.5844  0.6523
  170MPD1    C2 2590   2.308   0.005  12.915 -0.3874  0.2463 -0.2044
  170MPD1    C3 2591   2.326   4.663  13.034  0.1757 -0.0568 -0.4148
  170MPD1    C4 2592   2.344   4.523  13.027  0.7511 -0.6083 -0.5338
  170MPD1    C5 2593   2.340   4.459  12.906  0.1461  0.1503  0.3408
  170MPD1     H 2594   2.296   0.113  12.916 -1.2514  0.1432  0.8586
  170MPD1    H1 2595   2.366   4.455  13.109  1.2281  2.5512  1.9646
  170MPD1    H2 2596   2.317   4.460  12.703  1.8155  0.1880 -0.9005
  170MPD1    H3 2597   2.356   4.352  12.895  0.6659  0.0033  2.5416
  170MPD1     N 2598   2.313   0.015  13.158 -0.3773  0.1463  0.0471
  170MPD1    H5 2599   2.289   0.113  13.169 -0.4741  0.2183 -0.7954
  170MPD1    N1 2600   2.280   0.019  12.668 -0.5501  0.1901 -0.0600
  170MPD1    H6 2601   2.324   0.110  12.677  0.9839 -0.4859 -0.8353
  170MPD1    H7 2602   2.305   4.696  12.581  0.1850  0.6656 -0.1058
  171MPD1     C 2603   0.678   1.079  15.780  0.5266 -0.0692  0.1550
  171MPD1    C1 2604   0.706   0.948  15.750  0.6783  0.3727 -0.0590
  171MPD1    C2 2605   0.820   0.895  15.802 -0.4632  0.2111  0.1019
  171MPD1    C3 2606   0.899   0.966  15.888  0.2317  0.4874 -0.1048
  171MPD1    C4 2607   0.869   1.096  15.917 -0.2676 -0.1116  0.4559
  171MPD1    C5 2608   0.770   1.156  15.848  0.4171 -0.2130 -0.5580
  171MPD1     H 2609   0.849   0.798  15.762  1.5213  1.0325 -0.4748
  171MPD1    H1 2610   0.919   1.151  15.995 -0.9255  0.5580  0.4032
  171MPD1    H2 2611   0.589   1.126  15.739  1.4418  1.1307 -0.4371
  171MPD1    H3 2612   0.750   1.262  15.856  1.0199 -0.0347 -1.4316
  171MPD1     N 2613   1.010   0.899  15.956  0.1605  0.5143 -0.3070
  171MPD1    H5 2614   1.055   0.949  16.032  1.8462 -0.9653 -0.3133
  171MPD1    N1 2615   0.638   0.878  15.644 -0.3225  0.4737 -0.6275
  171MPD1    H6 2616   0.652   0.777  15.649 -1.5612  0.3351  0.0380
  171MPD1    H7 2617   0.539   0.900  15.642 -0.5903 -0.3735  3.1172
  172MPD1     C 2618   4.645   4.576   0.429  0.7975  0.2720 -0.8484
  172MPD1    C1 2619   4.570   4.611   0.315  0.5456 -0.4300  0.5833
  172MPD1    C2 2620   4.573   0.009   0.257  0.3613 -0.0351  0.1300
  172MPD1    C3 2621   4.663   0.102   0.309 -0.3522  0.1471 -0.5306
  172MPD1    C4 2622   0.019   0.071   0.423 -0.6460  0.0392 -0.1474
  172MPD1    C5 2623   0.002   4.672   0.486  0.1507 -0.1578  0.0572
  172MPD1     H 2624   4.504   0.036   0.179  1.1529  0.7033 -0.3072
  172MPD1    H1 2625   0.084   0.151   0.459 -1.2289  0.7793 -0.7318
  172MPD1    H2 2626   4.645   4.485   0.488 -1.5253 -0.6576 -2.2680
  172MPD1    H3 2627   0.059   4.644   0.574 -2.2986 -2.9733  0.7229
  172MPD1     N 2628   4.676   0.229   0.253 -0.1343  0.0227  0.4495
  172MPD1    H5 2629   4.705   0.300   0.319  1.1789 -1.1301  1.1013
  172MPD1    N1 2630   4.473   4.522   0.270  0.7041  0.6154 -0.6739
  172MPD1    H6 2631   4.438   4.543   0.177  0.8720 -0.3116 -0.9496
  172MPD1    H7 2632   4.491   4.421   0.267  0.4288  0.5305  0.5137
  173MPD1     C 2633   1.214   1.114  14.430 -0.2600  0.2838  0.1816
  173MPD1    C1 2634   1.305   1.015  14.396 -0.3212 -0.0281 -0.1228
  173MPD1    C2 2635   1.275   0.881  14.429 -0.0203  0.6834 -0.3419
  173MPD1    C3 2636   1.151   0.845  14.472 -0.6586 -0.5758 -0.0633
  173MPD1    C4 2637   1.063   0.942  14.488  0.0867  0.6210 -0.6747
  173MPD1    C5 2638   1.090   1.076  14.469 -0.1528 -0.3898  0.3792
  173MPD1     H 2639   1.344   0.798  14.436 -1.6586 -0.9462 -3.5773
  173MPD1    H1 2640   0.965   0.912  14.526 -0.9196  1.0054 -3.0011
  173MPD1    H2 2641   1.238   1.218  14.411 -1.3663  0.5098  0.0337
  173MPD1    H3 2642   1.011   1.150  14.477 -0.4676 -0.7227  0.3254
  173MPD1     N 2643   1.128   0.710  14.512 -0.6556 -0.4579  0.1790
  173MPD1    H5 2644   1.208   0.651  14.490  0.4940  1.1939 -0.0080
  173MPD1    N1 2645   1.430   1.050  14.352  0.0973 -0.5779 -0.3188
  173MPD1    H6 2646   1.460   0.979  14.286 -0.7900 -1.6720  0.4689
  173MPD1    H7 2647   1.430   1.138  14.301  2.9742  1.0194  2.4151
  174MPD1     C 2648   1.366   0.156  13.976 -0.0534  0.6329 -0.8274
  174MPD1    C1 2649   1.280   0.076  14.047 -0.1804 -0.3172  0.3885
  174MPD1    C2 2650   1.229   0.118  14.173  0.6192  0.3718  0.0345
  174MPD1    C3 2651   1.276   0.235  14.224  0.2566 -0.1596 -0.1027
  174MPD1    C4 2652   1.366   0.315  14.154 -0.6468  0.0030 -0.1107
  174MPD1    C5 2653   1.404   0.277  14.030  0.6643 -0.4236  0.2312
  174MPD1     H 2654   1.160   0.053  14.226  1.0954 -1.2379 -1.3257
  174MPD1    H1 2655   1.416   0.405  14.189 -1.6071  0.5829 -0.2201
  174MPD1    H2 2656   1.391   0.127  13.874  2.1998 -1.9814  0.4668
  174MPD1    H3 2657   1.470   0.335  13.966 -1.0032  4.0838  2.6377
  174MPD1     N 2658   1.246   0.278  14.354 -0.3846  0.7628  0.3577
  174MPD1    H5 2659   1.293   0.362  14.385  0.6088  0.8972 -1.5271
  174MPD1    N1 2660   1.234   4.679  13.999 -0.2072 -0.2744  0.0673
  174MPD1    H6 2661   1.276   4.658  13.909  2.7631 -2.1751  1.9160
  174MPD1    H7 2662   1.133   4.684  13.987 -0.0591  2.3377 -0.1206
  175MPD1     C 2663   0.010   1.264  15.804  1.1251 -0.0284  0.3207
  175MPD1    C1 2664   4.600   1.296  15.802  0.1736  0.2330 -1.0132
  175MPD1    C2 2665   4.511   1.250  15.901  0.2309  0.5853  1.0281
  175MPD1    C3 2666   4.556   1.157  15.990  0.1390  0.3121 -0.0507
  175MPD1    C4 2667   4.686   1.106  15.964  0.1611 -0.2015  0.2004
  175MPD1    C5 2668   0.052   1.148  15.872  0.5891 -0.1666  0.1629
  175MPD1     H 2669   4.408   1.285  15.904 -0.2973 -0.8338 -0.6283
  175MPD1    H1 2670   4.721   1.032  16.035  1.6584  0.3567  0.0331
  175MPD1    H2 2671   0.091   1.309  15.747  1.0815 -2.3957 -1.6315
  175MPD1    H3 2672   0.155   1.115  15.872  1.2316  1.8280  1.8376
  175MPD1     N 2673   4.483   1.112  16.104 -0.5592 -0.0118 -0.4253
  175MPD1    H5 2674   4.518   1.029  16.149 -0.7627  0.1775  0.0754
  175MPD1    N1 2675   4.560   1.401  15.713  0.3186  0.5686  0.1970
  175MPD1    H6 2676   4.459   1.400  15.705  0.4357 -2.0016 -0.9950
  175MPD1    H7 2677   4.615   1.383  15.630 -0.8773 -0.2754 -0.4126
  176MPD1     C 2678   1.601   2.903   0.667 -0.3175 -0.5274 -0.0186
  176MPD1    C1 2679   1.660   2.871   0.543 -0.4552  0.3161  0.7633
  176MPD1    C2 2680   1.626   2.942   0.426  0.4139  0.3540  0.1983
  176MPD1    C3 2681   1.521   3.031   0.431  0.1068 -0.2123 -0.0533
  176MPD1    C4 2682   1.451   3.052   0.550 -0.3278 -0.7154 -0.0131
  176MPD1    C5 2683   1.494   2.994   0.667 -0.8562  0.1694  0.0812
  176MPD1     H 2684   1.672   2.915   0.331 -1.1078  0.5319 -0.5877
  176MPD1    H1 2685   1.372   3.125   0.566  0.8716  0.9275 -1.4798
  176MPD1    H2 2686   1.624   2.852   0.760  0.3544  3.3592  1.9288
  176MPD1    H3 2687   1.439   3.015   0.759 -0.3766 -0.2607  0.4622
  176MPD1     N 2688   1.481   3.082   0.308 -0.1477  0.2138  0.3118
  176MPD1    H5 2689   1.543   3.056   0.232  0.7970 -1.1916  1.5657
  176MPD1    N1 2690   1.774   2.783   0.536 -0.0264  0.4953 -0.0281
  176MPD1    H6 2691   1.793   2.750   0.442  1.6975 -0.2969  0.6024
  176MPD1    H7 2692   1.777   2.714   0.610 -0.4095  1.2698  0.7104
  177MPD1     C 2693   0.267   3.110  10.024  0.5863  0.3826 -0.2564
  177MPD1    C1 2694   0.133   3.138  10.043 -0.0261 -0.0758  0.8769
  177MPD1    C2 2695   0.067   3.214   9.953  0.1374  0.3738 -0.1499
  177MPD1    C3 2696   0.124   3.271   9.845 -0.4569 -0.7473 -0.1692
  177MPD1    C4 2697   0.261   3.246   9.830  0.3223 -0.4016 -0.5491
  177MPD1    C5 2698   0.333   3.160   9.917 -0.0620 -0.3618 -0.4967
  177MPD1     H 2699   4.687   3.229   9.978  0.5525  1.6582  0.7950
  177MPD1    H1 2700   0.315   3.296   9.750  0.3319  0.2519 -0.1378
  177MPD1    H2 2701   0.317   3.037  10.087 -0.1723  0.1779  0.1106
  177MPD1    H3 2702   0.439   3.138   9.911  0.0320  0.2282 -1.0532
  177MPD1     N 2703   0.044   3.349   9.756  0.0656  0.4698  0.0958
  177MPD1    H5 2704   4.668   3.350   9.773 -0.2382  0.6976 -1.7511
  177MPD1    N1 2705   0.073   3.106  10.164 -0.1640  0.1474 -0.0672
  177MPD1    H6 2706   4.697   3.091  10.157 -0.3681  0.5987  1.7722
  177MPD1    H7 2707   0.111   3.016  10.195 -0.6478  0.2365  0.7859
  178MPD1     C 2708   2.820   4.252  17.157  0.0359  0.1554  0.3004
  178MPD1    C1 2709   2.686   4.220  17.156 -1.1944  0.4288 -0.1303
  178MPD1    C2 2710   2.650   4.100  17.210  1.0353  0.0889 -0.0118
  178MPD1    C3 2711   2.744   4.011  17.260 -0.7792 -0.2179 -0.8466
  178MPD1    C4 2712   2.874   4.047  17.254  0.0930 -0.7990 -1.5681
  178MPD1    C5 2713   2.916   4.169  17.206 -0.0989  0.0722 -0.2012
  178MPD1     H 2714   2.547   4.071  17.190  0.9196 -0.0471  0.7879
  178MPD1    H1 2715   2.957   3.984  17.281  1.1832  2.5513  2.9062
  178MPD1    H2 2716   2.853   4.353  17.135 -0.4570  0.4147  0.7408
  178MPD1    H3 2717   3.021   4.196  17.208 -0.2290  0.3780  2.5101
  178MPD1     N 2718   2.707   3.880  17.310  0.0060  0.2631  0.4182
  178MPD1    H5 2719   2.787   3.820  17.324  0.3327  0.8880  1.2314
  178MPD1    N1 2720   2.589   4.299  17.092 -0.0964  0.0434  0.3101
  178MPD1    H6 2721   2.497   4.304  17.136  0.2350 -1.1413  1.0977
  178MPD1    H7 2722   2.622   4.395  17.081  0.9375 -0.4656 -1.0237
  179MPD1     C 2723   2.088   2.811  15.645  0.0026 -0.3396 -0.1159
  179MPD1    C1 2724   1.956   2.784  15.638  0.3263 -0.3531 -0.4051
  179MPD1    C2 2725   1.921   2.651  15.641 -0.6733 -0.4811  0.3030
  179MPD1    C3 2726   2.011   2.546  15.646 -0.2834 -0.1524  0.1569
  179MPD1    C4 2727   2.146   2.574  15.635  0.0692  0.2444 -0.3695
  179MPD1    C5 2728   2.181   2.709  15.630  0.8813 -0.0306 -0.0118
  179MPD1     H 2729   1.817   2.626  15.662 -1.2384  2.1086  0.6144
  179MPD1    H1 2730   2.226   2.502  15.633 -1.1255 -1.1056  0.6129
  179MPD1    H2 2731   2.107   2.917  15.646 -2.1921  0.0529 -0.0936
  179MPD1    H3 2732   2.286   2.726  15.613  0.8981  0.1540  0.2760
  179MPD1     N 2733   1.969   2.409  15.659  0.7176  0.5516 -0.0074
  179MPD1    H5 2734   2.039   2.342  15.689  0.0430 -0.7981 -1.4823
  179MPD1    N1 2735   1.854   2.882  15.641  0.3240 -0.3294  0.5802
  179MPD1    H6 2736   1.762   2.844  15.620 -0.4604  1.6914  0.3927
  179MPD1    H7 2737   1.869   2.956  15.573  3.7514 -0.4261  1.1860
  180MPD1     C 2738   1.579   4.157  15.054  0.2174  0.8074 -0.0956
  180MPD1    C1 2739   1.555   4.113  14.927 -0.4125  0.4550  0.1502
  180MPD1    C2 2740   1.617   4.001  14.885  0.4897 -0.9045  0.4609
  180MPD1    C3 2741   1.695   3.926  14.973 -0.5086 -0.2671 -0.1054
  180MPD1    C4 2742   1.704   3.965  15.104 -0.3923  0.6179  0.3119
  180MPD1    C5 2743   1.658   4.088  15.142 -0.0341 -0.1202  0.3220
  180MPD1     H 2744   1.613   3.972  14.780  2.9267 -2.6784  0.8524
  180MPD1    H1 2745   1.753   3.910  15.185  1.1386  0.9898 -0.3627
  180MPD1    H2 2746   1.533   4.244  15.099 -0.4283  0.8228 -0.7884
  180MPD1    H3 2747   1.667   4.127  15.243  2.2235 -2.0543  0.8733
  180MPD1     N 2748   1.747   3.805  14.934  0.0033  0.1240 -0.0632
  180MPD1    H5 2749   1.735   3.787  14.835  2.3373 -0.0451 -0.3251
  180MPD1    N1 2750   1.488   4.195  14.831  0.0140 -0.0420  0.5338
  180MPD1    H6 2751   1.460   4.146  14.746  1.0340 -1.8516  1.2392
  180MPD1    H7 2752   1.414   4.253  14.872  0.5957  0.7849  0.4020
  181MPD1     C 2753   2.941   0.177  10.004  0.2529 -0.1914  0.1875
  181MPD1    C1 2754   2.998   0.252  10.102 -0.1492 -0.0549 -0.2727
  181MPD1    C2 2755   3.134   0.291  10.097 -0.3259  0.6052  0.0274
  181MPD1    C3 2756   3.217   0.256   9.989 -0.3774 -1.2512 -0.4151
  181MPD1    C4 2757   3.157   0.186   9.887 -0.5498 -0.1292 -0.0074
  181MPD1    C5 2758   3.021   0.151   9.900  0.6992  0.3199  0.5845
  181MPD1     H 2759   3.168   0.365  10.170 -2.2865  3.4622 -1.9729
  181MPD1    H1 2760   3.209   0.153   9.798  0.1450  0.8500  0.0408
  181MPD1    H2 2761   2.841   0.135  10.009 -0.5392  1.2800 -2.9688
  181MPD1    H3 2762   2.980   0.086   9.824  1.5586 -0.7062  0.9888
  181MPD1     N 2763   3.349   0.296   9.965 -0.4744 -0.1673  0.5634
  181MPD1    H5 2764   3.400   0.265   9.883  0.3118  2.2198  0.1215
  181MPD1    N1 2765   2.917   0.287  10.209  0.3364 -0.1630 -0.2863
  181MPD1    H6 2766   2.864   0.207  10.243 -1.3364  0.5412 -1.2769
  181MPD1    H7 2767   2.956   0.337  10.289 -0.1991  1.1371 -0.8448
  182MPD1     C 2768   4.418   3.547   1.416 -1.1527 -0.4173 -0.5072
  182MPD1    C1 2769   4.495   3.648   1.469  0.9737 -0.0565  0.1482
  182MPD1    C2 2770   4.465   3.769   1.416  0.1917 -0.2322 -0.8562
  182MPD1    C3 2771   4.374   3.792   1.310  0.1816  0.5524  0.0251
  182MPD1    C4 2772   4.317   3.680   1.249 -0.0852  0.3273 -0.5047
  182MPD1    C5 2773   4.339   3.558   1.296  0.4952 -0.7111  0.5705
  182MPD1     H 2774   4.508   3.853   1.471 -0.3611 -0.8180  0.4821
  182MPD1    H1 2775   4.259   3.677   1.157 -0.2852 -2.6238 -0.2820
  182MPD1    H2 2776   4.439   3.447   1.452 -0.9066 -0.0445  0.3554
  182MPD1    H3 2777   4.286   3.473   1.255  1.3216 -0.8903 -0.1423
  182MPD1     N 2778   4.343   3.914   1.250  0.5676  0.7714 -0.6187
  182MPD1    H5 2779   4.283   3.908   1.168 -0.6870  1.8346  0.2504
  182MPD1    N1 2780   4.574   3.630   1.586 -0.1428 -0.4046 -0.2181
  182MPD1    H6 2781   4.616   3.537   1.585  2.2950  0.7510 -2.4512
  182MPD1    H7 2782   4.642   3.704   1.603  1.7914 -2.6323  1.8242
  183MPD1     C 2783   4.532   0.298   8.945 -0.3379  0.8328 -0.8294
  183MPD1    C1 2784   4.502   0.404   9.026  0.1255  0.2814 -0.0713
  183MPD1    C2 2785   4.608   0.460   9.101  0.3008 -0.0999  0.3942
  183MPD1    C3 2786   0.010   0.401   9.101  0.2967  0.2525  0.3813
  183MPD1    C4 2787   0.033   0.292   9.018  0.8896  0.0605 -0.2678
  183MPD1    C5 2788   4.653   0.243   8.944  0.0834  0.3552  0.0170
  183MPD1     H 2789   4.583   0.547   9.160  1.3756 -0.7910  1.8609
  183MPD1    H1 2790   0.130   0.243   9.017 -0.0930 -1.8958  1.0519
  183MPD1    H2 2791   4.458   0.246   8.886 -0.7775  1.3632 -0.7425
  183MPD1    H3 2792   4.672   0.157   8.881 -1.0906 -0.7913  1.2161
  183MPD1     N 2793   0.096   0.457   9.198 -0.1611  0.0063  0.2925
  183MPD1    H5 2794   0.054   0.535   9.249 -0.3044  0.0274  0.1405
  183MPD1    N1 2795   4.373   0.458   9.026 -0.7607  0.0608 -0.9678
  183MPD1    H6 2796   4.360   0.530   9.097  1.2263  0.3948 -0.9427
  183MPD1    H7 2797   4.289   0.401   9.024 -0.6151 -0.2185  0.3836
  184MPD1     C 2798   3.578   2.799   9.970  0.0692  0.1460  0.6001
  184MPD1    C1 2799   3.665   2.851  10.065 -0.6057  0.8591 -0.2708
  184MPD1    C2 2800   3.719   2.974  10.032  0.1821 -0.4261  0.0652
  184MPD1    C3 2801   3.685   3.045   9.914 -0.0904  0.4112  0.3687
  184MPD1    C4 2802   3.585   2.994   9.836  0.6800  0.3945  0.6761
  184MPD1    C5 2803   3.531   2.877   9.868  0.2037 -0.2006 -0.9536
  184MPD1     H 2804   3.795   3.010  10.100  0.1677  0.8270 -0.5761
  184MPD1    H1 2805   3.552   3.046   9.747  0.7929  1.1588  1.0794
  184MPD1    H2 2806   3.534   2.701   9.984  1.8969 -0.6578  0.7897
  184MPD1    H3 2807   3.451   2.827   9.815 -0.2268 -0.7475  0.2218
  184MPD1     N 2808   3.751   3.168   9.879  0.1573  0.1148 -0.0632
  184MPD1    H5 2809   3.727   3.205   9.788 -2.3975 -1.8727 -0.1873
  184MPD1    N1 2810   3.682   2.774  10.184 -0.3566 -0.5688 -0.3412
  184MPD1    H6 2811   3.750   2.816  10.247 -0.2195 -1.7190  0.2767
  184MPD1    H7 2812   3.700   2.676  10.165  0.4703 -0.5245  0.2367
  185MPD1     C 2813   3.585   3.581   9.147  0.8618 -0.6228  0.3330
  185MPD1    C1 2814   3.597   3.678   9.236  0.0880  0.6996 -0.5139
  185MPD1    C2 2815   3.656   3.648   9.356 -0.0499 -0.0007 -0.2325
  185MPD1    C3 2816   3.678   3.513   9.393 -0.5591  1.3743 -0.0246
  185MPD1    C4 2817   3.630   3.410   9.318  0.1626 -0.1933  0.2691
  185MPD1    C5 2818   3.591   3.445   9.192  0.0068 -0.2955  0.9361
  185MPD1     H 2819   3.684   3.730   9.421  0.4787 -0.3620 -0.0016
  185MPD1    H1 2820   3.651   3.304   9.326  0.5473 -0.0077  1.6502
  185MPD1    H2 2821   3.553   3.602   9.045 -1.3234 -3.8705  0.3245
  185MPD1    H3 2822   3.569   3.374   9.113  3.0943 -0.2899  0.0634
  185MPD1     N 2823   3.754   3.470   9.504 -0.4369  0.3223  0.3631
  185MPD1    H5 2824   3.757   3.374   9.535  1.0240  0.0805 -0.5578
  185MPD1    N1 2825   3.592   3.817   9.212  0.4038  0.1864 -0.4233
  185MPD1    H6 2826   3.511   3.849   9.160 -0.7546 -1.0580  0.6338
  185MPD1    H7 2827   3.592   3.873   9.297 -0.7005 -0.1089 -0.2260
  186MPD1     C 2828   1.723   2.374  16.034 -0.9501 -0.8612 -0.0696
  186MPD1    C1 2829   1.762   2.255  16.092 -0.0610 -0.2593  0.3142
  186MPD1    C2 2830   1.883   2.256  16.162  0.4128  0.1268 -0.2179
  186MPD1    C3 2831   1.974   2.360  16.152  0.8984  0.0525  0.6472
  186MPD1    C4 2832   1.939   2.466  16.076  0.5767 -0.3585 -0.7104
  186MPD1    C5 2833   1.815   2.476  16.025  0.1803  0.3894  0.4204
  186MPD1     H 2834   1.927   2.169  16.208  2.6494  1.1023 -0.5272
  186MPD1    H1 2835   1.996   2.557  16.060  2.0256 -1.2184 -0.4672
  186MPD1    H2 2836   1.622   2.379  15.994 -0.7397 -0.2980 -0.5379
  186MPD1    H3 2837   1.788   2.574  15.986  0.0981  0.5978  0.9993
  186MPD1     N 2838   2.095   2.374  16.223 -0.2393 -0.4012 -0.1954
  186MPD1    H5 2839   2.137   2.465  16.213 -0.2806 -0.3240  0.3579
  186MPD1    N1 2840   1.679   2.143  16.103  0.1766  0.3914  0.5359
  186MPD1    H6 2841   1.611   2.148  16.027 -0.4825  1.0244  1.1659
  186MPD1    H7 2842   1.714   2.048  16.094 -1.5462 -0.1866 -0.2050
  187MPD1     C 2843   1.522   3.609   0.315 -0.6612  0.1448  1.0006
  187MPD1    C1 2844   1.525   3.743   0.342  0.0575 -0.0565 -0.3181
  187MPD1    C2 2845   1.491   3.832   0.237 -0.0848  0.3870 -0.6831
  187MPD1    C3 2846   1.460   3.788   0.109  0.2635  0.0854 -0.1412
  187MPD1    C4 2847   1.465   3.653   0.082 -0.1494  0.5189 -0.3083
  187MPD1    C5 2848   1.504   3.563   0.183 -0.4940 -0.2973 -0.0562
  187MPD1     H 2849   1.465   3.934   0.264 -0.7152  0.8328 -3.0379
  187MPD1    H1 2850   1.428   3.616  17.685  0.1879 -1.4514  0.3295
  187MPD1    H2 2851   1.536   3.535   0.394 -3.4540  0.9719  2.2541
  187MPD1    H3 2852   1.492   3.456   0.168 -1.3366 -0.2900  0.5459
  187MPD1     N 2853   1.411   3.873   0.006  0.5816 -0.5157  0.0987
  187MPD1    H5 2854   1.388   3.828  17.617 -1.2992  2.1288 -0.7641
  187MPD1    N1 2855   1.538   3.787   0.478 -0.1957  0.2716 -0.4438
  187MPD1    H6 2856   1.598   3.717   0.520 -1.0103  0.7657  1.5435
  187MPD1    H7 2857   1.573   3.883   0.486 -2.8782  0.9650  2.9910
  188MPD1     C 2858   1.187   4.654  10.234 -0.0129  0.1015 -0.1565
  188MPD1    C1 2859   1.155   4.569  10.132 -0.0740 -0.1681 -0.0258
  188MPD1    C2 2860   1.226   4.453  10.114 -0.0322  0.3222 -0.5653
  188MPD1    C3 2861   1.330   4.429  10.202 -0.1982  0.0265 -0.7479
  188MPD1    C4 2862   1.365   4.511  10.308  0.2887 -0.5423  0.2160
  188MPD1    C5 2863   1.283   4.619  10.329  0.4653 -0.4004 -0.1831
  188MPD1     H 2864   1.189   4.381  10.042  1.1672 -1.8767  1.0083
  188MPD1    H1 2865   1.443   4.483  10.378  0.3374 -2.4342 -0.5927
  188MPD1    H2 2866   1.124   0.014  10.261 -1.9502 -2.1604  2.2817
  188MPD1    H3 2867   1.294   4.693  10.407 -0.0276  0.4450 -0.9201
  188MPD1     N 2868   1.400   4.304  10.183 -0.2591 -0.5800  0.9153
  188MPD1    H5 2869   1.374   4.256  10.097  3.9332 -0.7405 -0.2626
  188MPD1    N1 2870   1.027   4.585  10.070 -0.0351 -0.1872  0.3060
  188MPD1    H6 2871   1.012   4.686  10.069  0.3941 -0.1212  0.6103
  188MPD1    H7 2872   1.026   4.564   9.970  0.6642 -1.5840  0.5926
  189MPD1     C 2873   3.541   4.535   0.045  0.2376  0.3955 -0.7505
  189MPD1    C1 2874   3.412   4.510   0.087 -0.6418  0.0025  0.0731
  189MPD1    C2 2875   3.310   4.609   0.069  0.4023  0.2660  0.4428
  189MPD1    C3 2876   3.340   0.009   0.029 -0.9034 -0.8316 -0.4944
  189MPD1    C4 2877   3.472   0.032  17.684 -0.6929  0.0136 -0.0706
  189MPD1    C5 2878   3.570   4.655  17.690  0.1040  0.3433 -0.1486
  189MPD1     H 2879   3.209   4.583   0.099  0.5844 -0.8385  0.1042
  189MPD1    H1 2880   3.505   0.125  17.638 -2.2702  0.4061 -0.3981
  189MPD1    H2 2881   3.622   4.464   0.057 -0.5934 -0.5837 -0.9136
  189MPD1    H3 2882   3.672   4.671  17.654  0.8183  0.2928  1.8889
  189MPD1     N 2883   3.232   0.102   0.012 -0.4758 -0.0756 -0.0546
  189MPD1    H5 2884   3.139   0.070   0.036 -0.3534  0.5060  1.1926
  189MPD1    N1 2885   3.376   4.379   0.124  0.3414 -0.4089 -0.2712
  189MPD1    H6 2886   3.293   4.384   0.184  1.0671  0.1659  0.6792
  189MPD1    H7 2887   3.447   4.314   0.157 -0.5102 -1.9696 -1.5035
  190MPD1     C 2888   2.285   4.089  15.457 -0.3108  0.4354 -0.0464
  190MPD1    C1 2889   2.310   3.992  15.363  0.5186 -0.0059 -0.3917
  190MPD1    C2 2890   2.271   3.866  15.397 -0.1135  0.4951  0.0897
  190MPD1    C3 2891   2.251   3.836  15.529 -0.1026  0.5482  0.1120
  190MPD1    C4 2892   2.250   3.934  15.629 -0.0927  0.1485 -0.4859
  190MPD1    C5 2893   2.260   4.060  15.589 -0.2650  0.1873  0.0394
  190MPD1     H 2894   2.266   3.785  15.326  3.2359  1.1737 -0.9259
  190MPD1    H1 2895   2.241   3.909  15.734  0.3510 -0.0420 -0.4952
  190MPD1    H2 2896   2.291   4.195  15.434  1.2005  0.7378  1.7183
  190MPD1    H3 2897   2.248   4.142  15.659  1.7216  0.1348  0.4388
  190MPD1     N 2898   2.230   3.694  15.556 -0.4472  0.4733  0.0811
  190MPD1    H5 2899   2.242   3.631  15.477  0.5116  1.6190 -0.6819
  190MPD1    N1 2900   2.312   4.023  15.224 -0.2182 -0.6979 -0.0399
  190MPD1    H6 2901   2.361   3.945  15.181 -1.1887 -1.2231 -0.1811
  190MPD1    H7 2902   2.354   4.113  15.202 -1.1411  0.2291  2.0200
  191MPD1     C 2903   1.580   0.257  12.485 -0.0753 -0.3503  0.4937
  191MPD1    C1 2904   1.691   0.327  12.461  0.7260 -0.2534 -0.3907
  191MPD1    C2 2905   1.708   0.385  12.337 -0.9502 -0.1150  0.6383
  191MPD1    C3 2906   1.606   0.388  12.246  0.3145 -0.1797 -0.1827
  191MPD1    C4 2907   1.485   0.320  12.270 -0.4791  0.9234 -0.7964
  191MPD1    C5 2908   1.482   0.255  12.390 -0.0434 -1.1097 -0.2741
  191MPD1     H 2909   1.806   0.424  12.309 -0.8837 -0.7257  0.0184
  191MPD1    H1 2910   1.402   0.318  12.200 -1.5148 -0.7441  0.4877
  191MPD1    H2 2911   1.566   0.209  12.582  3.2449 -1.4045  0.4628
  191MPD1    H3 2912   1.391   0.196  12.396 -1.2238  0.9662  2.1929
  191MPD1     N 2913   1.635   0.453  12.119  0.3091  0.1528  0.5416
  191MPD1    H5 2914   1.722   0.503  12.105 -0.4005  0.5241 -2.5520
  191MPD1    N1 2915   1.798   0.314  12.554 -0.6282 -0.0217  0.0004
  191MPD1    H6 2916   1.762   0.280  12.643  0.1664  1.8256  1.0441
  191MPD1    H7 2917   1.859   0.395  12.567  2.3866 -2.0350 -1.6584
  192MPD1     C 2918   1.023   0.717  11.341  0.2832 -0.2294  0.2772
  192MPD1    C1 2919   1.149   0.714  11.283  0.6832 -0.0811 -0.8382
  192MPD1    C2 2920   1.251   0.692  11.376  0.5116 -0.6276  0.5794
  192MPD1    C3 2921   1.239   0.673  11.514  0.2341  0.1797  0.2189
  192MPD1    C4 2922   1.111   0.668  11.561  0.5861 -0.4744  0.6779
  192MPD1    C5 2923   1.008   0.696  11.475  0.2485 -0.1730  0.6203
  192MPD1     H 2924   1.350   0.678  11.333  1.2310  2.4358  1.2651
  192MPD1    H1 2925   1.097   0.665  11.668 -0.9642 -2.3015  0.4191
  192MPD1    H2 2926   0.937   0.735  11.277 -0.5859 -3.0283  0.6382
  192MPD1    H3 2927   0.910   0.701  11.521  0.5262 -1.9634  1.4149
  192MPD1     N 2928   1.346   0.641  11.604 -0.2003  0.6405  0.7775
  192MPD1    H5 2929   1.319   0.608  11.696  1.4588 -0.3669  0.8962
  192MPD1    N1 2930   1.182   0.757  11.155  0.3023  0.3210 -0.2685
  192MPD1    H6 2931   1.109   0.733  11.088  1.1362 -3.4511  0.2072
  192MPD1    H7 2932   1.272   0.724  11.123  0.9443  3.3592 -1.6530
  193MPD1     C 2933   1.092   0.809  16.516  0.4918 -0.0302 -0.5151
  193MPD1    C1 2934   1.039   0.936  16.528 -0.1810  0.4723 -0.1814
  193MPD1    C2 2935   1.096   1.023  16.614 -0.0878 -0.4907 -0.2534
  193MPD1    C3 2936   1.206   0.986  16.688 -0.1695 -0.7122 -0.1902
  193MPD1    C4 2937   1.268   0.863  16.668 -0.0852  0.1869 -0.6844
  193MPD1    C5 2938   1.203   0.780  16.589 -0.0310  0.0411 -0.3486
  193MPD1     H 2939   1.055   1.123  16.617  0.7318 -0.1720  0.4288
  193MPD1    H1 2940   1.357   0.821  16.712 -0.0776  0.3217 -0.5733
  193MPD1    H2 2941   1.050   0.732  16.451  0.8647 -0.2043 -0.5526
  193MPD1    H3 2942   1.245   0.680  16.592 -0.5041 -0.0760  2.1538
  193MPD1     N 2943   1.263   1.072  16.786  0.0867  0.0108  0.0502
  193MPD1    H5 2944   1.345   1.035  16.833  1.3841  0.1718 -2.0913
  193MPD1    N1 2945   0.919   0.972  16.463 -0.0610 -0.1326 -0.0188
  193MPD1    H6 2946   0.926   1.071  16.440  1.3498 -0.4447 -0.9659
  193MPD1    H7 2947   0.911   0.922  16.374  0.9587 -0.2006 -0.0738
  194MPD1     C 2948   3.366   3.412  17.582  0.2213  0.3990  0.8812
  194MPD1    C1 2949   3.303   3.298  17.524 -0.3169  0.3421  0.2818
  194MPD1    C2 2950   3.377   3.176  17.525 -0.2485  0.5592  0.8888
  194MPD1    C3 2951   3.508   3.175  17.554 -0.2967  0.4103 -0.0628
  194MPD1    C4 2952   3.566   3.286  17.606 -0.2957  0.1646 -0.0552
  194MPD1    C5 2953   3.498   3.405  17.618  0.4038 -0.0128  0.1055
  194MPD1     H 2954   3.338   3.093  17.467  0.7366  1.3520 -0.9100
  194MPD1    H1 2955   3.670   3.299  17.631  0.6017 -0.9904 -3.2304
  194MPD1    H2 2956   3.306   3.501  17.597 -1.2484 -0.5987  0.8615
  194MPD1    H3 2957   3.549   3.493  17.657  1.0705 -0.4256  0.1738
  194MPD1     N 2958   3.584   3.060  17.533 -0.0139  0.2113  0.2736
  194MPD1    H5 2959   3.684   3.075  17.543  0.4172 -1.1213 -1.9241
  194MPD1    N1 2960   3.162   3.296  17.507  0.5355  1.1264  0.0110
  194MPD1    H6 2961   3.128   3.376  17.455 -1.0798  0.5544  0.1756
  194MPD1    H7 2962   3.134   3.216  17.450  0.7063  1.8233 -1.0565
  195MPD1     C 2963   1.196   0.322  17.546 -0.0690 -0.5381 -0.0964
  195MPD1    C1 2964   1.080   0.301  17.612 -0.2681  0.5816 -0.7360
  195MPD1    C2 2965   1.055   0.177  17.663 -0.4601 -0.2933 -0.6533
  195MPD1    C3 2966   1.149   0.074  17.657  0.8139  0.4231  0.2786
  195MPD1    C4 2967   1.273   0.111  17.613 -1.0084 -0.5728  0.4051
  195MPD1    C5 2968   1.296   0.231  17.560  0.3032  0.9670 -0.6002
  195MPD1     H 2969   0.953   0.169   0.001 -0.1921 -0.2878  0.0888
  195MPD1    H1 2970   1.350   0.036  17.610 -1.0681 -0.6146  0.0183
  195MPD1    H2 2971   1.219   0.419  17.503  1.2068 -0.1664  1.3958
  195MPD1    H3 2972   1.392   0.258  17.517  1.0793 -1.9516 -0.7002
  195MPD1     N 2973   1.128   4.666   0.010  0.5457 -0.1640 -0.7214
  195MPD1    H5 2974   1.208   4.606   0.029  1.1351  1.0102  0.4920
  195MPD1    N1 2975   0.976   0.395  17.600  0.1590 -0.0332  0.8469
  195MPD1    H6 2976   0.908   0.394  17.676  0.4140 -0.5206  1.0746
  195MPD1    H7 2977   1.007   0.491  17.590 -1.8751  0.7137  1.7067
  196MPD1     C 2978   4.518   3.295   0.789 -0.1765 -0.6099 -0.7052
  196MPD1    C1 2979   4.556   3.399   0.711 -0.0413  0.6742 -0.3499
  196MPD1    C2 2980   4.652   3.484   0.759 -0.5789 -0.3982  0.2222
  196MPD1    C3 2981   0.002   3.447   0.876  0.4641  0.2171  0.1298
  196MPD1    C4 2982   4.692   3.338   0.947  0.1280 -0.3756 -0.0697
  196MPD1    C5 2983   4.584   3.267   0.908 -0.1081  0.2521 -0.5125
  196MPD1     H 2984   4.676   3.573   0.701 -0.8294  0.3636  1.2830
  196MPD1    H1 2985   0.025   3.304   1.032  0.0405 -0.1005  0.0990
  196MPD1    H2 2986   4.425   3.243   0.767  0.3314 -0.7295 -2.5704
  196MPD1    H3 2987   4.548   3.182   0.965 -1.4490 -0.0404 -1.8028
  196MPD1     N 2988   0.107   3.523   0.924 -0.5188  0.2102  0.4112
  196MPD1    H5 2989   0.144   3.495   1.015  2.2942 -3.0516 -1.7282
  196MPD1    N1 2990   4.479   3.452   0.606 -0.4931  0.0500 -1.0225
  196MPD1    H6 2991   4.539   3.510   0.547  1.3191  0.6332  1.4036
  196MPD1    H7 2992   4.438   3.373   0.556 -0.1202  0.9875 -2.7851
  197MPD1     C 2993   0.118   1.476   0.124  1.1072 -0.0636  0.6098
  197MPD1    C1 2994   0.086   1.610   0.091 -0.7740 -1.0891 -0.7236
  197MPD1    C2 2995   0.026   1.636  17.667  0.5095 -0.0952 -0.2335
  197MPD1    C3 2996   4.722   1.536  17.576  0.0324  0.2501 -0.6284
  197MPD1    C4 2997   0.037   1.409  17.611  0.1135  0.5793  0.0610
  197MPD1    C5 2998   0.085   1.376   0.039  0.0229  0.6712  0.7584
  197MPD1     H 2999   4.714   1.736  17.647  0.1557 -0.3475 -0.8768
  197MPD1    H1 3000   0.010   1.330  17.542 -2.2311 -0.0174  1.6651
  197MPD1    H2 3001   0.151   1.448   0.223 -0.7267  0.9584  1.5007
  197MPD1    H3 3002   0.107   1.276   0.073 -0.1449  0.4402  0.1878
  197MPD1     N 3003   4.658   1.561  17.452 -0.6895  0.2680  0.0817
  197MPD1    H5 3004   4.655   1.486  17.384 -0.8019  1.0710 -0.8014
  197MPD1    N1 3005   0.085   1.715   0.189 -0.2320 -0.2321  0.4961
  197MPD1    H6 3006   0.108   1.806   0.149 -1.7836 -0.0543  0.0065
  197MPD1    H7 3007   0.157   1.697   0.258 -1.0667 -0.4708  1.2980
  198MPD1     C 3008   1.817   0.354  15.912  0.2367 -0.1316 -0.2464
  198MPD1    C1 3009   1.835   0.349  16.042 -0.1321  0.3538 -0.3315
  198MPD1    C2 3010   1.964   0.320  16.086  0.1785  0.2491 -0.8737
  198MPD1    C3 3011   2.075   0.301  16.004  1.3670 -0.0523  1.0019
  198MPD1    C4 3012   2.053   0.306  15.867  0.2805  0.4622 -0.9483
  198MPD1    C5 3013   1.922   0.333  15.826  0.3878 -0.0900 -0.3116
  198MPD1     H 3014   1.975   0.307  16.193 -0.8819  2.5980 -0.4798
  198MPD1    H1 3015   2.128   0.296  15.790  0.7298 -0.8627 -0.3377
  198MPD1    H2 3016   1.722   0.370  15.863  1.3578  0.8834 -2.0539
  198MPD1    H3 3017   1.906   0.340  15.719  0.4995 -1.3520 -0.4040
  198MPD1     N 3018   2.191   0.266  16.069 -1.1233 -0.0907  0.5869
  198MPD1    H5 3019   2.176   0.249  16.168 -1.9648  2.6976  0.9236
  198MPD1    N1 3020   1.735   0.381  16.135 -0.6268 -0.6902  0.3811
  198MPD1    H6 3021   1.748   0.326  16.219 -1.8204 -1.1558  0.2664
  198MPD1    H7 3022   1.639   0.376  16.099 -1.2199 -3.2561  2.3705
  199MPD1     C 3023   4.702   0.496   9.988  0.4884 -0.3946 -0.7635
  199MPD1    C1 3024   4.717   0.634   9.989  0.2385  0.6706  0.0871
  199MPD1    C2 3025   4.611   0.711   9.945  0.0004 -0.0608  0.3338
  199MPD1    C3 3026   4.496   0.665   9.890 -0.2658 -0.1779 -0.5463
  199MPD1    C4 3027   4.481   0.531   9.879 -0.2815  0.0523 -0.2377
  199MPD1    C5 3028   4.587   0.451   9.937  0.3162 -0.0729  0.2137
  199MPD1     H 3029   4.637   0.816   9.949  0.5615 -0.2222  0.8741
  199MPD1    H1 3030   4.399   0.482   9.828  0.9300 -0.7375 -1.4115
  199MPD1    H2 3031   0.051   0.427  10.028  0.9659  0.8183  0.4458
  199MPD1    H3 3032   4.567   0.345   9.931 -0.5992  0.0723  0.5649
  199MPD1     N 3033   4.389   0.744   9.854  0.0426 -0.1453 -0.1503
  199MPD1    H5 3034   4.309   0.692   9.819  0.5387 -1.2033  0.3161
  199MPD1    N1 3035   0.115   0.689  10.032  0.7357  0.1607  0.2821
  199MPD1    H6 3036   0.187   0.623  10.004  2.8684  2.5316  0.2486
  199MPD1    H7 3037   0.136   0.779   9.990  2.1728 -1.5463 -2.6861
  200MPD1     C 3038   2.299   0.489  15.329 -0.0561  0.2052  0.0909
  200MPD1    C1 3039   2.283   0.522  15.194 -0.4873  0.5654 -0.4440
  200MPD1    C2 3040   2.387   0.571  15.123  0.3665  0.3831 -0.9213
  200MPD1    C3 3041   2.508   0.604  15.184 -0.2438  0.1760  0.0258
  200MPD1    C4 3042   2.519   0.573  15.315  0.1727  0.1290 -0.3027
  200MPD1    C5 3043   2.420   0.511  15.382  0.4970  0.3918 -0.6569
  200MPD1     H 3044   2.372   0.593  15.018  2.4927  1.9366 -0.8958
  200MPD1    H1 3045   2.609   0.590  15.374 -0.5652  1.2571  0.4938
  200MPD1    H2 3046   2.218   0.452  15.391  0.4745 -0.6422  0.2733
  200MPD1    H3 3047   2.431   0.491  15.488  1.2917 -1.2426 -1.0433
  200MPD1     N 3048   2.608   0.668  15.105 -0.2320  0.0387  0.7229
  200MPD1    H5 3049   2.599   0.675  15.004  2.1583  0.9290  0.5763
  200MPD1    N1 3050   2.166   0.477  15.134  0.4284 -0.0817 -0.0909
  200MPD1    H6 3051   2.136   0.542  15.062  0.2351 -0.7397 -0.6064
  200MPD1    H7 3052   2.092   0.461  15.203  1.8030 -1.4859  1.0839
  201MPD1     C 3053   1.230   0.531  12.847  0.2712 -0.2449 -0.2612
  201MPD1    C1 3054   1.188   0.411  12.801  0.0126  0.6289  0.1463
  201MPD1    C2 3055   1.162   0.315  12.898  0.2023  0.1608  0.0586
  201MPD1    C3 3056   1.169   0.336  13.031 -0.2814 -0.0064 -0.5581
  201MPD1    C4 3057   1.195   0.467  13.075 -0.5830 -0.5810  0.1092
  201MPD1    C5 3058   1.228   0.552  12.980  0.3528 -1.0605 -0.5353
  201MPD1     H 3059   1.139   0.218  12.856 -1.5302  1.1861 -1.3347
  201MPD1    H1 3060   1.207   0.503  13.176  1.3077 -0.2470 -0.2382
  201MPD1    H2 3061   1.273   0.608  12.784 -1.7806  2.3896  1.5961
  201MPD1    H3 3062   1.256   0.651  13.012  0.9965 -0.4027 -3.1724
  201MPD1     N 3063   1.147   0.223  13.107  0.4728 -0.2534 -0.3304
  201MPD1    H5 3064   1.109   0.147  13.051  0.2931 -1.4843  1.4672
  201MPD1    N1 3065   1.214   0.375  12.668  0.4059  0.3103 -0.2642
  201MPD1    H6 3066   1.138   0.318  12.632  1.2733 -0.9693 -0.1094
  201MPD1    H7 3067   1.228   0.448  12.598  2.5898  0.6673  0.5334
  202MPD1     C 3068   0.354   4.165   9.144  1.1735  0.8521 -0.3005
  202MPD1    C1 3069   0.398   4.061   9.226 -0.4463 -0.4419 -0.2174
  202MPD1    C2 3070   0.484   4.099   9.328 -0.2985  0.6064  0.0599
  202MPD1    C3 3071   0.480   4.232   9.377 -0.4303  0.1026  0.5237
  202MPD1    C4 3072   0.426   4.339   9.301 -0.1662 -0.2560  0.5659
  202MPD1    C5 3073   0.367   4.296   9.182 -0.4300  0.2123  0.1748
  202MPD1     H 3074   0.530   4.020   9.388  0.6092 -0.4037 -1.9543
  202MPD1    H1 3075   0.428   4.444   9.329  1.0376  1.5097 -6.1004
  202MPD1    H2 3076   0.303   4.138   9.053  1.7851 -1.2218 -0.0300
  202MPD1    H3 3077   0.346   4.377   9.114  1.2905  0.2982 -0.2598
  202MPD1     N 3078   0.553   4.265   9.496 -0.1352 -0.3833 -0.9515
  202MPD1    H5 3079   0.566   4.363   9.519  2.2535 -0.3793 -2.3522
  202MPD1    N1 3080   0.433   3.941   9.164 -0.2637  0.4339 -0.3821
  202MPD1    H6 3081   0.467   3.869   9.228  1.6002  0.9480 -0.7910
  202MPD1    H7 3082   0.358   3.904   9.106  0.1118  0.4075 -0.8518
  203MPD1     C 3083   4.327   1.116  12.546  0.8986 -0.4928  0.4251
  203MPD1    C1 3084   4.453   1.076  12.495  1.0512 -0.2215  0.2441
  203MPD1    C2 3085   4.492   0.945  12.520  0.5938  0.1780  0.6362
  203MPD1    C3 3086   4.423   0.855  12.601  0.4184 -0.8460 -0.1158
  203MPD1    C4 3087   4.294   0.898  12.638  0.7373  0.1358  0.2898
  203MPD1    C5 3088   4.248   1.029  12.610 -0.4335  0.6090  0.2969
  203MPD1     H 3089   4.593   0.918  12.491 -0.3567  0.1784 -2.7178
  203MPD1    H1 3090   4.227   0.835  12.694  0.7304 -0.2406 -0.1513
  203MPD1    H2 3091   4.296   1.220  12.535 -0.0941 -0.6164  2.0187
  203MPD1    H3 3092   4.166   1.069  12.669 -1.8321 -2.5639  0.5378
  203MPD1     N 3093   4.484   0.736  12.642 -0.4084 -0.5150  0.0061
  203MPD1    H5 3094   4.575   0.723  12.600  0.0254  0.5550  0.6130
  203MPD1    N1 3095   4.531   1.180  12.440  0.1158 -0.1695  0.3205
  203MPD1    H6 3096   4.472   1.238  12.381  0.8838 -0.5482 -0.8327
  203MPD1    H7 3097   4.594   1.128  12.379  1.8239  0.0885  1.8367
  204MPD1     C 3098   3.257   1.058  17.531  0.2530 -0.1031  0.4189
  204MPD1    C1 3099   3.380   1.085  17.479 -0.3451 -0.0606 -0.2153
  204MPD1    C2 3100   3.435   0.999  17.387  0.1633  0.4539  0.8569
  204MPD1    C3 3101   3.376   0.881  17.354  0.1639  0.8530 -0.4481
  204MPD1    C4 3102   3.258   0.856  17.416  0.3908  0.2271  0.1341
  204MPD1    C5 3103   3.199   0.943  17.499 -0.8772  0.4737 -0.3192
  204MPD1     H 3104   3.529   1.021  17.337  0.9499 -1.1505  1.6151
  204MPD1    H1 3105   3.201   0.765  17.405 -2.4024  2.0722 -0.6807
  204MPD1    H2 3106   3.196   1.120  17.595  1.6034 -0.2212  1.8126
  204MPD1    H3 3107   3.098   0.924  17.532 -0.0787 -2.4671  0.3943
  204MPD1     N 3108   3.437   0.789  17.265  0.2409 -0.1575  0.6775
  204MPD1    H5 3109   3.516   0.829  17.215 -0.7938 -0.1774 -0.9887
  204MPD1    N1 3110   3.424   1.214  17.504 -0.4935  0.1309 -0.3607
  204MPD1    H6 3111   3.394   1.244  17.597  1.4236  0.5885  0.1140
  204MPD1    H7 3112   3.525   1.217  17.495 -0.4790 -3.6359 -1.3010
  205MPD1     C 3113   4.399   4.548  16.186 -0.5620 -0.0845  0.0099
  205MPD1    C1 3114   4.390   4.417  16.231 -0.2975 -0.0445  0.3014
  205MPD1    C2 3115   4.325   4.384  16.350  0.0419 -0.3770 -0.1863
  205MPD1    C3 3116   4.260   4.488  16.423  0.5989  0.1854  0.5542
  205MPD1    C4 3117   4.281   4.625  16.377  0.1419 -0.1147 -0.1677
  205MPD1    C5 3118   4.351   4.652  16.264  0.2714  0.3138 -0.1585
  205MPD1     H 3119   4.318   4.281  16.383 -0.3509 -0.9435 -2.0307
  205MPD1    H1 3120   4.237   4.707  16.432 -0.4317 -0.5504  0.0246
  205MPD1    H2 3121   4.441   4.561  16.087 -0.6983  0.3641  0.0126
  205MPD1    H3 3122   4.360   0.030  16.227 -1.9088 -0.0089 -1.5415
  205MPD1     N 3123   4.181   4.467  16.542  0.2415  0.0947 -0.6765
  205MPD1    H5 3124   4.155   4.548  16.597 -1.3281 -0.2189 -0.9445
  205MPD1    N1 3125   4.444   4.307  16.161 -0.6053 -0.4001 -0.4430
  205MPD1    H6 3126   4.501   4.336  16.082  0.3918 -1.9334 -0.2668
  205MPD1    H7 3127   4.360   4.265  16.122  0.1175 -2.2995  0.0897
  206MPD1     C 3128   3.853   3.604  15.131 -0.1003 -0.4300  0.4555
  206MPD1    C1 3129   3.725   3.558  15.144  0.0036 -0.0311  1.1113
  206MPD1    C2 3130   3.699   3.443  15.214  0.1560  0.1939 -0.1450
  206MPD1    C3 3131   3.797   3.362  15.268 -0.2004  0.4260  0.0252
  206MPD1    C4 3132   3.925   3.413  15.257 -0.5299  0.5375  0.8705
  206MPD1    C5 3133   3.951   3.529  15.189 -0.4304 -0.3238 -0.3337
  206MPD1     H 3134   3.596   3.417  15.237  0.5715 -0.6640  0.7721
  206MPD1    H1 3135   4.006   3.351  15.294 -0.1108  0.6248  0.1027
  206MPD1    H2 3136   3.878   3.689  15.069  0.7084 -2.1410 -1.5629
  206MPD1    H3 3137   4.049   3.575  15.187  0.4552 -2.2016  0.1050
  206MPD1     N 3138   3.752   3.253  15.348  0.1233 -0.1826  0.1556
  206MPD1    H5 3139   3.653   3.235  15.344  0.3546 -0.5275 -4.1622
  206MPD1    N1 3140   3.615   3.614  15.069  0.3384 -0.1518 -0.1605
  206MPD1    H6 3141   3.614   3.716  15.072 -2.0171 -0.2167  1.1497
  206MPD1    H7 3142   3.532   3.587  15.120 -0.8487 -0.2988 -2.1718
  207MPD1     C 3143   1.310   0.964   9.793 -0.2172  0.0768  0.2488
  207MPD1    C1 3144   1.290   0.904   9.915  0.9787  0.2397 -0.1481
  207MPD1    C2 3145   1.396   0.862   9.995 -0.2950  0.2474  0.5972
  207MPD1    C3 3146   1.520   0.912   9.979  0.3458 -0.9845  0.1759
  207MPD1    C4 3147   1.538   0.977   9.859  0.0127 -0.1445 -0.5535
  207MPD1    C5 3148   1.439   1.000   9.766 -0.6409  0.3228 -0.4033
  207MPD1     H 3149   1.366   0.795  10.075  0.6225  0.0762  0.8068
  207MPD1    H1 3150   1.638   1.012   9.837 -0.3325  0.3366 -1.3471
  207MPD1    H2 3151   1.232   0.989   9.723 -0.4801 -0.8796  0.1992
  207MPD1    H3 3152   1.458   1.060   9.678  0.6957  0.9231  0.3023
  207MPD1     N 3153   1.627   0.880  10.064  0.3396 -0.0868 -0.6251
  207MPD1    H5 3154   1.718   0.900  10.022  0.9774 -0.8186  0.4124
  207MPD1    N1 3155   1.165   0.852   9.945 -0.2549  0.2727 -0.0233
  207MPD1    H6 3156   1.162   0.836  10.046  0.3508  1.8525  0.2532
  207MPD1    H7 3157   1.086   0.908   9.916  1.2819  1.1225 -2.5398
  208MPD1     C 3158   0.122   4.526  17.550  0.4165  1.0319 -0.6720
  208MPD1    C1 3159   0.107   4.511  17.685 -0.4127  0.0327  0.5764
  208MPD1    C2 3160   4.719   4.438   0.035 -0.0832 -0.1692  0.3975
  208MPD1    C3 3161   4.628   4.384  17.652 -0.3505 -0.3630  0.1368
  208MPD1    C4 3162   4.646   4.399  17.516 -0.2355  0.0763  0.6765
  208MPD1    C5 3163   0.028   4.468  17.471  0.2169  0.1686 -0.6271
  208MPD1     H 3164   4.705   4.434   0.143  1.5668  0.6611  0.6500
  208MPD1    H1 3165   4.576   4.364  17.441  0.2637  0.6625 -0.0655
  208MPD1    H2 3166   0.206   4.579  17.507  2.1701  1.1046  2.8443
  208MPD1    H3 3167   0.036   4.479  17.363  0.9141  2.5894 -0.3366
  208MPD1     N 3168   4.526   4.302   0.005 -0.0759  0.5453 -0.0253
  208MPD1    H5 3169   4.525   4.269   0.102 -0.6721  2.2125  0.5235
  208MPD1    N1 3170   0.206   4.561   0.075 -0.0727 -0.3286 -0.0809
  208MPD1    H6 3171   0.175   4.595   0.166  0.7010  2.4638 -0.8952
  208MPD1    H7 3172   0.278   4.615   0.029 -0.1246 -0.5929 -0.4692
  209MPD1     C 3173   1.978   3.904  10.535 -0.8359 -0.4172 -0.0796
  209MPD1    C1 3174   1.971   3.901  10.670  0.8268  0.3913  0.1866
  209MPD1    C2 3175   1.961   4.023  10.731  0.3712 -0.1850  0.0573
  209MPD1    C3 3176   1.973   4.144  10.660  0.3075 -0.0504  0.6721
  209MPD1    C4 3177   1.997   4.139  10.522  0.2258  0.4801  0.4393
  209MPD1    C5 3178   1.993   4.020  10.462  0.2424  0.0680  0.0563
  209MPD1     H 3179   1.967   4.018  10.839 -2.4492  0.2890  0.2463
  209MPD1    H1 3180   2.037   4.224  10.467 -0.5844  1.6990  1.7242
  209MPD1    H2 3181   1.980   3.808  10.484  2.5737 -1.2802  1.6515
  209MPD1    H3 3182   2.018   4.031  10.357 -0.4140 -0.6704 -0.1770
  209MPD1     N 3183   1.966   4.272  10.717  0.0836  0.2604 -0.1244
  209MPD1    H5 3184   1.992   4.347  10.653  0.2841 -0.3182 -0.7225
  209MPD1    N1 3185   1.944   3.783  10.740  0.1553 -0.4428  0.1284
  209MPD1    H6 3186   1.974   3.699  10.690  2.1187 -1.1778  2.5485
  209MPD1    H7 3187   1.979   3.792  10.835 -2.1645  3.4381  0.5936
  210MPD1     C 3188   2.199   0.224  11.557 -0.2812  0.7165 -0.2105
  210MPD1    C1 3189   2.143   0.096  11.573  0.1711  0.5331 -0.6186
  210MPD1    C2 3190   2.095   0.037  11.458  0.6662 -0.2853 -0.1202
  210MPD1    C3 3191   2.074   0.105  11.333  0.1360 -0.7216 -0.6180
  210MPD1    C4 3192   2.109   0.234  11.329  0.2909  0.0465  0.4207
  210MPD1    C5 3193   2.177   0.289  11.440  0.1251  0.3411 -0.0216
  210MPD1     H 3194   2.055   4.661  11.462 -0.7497  0.2542 -0.8403
  210MPD1    H1 3195   2.098   0.291  11.238 -0.9911  0.8095  1.0654
  210MPD1    H2 3196   2.255   0.269  11.639 -0.8145  2.2820 -0.7054
  210MPD1    H3 3197   2.212   0.391  11.438  1.8616 -0.2662 -0.4987
  210MPD1     N 3198   2.028   0.042  11.212  0.1196 -0.0020  0.1680
  210MPD1    H5 3199   2.032   0.093  11.124 -0.7604  0.8231  0.6233
  210MPD1    N1 3200   2.154   0.024  11.693 -0.2421 -0.0725 -0.4000
  210MPD1    H6 3201   2.084   4.678  11.716  0.9093 -0.3413  2.3295
  210MPD1    H7 3202   2.170   0.081  11.776  2.9965 -2.4607  0.6350
  211MPD1     C 3203   4.428   4.050  15.709  0.6531  0.1651  0.4316
  211MPD1    C1 3204   4.319   4.002  15.770 -0.1553 -0.4114  0.4915
  211MPD1    C2 3205   4.238   4.093  15.839  0.1829  0.0433 -0.1689
  211MPD1    C3 3206   4.265   4.232  15.841 -0.6188 -0.0473  0.5026
  211MPD1    C4 3207   4.376   4.277  15.775 -0.0743 -0.0577 -0.1055
  211MPD1    C5 3208   4.452   4.182  15.701  0.4084  0.1385  0.2424
  211MPD1     H 3209   4.147   4.056  15.883 -0.0512  1.1794  0.3051
  211MPD1    H1 3210   4.407   4.381  15.771  1.6856 -0.6025 -0.6110
  211MPD1    H2 3211   4.492   3.978  15.659 -0.1025 -0.7755  0.8395
  211MPD1    H3 3212   4.538   4.214  15.643  0.4713 -0.8153 -0.1834
  211MPD1     N 3213   4.178   4.317  15.914 -0.2478  0.2338  0.6995
  211MPD1    H5 3214   4.106   4.270  15.968 -0.3046  0.8731  1.1833
  211MPD1    N1 3215   4.295   3.863  15.770  0.7150  0.2470 -0.5353
  211MPD1    H6 3216   4.196   3.856  15.790  0.6979  2.1525  0.0303
  211MPD1    H7 3217   4.312   3.827  15.676  1.0414  0.2438 -0.4772
  212MPD1     C 3218   3.330   3.439  16.729 -0.1268 -0.5996  0.9233
  212MPD1    C1 3219   3.402   3.326  16.728 -0.3626 -0.4494  0.2136
  212MPD1    C2 3220   3.339   3.207  16.767  0.6815  0.4206 -0.0784
  212MPD1    C3 3221   3.197   3.205  16.775  0.5107 -0.1703 -0.3459
  212MPD1    C4 3222   3.126   3.318  16.772  0.2887 -0.1629 -0.8945
  212MPD1    C5 3223   3.193   3.437  16.750  0.4126 -0.4566 -0.0110
  212MPD1     H 3224   3.395   3.114  16.761 -0.9566 -0.5661 -0.1841
  212MPD1    H1 3225   3.018   3.323  16.773  0.2259 -1.9146  0.5423
  212MPD1    H2 3226   3.375   3.538  16.723 -2.3294  0.2397 -2.0535
  212MPD1    H3 3227   3.140   3.531  16.746  3.5565  1.3057  0.1694
  212MPD1     N 3228   3.128   3.085  16.806 -0.0161  0.1811  0.3782
  212MPD1    H5 3229   3.026   3.093  16.808  0.0497  1.5727 -1.5872
  212MPD1    N1 3230   3.543   3.333  16.707  0.1237  0.0983  0.1667
  212MPD1    H6 3231   3.597   3.249  16.689  2.5124  1.7209 -0.2380
  212MPD1    H7 3232   3.576   3.404  16.642  1.6595 -1.5799 -0.8582
  213MPD1     C 3233   1.523   3.789  15.770 -0.1840 -0.4915 -0.5479
  213MPD1    C1 3234   1.427   3.708  15.713  0.0664  0.5866 -0.2389
  213MPD1    C2 3235   1.355   3.780  15.614  0.5625 -0.3125  0.1654
  213MPD1    C3 3236   1.396   3.907  15.559 -0.1930 -0.5910 -0.0928
  213MPD1    C4 3237   1.502   3.969  15.607 -0.5041  0.2516 -0.6959
  213MPD1    C5 3238   1.563   3.910  15.715  0.2510 -0.8165  0.3453
  213MPD1     H 3239   1.262   3.741  15.574  1.0714  0.2853 -1.6158
  213MPD1    H1 3240   1.532   4.066  15.567  0.1952 -0.4696 -1.9374
  213MPD1    H2 3241   1.567   3.763  15.866 -1.4905  1.6075  0.6191
  213MPD1    H3 3242   1.648   3.956  15.763  0.9853 -0.6088 -1.1525
  213MPD1     N 3243   1.321   3.956  15.451  0.3352 -0.1492 -0.7160
  213MPD1    H5 3244   1.251   3.896  15.409  1.6595 -1.9906 -0.2810
  213MPD1    N1 3245   1.367   3.607  15.794 -0.1936 -0.6660  0.2347
  213MPD1    H6 3246   1.310   3.553  15.730  0.0192 -0.1706 -0.3698
  213MPD1    H7 3247   1.440   3.551  15.839 -0.1917  0.5090  1.7185
  214MPD1     C 3248   0.628   3.530  15.240 -0.0622  1.3445 -0.3828
  214MPD1    C1 3249   0.614   3.643  15.159 -0.0167  0.5833  0.7231
  214MPD1    C2 3250   0.715   3.736  15.146 -0.0716  0.0206 -0.2337
  214MPD1    C3 3251   0.833   3.719  15.219  0.4867  0.0420  0.9564
  214MPD1    C4 3252   0.851   3.601  15.290  0.7550 -0.4506  0.6507
  214MPD1    C5 3253   0.747   3.510  15.309  0.5364  0.6226 -0.0738
  214MPD1     H 3254   0.686   3.820  15.085 -1.5580 -0.5480 -0.3144
  214MPD1    H1 3255   0.950   3.584  15.330  2.3087  1.4012 -2.4328
  214MPD1    H2 3256   0.551   3.455  15.256  0.1750  1.0709 -0.5340
  214MPD1    H3 3257   0.759   3.423  15.373 -0.7405  0.1643 -0.4617
  214MPD1     N 3258   0.943   3.812  15.216  1.1029 -0.5298 -0.3595
  214MPD1    H5 3259   1.022   3.783  15.273  0.1302 -2.4303 -0.0092
  214MPD1    N1 3260   0.482   3.664  15.111 -0.6274 -0.0194 -0.3916
  214MPD1    H6 3261   0.424   3.581  15.101  0.6903 -1.0873  1.0057
  214MPD1    H7 3262   0.479   3.721  15.026  0.9495  0.5097 -0.0941
  215MPD1     C 3263   1.060   0.234  10.433 -0.3477 -0.8251 -1.4569
  215MPD1    C1 3264   1.151   0.326  10.399 -0.2132 -0.1808 -0.3285
  215MPD1    C2 3265   1.251   0.360  10.485 -0.1411 -0.5571  0.8523
  215MPD1    C3 3266   1.274   0.289  10.601 -0.2956  0.0777 -0.0237
  215MPD1    C4 3267   1.194   0.179  10.626  0.4055  0.2008  0.1228
  215MPD1    C5 3268   1.085   0.160  10.546 -0.2809  0.0726  0.0124
  215MPD1     H 3269   1.332   0.426  10.458 -0.7856  0.0699  0.4575
  215MPD1    H1 3270   1.210   0.101  10.700 -1.5912 -0.3440 -0.0062
  215MPD1    H2 3271   0.971   0.204  10.378 -1.7327  1.7259 -0.6341
  215MPD1    H3 3272   1.021   0.079  10.580  3.0981 -3.5127 -2.1656
  215MPD1     N 3273   1.388   0.315  10.681 -0.0351  0.0764  0.3626
  215MPD1    H5 3274   1.446   0.389  10.644  0.2273 -0.4698 -0.3090
  215MPD1    N1 3275   1.122   0.412  10.294  0.6658 -0.0330  0.3849
  215MPD1    H6 3276   1.084   0.354  10.220  0.7286  0.8168 -0.3084
  215MPD1    H7 3277   1.202   0.465  10.260  1.3297  0.4681  2.6950
  216MPD1     C 3278   3.113   2.609  17.333 -0.6969 -0.6462  0.0111
  216MPD1    C1 3279   3.066   2.483  17.330  0.3831 -0.6258  0.6690
  216MPD1    C2 3280   3.143   2.381  17.375  0.5405 -0.2175  0.3601
  216MPD1    C3 3281   3.276   2.393  17.420  0.3767 -0.1309  0.2490
  216MPD1    C4 3282   3.318   2.528  17.424  1.0944  0.6112  0.2690
  216MPD1    C5 3283   3.236   2.630  17.375  0.0737 -0.5174  0.5751
  216MPD1     H 3284   3.105   2.280  17.376 -1.6295  0.6019 -0.1677
  216MPD1    H1 3285   3.422   2.548  17.443  1.3161 -1.0120  0.7564
  216MPD1    H2 3286   3.044   2.691  17.317  1.3376  0.6199 -2.2358
  216MPD1    H3 3287   3.276   2.731  17.380 -1.8713  0.3338 -0.6836
  216MPD1     N 3288   3.348   2.284  17.454  0.3719  0.3823 -0.4846
  216MPD1    H5 3289   3.286   2.204  17.457  1.1832 -0.3117 -2.6513
  216MPD1    N1 3290   2.928   2.457  17.310  0.2409  0.3348  0.2011
  216MPD1    H6 3291   2.920   2.361  17.280 -0.0460 -0.1165  1.7199
  216MPD1    H7 3292   2.887   2.518  17.240  1.3383  1.9777  0.9745
  217MPD1     C 3293   0.007   3.683   9.202  0.3235  0.2017 -0.6948
  217MPD1    C1 3294   4.611   3.751   9.219  0.3593  0.1523  0.2517
  217MPD1    C2 3295   4.617   3.883   9.266  0.5914  0.2554  0.0700
  217MPD1    C3 3296   0.016   3.944   9.307  0.4270  0.1559 -0.7239
  217MPD1    C4 3297   0.124   3.869   9.307 -0.2253 -0.7809  0.1008
  217MPD1    C5 3298   0.121   3.738   9.260 -0.1322  0.9780 -0.5254
  217MPD1     H 3299   4.527   3.942   9.275 -0.3070 -0.9099 -1.3651
  217MPD1    H1 3300   0.218   3.904   9.349  0.4194 -1.4962 -0.7230
  217MPD1    H2 3301   0.007   3.585   9.156  1.6378  0.5631 -1.4583
  217MPD1    H3 3302   0.211   3.678   9.263  0.7128  2.2661  0.0448
  217MPD1     N 3303   0.026   4.081   9.350 -0.5719 -0.0848 -0.3339
  217MPD1    H5 3304   0.117   4.102   9.389  0.1031 -1.1256 -1.3343
  217MPD1    N1 3305   4.495   3.701   9.153  0.0148  0.2661 -0.5473
  217MPD1    H6 3306   4.489   3.600   9.161  0.2522  0.1931 -1.2980
  217MPD1    H7 3307   4.409   3.730   9.199 -1.1090  0.2358 -2.6190
  218MPD1     C 3308   2.261   1.156  12.739  0.9848 -0.4873  0.9102
  218MPD1    C1 3309   2.225   1.098  12.857  0.4016 -0.2210 -0.7057
  218MPD1    C2 3310   2.102   1.031  12.856 -0.2683  0.0692 -0.0060
  218MPD1    C3 3311   2.026   1.004  12.743  0.3663  0.4474 -0.5367
  218MPD1    C4 3312   2.065   1.058  12.631  0.0076  0.7838  0.2175
  218MPD1    C5 3313   2.174   1.142  12.633 -0.4055 -0.2903 -0.5358
  218MPD1     H 3314   2.077   0.971  12.943  1.3213 -0.7349 -0.0899
  218MPD1    H1 3315   2.007   1.045  12.540  0.0168  0.8836  0.1965
  218MPD1    H2 3316   2.350   1.216  12.724  0.9083 -0.4597  0.5673
  218MPD1    H3 3317   2.202   1.185  12.538 -0.4505 -0.4079 -0.6033
  218MPD1     N 3318   1.918   0.920  12.759 -0.3582 -0.4053  0.1337
  218MPD1    H5 3319   1.906   0.870  12.847 -2.1693  0.3226  0.3086
  218MPD1    N1 3320   2.310   1.088  12.959  0.0446 -0.0930 -0.1469
  218MPD1    H6 3321   2.263   1.067  13.046 -0.4039 -0.2969 -0.4385
  218MPD1    H7 3322   2.363   1.174  12.975 -0.5969  0.0601  1.1234
  219MPD1     C 3323   1.317   0.771  12.007  0.2590  0.0430 -0.1777
  219MPD1    C1 3324   1.249   0.728  12.118 -0.3061  0.0803  0.1868
  219MPD1    C2 3325   1.312   0.728  12.238 -0.3920  0.1699 -0.3585
  219MPD1    C3 3326   1.442   0.754  12.247  0.2327  0.8494  0.0550
  219MPD1    C4 3327   1.513   0.809  12.137  0.3226 -0.2963 -0.1539
  219MPD1    C5 3328   1.445   0.816  12.021 -0.1220  0.0348  0.2967
  219MPD1     H 3329   1.249   0.716  12.325 -2.3939  0.2092 -1.7869
  219MPD1    H1 3330   1.617   0.840  12.140  0.5354 -0.8645 -1.7005
  219MPD1    H2 3331   1.269   0.795  11.913  1.4560 -0.0940 -0.8322
  219MPD1    H3 3332   1.487   0.869  11.936  1.0474  0.0925  0.9221
  219MPD1     N 3333   1.511   0.743  12.368  0.0269 -0.4801  0.1098
  219MPD1    H5 3334   1.608   0.772  12.374 -1.4019  4.4079 -0.4076
  219MPD1    N1 3335   1.105   0.712  12.113 -0.2851 -0.0625  0.2508
  219MPD1    H6 3336   1.075   0.682  12.021 -1.4593  1.3021  0.1916
  219MPD1    H7 3337   1.066   0.653  12.188 -0.7382  0.2654  0.2724
  220MPD1     C 3338   1.450   1.989   9.939 -0.0403  0.1781  0.4374
  220MPD1    C1 3339   1.404   1.893   9.856 -0.3287  0.3950  0.2208
  220MPD1    C2 3340   1.392   1.766   9.901  0.0186 -0.4197 -1.1725
  220MPD1    C3 3341   1.436   1.730  10.027 -0.2477  0.2505  0.0141
  220MPD1    C4 3342   1.485   1.828  10.110  0.1417  0.3867  0.0432
  220MPD1    C5 3343   1.474   1.952  10.065  0.6591 -0.0732  0.4041
  220MPD1     H 3344   1.352   1.688   9.838  1.1617 -1.1395 -1.0080
  220MPD1    H1 3345   1.518   1.804  10.210 -1.9003  2.2432  1.1591
  220MPD1    H2 3346   1.461   2.091   9.902 -1.2924 -0.3229 -1.3021
  220MPD1    H3 3347   1.511   2.027  10.134  0.7908  0.8503 -0.6752
  220MPD1     N 3348   1.433   1.591  10.060 -0.0373 -0.0678  0.5994
  220MPD1    H5 3349   1.395   1.527   9.991 -0.5297 -0.1199  0.9246
  220MPD1    N1 3350   1.377   1.930   9.721  0.3639  0.6910 -0.2771
  220MPD1    H6 3351   1.327   2.018   9.712  1.1658  1.2148  0.3295
  220MPD1    H7 3352   1.326   1.863   9.665 -0.0836 -0.1403  1.1306
  221MPD1     C 3353   4.228   3.497  17.259  0.1267 -0.8047 -0.5595
  221MPD1    C1 3354   4.330   3.447  17.187 -0.3515  0.0689  0.0356
  221MPD1    C2 3355   4.294   3.402  17.061 -0.2970  0.0945  0.2966
  221MPD1    C3 3356   4.167   3.407  17.012  1.0685 -0.4033  0.0538
  221MPD1    C4 3357   4.066   3.439  17.103 -0.4659  0.6334  0.6892
  221MPD1    C5 3358   4.098   3.491  17.225  0.4311 -0.5245  0.6834
  221MPD1     H 3359   4.375   3.362  17.002  1.0035  0.4134  1.8433
  221MPD1    H1 3360   3.962   3.425  17.075  0.2041  0.5065 -1.7740
  221MPD1    H2 3361   4.255   3.540  17.355  1.5695  0.8768 -1.7048
  221MPD1    H3 3362   4.019   3.524  17.292  0.0816 -0.6998  0.3584
  221MPD1     N 3363   4.127   3.375  16.879 -0.1489  0.0434  0.6473
  221MPD1    H5 3364   4.027   3.388  16.867 -0.3807 -0.5250  1.9595
  221MPD1    N1 3365   4.463   3.458  17.228  0.2980  0.1046  0.7596
  221MPD1    H6 3366   4.529   3.395  17.185 -0.1007  0.5154 -0.4452
  221MPD1    H7 3367   4.471   3.445  17.329 -1.2581 -1.4821  0.6736
  222MPD1     C 3368   3.129   2.469   0.555 -0.4273 -1.0124 -0.0423
  222MPD1    C1 3369   3.086   2.543   0.445  0.2577 -0.2946  0.4504
  222MPD1    C2 3370   2.970   2.621   0.452  0.3904 -0.4405  0.1808
  222MPD1    C3 3371   2.883   2.612   0.560  0.4048  0.6424  0.1185
  222MPD1    C4 3372   2.924   2.525   0.665 -0.7047 -0.1713 -0.0330
  222MPD1    C5 3373   3.042   2.454   0.659 -0.0438  0.3420 -0.9161
  222MPD1     H 3374   2.928   2.685   0.376 -1.8787 -0.8097  1.0911
  222MPD1    H1 3375   2.863   2.500   0.751 -1.1420  2.4033  0.4104
  222MPD1    H2 3376   3.217   2.406   0.562 -0.4727 -0.8510  1.9795
  222MPD1    H3 3377   3.065   2.385   0.739  0.3307  1.1159 -0.3513
  222MPD1     N 3378   2.765   2.677   0.563 -0.2177  0.2954  0.0447
  222MPD1    H5 3379   2.699   2.652   0.636 -0.8435  1.6731 -0.0403
  222MPD1    N1 3380   3.174   2.554   0.336  0.2488  0.1346  0.6766
  222MPD1    H6 3381   3.241   2.477   0.327 -0.5596 -0.7036  1.8458
  222MPD1    H7 3382   3.120   2.565   0.250 -0.3180  1.7537  1.2460
  223MPD1     C 3383   1.848   2.561   0.835 -0.5401 -0.6723  0.1299
  223MPD1    C1 3384   1.865   2.683   0.894 -0.3475  0.3987  0.0261
  223MPD1    C2 3385   1.979   2.750   0.870  0.5955  0.7511  0.2209
  223MPD1    C3 3386   2.078   2.709   0.788 -0.0149  0.1035  0.1766
  223MPD1    C4 3387   2.062   2.590   0.735 -0.0886  0.6164 -0.8378
  223MPD1    C5 3388   1.946   2.516   0.755  0.6857 -0.3279  0.4210
  223MPD1     H 3389   2.003   2.834   0.934  0.5152 -0.0436  1.2984
  223MPD1    H1 3390   2.143   2.544   0.679 -0.2443  0.0929 -0.6328
  223MPD1    H2 3391   1.760   2.499   0.846 -0.8138 -0.3192 -0.0415
  223MPD1    H3 3392   1.941   2.420   0.706 -1.2106 -0.2308  0.4434
  223MPD1     N 3393   2.192   2.785   0.774  0.5723  0.1899 -0.0501
  223MPD1    H5 3394   2.181   2.884   0.795 -0.7160 -0.7666  3.7435
  223MPD1    N1 3395   1.774   2.720   0.999 -0.5282  0.4692 -0.1693
  223MPD1    H6 3396   1.682   2.693   0.962 -0.9573  0.6980  0.7412
  223MPD1    H7 3397   1.777   2.821   1.012 -1.0533  0.3429  0.9376
  224MPD1     C 3398   4.454   4.560   8.699 -0.0407  0.1138  0.1571
  224MPD1    C1 3399   4.582   4.574   8.751  0.0581  0.2173  0.0806
  224MPD1    C2 3400   4.589   4.620   8.879 -0.0505 -0.5629  0.2371
  224MPD1    C3 3401   4.477   4.644   8.960  0.9881  0.7609 -0.1162
  224MPD1    C4 3402   4.352   4.618   8.903 -0.0486 -0.9313 -0.3874
  224MPD1    C5 3403   4.344   4.572   8.772 -0.7334 -0.1702  0.6267
  224MPD1     H 3404   4.686   4.644   8.921 -0.5205  0.6802  0.6143
  224MPD1    H1 3405   4.266   4.623   8.970 -0.4964 -0.1122 -1.0255
  224MPD1    H2 3406   4.445   4.531   8.595 -2.2055 -0.8956  0.6375
  224MPD1    H3 3407   4.250   4.551   8.723 -2.1533  2.9326  2.0340
  224MPD1     N 3408   4.473   4.703   9.089 -0.1718  0.2564  0.2104
  224MPD1    H5 3409   4.384   0.021   9.112 -0.0658  0.1571  0.8024
  224MPD1    N1 3410   4.691   4.549   8.665 -0.1896 -0.2725  0.2111
  224MPD1    H6 3411   4.665   4.500   8.580  2.1489  1.1237 -1.2989
  224MPD1    H7 3412   0.034   4.487   8.709 -1.5289 -2.4452 -0.8204
  225MPD1     C 3413   0.773   1.642  13.465  0.1527 -0.1620 -0.1874
  225MPD1    C1 3414   0.695   1.540  13.435  0.4632  0.0669 -0.2105
  225MPD1    C2 3415   0.691   1.486  13.311  0.5208  0.1476 -0.6384
  225MPD1    C3 3416   0.765   1.532  13.205 -0.1907  0.0610  0.0895
  225MPD1    C4 3417   0.856   1.636  13.237 -0.3100 -0.1904 -0.0713
  225MPD1    C5 3418   0.847   1.687  13.366 -0.3195  0.3055  0.2016
  225MPD1     H 3419   0.626   1.403  13.287 -0.5411  0.9108 -0.4500
  225MPD1    H1 3420   0.921   1.681  13.162 -1.7681  0.8234 -0.7201
  225MPD1    H2 3421   0.797   1.672  13.567 -2.5646 -1.3784  0.7866
  225MPD1    H3 3422   0.908   1.773  13.392  0.3165 -0.2713  0.5855
  225MPD1     N 3423   0.756   1.499  13.066 -0.3331 -0.6527 -0.4385
  225MPD1    H5 3424   0.810   1.564  13.010 -2.1883  2.4060  1.3260
  225MPD1    N1 3425   0.624   1.480  13.534  0.0030  0.2297 -0.4805
  225MPD1    H6 3426   0.558   1.417  13.489  0.9890 -0.9640 -0.2496
  225MPD1    H7 3427   0.574   1.540  13.598  0.2103 -1.3169  1.1210
  226MPD1     C 3428   0.051   2.130  10.215  0.1700 -0.3408  0.0247
  226MPD1    C1 3429   0.133   2.120  10.106 -0.7831  0.1984 -0.5717
  226MPD1    C2 3430   0.113   2.002  10.033  0.6692 -0.5368  0.5125
  226MPD1    C3 3431   0.020   1.910  10.064 -0.4962 -0.4583 -0.6918
  226MPD1    C4 3432   4.662   1.924  10.174  0.2910 -0.1323  0.6393
  226MPD1    C5 3433   4.675   2.038  10.247  0.2394 -0.1916  0.2937
  226MPD1     H 3434   0.173   1.980   9.945  0.3632 -0.2559  0.2369
  226MPD1    H1 3435   4.581   1.859  10.204 -0.6777  0.7510 -0.0754
  226MPD1    H2 3436   0.068   2.214  10.281  0.9556 -0.9710  0.6318
  226MPD1    H3 3437   4.622   2.044  10.341  0.5417  0.6373  0.4069
  226MPD1     N 3438   0.008   1.800   9.971 -0.4504  0.7319 -0.2948
  226MPD1    H5 3439   0.062   1.798   9.885  1.3085  3.4302  0.7598
  226MPD1    N1 3440   0.216   2.226  10.070 -0.0183 -0.2381 -0.0003
  226MPD1    H6 3441   0.268   2.262  10.149  1.8551 -0.2830 -1.2084
  226MPD1    H7 3442   0.283   2.191  10.002 -0.2036  2.6868 -1.6963
  227MPD1     C 3443   4.121   1.439   9.345 -0.1550 -0.5164  0.0051
  227MPD1    C1 3444   4.136   1.560   9.403 -0.6556 -0.4300  0.1505
  227MPD1    C2 3445   4.205   1.554   9.528  0.4103  0.6511  0.0496
  227MPD1    C3 3446   4.270   1.441   9.571  0.0492  0.0077  0.3356
  227MPD1    C4 3447   4.263   1.328   9.497  0.0282  0.1539  0.2928
  227MPD1    C5 3448   4.185   1.327   9.390 -0.4564  0.2900 -0.5425
  227MPD1     H 3449   4.187   1.639   9.593 -0.5988 -0.1027  0.7428
  227MPD1    H1 3450   4.322   1.238   9.510  0.8626  0.9303  1.9037
  227MPD1    H2 3451   4.067   1.428   9.252 -2.2494  2.0492  0.8882
  227MPD1    H3 3452   4.173   1.237   9.330  2.9949 -0.5220 -0.0058
  227MPD1     N 3453   4.363   1.449   9.682 -0.5931 -0.4778  0.0023
  227MPD1    H5 3454   4.379   1.541   9.722 -0.1522 -0.2757 -0.6412
  227MPD1    N1 3455   4.059   1.672   9.364  0.5705  0.3595  0.0099
  227MPD1    H6 3456   4.123   1.751   9.373  0.5306  0.4260 -0.2596
  227MPD1    H7 3457   4.037   1.670   9.264 -0.3421  1.0251  0.1985
  228MPD1     C 3458   3.020   3.714  12.389 -0.2600  0.4459 -0.2354
  228MPD1    C1 3459   2.923   3.805  12.383  0.1693  0.2714 -0.0733
  228MPD1    C2 3460   2.819   3.802  12.475  0.3971  0.7781  0.6731
  228MPD1    C3 3461   2.833   3.735  12.595  0.1548 -0.2123 -1.0992
  228MPD1    C4 3462   2.943   3.643  12.599  0.6118  0.2444  0.3691
  228MPD1    C5 3463   3.030   3.627  12.496  0.1770 -0.2291  0.0258
  228MPD1     H 3464   2.732   3.866  12.465 -1.3192 -1.3710  1.7377
  228MPD1    H1 3465   2.943   3.568  12.677  0.0699  0.4006  0.5185
  228MPD1    H2 3466   3.091   3.690  12.310 -1.4169 -0.9415 -0.8562
  228MPD1    H3 3467   3.119   3.568  12.513  0.4435 -0.2782 -1.5446
  228MPD1     N 3468   2.717   3.733  12.677 -0.1637 -0.6317  0.2052
  228MPD1    H5 3469   2.636   3.783  12.643  0.1371 -1.0447 -1.1253
  228MPD1    N1 3470   2.906   3.871  12.258 -0.3816 -0.0315  0.3151
  228MPD1    H6 3471   2.861   3.961  12.246  1.9167  1.4903  3.1670
  228MPD1    H7 3472   2.995   3.886  12.210  1.0412  1.4447  3.4842
  229MPD1     C 3473   1.428   1.702  14.512 -0.3658 -0.7051  0.6074
  229MPD1    C1 3474   1.409   1.576  14.565  0.0803 -0.0375  0.0169
  229MPD1    C2 3475   1.498   1.534  14.661 -0.5781  0.4832  0.5371
  229MPD1    C3 3476   1.607   1.610  14.698  0.1807 -0.5098  0.2027
  229MPD1    C4 3477   1.630   1.731  14.637  0.4427 -0.7584 -0.0829
  229MPD1    C5 3478   1.535   1.779  14.554 -0.1384  0.0191 -0.3514
  229MPD1     H 3479   1.483   1.445  14.720 -1.2958 -0.2217 -0.7030
  229MPD1    H1 3480   1.725   1.784  14.644  1.1387 -1.7809 -1.5350
  229MPD1    H2 3481   1.350   1.743  14.449  2.2879  1.0179 -1.5666
  229MPD1    H3 3482   1.538   1.872  14.499 -0.8538 -0.4186 -1.1526
  229MPD1     N 3483   1.701   1.557  14.788  0.2136  0.3166  0.7687
  229MPD1    H5 3484   1.691   1.461  14.817  0.6471  0.8529  2.6848
  229MPD1    N1 3485   1.285   1.507  14.552 -0.4558 -0.8391 -0.2701
  229MPD1    H6 3486   1.283   1.406  14.567  0.7433 -0.9500 -0.8282
  229MPD1    H7 3487   1.232   1.533  14.470 -0.9727  1.1063  0.6913
  230MPD1     C 3488   2.363   1.716  15.628 -0.8377  0.4981 -0.1941
  230MPD1    C1 3489   2.425   1.631  15.541  0.1607  0.4151  0.5506
  230MPD1    C2 3490   2.347   1.583  15.440 -0.3115  0.4331 -0.0570
  230MPD1    C3 3491   2.211   1.626  15.431  0.0484  0.1550 -0.3669
  230MPD1    C4 3492   2.148   1.700  15.529 -0.1123 -0.6741  0.2715
  230MPD1    C5 3493   2.230   1.749  15.618 -0.4466 -0.4106 -0.5298
  230MPD1     H 3494   2.400   1.529  15.363  0.8139  0.7210  0.5089
  230MPD1    H1 3495   2.042   1.722  15.530 -0.1152 -0.7032  0.6036
  230MPD1    H2 3496   2.420   1.765  15.706  0.8455  1.0093 -1.7388
  230MPD1    H3 3497   2.200   1.817  15.697  1.1927 -0.7136  0.3722
  230MPD1     N 3498   2.142   1.581  15.316 -0.7789  0.2662  0.3018
  230MPD1    H5 3499   2.195   1.525  15.250 -0.7794  1.0333 -0.3516
  230MPD1    N1 3500   2.559   1.602  15.554 -0.1833 -0.5797 -0.8195
  230MPD1    H6 3501   2.600   1.630  15.643 -0.8509 -1.8501 -0.1076
  230MPD1    H7 3502   2.590   1.508  15.531  0.2831 -0.2702 -1.4371
  231MPD1     C 3503   0.350   3.912  15.885  0.4028 -0.3579  0.1906
  231MPD1    C1 3504   0.326   3.844  15.772 -0.0908  0.5674 -0.1439
  231MPD1    C2 3505   0.391   3.890  15.657 -0.1889  0.3520  0.2167
  231MPD1    C3 3506   0.482   3.995  15.659  0.4077  0.2038  0.1585
  231MPD1    C4 3507   0.508   4.050  15.780 -0.0807 -0.7114  0.0398
  231MPD1    C5 3508   0.439   4.014  15.891 -0.2078  0.0163  0.6847
  231MPD1     H 3509   0.362   3.835  15.568 -0.0213 -1.0603  1.0534
  231MPD1    H1 3510   0.572   4.137  15.784  1.1926 -1.6582  0.1478
  231MPD1    H2 3511   0.302   3.874  15.974 -0.0372  0.0423  0.1288
  231MPD1    H3 3512   0.457   4.068  15.983  1.8408 -1.7013  1.2652
  231MPD1     N 3513   0.544   4.037  15.537 -0.3782  0.4947  0.4642
  231MPD1    H5 3514   0.515   3.991  15.451 -0.3360 -0.2886  0.8668
  231MPD1    N1 3515   0.223   3.750  15.753 -0.1996 -0.1030 -0.2071
  231MPD1    H6 3516   0.238   3.681  15.679  0.8171  0.9231 -0.9718
  231MPD1    H7 3517   0.204   3.697  15.837 -0.7941  2.8199  1.4809
  232MPD1     C 3518   2.623   2.898  17.568 -0.1290  0.5405 -0.4604
  232MPD1    C1 3519   2.694   2.785  17.590  0.0364  0.2655  0.0235
  232MPD1    C2 3520   2.652   2.708   0.005 -0.1497 -0.2549 -0.5421
  232MPD1    C3 3521   2.539   2.741   0.085 -0.1005  0.0577 -0.2199
  232MPD1    C4 3522   2.479   2.865   0.061 -0.3847  0.1261 -0.6325
  232MPD1    C5 3523   2.523   2.935  17.651  0.1705  0.4178 -0.1508
  232MPD1     H 3524   2.711   2.621   0.030 -0.9460 -1.5109 -3.0170
  232MPD1    H1 3525   2.390   2.890   0.116  0.0942 -2.0117  1.1297
  232MPD1    H2 3526   2.644   2.956  17.478 -0.5351  0.3098 -0.7035
  232MPD1    H3 3527   2.473   3.027  17.621 -3.1693 -1.3109  0.1179
  232MPD1     N 3528   2.505   2.658   0.198  0.7155  0.5900 -0.4454
  232MPD1    H5 3529   2.566   2.578   0.211 -1.0998 -0.6004  0.7140
  232MPD1    N1 3530   2.807   2.744  17.523  0.6874  0.2880  0.3098
  232MPD1    H6 3531   2.818   2.789  17.432  0.1987  0.2961  0.2528
  232MPD1    H7 3532   2.816   2.645  17.504 -2.8367  0.3932 -1.9872
  233MPD1     C 3533   3.483   0.877   1.364  0.5853 -0.1871  0.1309
  233MPD1    C1 3534   3.408   0.791   1.441  0.3124 -0.4463 -0.3276
  233MPD1    C2 3535   3.471   0.669   1.476  0.3936 -0.1788  0.5860
  233MPD1    C3 3536   3.613   0.649   1.452  0.3603  0.2817  0.6748
  233MPD1    C4 3537   3.678   0.746   1.380  0.0268 -0.7997  0.0355
  233MPD1    C5 3538   3.621   0.858   1.343 -0.3518  0.2586 -0.1518
  233MPD1     H 3539   3.409   0.592   1.521 -2.2809  0.1133 -2.5925
  233MPD1    H1 3540   3.782   0.738   1.351 -0.7377 -0.6797 -2.7057
  233MPD1    H2 3541   3.446   0.969   1.320  0.3350  0.6759  2.1251
  233MPD1    H3 3542   3.673   0.931   1.282 -0.7248 -0.2178 -1.0410
  233MPD1     N 3543   3.690   0.537   1.499  0.5237 -0.6430  0.5147
  233MPD1    H5 3544   3.780   0.530   1.454  0.0012 -0.3366 -0.5636
  233MPD1    N1 3545   3.271   0.814   1.459  0.5011 -0.5871  0.1130
  233MPD1    H6 3546   3.246   0.913   1.458  0.6876 -0.5130  2.0672
  233MPD1    H7 3547   3.239   0.785   1.551 -0.3410  0.1323  0.0503
  234MPD1     C 3548   1.417   0.366   9.908 -0.4382  1.0614  0.0338
  234MPD1    C1 3549   1.335   0.477   9.891 -0.7320 -0.3776 -0.1390
  234MPD1    C2 3550   1.202   0.445   9.901  0.0602 -0.4517 -0.0251
  234MPD1    C3 3551   1.153   0.326   9.943  0.9653  0.7871 -0.3443
  234MPD1    C4 3552   1.234   0.216   9.970  0.4120  0.3568 -0.0471
  234MPD1    C5 3553   1.369   0.235   9.941  0.0474  0.8007  0.4512
  234MPD1     H 3554   1.133   0.520   9.865  0.0364 -0.2013  0.5387
  234MPD1    H1 3555   1.197   0.117   9.992  1.7904 -0.9927 -3.8226
  234MPD1    H2 3556   1.524   0.372   9.893  0.0845 -0.2315  3.1406
  234MPD1    H3 3557   1.428   0.144   9.940 -0.7216  0.3132 -0.2595
  234MPD1     N 3558   1.014   0.329   9.963  0.4155 -0.2617  0.0328
  234MPD1    H5 3559   0.969   0.411   9.925  0.9823  0.4210  0.8543
  234MPD1    N1 3560   1.393   0.593   9.837  0.1052 -0.0456 -0.0855
  234MPD1    H6 3561   1.492   0.604   9.860 -0.0987  2.2933 -0.3098
  234MPD1    H7 3562   1.338   0.675   9.859 -0.8583 -0.0512 -2.4909
  235MPD1     C 3563   3.474   2.220  10.257  0.1405  0.8369 -0.2743
  235MPD1    C1 3564   3.435   2.282  10.141 -0.5483 -0.1489 -0.6260
  235MPD1    C2 3565   3.310   2.249  10.083  0.5237 -0.0270 -0.7489
  235MPD1    C3 3566   3.230   2.150  10.135 -0.3828 -0.1843 -0.0938
  235MPD1    C4 3567   3.273   2.079  10.241  0.0188 -0.2814 -0.1941
  235MPD1    C5 3568   3.394   2.115  10.306  1.1469 -0.5084 -0.3126
  235MPD1     H 3569   3.288   2.308   9.995  1.9173 -0.6221 -1.4894
  235MPD1    H1 3570   3.211   2.002  10.285  2.2125 -1.7638  0.3502
  235MPD1    H2 3571   3.568   2.254  10.298  0.4334 -0.1004 -0.1593
  235MPD1    H3 3572   3.434   2.068  10.395 -3.6648 -1.5426  1.3101
  235MPD1     N 3573   3.110   2.113  10.062  0.0791 -0.3681  0.0133
  235MPD1    H5 3574   3.092   2.167   9.978  0.1550 -0.4855 -0.0775
  235MPD1    N1 3575   3.500   2.397  10.092  0.6856 -0.8390 -0.3355
  235MPD1    H6 3576   3.484   2.399   9.992  0.2383  0.9275 -0.2302
  235MPD1    H7 3577   3.596   2.413  10.122  0.7874 -1.4803 -0.3212
  236MPD1     C 3578   1.055   2.691  10.195 -0.0664 -0.3875 -0.3057
  236MPD1    C1 3579   1.116   2.786  10.281  0.3804 -0.3057 -0.7785
  236MPD1    C2 3580   1.230   2.744  10.349  0.7739  0.1010  0.4137
  236MPD1    C3 3581   1.290   2.622  10.331  0.0869 -0.1101  0.6543
  236MPD1    C4 3582   1.233   2.527  10.247 -0.1661 -0.1522 -0.5583
  236MPD1    C5 3583   1.113   2.567  10.189  0.3018 -0.0537  0.0348
  236MPD1     H 3584   1.278   2.815  10.415  1.2771  0.1203  0.0331
  236MPD1    H1 3585   1.270   2.427  10.225  1.9653  0.6098 -0.3590
  236MPD1    H2 3586   0.959   2.701  10.144 -0.2880  1.8003  0.5778
  236MPD1    H3 3587   1.052   2.508  10.121 -1.0894  1.2071  0.1930
  236MPD1     N 3588   1.402   2.576  10.407 -0.3751 -0.4797  0.1332
  236MPD1    H5 3589   1.432   2.479  10.398  0.6380 -0.0078 -1.7196
  236MPD1    N1 3590   1.043   2.900  10.317 -0.2045  0.2779  0.2035
  236MPD1    H6 3591   1.091   2.978  10.360 -0.6825  1.0420 -0.6601
  236MPD1    H7 3592   0.992   2.936  10.237 -0.9251 -1.4636 -0.1295
  237MPD1     C 3593   0.807   0.562  15.819  0.0231  0.0784  0.0800
  237MPD1    C1 3594   0.846   0.534  15.694 -0.3942  0.2635  0.2187
  237MPD1    C2 3595   0.743   0.521  15.593 -0.4237 -0.4866  0.0496
  237MPD1    C3 3596   0.612   0.537  15.635 -0.2313  0.7575  0.1941
  237MPD1    C4 3597   0.578   0.562  15.763  0.0376  0.5525  0.2480
  237MPD1    C5 3598   0.673   0.573  15.857  0.7105 -0.3694 -0.5905
  237MPD1     H 3599   0.771   0.497  15.491 -0.4774 -0.9466  0.1431
  237MPD1    H1 3600   0.476   0.563  15.798 -1.3432 -1.7391 -3.6754
  237MPD1    H2 3601   0.885   0.563  15.894 -0.6503 -1.9325  0.8204
  237MPD1    H3 3602   0.640   0.583  15.960 -2.0911 -0.0233 -1.5079
  237MPD1     N 3603   0.499   0.514  15.556 -0.3790  1.0919  0.3721
  237MPD1    H5 3604   0.406   0.516  15.597 -1.4133  2.0135 -2.0214
  237MPD1    N1 3605   0.979   0.505  15.663  0.2437 -0.4490 -0.2923
  237MPD1    H6 3606   1.029   0.571  15.722  0.4916 -0.7433 -0.1766
  237MPD1    H7 3607   0.997   0.539  15.568  1.0779 -0.1458 -0.0205
  238MPD1     C 3608   2.539   4.716  15.462  0.4558 -0.2098 -0.7905
  238MPD1    C1 3609   2.424   0.013  15.539  0.3174 -0.7625 -0.2277
  238MPD1    C2 3610   2.319   4.653  15.508  0.7582 -0.1559 -0.2074
  238MPD1    C3 3611   2.304   4.581  15.391 -0.0494 -0.2909  0.1714
  238MPD1    C4 3612   2.420   4.573  15.312  0.2227  0.2544 -0.0684
  238MPD1    C5 3613   2.533   4.632  15.349 -0.6065 -0.4062 -0.0870
  238MPD1     H 3614   2.233   4.678  15.569  0.8585 -1.2007  0.3683
  238MPD1    H1 3615   2.416   4.527  15.214  3.8873  0.3047 -0.2172
  238MPD1    H2 3616   2.632   0.040  15.488 -0.0981  0.3775  0.0934
  238MPD1    H3 3617   2.622   4.625  15.288  0.6401  0.4069  1.6433
  238MPD1     N 3618   2.194   4.499  15.351  0.4157  0.2282 -0.4286
  238MPD1    H5 3619   2.212   4.443  15.269  1.7432  0.1847 -0.1026
  238MPD1    N1 3620   2.421   0.094  15.656  0.1220 -0.2028 -0.3317
  238MPD1    H6 3621   2.335   0.148  15.663 -0.0477 -0.7991  2.1402
  238MPD1    H7 3622   2.497   0.161  15.664 -0.5274  0.8691 -2.9906
  239MPD1     C 3623   2.620   4.517  14.972  0.0340 -0.4226 -0.4965
  239MPD1    C1 3624   2.672   4.449  14.861  0.2120 -0.2832  0.8345
  239MPD1    C2 3625   2.629   4.495  14.736 -0.5010  0.2179 -0.1019
  239MPD1    C3 3626   2.528   4.589  14.725 -0.4340  0.3976 -0.4756
  239MPD1    C4 3627   2.469   4.640  14.837  0.4267  0.0494  0.1977
  239MPD1    C5 3628   2.514   4.606  14.962  0.2156 -0.3439 -0.1084
  239MPD1     H 3629   2.685   4.445  14.659 -0.0810  0.2568  0.1783
  239MPD1    H1 3630   2.404   0.001  14.824  0.8764  0.5389  1.1041
  239MPD1    H2 3631   2.667   4.515  15.070  0.1173  2.9377 -0.4882
  239MPD1    H3 3632   2.485   4.664  15.049 -0.6165 -0.8973 -0.0099
  239MPD1     N 3633   2.496   4.643  14.603 -0.6330  0.1872 -0.9018
  239MPD1    H5 3634   2.416   4.706  14.604 -0.6570  0.0939  2.2178
  239MPD1    N1 3635   2.784   4.364  14.879  0.6386  0.3338 -0.7690
  239MPD1    H6 3636   2.801   4.301  14.801 -0.6880  0.2276 -0.9723
  239MPD1    H7 3637   2.779   4.321  14.971  0.1621  1.4014 -0.2975
  240MPD1     C 3638   1.772   0.467  13.937 -0.0781  0.6197  0.5837
  240MPD1    C1 3639   1.782   0.330  13.926  0.3278  0.3412 -0.3123
  240MPD1    C2 3640   1.743   0.247  14.029  0.5150 -0.2696 -0.1459
  240MPD1    C3 3641   1.717   0.304  14.154  0.2216  0.2685 -0.3410
  240MPD1    C4 3642   1.713   0.443  14.166  0.5310  0.0154 -0.3480
  240MPD1    C5 3643   1.742   0.520  14.059  0.4413  0.1506 -0.1470
  240MPD1     H 3644   1.749   0.139  14.016  0.3677 -0.4894  1.5856
  240MPD1    H1 3645   1.683   0.498  14.255 -2.3563 -2.9719  0.5325
  240MPD1    H2 3646   1.771   0.540  13.856 -1.8712  0.2074  0.2430
  240MPD1    H3 3647   1.739   0.627  14.071 -0.1553  0.0066  0.9045
  240MPD1     N 3648   1.703   0.218  14.269  0.1010 -0.4581 -0.3296
  240MPD1    H5 3649   1.690   0.118  14.263 -0.1793 -0.4877  0.7266
  240MPD1    N1 3650   1.799   0.272  13.798  1.0073  0.6904 -0.5764
  240MPD1    H6 3651   1.841   0.346  13.742  0.3647  2.9091  1.8566
  240MPD1    H7 3652   1.857   0.188  13.800 -1.2724 -0.9075 -2.3052
  241MPD1     C 3653   1.759   4.627  15.315 -0.0825 -0.5121  0.1237
  241MPD1    C1 3654   1.833   4.720  15.252 -0.2550 -0.1256 -0.6375
  241MPD1    C2 3655   1.824   0.006  15.111 -0.8415  0.5831  0.3855
  241MPD1    C3 3656   1.749   4.642  15.037  0.0543  0.1337 -0.0789
  241MPD1    C4 3657   1.681   4.537  15.100  0.2570 -0.6840 -0.0011
  241MPD1    C5 3658   1.681   4.538  15.238 -0.0308 -0.1101  0.5290
  241MPD1     H 3659   1.878   0.088  15.065 -2.7941  1.8061  0.3053
  241MPD1    H1 3660   1.626   4.471  15.033 -0.1997  0.2094 -0.5079
  241MPD1    H2 3661   1.751   4.630  15.423  1.7209 -2.8768  0.3290
  241MPD1    H3 3662   1.634   4.461  15.298 -3.2293  0.8255 -0.8129
  241MPD1     N 3663   1.732   4.655  14.896 -0.3372  0.9109  0.7994
  241MPD1    H5 3664   1.655   4.598  14.861 -1.8662  2.5760  1.4486
  241MPD1    N1 3665   1.892   0.105  15.326  0.3550 -0.2889 -0.0207
  241MPD1    H6 3666   1.911   0.074  15.421  0.4354 -1.2031 -0.3328
  241MPD1    H7 3667   1.973   0.150  15.284  1.4635 -1.9469  0.3201
  242MPD1     C 3668   2.660   2.857  15.157  0.2312  0.4422 -0.4958
  242MPD1    C1 3669   2.531   2.891  15.183  0.2297 -0.2555 -0.8883
  242MPD1    C2 3670   2.450   2.792  15.234 -0.2478  0.4341 -0.3369
  242MPD1    C3 3671   2.492   2.670  15.277  0.0501 -0.2292 -0.5177
  242MPD1    C4 3672   2.629   2.646  15.275 -0.2476 -0.6608  0.1510
  242MPD1    C5 3673   2.706   2.737  15.204 -0.5307 -0.4409 -0.1766
  242MPD1     H 3674   2.342   2.803  15.236 -0.5855 -3.1318  0.8222
  242MPD1    H1 3675   2.675   2.561  15.324 -0.8537 -0.1753  1.5733
  242MPD1    H2 3676   2.726   2.925  15.102  1.6831 -0.0574  0.6230
  242MPD1    H3 3677   2.810   2.714  15.184 -1.4120 -2.2116 -2.6750
  242MPD1     N 3678   2.399   2.573  15.330  0.1272 -0.1601 -0.5770
  242MPD1    H5 3679   2.301   2.591  15.310 -0.6654 -0.4495  2.9976
  242MPD1    N1 3680   2.462   3.005  15.130  0.0326 -0.2674 -0.3946
  242MPD1    H6 3681   2.516   3.091  15.127 -2.0384  1.0692  0.8505
  242MPD1    H7 3682   2.374   3.029  15.175  0.4228 -0.1801  0.3203
  243MPD1     C 3683   3.905   1.167  17.233 -0.0833  0.8878 -0.1689
  243MPD1    C1 3684   3.829   1.278  17.270 -0.2858  0.0872  0.6924
  243MPD1    C2 3685   3.699   1.282  17.231  0.6365  0.0673 -0.0559
  243MPD1    C3 3686   3.637   1.182  17.151  0.4022  0.1486 -0.1864
  243MPD1    C4 3687   3.720   1.082  17.102 -0.2308  0.0894  0.4089
  243MPD1    C5 3688   3.853   1.081  17.151 -0.0749 -0.0939  0.2170
  243MPD1     H 3689   3.630   1.352  17.276  0.5200  0.1949 -0.4352
  243MPD1    H1 3690   3.699   1.006  17.028  0.3326  0.3730 -0.0369
  243MPD1    H2 3691   4.008   1.155  17.263 -0.6141  0.1884  1.3622
  243MPD1    H3 3692   3.925   1.006  17.120 -1.0225 -0.4302 -1.1824
  243MPD1     N 3693   3.498   1.183  17.108  0.4341 -0.0017  0.1433
  243MPD1    H5 3694   3.440   1.257  17.146  0.4172 -0.6571  1.3696
  243MPD1    N1 3695   3.876   1.349  17.389 -0.4399 -0.2835  0.0484
  243MPD1    H6 3696   3.826   1.438  17.388 -1.4272 -0.8672 -1.4523
  243MPD1    H7 3697   3.974   1.373  17.374 -1.0525  2.6350  0.5593
  244MPD1     C 3698   2.835   1.354  17.633 -0.0018  0.2080 -0.3011
  244MPD1    C1 3699   2.970   1.361  17.624  1.0493  0.2142  0.5993
  244MPD1    C2 3700   3.027   1.332  17.500 -0.2683 -0.2678  0.9841
  244MPD1    C3 3701   2.956   1.268  17.403  0.0315 -0.4969  0.1141
  244MPD1    C4 3702   2.817   1.263  17.412  0.2500  0.1029 -1.2652
  244MPD1    C5 3703   2.756   1.303  17.526  0.1360 -0.1378 -0.4362
  244MPD1     H 3704   3.133   1.347  17.485 -0.6517 -3.1646 -4.4686
  244MPD1    H1 3705   2.766   1.221  17.326 -1.0474  2.4889 -1.6552
  244MPD1    H2 3706   2.785   1.382   0.027  1.7520 -0.2102  0.7839
  244MPD1    H3 3707   2.649   1.296  17.540  0.3152 -1.2131  0.4102
  244MPD1     N 3708   3.027   1.243  17.286  0.1205  0.4638 -0.3583
  244MPD1    H5 3709   3.124   1.265  17.266 -0.5845  2.9296 -1.0767
  244MPD1    N1 3710   3.056   1.412   0.026  0.4528  0.4950 -0.4016
  244MPD1    H6 3711   3.003   1.408   0.113  0.7794  1.1702 -0.1770
  244MPD1    H7 3712   3.146   1.365   0.034  0.9561  1.3928 -0.8551
  245MPD1     C 3713   4.692   2.133  14.214  0.1681 -0.0061  0.2690
  245MPD1    C1 3714   0.031   2.222  14.128  0.3704 -0.2762  0.2798
  245MPD1    C2 3715   0.140   2.293  14.175 -0.0786 -0.0135  0.1082
  245MPD1    C3 3716   0.179   2.277  14.305  0.1235 -0.4948 -0.3038
  245MPD1    C4 3717   0.112   2.188  14.389  1.3305  0.4456 -0.6309
  245MPD1    C5 3718   0.006   2.119  14.343  0.0717  0.1176 -0.7455
  245MPD1     H 3719   0.193   2.369  14.118 -0.3838 -0.0874 -0.2793
  245MPD1    H1 3720   0.129   2.176  14.496 -0.4133  0.9229 -0.2944
  245MPD1    H2 3721   4.608   2.078  14.173 -1.0697  1.1846  1.2251
  245MPD1    H3 3722   4.677   2.048  14.405 -2.2897  3.6781  1.3207
  245MPD1     N 3723   0.297   2.340  14.340 -0.7514  0.6535  0.7190
  245MPD1    H5 3724   0.338   2.410  14.279  0.8698 -0.9478 -0.0311
  245MPD1    N1 3725   4.705   2.232  13.995 -0.5816  0.0489  0.4167
  245MPD1    H6 3726   4.703   2.331  13.970 -0.8024 -0.0396  0.0891
  245MPD1    H7 3727   4.608   2.203  13.988 -1.3490  2.7394 -0.1462
  246MPD1     C 3728   2.812   2.708   9.691 -0.1717 -0.2624 -0.4645
  246MPD1    C1 3729   2.834   2.773   9.815  0.3737  0.7644  0.1673
  246MPD1    C2 3730   2.741   2.865   9.858  0.4478 -0.3398 -1.0341
  246MPD1    C3 3731   2.626   2.894   9.789  0.8976 -0.2644 -0.0044
  246MPD1    C4 3732   2.605   2.831   9.670  0.1625  0.6261 -0.3674
  246MPD1    C5 3733   2.703   2.739   9.621 -0.0001  0.0598  0.0801
  246MPD1     H 3734   2.748   2.909   9.957  1.8620 -0.4240 -1.0923
  246MPD1    H1 3735   2.529   2.861   9.599 -0.7578 -3.1349 -0.9659
  246MPD1    H2 3736   2.883   2.637   9.652 -1.4105 -1.0760 -1.2396
  246MPD1    H3 3737   2.693   2.680   9.531  0.3315 -2.6658  1.8433
  246MPD1     N 3738   2.527   2.983   9.847  0.3412 -0.2977  0.2363
  246MPD1    H5 3739   2.553   3.031   9.932  4.0687  0.1819 -1.1819
  246MPD1    N1 3740   2.923   2.729   9.906  0.8086 -0.4596  0.4895
  246MPD1    H6 3741   3.002   2.686   9.860  0.6740 -1.4351  1.1802
  246MPD1    H7 3742   2.942   2.798   9.979 -0.0139 -0.3024  0.5624
  247MPD1     C 3743   3.661   1.892  16.114  0.4769  0.3961  0.3454
  247MPD1    C1 3744   3.679   1.763  16.160  0.1137  0.2076 -0.2861
  247MPD1    C2 3745   3.803   1.718  16.195 -0.2588  0.2733  0.2889
  247MPD1    C3 3746   3.919   1.796  16.177  0.3593 -0.9851 -0.3590
  247MPD1    C4 3747   3.899   1.920  16.126  0.0254  0.6886 -0.3538
  247MPD1    C5 3748   3.770   1.969  16.098  0.4729 -0.1154  0.1402
  247MPD1     H 3749   3.818   1.622  16.243  0.0491  0.7653  1.1892
  247MPD1    H1 3750   3.986   1.984  16.113 -0.5847  1.8641  1.3741
  247MPD1    H2 3751   3.564   1.930  16.084 -0.6658 -2.0209  0.9475
  247MPD1    H3 3752   3.767   2.066  16.049 -1.6628  1.1329  2.7737
  247MPD1     N 3753   4.052   1.753  16.204  0.0802  0.8152  0.4531
  247MPD1    H5 3754   4.120   1.827  16.190  0.2522  0.2616 -1.7395
  247MPD1    N1 3755   3.564   1.692  16.197 -0.4253 -0.2095 -0.1518
  247MPD1    H6 3756   3.587   1.593  16.205  0.0729  0.0804  2.1976
  247MPD1    H7 3757   3.481   1.717  16.143 -1.7567 -0.1160  1.9215
  248MPD1     C 3758   0.978   1.364   0.089  0.0035  0.2386  0.3762
  248MPD1    C1 3759   0.915   1.277   0.178 -0.8110  0.4709  0.1313
  248MPD1    C2 3760   0.849   1.329   0.290  0.1566 -0.0138 -0.0016
  248MPD1    C3 3761   0.844   1.461   0.322  0.0570 -0.1077 -0.0885
  248MPD1    C4 3762   0.906   1.546   0.230 -0.0816  0.2302 -0.8656
  248MPD1    C5 3763   0.985   1.491   0.129  0.3289  0.6482 -0.3075
  248MPD1     H 3764   0.805   1.261   0.363  0.2434 -0.2145 -0.1354
  248MPD1    H1 3765   0.921   1.652   0.247  1.0425 -0.0958  0.1835
  248MPD1    H2 3766   1.037   1.333   0.003 -1.0769  0.7753 -0.5574
  248MPD1    H3 3767   1.030   1.566   0.066  0.5884  0.5061 -0.2909
  248MPD1     N 3768   0.783   1.509   0.440 -0.0185  0.5821 -0.1143
  248MPD1    H5 3769   0.745   1.441   0.505 -2.7787 -0.4194 -2.7955
  248MPD1    N1 3770   0.886   1.142   0.148 -0.0301 -0.1511  0.0885
  248MPD1    H6 3771   0.868   1.080   0.227  0.2672  0.8802  0.9713
  248MPD1    H7 3772   0.955   1.102   0.085 -1.2714  0.5043 -1.6801
  249MPD1     C 3773   2.380   0.544  10.339 -0.5576  0.1701 -0.4780
  249MPD1    C1 3774   2.501   0.558  10.409  0.1955 -0.1669 -0.1522
  249MPD1    C2 3775   2.596   0.644  10.355  0.5100 -0.0656  0.4160
  249MPD1    C3 3776   2.579   0.702  10.227  0.7464 -0.2906  0.4613
  249MPD1    C4 3777   2.461   0.670  10.155 -0.5829 -0.6918 -0.3345
  249MPD1    C5 3778   2.369   0.588  10.211  0.8648 -0.2410 -0.8357
  249MPD1     H 3779   2.679   0.678  10.416  0.2556  0.0280  0.7153
  249MPD1    H1 3780   2.439   0.727  10.066  1.7133  0.9206  0.1402
  249MPD1    H2 3781   2.292   0.490  10.371 -0.8236  0.5627 -0.5374
  249MPD1    H3 3782   2.279   0.560  10.157  0.2756  1.4607 -0.7212
  249MPD1     N 3783   2.679   0.788  10.177 -0.2444  0.1043 -0.1841
  249MPD1    H5 3784   2.744   0.812  10.251  1.1311 -0.8415 -1.1000
  249MPD1    N1 3785   2.506   0.514  10.539 -0.1234 -0.3497  0.7407
  249MPD1    H6 3786   2.602   0.502  10.572  1.1630  1.1216 -2.4487
  249MPD1    H7 3787   2.446   0.558  10.608 -2.4260  0.8995 -2.0733
  250MPD2     C 3788   3.133   0.722  13.427 -0.0067 -0.3392 -0.6439
  250MPD2    C1 3789   3.198   0.735  13.303  0.1805  0.4632 -0.1372
  250MPD2    C2 3790   3.159   0.648  13.201 -0.2057  0.4937 -0.1184
  250MPD2    C3 3791   3.068   0.545  13.217 -0.0987  0.3068  1.1188
  250MPD2    C4 3792   3.018   0.528  13.348 -0.1237 -0.2750 -0.7081
  250MPD2    C5 3793   3.050   0.614  13.450  0.3746  0.1942 -0.1912
  250MPD2     H 3794   3.189   0.658  13.097 -1.5208  1.4527 -0.4070
  250MPD2    H1 3795   2.963   0.438  13.375 -0.1151 -0.1692 -0.3306
  250MPD2    H2 3796   3.152   0.798  13.502  1.3591  0.0544 -1.3812
  250MPD2    H3 3797   3.022   0.599  13.554 -0.7063 -0.9288 -0.6433
  250MPD2     N 3798   3.035   0.460  13.111  0.0607 -0.0633  0.9061
  250MPD2    H5 3799   3.078   0.476  13.021 -2.0453 -0.6845 -0.2217
  250MPD2    N1 3800   3.306   0.830  13.291  0.2364 -0.3587 -0.3950
  250MPD2    H7 3801   3.337   0.874  13.377 -2.5832 -0.9741  0.9358
  251TMC3    C1 3802   3.506   0.926  13.203  0.0084 -0.4136 -0.0695
  251TMC3    C2 3803   3.497   1.036  13.282  0.1186  0.2674 -0.4938
  251TMC3    C3 3804   3.602   1.124  13.289  0.0180  0.4536 -0.5383
  251TMC3    C4 3805   3.613   0.901  13.124 -0.2234  0.2944 -0.4256
  251TMC3    C5 3806   3.714   0.998  13.121  0.3898 -0.2440  0.8011
  251TMC3    C6 3807   3.711   1.109  13.207 -0.7787 -0.7250  0.1589
  251TMC3     C 3808   3.389   0.836  13.178  0.4007  0.4520  0.6380
  251TMC3     O 3809   3.376   0.790  13.067  0.2181  0.3388  0.5390
  251TMC3     H 3810   3.409   1.058  13.341  0.8252 -0.8356  0.9679
  251TMC3    H1 3811   3.613   0.823  13.048 -0.2936 -0.5175  0.4031
  251TMC3    H2 3812   3.786   1.187  13.214 -0.4671 -1.2774  2.9601
  251TMC3    C7 3813   3.839   0.944  13.074 -0.0562 -0.9061 -0.4272
  251TMC3    C8 3814   3.560   1.255  13.341  0.5175 -0.3789 -0.0474
  251TMC3    O1 3815   3.833   0.823  13.070  0.4766 -0.0735  0.7545
  251TMC3    O2 3816   3.475   1.250  13.432  0.7295 -0.4006 -0.2082
  252TMC3    C1 3817   3.765   1.997   9.579 -0.0185  0.2104  0.8942
  252TMC3    C2 3818   3.809   2.120   9.540 -0.2438 -0.0092 -0.1861
  252TMC3    C3 3819   3.907   2.180   9.621 -0.4302  0.7839  0.1893
  252TMC3    C4 3820   3.821   1.931   9.682 -0.1756  0.2057 -0.0271
  252TMC3    C5 3821   3.921   1.986   9.747 -0.0120 -0.0408 -0.9018
  252TMC3    C6 3822   3.976   2.108   9.713 -0.0811  0.4730 -0.1230
  252TMC3     C 3823   3.647   1.945   9.510  0.4497 -0.5385 -0.5606
  252TMC3     O 3824   3.587   2.023   9.439 -0.6062 -0.3631 -0.1739
  252TMC3     H 3825   3.760   2.173   9.459 -1.3370 -1.4803 -0.4909
  252TMC3    H1 3826   3.782   1.836   9.716 -1.0160  0.4259 -0.3748
  252TMC3    H2 3827   4.077   2.132   9.741 -0.1515  0.5916  0.0267
  252TMC3    C7 3828   3.995   1.913   9.849  0.3107 -1.1356 -0.4680
  252TMC3    C8 3829   3.946   2.307   9.573  0.3294 -0.6754 -0.2168
  252TMC3    O1 3830   4.057   1.988   9.921  0.6835 -0.2516  0.2186
  252TMC3    O2 3831   3.903   2.342   9.461  0.0232 -0.1725 -0.3336
  253MPD2     C 3832   4.488   0.478  14.924  0.3441  0.7964 -0.0767
  253MPD2    C1 3833   4.381   0.465  15.014 -0.1658  0.1521  0.2363
  253MPD2    C2 3834   4.412   0.492  15.149  0.9504 -0.2996  0.1523
  253MPD2    C3 3835   4.535   0.541  15.188 -0.9306  0.7788 -0.1157
  253MPD2    C4 3836   4.631   0.559  15.095  0.0839  0.0034 -0.2841
  253MPD2    C5 3837   4.612   0.523  14.966  0.0768 -0.1680  0.1915
  253MPD2     H 3838   4.343   0.470  15.230  0.7695  0.1388  0.1152
  253MPD2    H1 3839   0.001   0.608  15.117 -0.3745  0.6161  0.3177
  253MPD2    H2 3840   4.490   0.462  14.817 -1.4520 -0.2360  0.0428
  253MPD2    H3 3841   4.690   0.538  14.892  0.6764 -2.4440  0.3776
  253MPD2     N 3842   4.559   0.577  15.319  0.3307 -0.0628  0.6772
  253MPD2    H5 3843   4.635   0.641  15.341  0.9352 -0.8545  0.8773
  253MPD2    N1 3844   4.253   0.411  14.979  0.1313 -0.2949 -0.2228
  253MPD2    H7 3845   4.181   0.410  15.051 -0.1083  1.0775 -0.4484
  254TMC3    C1 3846   4.520   0.594  15.552  0.2088  0.2193 -0.4359
  254TMC3    C2 3847   4.579   0.714  15.547  0.3497 -0.2234  0.5429
  254TMC3    C3 3848   4.652   0.757  15.654 -0.1579 -0.5804 -0.3705
  254TMC3    C4 3849   4.523   0.517  15.666  0.2234  0.4576  0.3548
  254TMC3    C5 3850   4.586   0.572  15.773  0.1321 -0.3487  0.0459
  254TMC3    C6 3851   4.662   0.687  15.768  0.4711  0.2891  0.2892
  254TMC3     C 3852   4.496   0.519  15.430  0.0529  0.0663 -0.4441
  254TMC3     O 3853   4.440   0.415  15.445 -0.5606  0.2032  0.0035
  254TMC3     H 3854   4.558   0.782  15.465 -0.3409 -2.6244 -1.3026
  254TMC3    H1 3855   4.475   0.420  15.661  1.1987 -0.0790  1.3659
  254TMC3    H2 3856   4.723   0.727  15.849  1.5674 -0.0944 -0.3596
  254TMC3    C7 3857   4.574   0.512  15.908  0.2686 -0.9019 -0.1130
  254TMC3    C8 3858   4.716   0.886  15.658 -0.1364  0.1176 -0.0864
  254TMC3    O1 3859   4.672   0.521  15.984  0.3920  0.0223  0.3456
  254TMC3    O2 3860   0.112   0.886  15.664  0.6179 -0.1932  0.2438
  255MPD2     C 3861   3.298   3.853  10.993 -0.4958 -0.0520 -0.3125
  255MPD2    C1 3862   3.362   3.923  10.895 -0.6007  1.0635 -0.2879
  255MPD2    C2 3863   3.436   3.855  10.799  0.0324  0.5242 -0.0970
  255MPD2    C3 3864   3.445   3.717  10.802 -0.6951  0.1849 -0.2235
  255MPD2    C4 3865   3.384   3.650  10.903 -0.0314  0.5342  0.6088
  255MPD2    C5 3866   3.299   3.717  10.990 -0.3125 -0.4099 -0.3703
  255MPD2     H 3867   3.489   3.904  10.718  0.5126 -0.7665 -0.5682
  255MPD2    H1 3868   3.394   3.543  10.912 -0.8042  0.2587 -1.6901
  255MPD2    H2 3869   3.232   3.899  11.066  1.0425  0.8408  0.5118
  255MPD2    H3 3870   3.235   3.663  11.059  0.1486  0.0805  0.4353
  255MPD2     N 3871   3.506   3.648  10.691 -0.2064  0.5755  0.7151
  255MPD2    H5 3872   3.559   3.708  10.629 -1.6386  0.1863 -0.8633
  255MPD2    N1 3873   3.338   4.064  10.902  0.1870 -0.1430  0.1323
  255MPD2    H7 3874   3.282   4.093  10.982  0.3805 -2.1911  0.9983
  256TMC3    C1 3875   3.304   4.276  10.812  0.4052  0.1257  0.2400
  256TMC3    C2 3876   3.385   4.384  10.795 -0.2005  0.5636 -0.2412
  256TMC3    C3 3877   3.317   4.504  10.808 -0.0972  0.5035 -0.1840
  256TMC3    C4 3878   3.169   4.282  10.846  0.5403  0.1013 -0.2732
  256TMC3    C5 3879   3.109   4.401  10.861 -0.2872 -1.2427 -0.3427
  256TMC3    C6 3880   3.179   4.518  10.835  0.7183  0.3486 -0.4000
  256TMC3     C 3881   3.371   4.150  10.805 -0.1765  0.2403  0.3371
  256TMC3     O 3882   3.449   4.135  10.710 -0.3377  0.0958 -0.5690
  256TMC3     H 3883   3.491   4.368  10.780  0.2849  0.2229  3.6415
  256TMC3    H1 3884   3.112   4.191  10.861 -2.6172  2.1769  0.3349
  256TMC3    H2 3885   3.129   4.615  10.829 -1.7564 -0.7778  1.9912
  256TMC3    C7 3886   2.967   4.406  10.853  0.7432 -0.0093  0.1304
  256TMC3    C8 3887   3.391   4.630  10.796  0.5928 -0.3489  0.0640
  256TMC3    O1 3888   2.922   4.444  10.745 -0.1473  0.4116  0.1159
  256TMC3    O2 3889   3.364   0.003  10.866 -0.3089  0.1503 -0.1888
  257MPD2     C 3890   2.327   0.815  13.185  0.3646 -0.2834  0.2177
  257MPD2    C1 3891   2.307   0.720  13.085 -0.1070  0.0198  0.1198
  257MPD2    C2 3892   2.259   0.596  13.121  0.2759  0.0478 -0.9761
  257MPD2    C3 3893   2.241   0.568  13.253  0.6329  0.2981  0.6608
  257MPD2    C4 3894   2.278   0.654  13.346  0.8825  0.1178  0.9299
  257MPD2    C5 3895   2.317   0.777  13.317  0.1223  0.2043 -0.3337
  257MPD2     H 3896   2.222   0.533  13.041  1.1687 -0.1634 -1.2219
  257MPD2    H1 3897   2.281   0.613  13.446  0.1950  0.3980  1.0626
  257MPD2    H2 3898   2.374   0.910  13.161  1.9766 -0.9795  0.6385
  257MPD2    H3 3899   2.352   0.844  13.394 -1.4486  1.1116 -0.4172
  257MPD2     N 3900   2.201   0.439  13.295 -0.3307 -0.5522  0.7716
  257MPD2    H5 3901   2.183   0.374  13.219 -1.0782 -0.4794  0.8866
  257MPD2    N1 3902   2.330   0.764  12.957  0.5467  0.7076  0.1823
  257MPD2    H7 3903   2.354   0.860  12.935  1.8407  0.2196 -0.5118
  258TMC3    C1 3904   2.167   0.253  13.433 -0.3311  0.2866  0.2531
  258TMC3    C2 3905   2.235   0.178  13.345 -0.5658 -0.2378  0.0330
  258TMC3    C3 3906   2.266   0.044  13.379 -1.0163 -0.3292  0.6287
  258TMC3    C4 3907   2.136   0.208  13.556 -0.2082  0.1326  0.2375
  258TMC3    C5 3908   2.168   0.077  13.593 -0.0386 -0.1574 -0.1438
  258TMC3    C6 3909   2.237   4.720  13.505 -0.1457  0.3791 -0.2851
  258TMC3     C 3910   2.176   0.398  13.421 -0.2601 -0.0952  0.1730
  258TMC3     O 3911   2.134   0.462  13.516 -0.1579 -0.3890 -0.2058
  258TMC3     H 3912   2.291   0.224  13.264 -1.4503 -0.4790 -0.7186
  258TMC3    H1 3913   2.089   0.277  13.625  0.5557  1.2249 -0.3214
  258TMC3    H2 3914   2.272   4.619  13.525 -0.1911  0.5602  0.7100
  258TMC3    C7 3915   2.139   0.043  13.731 -0.3121  0.6396  0.5602
  258TMC3    C8 3916   2.314   4.677  13.279  0.3701  0.7636 -0.6795
  258TMC3    O1 3917   2.047   0.113  13.778 -0.2002 -0.2744 -0.0332
  258TMC3    O2 3918   2.332   4.562  13.309 -0.0064 -0.2120  0.5072
  259MPD2     C 3919   1.144   2.096   1.301  0.6575 -0.0533  1.1603
  259MPD2    C1 3920   1.182   1.965   1.289 -0.5273 -0.2296  0.1567
  259MPD2    C2 3921   1.227   1.925   1.170 -0.5620  0.1244 -0.0290
  259MPD2    C3 3922   1.240   2.012   1.061 -0.1863 -0.6453 -0.4384
  259MPD2    C4 3923   1.211   2.142   1.084 -0.0367 -0.0515 -0.0453
  259MPD2    C5 3924   1.171   2.188   1.205  0.3789  0.4578  0.1088
  259MPD2     H 3925   1.252   1.823   1.144 -0.6644  0.2561 -0.6390
  259MPD2    H1 3926   1.227   2.220   1.011 -0.7677  0.2095  0.0663
  259MPD2    H2 3927   1.126   2.149   1.394 -1.1454  1.6881 -0.1811
  259MPD2    H3 3928   1.163   2.295   1.218 -1.1020  0.3568  0.0443
  259MPD2     N 3929   1.293   1.963   0.939  0.8205  0.3782  0.0960
  259MPD2    H5 3930   1.323   1.866   0.939  1.1685  0.4917  1.2296
  259MPD2    N1 3931   1.180   1.888   1.409 -0.0331 -0.1849  0.0447
  259MPD2    H7 3932   1.151   1.944   1.489  2.7271 -2.4839  2.6693
  260TMC3    C1 3933   1.399   1.961   0.729 -0.3484 -0.5911 -0.5589
  260TMC3    C2 3934   1.418   2.024   0.607 -0.4671  0.1653 -0.1341
  260TMC3    C3 3935   1.498   1.967   0.514  0.5290  0.0807  0.4132
  260TMC3    C4 3936   1.446   1.833   0.755  0.1910  0.1476  0.3043
  260TMC3    C5 3937   1.527   1.785   0.659  1.3828 -0.9227 -0.0966
  260TMC3    C6 3938   1.563   1.854   0.549  0.0830 -0.8209 -0.2468
  260TMC3     C 3939   1.313   2.032   0.825  0.5012  0.1805  0.5659
  260TMC3     O 3940   1.264   2.136   0.788  0.1994  0.2347  0.4048
  260TMC3     H 3941   1.364   2.111   0.573  0.0497  1.1748  1.6058
  260TMC3    H1 3942   1.407   1.769   0.833 -0.7240 -0.5087 -0.6934
  260TMC3    H2 3943   1.637   1.807   0.485 -1.0918 -3.2455  0.1957
  260TMC3    C7 3944   1.523   1.641   0.629  0.5572  0.1668 -0.5947
  260TMC3    C8 3945   1.535   2.029   0.393  0.5222 -0.9951  0.9359
  260TMC3    O1 3946   1.542   1.611   0.513 -0.2240 -0.1739 -0.4645
  260TMC3    O2 3947   1.450   2.081   0.324  0.3586  0.1903  0.3659
  261MPD2     C 3948   2.611   0.139  12.514  0.5231  0.2460 -0.3110
  261MPD2    C1 3949   2.738   0.183  12.512 -0.0206 -0.5447 -0.5990
  261MPD2    C2 3950   2.781   0.272  12.416 -0.4376 -0.1906 -0.8223
  261MPD2    C3 3951   2.697   0.314  12.315 -0.3853 -0.4202 -0.3278
  261MPD2    C4 3952   2.567   0.271  12.313  0.8354 -0.2057  0.1713
  261MPD2    C5 3953   2.527   0.181  12.413  0.2301  0.2893  0.6232
  261MPD2     H 3954   2.883   0.307  12.428 -0.7911  0.5634  0.0376
  261MPD2    H1 3955   2.499   0.297  12.233 -0.0532  0.2803  1.0763
  261MPD2    H2 3956   2.575   0.067  12.586  1.9488  1.5750  1.7309
  261MPD2    H3 3957   2.430   0.133  12.416 -0.5491  1.9069  1.3761
  261MPD2     N 3958   2.747   0.419  12.234 -0.6027 -0.2881  0.2289
  261MPD2    H5 3959   2.845   0.439  12.246 -0.6854 -0.2927  0.8751
  261MPD2    N1 3960   2.830   0.152  12.614  0.2672  0.1235  0.3058
  261MPD2    H7 3961   2.923   0.192  12.608 -0.0232  1.1029  2.0831
  262TMC3    C1 3962   2.732   0.634  12.133 -0.1331 -0.2478  0.4944
  262TMC3    C2 3963   2.651   0.741  12.133  0.1230  0.4716 -0.2000
  262TMC3    C3 3964   2.709   0.867  12.116  0.4565 -0.2686 -0.2840
  262TMC3    C4 3965   2.869   0.649  12.139  0.8875  0.5051  0.0347
  262TMC3    C5 3966   2.916   0.776  12.130  0.2731  0.6556 -0.1759
  262TMC3    C6 3967   2.845   0.883  12.118 -0.3343 -0.0076  0.5267
  262TMC3     C 3968   2.667   0.509  12.158 -0.3061 -0.0387  0.0622
  262TMC3     O 3969   2.547   0.495  12.134  0.0325  0.4842  0.3784
  262TMC3     H 3970   2.543   0.732  12.123  0.5827 -1.4725 -3.5084
  262TMC3    H1 3971   2.933   0.562  12.129 -0.2719 -0.1964 -1.4522
  262TMC3    H2 3972   2.894   0.977  12.142 -0.4436 -0.0957  1.1074
  262TMC3    C7 3973   3.056   0.789  12.170  0.9971 -0.3231 -0.1475
  262TMC3    C8 3974   2.634   0.988  12.128 -0.5540 -0.1556  0.0854
  262TMC3    O1 3975   3.110   0.700  12.236  0.0553  0.6380 -0.4394
  262TMC3    O2 3976   2.545   0.993  12.213 -0.4596  0.5451 -0.0179
  263MPD2     C 3977   4.176   0.499  11.494 -0.5732  1.0972  0.7520
  263MPD2    C1 3978   4.283   0.469  11.418  0.0960  0.7995  0.3738
  263MPD2    C2 3979   4.305   0.520  11.288 -0.0527  0.0703 -0.4827
  263MPD2    C3 3980   4.220   0.620  11.241 -0.1110 -0.3326 -0.4146
  263MPD2    C4 3981   4.114   0.650  11.319  0.4674 -0.0606  0.1830
  263MPD2    C5 3982   4.097   0.595  11.444  0.1014  0.8243  0.2077
  263MPD2     H 3983   4.391   0.494  11.228 -0.7282 -0.3180 -1.2867
  263MPD2    H1 3984   4.058   0.742  11.304  1.7471  1.1907  2.9153
  263MPD2    H2 3985   4.159   0.464  11.596 -0.9698 -0.5767  0.1074
  263MPD2    H3 3986   4.010   0.629  11.499 -0.4007 -0.7876  0.4257
  263MPD2     N 3987   4.255   0.685  11.123  0.0086  0.1770 -0.1117
  263MPD2    H5 3988   4.335   0.644  11.076  0.4582 -1.5049  2.0966
  263MPD2    N1 3989   4.378   0.389  11.482  0.1132  0.1861 -0.0143
  263MPD2    H7 3990   4.347   0.348  11.569 -0.7938  1.7846  0.4250
  264TMC3    C1 3991   4.243   0.857  10.959  0.5885 -0.5457  0.5305
  264TMC3    C2 3992   4.180   0.980  10.941  0.1079 -0.1992 -0.1120
  264TMC3    C3 3993   4.240   1.068  10.847  0.1394  0.2245 -0.1859
  264TMC3    C4 3994   4.364   0.830  10.902  0.1962  0.5285 -0.0350
  264TMC3    C5 3995   4.420   0.920  10.816  0.0767  0.0131 -0.0859
  264TMC3    C6 3996   4.360   1.041  10.794 -0.6293  0.2955  0.1224
  264TMC3     C 3997   4.173   0.769  11.056 -0.5799 -0.1610 -0.1379
  264TMC3     O 3998   4.057   0.801  11.082  0.4217  0.0965 -0.4538
  264TMC3     H 3999   4.086   1.003  10.991  0.8904 -2.3991  2.3231
  264TMC3    H1 4000   4.412   0.735  10.920  2.6160  1.4919 -1.4211
  264TMC3    H2 4001   4.402   1.122  10.736  0.9032 -1.2444 -0.8613
  264TMC3    C7 4002   4.547   0.898  10.737  0.3641 -0.1106  0.2543
  264TMC3    C8 4003   4.155   1.176  10.796 -0.6345  0.1047  0.7065
  264TMC3    O1 4004   4.564   0.787  10.684 -0.6881 -0.2245 -0.1710
  264TMC3    O2 4005   4.102   1.146  10.689 -0.0134  0.0848  0.1807
  265MPD2     C 4006   1.520   0.246  15.811 -0.5755  0.5371  0.3140
  265MPD2    C1 4007   1.500   0.371  15.755 -0.3550  0.7403  0.0640
  265MPD2    C2 4008   1.533   0.385  15.624  0.1852  0.2769 -0.0714
  265MPD2    C3 4009   1.579   0.283  15.539  0.6482 -0.0865  0.0020
  265MPD2    C4 4010   1.576   0.155  15.596  0.1894 -0.6331  0.2428
  265MPD2    C5 4011   1.539   0.141  15.726  0.2920 -0.2539 -0.0517
  265MPD2     H 4012   1.519   0.484  15.583 -1.3858  0.5216  1.1134
  265MPD2    H1 4013   1.617   0.070  15.543  0.2393 -0.4426 -0.0292
  265MPD2    H2 4014   1.502   0.220  15.914  2.2319 -2.1005  0.1667
  265MPD2    H3 4015   1.533   0.047  15.779 -2.4665 -0.6046 -0.9763
  265MPD2     N 4016   1.606   0.292  15.399  0.2490  0.9034  0.6610
  265MPD2    H5 4017   1.580   0.213  15.342  2.2621 -0.0695  1.0856
  265MPD2    N1 4018   1.460   0.488  15.825  0.1602 -0.2215 -0.5367
  265MPD2    H7 4019   1.449   0.578  15.780 -0.4676  1.2101  2.4933
  266TMC3    C1 4020   1.377   0.623  16.003  0.0427  0.3026 -0.0651
  266TMC3    C2 4021   1.402   0.665  16.129  0.6177 -0.4280 -0.6418
  266TMC3    C3 4022   1.322   0.761  16.175  0.2060  0.1119 -0.0426
  266TMC3    C4 4023   1.263   0.654  15.937 -0.6326  0.2730  0.6858
  266TMC3    C5 4024   1.177   0.742  15.997  0.0989 -0.4843  0.2746
  266TMC3    C6 4025   1.212   0.808  16.115 -0.9008  0.8051 -0.1339
  266TMC3     C 4026   1.438   0.494  15.958  0.5609  0.5034  0.0604
  266TMC3     O 4027   1.462   0.413  16.041  0.1587 -0.5415 -0.3967
  266TMC3     H 4028   1.489   0.622  16.178  1.8552  0.6551 -1.8823
  266TMC3    H1 4029   1.236   0.612  15.841  2.6141  0.2107 -0.2100
  266TMC3    H2 4030   1.150   0.885  16.160  0.0841  1.9674 -0.7473
  266TMC3    C7 4031   1.066   0.779  15.917 -0.3544  0.3694  0.8105
  266TMC3    C8 4032   1.380   0.822  16.287  0.1278 -0.2888  0.5281
  266TMC3    O1 4033   1.056   0.718  15.812 -0.1889  0.0462  0.1848
  266TMC3    O2 4034   1.449   0.749  16.353 -0.2177 -0.4696 -0.1266
  267MPD2     C 4035   4.144   1.980   0.307  0.1272 -0.5736  0.0495
  267MPD2    C1 4036   4.169   1.969   0.176 -0.4458  0.0102  1.0709
  267MPD2    C2 4037   4.068   1.981   0.085 -0.7958 -0.0345 -0.6931
  267MPD2    C3 4038   3.940   2.002   0.125 -0.2903 -0.5910 -0.4970
  267MPD2    C4 4039   3.921   2.021   0.260 -0.4863 -0.6193 -0.0137
  267MPD2    C5 4040   4.018   2.015   0.347  0.3364  0.3592 -0.1322
  267MPD2     H 4041   4.098   1.970  17.679 -3.3664 -0.6836 -1.3616
  267MPD2    H1 4042   3.819   2.045   0.290 -0.7752 -1.5325 -0.2742
  267MPD2    H2 4043   4.222   1.964   0.380 -2.1244 -2.7612  2.0158
  267MPD2    H3 4044   4.001   2.024   0.454 -0.6247 -1.6388 -0.1302
  267MPD2     N 4045   3.835   2.023   0.031 -0.1471 -0.7409  0.2256
  267MPD2    H5 4046   3.743   2.047   0.067  0.5816  0.3500  1.4188
  267MPD2    N1 4047   4.302   1.944   0.143 -0.1481 -0.6764 -0.1194
  267MPD2    H7 4048   4.361   1.932   0.225 -1.0494  3.3789  1.0968
  268TMC3    C1 4049   4.501   1.999   0.046 -0.7224 -0.5548  0.3032
  268TMC3    C2 4050   4.504   2.133   0.022  0.3863  0.4053 -0.5224
  268TMC3    C3 4051   4.550   2.211   0.128  0.1723 -0.3441 -0.3513
  268TMC3    C4 4052   4.535   1.944   0.167  0.8604 -0.4416  0.2871
  268TMC3    C5 4053   4.590   2.027   0.261 -0.1505  0.0757  0.4232
  268TMC3    C6 4054   4.593   2.164   0.253 -0.5954 -0.3050 -0.3911
  268TMC3     C 4055   4.363   1.950   0.018 -0.2747  0.2542  0.4045
  268TMC3     O 4056   4.317   2.002  17.611  0.0318  0.2247 -0.1696
  268TMC3     H 4057   4.449   2.175  17.637 -0.3736 -0.3288 -0.3929
  268TMC3    H1 4058   4.557   1.838   0.177  3.3258  0.0594  0.1719
  268TMC3    H2 4059   4.610   2.232   0.336 -1.3817 -0.1178 -0.3755
  268TMC3    C7 4060   4.560   1.972   0.386 -0.3007  0.7666 -0.0787
  268TMC3    C8 4061   4.531   2.360   0.121 -0.4435  0.6261 -0.0646
  268TMC3    O1 4062   4.474   1.886   0.388 -0.4742 -0.0308  0.0063
  268TMC3    O2 4063   4.599   2.434   0.194 -0.5270  0.5970  0.0097
  269MPD2     C 4064   3.692   0.674  15.618 -0.0720 -0.3535 -0.5450
  269MPD2    C1 4065   3.617   0.706  15.730 -0.7393  0.3524  0.3967
  269MPD2    C2 4066   3.631   0.834  15.778  0.0539  0.2397  0.2961
  269MPD2    C3 4067   3.713   0.933  15.724 -0.0831  0.0207 -0.2948
  269MPD2    C4 4068   3.788   0.903  15.612  0.1221 -0.4455  0.6546
  269MPD2    C5 4069   3.772   0.771  15.564  0.2517 -0.2165  0.3227
  269MPD2     H 4070   3.596   0.859  15.877 -1.3713 -1.2354  0.1514
  269MPD2    H1 4071   3.850   0.974  15.557 -2.0933  1.0483  0.0479
  269MPD2    H2 4072   3.705   0.579  15.567 -0.8329  0.1398 -1.6714
  269MPD2    H3 4073   3.832   0.753  15.475 -0.3943 -1.3667  0.1240
  269MPD2     N 4074   3.713   1.058  15.783 -0.6193 -0.2125 -0.1997
  269MPD2    H5 4075   3.663   1.068  15.871  0.9058  2.3676  0.3745
  269MPD2    N1 4076   3.533   0.603  15.788 -0.5331  0.8272  0.1186
  269MPD2    H7 4077   3.541   0.508  15.753 -1.8756  0.8805 -0.3262
  270TMC3    C1 4078   3.414   0.487  15.947 -0.0692 -0.4289  0.0599
  270TMC3    C2 4079   3.286   0.460  15.985  0.8291  0.0972 -0.4422
  270TMC3    C3 4080   3.249   0.329  15.978  0.2548  0.5379 -0.1053
  270TMC3    C4 4081   3.511   0.390  15.940 -0.2731 -0.4176  0.6868
  270TMC3    C5 4082   3.469   0.266  15.973  0.3766  0.5075  0.4225
  270TMC3    C6 4083   3.339   0.234  15.985  0.0373 -0.0724 -0.1305
  270TMC3     C 4084   3.447   0.614  15.889 -0.1801  1.1838 -0.1302
  270TMC3     O 4085   3.394   0.715  15.935  0.0656 -0.0904  0.0659
  270TMC3     H 4086   3.216   0.543  15.974  0.3515 -0.2261  0.1647
  270TMC3    H1 4087   3.616   0.414  15.946 -0.0012 -0.9783 -1.8491
  270TMC3    H2 4088   3.307   0.133  16.009  0.5126 -0.2813 -0.3763
  270TMC3    C7 4089   3.560   0.163  15.934  0.1282 -0.3389  1.0437
  270TMC3    C8 4090   3.127   0.299  15.910 -0.2552 -0.3306 -0.3581
  270TMC3    O1 4091   3.650   0.190  15.852 -1.0961  0.1520 -0.4887
  270TMC3    O2 4092   3.022   0.355  15.940  0.8507 -0.4481 -0.5814
  271MPD2     C 4093   2.811   0.403  14.050  0.0850 -0.2866  0.3453
  271MPD2    C1 4094   2.751   0.430  14.171 -0.2984  0.3153  0.0132
  271MPD2    C2 4095   2.649   0.527  14.174  0.1845 -0.0491 -1.0947
  271MPD2    C3 4096   2.619   0.608  14.065 -0.1793  0.7543 -0.1277
  271MPD2    C4 4097   2.684   0.579  13.945  0.4513  0.3575  0.2748
  271MPD2    C5 4098   2.777   0.478  13.940  0.3729  0.0915 -0.0128
  271MPD2     H 4099   2.600   0.539  14.270  3.1292 -1.6423  0.6110
  271MPD2    H1 4100   2.675   0.632  13.851 -0.9342 -1.5111 -0.6207
  271MPD2    H2 4101   2.875   0.320  14.024  1.4937  0.1637  2.3256
  271MPD2    H3 4102   2.824   0.453  13.846 -0.0632 -0.6649 -0.0256
  271MPD2     N 4103   2.517   0.705  14.051 -0.2285  0.1131  0.2475
  271MPD2    H5 4104   2.488   0.737  13.959 -2.5021  0.4710  1.0958
  271MPD2    N1 4105   2.767   0.352  14.291 -0.0420 -0.2132 -0.1212
  271MPD2    H7 4106   2.707   0.378  14.368  2.4114  0.1539  1.6788
  272TMC3    C1 4107   2.841   0.161  14.415 -0.4494  0.7428  0.1988
  272TMC3    C2 4108   2.937   0.070  14.424 -0.0621 -0.1164 -0.3537
  272TMC3    C3 4109   2.977   0.026  14.545  0.1638  0.0847 -0.2165
  272TMC3    C4 4110   2.766   0.201  14.521 -0.2813 -0.2491 -0.6181
  272TMC3    C5 4111   2.802   0.154  14.644 -0.3412 -0.3000 -0.3842
  272TMC3    C6 4112   2.915   0.071  14.659  1.0786  0.0898 -0.2123
  272TMC3     C 4113   2.846   0.245  14.297 -0.8153 -0.6220 -0.7325
  272TMC3     O 4114   2.943   0.239  14.223 -0.1544 -1.0442  0.1101
  272TMC3     H 4115   2.983   0.036  14.332  0.1930  0.6176 -0.4989
  272TMC3    H1 4116   2.678   0.264  14.526  1.0801  1.8099 -2.8204
  272TMC3    H2 4117   2.940   0.031  14.757 -0.1648 -1.6569 -0.5897
  272TMC3    C7 4118   2.733   0.202  14.755  0.7032  0.1761  0.5153
  272TMC3    C8 4119   3.123   0.024  14.549  0.1412  0.1144 -0.1939
  272TMC3    O1 4120   2.613   0.211  14.738  0.7082  0.0040  0.1121
  272TMC3    O2 4121   3.187   0.065  14.452 -0.2893 -0.8545 -0.0626
  273MPD2     C 4122   4.707   3.397  11.594 -0.8491  0.8633  0.4574
  273MPD2    C1 4123   0.064   3.485  11.665  0.3948  0.4448 -0.2065
  273MPD2    C2 4124   0.138   3.573  11.591  0.3516 -0.1493 -0.1636
  273MPD2    C3 4125   0.124   3.578  11.453 -0.1267 -0.8887 -0.1541
  273MPD2    C4 4126   0.033   3.495  11.389  0.4677  0.4118 -0.0935
  273MPD2    C5 4127   4.693   3.405  11.458 -0.1802 -0.9507 -0.1247
  273MPD2     H 4128   0.208   3.644  11.635 -2.0677  1.4283  1.0834
  273MPD2    H1 4129   0.012   3.516  11.285  0.2500  1.3854  0.1456
  273MPD2    H2 4130   4.648   3.322  11.645 -0.5093  0.4651  0.2584
  273MPD2    H3 4131   4.632   3.333  11.404 -0.5825 -0.5861 -0.1571
  273MPD2     N 4132   0.173   3.682  11.370 -0.1208  0.4198 -0.5186
  273MPD2    H5 4133   0.139   3.686  11.275 -1.8924 -1.7373  0.0316
  273MPD2    N1 4134   0.064   3.456  11.805 -0.2524  0.0804  0.4576
  273MPD2    H7 4135   0.003   3.380  11.834  1.0986 -0.7228  1.1692
  274TMC3    C1 4136   0.255   3.897  11.308 -0.2925  0.8382  0.5350
  274TMC3    C2 4137   0.196   3.882  11.182  0.6737 -0.4836  0.6896
  274TMC3    C3 4138   0.165   3.991  11.109 -0.2512 -0.8392  0.3514
  274TMC3    C4 4139   0.281   4.026  11.353  0.0248 -0.7960  0.0926
  274TMC3    C5 4140   0.237   4.133  11.275 -0.3059 -0.5530 -0.3575
  274TMC3    C6 4141   0.198   4.121  11.151  0.1904  0.0391  0.0474
  274TMC3     C 4142   0.249   3.793  11.412 -0.3354 -0.9995  0.2859
  274TMC3     O 4143   0.300   3.822  11.519 -0.4459 -0.4463 -0.2429
  274TMC3     H 4144   0.165   3.784  11.149  2.5131  0.4956 -4.0227
  274TMC3    H1 4145   0.295   4.039  11.460  0.8370  0.5761 -0.1748
  274TMC3    H2 4146   0.160   4.208  11.100  0.9006  0.3477  0.0520
  274TMC3    C7 4147   0.243   4.269  11.319  0.5541  0.1068  0.3120
  274TMC3    C8 4148   0.082   3.976  10.991 -0.3313  0.6198  0.2307
  274TMC3    O1 4149   0.144   4.331  11.285 -0.2216  0.2887  0.6455
  274TMC3    O2 4150   0.006   3.881  10.993 -0.5616 -0.4581 -0.0010
  275MPD2     C 4151   4.234   1.299  14.410  0.0374  0.1594 -0.1226
  275MPD2    C1 4152   4.239   1.242  14.529 -0.3432 -0.0439 -0.0695
  275MPD2    C2 4153   4.140   1.155  14.576 -0.5362  0.2473 -0.5065
  275MPD2    C3 4154   4.032   1.119  14.497  0.4223  0.3275  0.2832
  275MPD2    C4 4155   4.025   1.179  14.376  0.8757 -0.4231  0.0930
  275MPD2    C5 4156   4.128   1.255  14.330  0.0493 -0.0808 -0.3550
  275MPD2     H 4157   4.157   1.108  14.673  0.5520 -0.6401 -1.1319
  275MPD2    H1 4158   3.942   1.157  14.310  0.3364  0.9114  0.3135
  275MPD2    H2 4159   4.299   1.375  14.370 -1.1867  1.2898  0.0231
  275MPD2    H3 4160   4.121   1.301  14.232  0.6263  1.1330  0.1730
  275MPD2     N 4161   3.931   1.024  14.533 -0.4163 -0.4441 -0.7662
  275MPD2    H5 4162   3.869   0.978  14.467 -0.5868  1.2874 -1.8173
  275MPD2    N1 4163   4.337   1.265  14.626  0.1955 -0.1321 -0.7003
  275MPD2    H7 4164   4.314   1.212  14.709  0.7250  0.0985 -0.4074
  276TMC3    C1 4165   4.475   1.366  14.770 -0.4980  0.5199 -0.1368
  276TMC3    C2 4166   4.390   1.330  14.869  0.4967  0.7268 -0.2562
  276TMC3    C3 4167   4.436   1.316  14.996 -0.4104  0.8239  0.8879
  276TMC3    C4 4168   4.598   1.417  14.804  0.0324 -0.3993 -0.3324
  276TMC3    C5 4169   4.638   1.408  14.932  1.0761 -0.4329 -0.3317
  276TMC3    C6 4170   4.561   1.363  15.035 -0.0214  0.0585 -0.5188
  276TMC3     C 4171   4.432   1.357  14.632  0.6670 -0.2727 -0.6932
  276TMC3     O 4172   4.451   1.455  14.561  0.4600  0.6084 -0.0746
  276TMC3     H 4173   4.285   1.312  14.849 -0.2197  2.5156  1.8800
  276TMC3    H1 4174   4.668   1.460  14.733  0.2520  1.4759  1.0006
  276TMC3    H2 4175   4.595   1.354  15.138 -1.7199 -0.9053 -0.0453
  276TMC3    C7 4176   0.051   1.436  14.958 -0.1935  0.0463  0.6172
  276TMC3    C8 4177   4.342   1.261  15.090  0.6455 -0.0427 -0.0644
  276TMC3    O1 4178   0.139   1.360  14.911  0.2228  0.0652 -0.1215
  276TMC3    O2 4179   4.359   1.300  15.203  0.5519  0.2761 -0.1583
  277MPD2     C 4180   1.375   0.656  13.542 -0.2745 -0.3424 -0.7205
  277MPD2    C1 4181   1.247   0.710  13.529  0.8401  0.2839 -1.0655
  277MPD2    C2 4182   1.173   0.732  13.645  0.1084 -0.2156 -0.1685
  277MPD2    C3 4183   1.237   0.729  13.766 -0.3146  0.1767 -0.4321
  277MPD2    C4 4184   1.367   0.687  13.774  0.0836 -0.3152  0.2714
  277MPD2    C5 4185   1.440   0.649  13.661  0.1952  0.1899 -0.0531
  277MPD2     H 4186   1.074   0.777  13.639  0.5132  0.1793 -3.6331
  277MPD2    H1 4187   1.417   0.688  13.871  1.7539  0.8015 -0.5913
  277MPD2    H2 4188   1.435   0.624  13.458 -0.6019 -3.1978  0.1145
  277MPD2    H3 4189   1.538   0.605  13.669  0.9061  1.7856 -0.0784
  277MPD2     N 4190   1.154   0.759  13.878 -0.0920  1.1206  0.0099
  277MPD2    H5 4191   1.064   0.795  13.848 -0.8780 -0.2919  0.6650
  277MPD2    N1 4192   1.194   0.721  13.398  0.0896 -0.2002  0.5087
  277MPD2    H7 4193   1.271   0.722  13.331  1.0995 -0.8233  1.6409
  278TMC3    C1 4194   1.078   0.749  14.111 -0.4082  0.0020  0.1320
  278TMC3    C2 4195   1.057   0.632  14.178  0.0962  0.8072  0.5406
  278TMC3    C3 4196   0.933   0.595  14.209 -1.0133  0.5452 -0.2854
  278TMC3    C4 4197   0.969   0.824  14.076  0.4845 -0.4359  0.3443
  278TMC3    C5 4198   0.841   0.786  14.110 -0.5113  0.7292 -0.3608
  278TMC3    C6 4199   0.823   0.676  14.190 -0.4103 -0.0827  0.3343
  278TMC3     C 4200   1.188   0.741  14.018  0.7990  0.1070  0.1219
  278TMC3     O 4201   1.295   0.709  14.065  0.0837 -0.0959 -0.4178
  278TMC3     H 4202   1.135   0.570  14.222  2.0275  1.5510 -1.8292
  278TMC3    H1 4203   0.978   0.909  14.010 -2.6445 -0.1691  0.2319
  278TMC3    H2 4204   0.726   0.630  14.202  0.3881 -1.8855 -0.1080
  278TMC3    C7 4205   0.727   0.847  14.040  0.2376  0.5059  0.2493
  278TMC3    C8 4206   0.915   0.448  14.198 -0.4948 -0.6173 -0.8894
  278TMC3    O1 4207   0.765   0.906  13.940 -0.1254  0.1176 -0.3486
  278TMC3    O2 4208   0.827   0.402  14.269 -0.4264 -0.2175 -0.6311
  279MPD2     C 4209   0.151   0.977  17.507 -0.6808 -0.0163  0.4196
  279MPD2    C1 4210   0.183   0.839  17.512  0.3466  0.1563  0.4556
  279MPD2    C2 4211   0.300   0.796  17.448  0.0713  0.0939  0.2439
  279MPD2    C3 4212   0.373   0.873  17.365 -0.1693  0.1859 -0.5683
  279MPD2    C4 4213   0.344   1.008  17.370 -0.2639  0.1992 -0.0391
  279MPD2    C5 4214   0.236   1.057  17.442  0.5453 -0.0003  0.2581
  279MPD2     H 4215   0.336   0.698  17.477 -0.0604  0.2733  1.0058
  279MPD2    H1 4216   0.407   1.083  17.323 -1.0905  0.3947 -0.8227
  279MPD2    H2 4217   0.072   1.024  17.564  0.3949  1.9570  0.2946
  279MPD2    H3 4218   0.213   1.161  17.422  0.2848 -0.1210 -0.0665
  279MPD2     N 4219   0.494   0.836  17.304 -0.2815 -0.4203  0.1768
  279MPD2    H5 4220   0.530   0.902  17.235 -0.0309  0.7739  1.4441
  279MPD2    N1 4221   0.095   0.764  17.596 -0.0809  0.3885  0.6351
  279MPD2    H7 4222   0.027   0.817  17.650 -1.4124  0.2422 -0.9082
  280TMC3    C1 4223   4.720   0.585   0.004 -1.0248  0.2086 -0.4230
  280TMC3    C2 4224   4.695   0.447   0.002 -0.7089 -0.5942  0.9083
  280TMC3    C3 4225   4.638   0.397   0.117 -0.0614 -0.3654  0.0780
  280TMC3    C4 4226   4.695   0.662   0.118  0.6218  0.2347 -0.0182
  280TMC3    C5 4227   4.630   0.605   0.223 -0.3375 -0.2362 -0.0411
  280TMC3    C6 4228   4.601   0.471   0.228  1.0211  0.2270 -0.4762
  280TMC3     C 4229   0.099   0.627  17.605 -0.2712  0.1453 -0.8577
  280TMC3     O 4230   0.147   0.542  17.529 -0.2107  0.9407 -0.6458
  280TMC3     H 4231   4.714   0.388  17.612 -1.2402  0.0136  0.3783
  280TMC3    H1 4232   0.013   0.761   0.122  1.3555 -0.0534 -0.4348
  280TMC3    H2 4233   4.537   0.434   0.308  1.6544 -0.3484 -0.2420
  280TMC3    C7 4234   4.570   0.695   0.316 -0.2041  0.0788  0.0357
  280TMC3    C8 4235   4.629   0.254   0.132 -0.4417  0.4845  0.5208
  280TMC3    O1 4236   4.541   0.642   0.424  0.8244 -0.3722 -0.3077
  280TMC3    O2 4237   4.634   0.186   0.030  0.2207 -1.0236 -0.5785
  281TMC3    C1 4238   3.909   0.637  13.302  0.3828  0.6614  0.0702
  281TMC3    C2 4239   4.039   0.647  13.262 -0.1079  0.9187  0.0649
  281TMC3    C3 4240   4.077   0.572  13.155  0.3925 -0.4200  0.2162
  281TMC3    C4 4241   3.817   0.540  13.249  0.2859 -0.6119  0.2514
  281TMC3    C5 4242   3.868   0.455  13.162  0.8420  0.1558 -0.2444
  281TMC3    C6 4243   3.993   0.469  13.112  0.1637  0.1647  0.2680
  281TMC3     C 4244   3.860   0.717  13.415  0.2174  0.8019  0.5258
  281TMC3     O 4245   3.790   0.650  13.494 -0.8594 -0.1382 -0.3360
  281TMC3     H 4246   4.107   0.714  13.314 -1.4081  0.0612  2.8799
  281TMC3    H1 4247   3.713   0.548  13.276  0.4020 -2.1796  1.1294
  281TMC3    H2 4248   4.042   0.393  13.053  0.0998  0.9182 -0.7542
  281TMC3    C7 4249   3.822   0.319  13.154  0.0720  0.4980  0.3940
  281TMC3    C8 4250   4.211   0.575  13.090 -0.2238  0.2535  0.1911
  281TMC3    O1 4251   3.877   0.244  13.074  0.5818 -0.5915 -0.0661
  281TMC3    O2 4252   4.256   0.471  13.045  0.3291 -0.3960  0.0281
  282MPD2     C 4253   0.726   2.683  15.335  0.0862 -0.1829  0.1527
  282MPD2    C1 4254   0.694   2.554  15.362 -0.2041  0.3575 -0.1918
  282MPD2    C2 4255   0.576   2.498  15.299 -0.9665 -0.3351 -0.0584
  282MPD2    C3 4256   0.517   2.563  15.198  0.2381  0.4091 -0.1685
  282MPD2    C4 4257   0.553   2.696  15.175 -0.2464 -1.1794 -0.0380
  282MPD2    C5 4258   0.650   2.749  15.249 -0.1839  0.0058 -0.2683
  282MPD2     H 4259   0.544   2.401  15.334  0.9375 -1.0165 -0.1872
  282MPD2    H1 4260   0.515   2.765  15.101 -3.4454 -1.8354  1.0006
  282MPD2    H2 4261   0.808   2.735  15.384 -0.4286  0.4518  0.3476
  282MPD2    H3 4262   0.678   2.852  15.233 -0.3201  0.4174  2.0619
  282MPD2     N 4263   0.425   2.499  15.113  0.0704 -0.4157  0.1708
  282MPD2    H5 4264   0.408   2.402  15.137  2.6961 -1.5051 -2.3370
  282MPD2    N1 4265   0.758   2.486  15.461 -0.3125  0.7028 -0.1547
  282MPD2    H7 4266   0.699   2.416  15.504 -0.2223  0.2293 -0.7994
  283TMC3    C1 4267   0.926   2.441  15.623  0.1224 -0.4244  0.7102
  283TMC3    C2 4268   1.044   2.481  15.684 -0.2326  0.2867  0.6541
  283TMC3    C3 4269   1.095   2.401  15.784 -0.6751  0.2356 -0.3765
  283TMC3    C4 4270   0.859   2.328  15.656  0.2666  0.0014  0.4399
  283TMC3    C5 4271   0.905   2.260  15.759 -0.7632 -0.0532  0.0506
  283TMC3    C6 4272   1.023   2.287  15.827  0.2668  0.0421  0.5639
  283TMC3     C 4273   0.882   2.511  15.506 -0.1376 -0.2319  0.9878
  283TMC3     O 4274   0.969   2.585  15.462  0.0060 -0.1699  0.4384
  283TMC3     H 4275   1.107   2.550  15.630 -1.8774  0.6585 -0.8113
  283TMC3    H1 4276   0.766   2.309  15.602  0.5113  1.3439 -0.4739
  283TMC3    H2 4277   1.047   2.222  15.910  1.3043 -2.9705 -2.1121
  283TMC3    C7 4278   0.806   2.168  15.822 -0.4696 -0.4278 -0.1057
  283TMC3    C8 4279   1.201   2.453  15.871  0.6993 -0.2552  0.2648
  283TMC3    O1 4280   0.796   2.151  15.941  0.6827  0.0233  0.1397
  283TMC3    O2 4281   1.206   2.409  15.985  0.8271 -0.0425  0.3186
  284MPD2     C 4282   4.556   2.067  11.882  0.5191  0.7235 -0.8402
  284MPD2    C1 4283   4.691   2.071  11.910 -0.0882  0.2308 -0.4236
  284MPD2    C2 4284   0.010   1.998  12.021 -0.0040 -0.5613  0.1651
  284MPD2    C3 4285   4.641   1.934  12.098 -0.8203 -0.2678  0.2915
  284MPD2    C4 4286   4.502   1.938  12.076  0.5510  0.1828 -0.2596
  284MPD2    C5 4287   4.468   2.011  11.964  0.0234 -0.4534  0.4068
  284MPD2     H 4288   0.115   1.984  12.044  0.4474 -0.0421 -1.5078
  284MPD2    H1 4289   4.429   1.881  12.134 -0.9789 -1.3447 -3.7086
  284MPD2    H2 4290   4.504   2.119  11.803  0.2401  0.4079 -0.8624
  284MPD2    H3 4291   4.362   2.020  11.944  0.0198  1.7216  1.3704
  284MPD2     N 4292   4.702   1.842  12.189 -0.3490 -0.6694  0.5787
  284MPD2    H5 4293   0.070   1.878  12.214 -0.1518 -0.7457 -0.0479
  284MPD2    N1 4294   0.049   2.121  11.809 -0.3150  0.0685 -0.7898
  284MPD2    H7 4295   0.010   2.157  11.723  0.7009 -1.0269 -1.7095
  285TMC3    C1 4296   0.252   2.201  11.718 -0.1238  1.1817  0.1686
  285TMC3    C2 4297   0.239   2.121  11.604 -0.2901 -0.3311  0.3392
  285TMC3    C3 4298   0.320   2.140  11.494 -0.9505  0.2805  0.6507
  285TMC3    C4 4299   0.352   2.295  11.716 -0.3819 -0.4384 -0.5316
  285TMC3    C5 4300   0.428   2.312  11.602 -0.2628  0.1061 -0.6878
  285TMC3    C6 4301   0.408   2.245  11.488 -0.0780 -0.1546  0.4422
  285TMC3     C 4302   0.181   2.161  11.836  0.7423  0.0771 -0.2816
  285TMC3     O 4303   0.239   2.175  11.944  0.3690 -0.3037 -0.0738
  285TMC3     H 4304   0.163   2.045  11.600 -0.1112 -0.5710  1.4960
  285TMC3    H1 4305   0.369   2.342  11.813 -1.0167  0.8440 -1.0351
  285TMC3    H2 4306   0.474   2.261  11.403 -3.4656  1.6624 -1.8650
  285TMC3    C7 4307   0.462   2.449  11.572  0.4096 -0.1240  0.5639
  285TMC3    C8 4308   0.328   2.033  11.394 -0.0632  0.2807 -1.2100
  285TMC3    O1 4309   0.527   2.517  11.653 -0.3362  0.0871 -0.4543
  285TMC3    O2 4310   0.238   1.951  11.406  0.6376 -0.6479  0.0196
  286MPD2     C 4311   4.682   0.385   1.944  0.5111  0.1505  0.7578
  286MPD2    C1 4312   4.627   0.344   1.827  0.1794  0.5230  0.5003
  286MPD2    C2 4313   4.680   0.243   1.752 -0.1221 -0.2305  0.6692
  286MPD2    C3 4314   0.066   0.176   1.791 -0.1041  0.4084  0.2927
  286MPD2    C4 4315   0.132   0.222   1.902 -0.2323  0.4364 -0.2789
  286MPD2    C5 4316   0.076   0.322   1.979  0.3457 -0.0921 -0.1713
  286MPD2     H 4317   4.620   0.216   1.666 -0.6439 -1.3755  1.3932
  286MPD2    H1 4318   0.228   0.185   1.936 -2.1557 -1.1122  3.5323
  286MPD2    H2 4319   4.643   0.456   2.017 -1.1190 -0.5142  0.5348
  286MPD2    H3 4320   0.119   0.361   2.071 -0.6943 -1.2103  0.7827
  286MPD2     N 4321   0.124   0.075   1.721 -0.2417  0.8569  0.1174
  286MPD2    H5 4322   0.202   0.032   1.770 -1.9509 -0.8845  1.3435
  286MPD2    N1 4323   4.506   0.397   1.777 -0.0883 -0.1473 -0.3745
  286MPD2    H7 4324   4.469   0.365   1.688 -0.0424 -1.3514  0.0377
  287TMC3    C1 4325   0.152   4.642   1.540 -0.1673  0.1862  0.3501
  287TMC3    C2 4326   0.096   4.588   1.429 -1.3425 -0.0290  0.3565
  287TMC3    C3 4327   0.161   4.490   1.362 -0.3933 -0.2414 -0.9145
  287TMC3    C4 4328   0.282   4.617   1.579 -0.7652  0.5838 -0.0282
  287TMC3    C5 4329   0.346   4.527   1.499  0.2057 -0.1721  0.0486
  287TMC3    C6 4330   0.289   4.454   1.396 -0.0261 -0.2852 -0.2703
  287TMC3     C 4331   0.080   0.028   1.598 -0.1616 -0.6127  0.6336
  287TMC3     O 4332   4.712   0.068   1.532  0.2099 -0.8891 -0.4613
  287TMC3     H 4333   4.716   4.607   1.407 -0.7227  3.5444  0.4823
  287TMC3    H1 4334   0.332   4.666   1.661  0.1143  1.5894 -1.1660
  287TMC3    H2 4335   0.348   4.378   1.346  0.2872  0.5486 -1.1925
  287TMC3    C7 4336   0.484   4.498   1.533 -0.2583 -0.3475 -0.1430
  287TMC3    C8 4337   0.110   4.438   1.239 -0.6249  0.4255 -0.1212
  287TMC3    O1 4338   0.522   4.498   1.649 -0.0114 -0.1662 -0.8107
  287TMC3    O2 4339   0.156   4.330   1.201 -0.0658 -0.3677  0.5023
  288TMC3    C1 4340   1.089   0.307  14.536  0.2050 -0.0799  0.1087
  288TMC3    C2 4341   1.049   0.254  14.658 -0.0974  0.3164  0.3191
  288TMC3    C3 4342   0.991   0.332  14.750 -0.1214  0.1319  0.3700
  288TMC3    C4 4343   1.079   0.438  14.509 -0.0270 -0.6453 -0.3973
  288TMC3    C5 4344   1.032   0.514  14.614 -0.3458 -0.6406 -0.6291
  288TMC3    C6 4345   0.986   0.470  14.730  0.2247  0.1174  0.4709
  288TMC3     C 4346   1.151   0.215  14.437  0.0235 -0.4053 -0.2414
  288TMC3     O 4347   1.096   0.103  14.438  1.1360 -0.3332 -0.5770
  288TMC3     H 4348   1.076   0.150  14.678 -0.3916 -0.2819 -2.4389
  288TMC3    H1 4349   1.099   0.482  14.412  0.6235 -0.0748 -0.0080
  288TMC3    H2 4350   0.957   0.538  14.809  1.0382  2.8637 -1.5524
  288TMC3    C7 4351   1.021   0.658  14.587  0.2859 -0.5308 -0.2366
  288TMC3    C8 4352   1.003   0.291  14.889 -0.0419 -0.1212  1.1475
  288TMC3    O1 4353   0.920   0.707  14.640  0.0261  0.3331  0.4814
  288TMC3    O2 4354   1.017   0.375  14.976 -0.3810  0.0014  0.7801
  289MPD2     C 4355   1.592   4.185  14.520  0.2872 -0.5410 -0.0692
  289MPD2    C1 4356   1.522   4.306  14.507 -0.0632  0.1120 -0.5724
  289MPD2    C2 4357   1.383   4.296  14.489 -0.6249  0.0190  0.0173
  289MPD2    C3 4358   1.318   4.175  14.493  0.1079 -0.7181 -1.0534
  289MPD2    C4 4359   1.388   4.060  14.499 -0.0669  0.0882  0.7823
  289MPD2    C5 4360   1.525   4.066  14.509  0.6151  0.1702  0.3449
  289MPD2     H 4361   1.327   4.386  14.469  0.9439  0.1412 -3.9667
  289MPD2    H1 4362   1.339   3.964  14.491  0.1636  0.0672 -0.3082
  289MPD2    H2 4363   1.700   4.190  14.526  0.1453  0.7354  1.4127
  289MPD2    H3 4364   1.579   3.972  14.511  1.0110  0.3671 -0.7784
  289MPD2     N 4365   1.178   4.162  14.476  0.0014  0.9252 -0.6437
  289MPD2    H5 4366   1.139   4.069  14.467  1.2414  0.4504 -1.0386
  289MPD2    N1 4367   1.583   4.435  14.511 -0.5595 -0.3240  0.1953
  289MPD2    H7 4368   1.683   4.426  14.530  0.1122  0.0794 -3.1078
  290TMC3    C1 4369   0.962   4.200  14.400 -0.4456 -0.3042  0.2619
  290TMC3    C2 4370   0.855   4.289  14.394 -0.3168 -0.0364 -0.2149
  290TMC3    C3 4371   0.756   4.261  14.306 -0.1227 -0.8155  0.4400
  290TMC3    C4 4372   0.977   4.089  14.325  0.5315  0.3324  0.9760
  290TMC3    C5 4373   0.868   4.065  14.235  0.2214  0.1351 -0.1916
  290TMC3    C6 4374   0.765   4.158  14.214 -0.5413  1.0314  0.3445
  290TMC3     C 4375   1.084   4.260  14.454  0.2165 -0.5225 -0.1583
  290TMC3     O 4376   1.090   4.382  14.474 -0.3541  0.1046 -0.0180
  290TMC3     H 4377   0.859   4.371  14.464  2.6795 -1.8988  1.8120
  290TMC3    H1 4378   1.059   4.019  14.331  0.3916 -0.0350 -1.2547
  290TMC3    H2 4379   0.685   4.142  14.143 -3.0685 -0.2018  3.4506
  290TMC3    C7 4380   0.813   3.930  14.226  0.7732 -0.0584 -0.4212
  290TMC3    C8 4381   0.646   4.357  14.286  0.2185  0.0972  0.6641
  290TMC3    O1 4382   0.725   3.907  14.141  0.1927  0.5575  0.2358
  290TMC3    O2 4383   0.547   4.315  14.230  0.0509  0.1417 -0.3976
  291MPD2     C 4384   0.281   4.275   0.379 -0.1628  0.0178  0.3667
  291MPD2    C1 4385   0.387   4.187   0.395 -0.5679  0.1473  0.0335
  291MPD2    C2 4386   0.514   4.239   0.384  0.0719  1.0065 -0.8609
  291MPD2    C3 4387   0.541   4.368   0.346  0.9704 -0.3548  0.5809
  291MPD2    C4 4388   0.436   4.451   0.322  0.0102  0.3146 -0.6390
  291MPD2    C5 4389   0.309   4.405   0.334  0.5481 -0.2968 -0.2225
  291MPD2     H 4390   0.592   4.166   0.401 -2.1430 -0.7841  1.6261
  291MPD2    H1 4391   0.461   4.553   0.293  1.0604  0.7429  1.7650
  291MPD2    H2 4392   0.177   4.245   0.385  0.3462 -1.5558  1.4109
  291MPD2    H3 4393   0.226   4.472   0.311  0.0743 -1.8069 -2.9040
  291MPD2     N 4394   0.671   4.409   0.317  0.5014  0.3076  0.6371
  291MPD2    H5 4395   0.678   4.499   0.271 -0.2047 -0.3727 -0.8001
  291MPD2    N1 4396   0.370   4.046   0.416 -0.1285  0.2596  0.1782
  291MPD2    H7 4397   0.459   3.999   0.423 -1.1620 -2.1277 -3.0445
  292TMC3    C1 4398   0.261   3.846   0.470  0.1016 -0.4110  0.6129
  292TMC3    C2 4399   0.379   3.816   0.536 -0.0078 -0.6079  0.1274
  292TMC3    C3 4400   0.392   3.685   0.572 -0.4572  0.0717 -0.4998
  292TMC3    C4 4401   0.159   3.758   0.444  0.0371 -0.6029 -0.3225
  292TMC3    C5 4402   0.183   3.631   0.468  0.1102 -0.3366 -0.2204
  292TMC3    C6 4403   0.291   3.591   0.536  0.5145  0.6848 -0.1717
  292TMC3     C 4404   0.249   3.982   0.411  0.2502 -1.0187  0.0369
  292TMC3     O 4405   0.142   4.012   0.357  0.5884 -0.1472  0.0112
  292TMC3     H 4406   0.444   3.891   0.580 -2.1149 -0.4787  3.0817
  292TMC3    H1 4407   0.069   3.791   0.395 -0.4467  2.4940  2.6059
  292TMC3    H2 4408   0.299   3.488   0.568  0.6863  1.1532  1.2926
  292TMC3    C7 4409   0.084   3.531   0.434  0.2738  1.0508 -0.0689
  292TMC3    C8 4410   0.482   3.653   0.676 -0.2708  0.5017 -0.6841
  292TMC3    O1 4411   4.693   3.570   0.451 -0.1557  0.1511  0.0877
  292TMC3    O2 4412   0.549   3.752   0.713  0.8447  0.5291  0.2809
  293MPD2     C 4413   2.605   0.601  12.523 -0.3016  0.4476  0.1316
  293MPD2    C1 4414   2.519   0.518  12.592 -0.1329  0.1123 -0.2744
  293MPD2    C2 4415   2.546   0.490  12.724  0.0791 -0.3290  0.1825
  293MPD2    C3 4416   2.645   0.558  12.790  0.1929  0.1800 -0.5035
  293MPD2    C4 4417   2.731   0.637  12.725 -0.4434 -0.1645 -0.2143
  293MPD2    C5 4418   2.721   0.659  12.589  0.2694  0.2550 -0.2968
  293MPD2     H 4419   2.488   0.418  12.779  0.3312 -2.2379 -2.0439
  293MPD2    H1 4420   2.816   0.677  12.779 -0.3443  0.7171 -1.0222
  293MPD2    H2 4421   2.596   0.620  12.416 -1.2140 -2.1100 -0.2372
  293MPD2    H3 4422   2.793   0.717  12.533  0.9073  1.5396  1.8565
  293MPD2     N 4423   2.660   0.536  12.928 -0.4618  0.2133 -0.4440
  293MPD2    H5 4424   2.608   0.457  12.966 -0.7238  2.1271  3.1423
  293MPD2    N1 4425   2.416   0.453  12.509 -0.0327 -0.0808 -0.1024
  293MPD2    H7 4426   2.420   0.481  12.412 -0.3475 -0.1366 -0.1322
  294TMC3    C1 4427   2.227   0.345  12.437 -0.1391  0.0069  0.0009
  294TMC3    C2 4428   2.119   0.254  12.455  0.1455  0.4053  0.3711
  294TMC3    C3 4429   2.025   0.236  12.355  0.1562 -0.4492  0.0325
  294TMC3    C4 4430   2.235   0.425  12.324  0.2989 -0.3927 -1.0682
  294TMC3    C5 4431   2.147   0.390  12.224  0.8494  0.4042 -0.2781
  294TMC3    C6 4432   2.045   0.297  12.233 -0.6216  0.4394  0.1045
  294TMC3     C 4433   2.310   0.379  12.552 -0.5639 -0.2499 -0.0014
  294TMC3     O 4434   2.305   0.302  12.647  0.0075 -0.4259  0.0406
  294TMC3     H 4435   2.116   0.198  12.548 -3.3939 -0.7715 -0.4835
  294TMC3    H1 4436   2.303   0.506  12.298  0.7033  0.3290  2.2743
  294TMC3    H2 4437   1.996   0.268  12.141  0.0955 -0.2729 -0.0559
  294TMC3    C7 4438   2.158   0.463  12.092 -1.0135  0.2375 -0.1965
  294TMC3    C8 4439   1.977   0.101  12.344 -0.3639  0.0409 -0.4849
  294TMC3    O1 4440   2.048   0.477  12.040  0.1650 -0.2558 -0.0699
  294TMC3    O2 4441   2.048   0.020  12.283 -0.3125  0.0426  0.2889
  295MPD2     C 4442   1.935   3.577   0.915 -0.3349 -0.1367 -0.6432
  295MPD2    C1 4443   2.047   3.597   0.841 -0.8960 -0.5235 -0.3698
  295MPD2    C2 4444   2.162   3.549   0.889 -0.6216  0.0660 -0.3130
  295MPD2    C3 4445   2.178   3.489   1.010 -0.2565  0.1765 -0.1158
  295MPD2    C4 4446   2.063   3.468   1.087 -1.2405 -0.0889  0.0859
  295MPD2    C5 4447   1.946   3.512   1.037 -0.2916  0.5720 -0.0436
  295MPD2     H 4448   2.245   3.576   0.824  0.5366 -0.4998  0.9149
  295MPD2    H1 4449   2.068   3.433   1.190 -0.4036 -0.6685 -0.1477
  295MPD2    H2 4450   1.836   3.602   0.881 -0.3555 -1.4868 -1.5891
  295MPD2    H3 4451   1.858   3.488   1.095 -0.2184  3.4827  1.2905
  295MPD2     N 4452   2.301   3.446   1.069 -0.4913  0.5702  0.3085
  295MPD2    H5 4453   2.299   3.410   1.164 -0.1350 -2.4539 -0.8173
  295MPD2    N1 4454   2.046   3.663   0.718  0.2368 -0.1794 -0.8086
  295MPD2    H7 4455   2.140   3.673   0.681 -0.3043  0.4221 -1.9955
  296TMC3    C1 4456   2.529   3.468   1.118 -0.4697 -0.3906 -0.1369
  296TMC3    C2 4457   2.627   3.562   1.123  0.1569  0.4059  0.7755
  296TMC3    C3 4458   2.746   3.524   1.185 -0.0207  0.5705  0.0179
  296TMC3    C4 4459   2.544   3.347   1.177  0.1236 -0.7639  0.8720
  296TMC3    C5 4460   2.663   3.317   1.234  0.4201 -0.2254 -0.3716
  296TMC3    C6 4461   2.767   3.401   1.234  0.7348  0.0592 -0.2408
  296TMC3     C 4462   2.424   3.488   1.019 -0.1509  0.1045  0.1261
  296TMC3     O 4463   2.453   3.559   0.922 -0.3861  0.3305 -0.7677
  296TMC3     H 4464   2.597   3.662   1.093 -1.3835 -0.5915 -1.0250
  296TMC3    H1 4465   2.483   3.261   1.154  1.8896 -1.6294 -0.6232
  296TMC3    H2 4466   2.868   3.376   1.262  0.6753 -2.1507 -2.0082
  296TMC3    C7 4467   2.689   3.180   1.277 -0.2489  0.1199 -0.3890
  296TMC3    C8 4468   2.854   3.621   1.186  0.1738 -0.0325 -0.0771
  296TMC3    O1 4469   2.804   3.133   1.262  0.3565 -0.4111  0.4873
  296TMC3    O2 4470   2.829   3.726   1.126 -0.2184 -0.0903  0.6388
  297MPD2     C 4471   0.034   0.982  16.681  0.6489  0.0343  0.3812
  297MPD2    C1 4472   0.001   1.068  16.578  0.5716  0.3652 -0.0763
  297MPD2    C2 4473   0.096   1.145  16.514 -0.9377  0.0071 -0.3142
  297MPD2    C3 4474   0.224   1.145  16.547  0.0720  0.7173  0.0134
  297MPD2    C4 4475   0.255   1.062  16.657 -0.5219 -0.7207  0.1260
  297MPD2    C5 4476   0.160   0.988  16.725 -0.5161 -0.0343  0.1082
  297MPD2     H 4477   0.066   1.200  16.425 -1.1469 -3.1510 -2.1860
  297MPD2    H1 4478   0.351   1.065  16.707 -0.8175 -2.2841  0.8025
  297MPD2    H2 4479   4.694   0.912  16.732  0.5916 -1.8206 -2.2140
  297MPD2    H3 4480   0.186   0.928  16.811 -1.1481 -1.4238 -0.6761
  297MPD2     N 4481   0.307   1.243  16.491 -0.1931 -0.3743 -0.0797
  297MPD2    H5 4482   0.283   1.303  16.413 -0.4825  0.3910  0.5892
  297MPD2    N1 4483   4.593   1.071  16.521  0.1579  0.2072 -0.8271
  297MPD2    H7 4484   4.572   1.141  16.451 -1.5768 -0.6101 -1.1234
  298TMC3    C1 4485   4.377   0.988  16.474  0.0207 -0.5613 -0.2890
  298TMC3    C2 4486   4.411   1.015  16.344  0.5581 -0.3028  0.0365
  298TMC3    C3 4487   4.316   1.082  16.265  0.4699  1.2915  0.2116
  298TMC3    C4 4488   4.255   1.027  16.523  0.3600  0.7257 -1.1325
  298TMC3    C5 4489   4.164   1.094  16.444  0.4254  0.0829 -0.2539
  298TMC3    C6 4490   4.193   1.125  16.314 -0.0778 -0.2918 -0.1582
  298TMC3     C 4491   4.490   0.992  16.570  0.1302  0.8875  0.6683
  298TMC3     O 4492   4.469   0.927  16.669  0.4991 -0.4545  0.6767
  298TMC3     H 4493   4.503   0.972  16.305  0.2337  1.4521 -2.6764
  298TMC3    H1 4494   4.233   1.016  16.628 -3.5044  0.6990 -1.9381
  298TMC3    H2 4495   4.127   1.177  16.245  0.1722  0.3467  0.0872
  298TMC3    C7 4496   4.059   1.160  16.514 -0.8361  0.0308  0.9952
  298TMC3    C8 4497   4.362   1.147  16.140  0.1223 -0.0573 -0.3494
  298TMC3    O1 4498   4.079   1.185  16.636  0.6080  0.9466 -0.2644
  298TMC3    O2 4499   4.300   1.252  16.111 -0.2949 -0.0479 -0.3264
  299MPD2     C 4500   1.518   0.611  11.171  0.0852  0.5944  0.0340
  299MPD2    C1 4501   1.494   0.690  11.063 -0.8138 -0.5952  0.7879
  299MPD2    C2 4502   1.398   0.645  10.971  0.1791 -0.1103  0.2193
  299MPD2    C3 4503   1.333   0.522  10.984  0.2288  0.3277  0.6160
  299MPD2    C4 4504   1.349   0.448  11.097  0.4328  0.2182 -0.4933
  299MPD2    C5 4505   1.451   0.493  11.185 -0.0582 -0.6204 -0.1510
  299MPD2     H 4506   1.381   0.707  10.883 -0.7863  0.8389  1.0716
  299MPD2    H1 4507   1.300   0.354  11.115  1.3712 -0.6686 -2.5428
  299MPD2    H2 4508   1.585   0.640  11.250 -1.1751  1.9676  0.5980
  299MPD2    H3 4509   1.461   0.436  11.277 -0.5101 -0.7979 -0.2087
  299MPD2     N 4510   1.214   0.494  10.906  0.0794  0.2628 -0.0760
  299MPD2    H5 4511   1.164   0.415  10.944 -1.1785 -0.9670 -4.2765
  299MPD2    N1 4512   1.551   0.823  11.072  0.0982 -0.2266 -0.4895
  299MPD2    H7 4513   1.600   0.847  11.158 -3.5504  0.4510  1.3785
  300TMC3    C1 4514   1.041   0.532  10.746 -0.0744  0.4509  0.4455
  300TMC3    C2 4515   1.017   0.603  10.627 -0.1760 -0.4863  0.7360
  300TMC3    C3 4516   0.905   0.690  10.623 -1.1018 -1.0438 -0.4355
  300TMC3    C4 4517   0.949   0.530  10.849  0.3887 -0.4594  0.0631
  300TMC3    C5 4518   0.845   0.623  10.836  0.4162  0.7444  0.1569
  300TMC3    C6 4519   0.808   0.689  10.725 -0.1228 -0.3624 -0.3075
  300TMC3     C 4520   1.178   0.554  10.789  0.6513  0.1336 -0.6686
  300TMC3     O 4521   1.245   0.620  10.716 -0.2754 -0.0471 -0.1899
  300TMC3     H 4522   1.092   0.615  10.550 -0.5323 -0.5053  0.3907
  300TMC3    H1 4523   0.968   0.477  10.941 -0.1467 -0.9593 -0.1160
  300TMC3    H2 4524   0.728   0.761  10.711 -2.0795 -2.0228  2.3055
  300TMC3    C7 4525   0.762   0.646  10.953  0.1676  0.1819  0.2622
  300TMC3    C8 4526   0.932   0.823  10.566  0.0127  0.5295  1.0818
  300TMC3    O1 4527   0.779   0.569  11.044 -0.3116 -0.0459 -0.2291
  300TMC3    O2 4528   0.832   0.886  10.543 -0.1309  0.4540  0.1321
  301MPD2     C 4529   2.878   2.262   1.226 -0.4907 -0.1139 -0.1670
  301MPD2    C1 4530   2.740   2.245   1.250 -0.3112 -0.4327 -0.2301
  301MPD2    C2 4531   2.683   2.121   1.250 -0.4205  0.3487  0.4546
  301MPD2    C3 4532   2.760   2.006   1.229  0.4565  0.2571  0.3808
  301MPD2    C4 4533   2.899   2.018   1.204 -0.1258 -0.3781 -0.0868
  301MPD2    C5 4534   2.956   2.142   1.206 -0.3713 -1.0179  0.0041
  301MPD2     H 4535   2.578   2.111   1.276 -0.4253  2.7528  1.2632
  301MPD2    H1 4536   2.959   1.934   1.174 -0.4787 -0.7841  0.3602
  301MPD2    H2 4537   2.933   2.355   1.238 -0.3013 -0.1315 -0.8972
  301MPD2    H3 4538   3.062   2.158   1.188 -0.8268  0.3207 -1.5386
  301MPD2     N 4539   2.702   1.873   1.223 -0.1018  0.0624  0.0310
  301MPD2    H5 4540   2.768   1.796   1.231 -0.0448  0.0518 -0.5223
  301MPD2    N1 4541   2.655   2.353   1.287 -0.5630 -0.2030  0.2900
  301MPD2    H7 4542   2.555   2.338   1.297 -0.2983 -1.7229  0.6921
  302TMC3    C1 4543   2.533   1.712   1.245 -0.2767  0.5003 -0.2098
  302TMC3    C2 4544   2.625   1.613   1.221 -0.4371  0.0218  0.1313
  302TMC3    C3 4545   2.595   1.479   1.257  0.4586 -0.4283 -0.2317
  302TMC3    C4 4546   2.409   1.687   1.301  0.0393  0.0092 -0.2324
  302TMC3    C5 4547   2.383   1.560   1.339  0.3714 -0.1906  0.3785
  302TMC3    C6 4548   2.475   1.457   1.319  0.3114  0.2905  0.2616
  302TMC3     C 4549   2.570   1.850   1.217 -0.1362 -0.4006  0.1258
  302TMC3     O 4550   2.475   1.922   1.217  0.1270  0.1979  0.5195
  302TMC3     H 4551   2.719   1.636   1.174 -0.0202 -1.0918  0.4098
  302TMC3    H1 4552   2.340   1.767   1.324  0.5950  0.8482 -1.4673
  302TMC3    H2 4553   2.438   1.360   1.350  1.9233 -0.7331 -1.0200
  302TMC3    C7 4554   2.259   1.528   1.412 -0.1059  0.5045 -0.0370
  302TMC3    C8 4555   2.676   1.370   1.201 -0.3218  0.4224 -0.5341
  302TMC3    O1 4556   2.266   1.447   1.497  0.3903 -0.2230  0.5772
  302TMC3    O2 4557   2.768   1.410   1.129 -0.3372 -0.1982  0.1230
  303MPD2     C 4558   3.346   0.740  10.685  0.4115 -0.5883 -0.6762
  303MPD2    C1 4559   3.208   0.720  10.659  0.3513 -0.1165  0.4614
  303MPD2    C2 4560   3.156   0.718  10.529 -0.0478  0.5513 -0.0305
  303MPD2    C3 4561   3.243   0.705  10.422 -0.1483  1.0086 -0.1646
  303MPD2    C4 4562   3.382   0.707  10.442 -0.2293  0.3577  0.2726
  303MPD2    C5 4563   3.427   0.724  10.571  0.3942  0.4119 -0.2807
  303MPD2     H 4564   3.050   0.701  10.512 -0.0726  1.3986 -0.7340
  303MPD2    H1 4565   3.447   0.714  10.356  0.3934  0.2766  0.7408
  303MPD2    H2 4566   3.378   0.762  10.786  0.8623 -0.2147 -0.9010
  303MPD2    H3 4567   3.532   0.747  10.589  0.3708  0.6251 -0.4263
  303MPD2     N 4568   3.195   0.684  10.290 -0.1639  0.6562  0.2732
  303MPD2    H5 4569   3.268   0.651  10.228 -0.3461  1.0768 -0.1641
  303MPD2    N1 4570   3.128   0.705  10.770 -0.3830  0.4109 -0.5432
  303MPD2    H7 4571   3.167   0.704  10.864 -1.3680  0.5218 -0.1292
  304TMC3    C1 4572   2.919   0.709  10.890 -0.7674 -0.6397  0.1105
  304TMC3    C2 4573   2.813   0.789  10.910 -0.0316  0.4861 -0.4341
  304TMC3    C3 4574   2.717   0.743  10.991  0.1596 -0.4296  0.8931
  304TMC3    C4 4575   2.923   0.577  10.941 -0.0534  0.3106 -0.4493
  304TMC3    C5 4576   2.822   0.535  11.021  0.1921 -1.1584  0.1324
  304TMC3    C6 4577   2.723   0.627  11.054 -0.3564  0.0804 -0.4041
  304TMC3     C 4578   2.989   0.726  10.767  0.1103  0.1141 -0.2361
  304TMC3     O 4579   2.916   0.756  10.670  0.2955 -0.1686 -0.0367
  304TMC3     H 4580   2.792   0.874  10.846  0.0601  0.7497 -0.1186
  304TMC3    H1 4581   3.009   0.516  10.916 -1.3833 -0.7706 -2.3664
  304TMC3    H2 4582   2.650   0.597  11.128 -1.3691  0.2539 -1.3223
  304TMC3    C7 4583   2.765   0.412  10.982  0.1860  0.2390  0.0211
  304TMC3    C8 4584   2.583   0.777  10.950 -0.4411  0.0135 -1.0081
  304TMC3    O1 4585   2.643   0.411  10.986  0.8716 -0.4950  0.3263
  304TMC3    O2 4586   2.554   0.894  10.927  0.3429 -0.2050 -0.2103
  305MPD2     C 4587   1.065   2.383  14.387 -0.1325  0.5405 -0.7244
  305MPD2    C1 4588   1.175   2.428  14.320 -0.2001 -0.4110 -0.2054
  305MPD2    C2 4589   1.192   2.402  14.186 -0.5124  0.4545 -0.5304
  305MPD2    C3 4590   1.086   2.353  14.113  0.1111  1.0369 -0.1133
  305MPD2    C4 4591   0.967   2.314  14.180  0.1037  0.1584 -0.4334
  305MPD2    C5 4592   0.961   2.319  14.315  0.6464 -0.1882 -0.0009
  305MPD2     H 4593   1.285   2.426  14.137 -0.2244  0.0684 -0.1789
  305MPD2    H1 4594   0.888   2.267  14.123 -1.0616  0.6462  0.7749
  305MPD2    H2 4595   1.059   2.387  14.496 -0.8615  1.0948 -0.7846
  305MPD2    H3 4596   0.880   2.278  14.374  0.3894 -1.5123 -1.2578
  305MPD2     N 4597   1.090   2.317  13.973  0.3662 -0.3724 -0.0844
  305MPD2    H5 4598   1.002   2.286  13.932  0.3308  0.2810 -0.5032
  305MPD2    N1 4599   1.284   2.478  14.401 -0.2576  0.4771  0.1466
  305MPD2    H7 4600   1.273   2.478  14.502 -0.7630 -3.8866  0.0932
  306TMC3    C1 4601   1.511   2.523  14.459 -0.8007  0.5540 -0.0253
  306TMC3    C2 4602   1.631   2.460  14.434  0.2434 -0.3663 -0.1505
  306TMC3    C3 4603   1.694   2.398  14.536  0.3781  0.3184 -0.8115
  306TMC3    C4 4604   1.462   2.538  14.588 -0.1319 -0.5133  0.2321
  306TMC3    C5 4605   1.541   2.492  14.690  0.4799  0.1407 -0.4803
  306TMC3    C6 4606   1.649   2.412  14.663 -0.8746 -0.8681 -0.3553
  306TMC3     C 4607   1.408   2.523  14.354 -0.0886  0.2086 -0.2180
  306TMC3     O 4608   1.456   2.532  14.241 -0.1692  0.3686 -0.2794
  306TMC3     H 4609   1.689   2.457  14.342 -0.0916  2.4951 -0.4331
  306TMC3    H1 4610   1.373   2.595  14.614 -0.9843 -2.0655  0.7176
  306TMC3    H2 4611   1.720   2.380  14.739 -0.9857 -1.9120 -0.6866
  306TMC3    C7 4612   1.540   2.564  14.823 -0.2514 -0.5236 -0.0495
  306TMC3    C8 4613   1.768   2.272  14.516 -0.3519  0.4791 -0.5382
  306TMC3    O1 4614   1.483   2.675  14.823 -0.0797  0.1388 -0.5178
  306TMC3    O2 4615   1.800   2.209  14.617  0.0480 -0.2602 -0.2844
  307MPD2     C 4616   3.994   0.002  17.660  0.2803 -0.2609  0.3842
  307MPD2    C1 4617   3.935   0.115   0.011 -0.0652 -0.2161  0.9578
  307MPD2    C2 4618   3.863   0.105   0.119 -0.5713  0.6765  0.1720
  307MPD2    C3 4619   3.834   4.712   0.187  0.4389 -0.1570 -0.0600
  307MPD2    C4 4620   3.891   4.601   0.137  0.3556  0.7542  0.1344
  307MPD2    C5 4621   3.973   4.607   0.031  0.0228 -0.5744 -0.0634
  307MPD2     H 4622   3.829   0.193   0.172  0.2774  0.8606  0.4153
  307MPD2    H1 4623   3.859   4.503   0.171  1.3563  0.2198 -0.5017
  307MPD2    H2 4624   4.056   0.002  17.571  3.9840  4.0703  2.9697
  307MPD2    H3 4625   4.021   4.523  17.679 -2.3872 -3.7806  3.0120
  307MPD2     N 4626   3.752   4.716   0.296  0.0748 -0.0878  0.1067
  307MPD2    H5 4627   3.712   0.083   0.314 -0.6569 -0.0861 -1.5275
  307MPD2    N1 4628   3.944   0.243  17.644  0.3833  0.1695 -0.7115
  307MPD2    H7 4629   3.901   0.317   0.001  1.5440 -0.6356  1.2525
  308TMC3    C1 4630   3.378   4.676   0.486  0.7316 -0.0343  0.1407
  308TMC3    C2 4631   3.387   0.074   0.544 -0.0978  0.5058 -0.5293
  308TMC3    C3 4632   3.520   0.116   0.559  0.7058  0.0000  0.1087
  308TMC3    C4 4633   3.489   4.592   0.458 -0.5837 -0.0990  0.2437
  308TMC3    C5 4634   3.611   4.652   0.463  1.3993 -0.5043  0.7109
  308TMC3    C6 4635   3.630   0.048   0.517 -1.0580 -0.9644 -0.1740
  308TMC3     C 4636   3.260   4.645   0.406  0.9864  0.0991 -0.0248
  308TMC3     O 4637   3.250   4.533   0.359 -0.3476 -0.1788  0.0362
  308TMC3     H 4638   3.307   0.138   0.580 -0.4307 -1.2788  1.9050
  308TMC3    H1 4639   3.483   4.498   0.404 -0.6153  0.2743 -0.3998
  308TMC3    H2 4640   3.728   0.095   0.520 -1.0642 -0.7657 -2.7282
  308TMC3    C7 4641   3.707   4.607   0.370 -0.1325 -0.0565  0.0646
  308TMC3    C8 4642   3.545   0.256   0.586 -0.4929  0.1921  0.3365
  308TMC3    O1 4643   3.743   4.491   0.361  0.3607  0.2552 -0.0946
  308TMC3    O2 4644   3.457   0.334   0.564  0.2867 -0.4469  0.2225
  309MPD2     C 4645   3.154   0.796  16.982  0.2427  0.2042 -0.2850
  309MPD2    C1 4646   3.090   0.812  16.861 -0.4400 -0.2246 -0.2132
  309MPD2    C2 4647   2.957   0.853  16.864  0.0233 -0.0394  0.5088
  309MPD2    C3 4648   2.890   0.892  16.975 -0.3870  0.0741 -0.1610
  309MPD2    C4 4649   2.950   0.860  17.097  0.0731  0.1813 -0.2543
  309MPD2    C5 4650   3.082   0.821  17.099  0.5616 -0.2107 -0.8776
  309MPD2     H 4651   2.906   0.863  16.769 -1.9627  0.0994  1.5938
  309MPD2    H1 4652   2.894   0.878  17.188 -0.1526  1.2385 -0.6011
  309MPD2    H2 4653   3.260   0.777  16.981  0.2867  0.3876  2.3801
  309MPD2    H3 4654   3.138   0.819  17.191 -0.7488 -0.4716 -0.0892
  309MPD2     N 4655   2.763   0.956  16.980 -0.3457 -0.0570 -0.2331
  309MPD2    H5 4656   2.724   0.986  17.069 -1.0619 -1.1649 -0.1729
  309MPD2    N1 4657   3.150   0.801  16.732  0.0645 -0.2403  0.3234
  309MPD2    H7 4658   3.100   0.798  16.644  0.1697  0.1491  0.2500
  310TMC3    C1 4659   3.307   0.746  16.565 -0.9403  0.5411  0.1634
  310TMC3    C2 4660   3.236   0.813  16.475  0.1569  0.3147  0.1937
  310TMC3    C3 4661   3.267   0.804  16.344  0.0978  0.2328  1.2149
  310TMC3    C4 4662   3.421   0.675  16.532  0.1292  0.8211  0.1536
  310TMC3    C5 4663   3.452   0.668  16.398  0.1757 -0.0842 -0.2649
  310TMC3    C6 4664   3.374   0.725  16.306  0.3235 -0.2560 -0.6155
  310TMC3     C 4665   3.280   0.765  16.704 -0.2932  0.1526 -0.0217
  310TMC3     O 4666   3.373   0.738  16.780  0.0797  0.9880 -0.3033
  310TMC3     H 4667   3.143   0.860  16.503  0.2232  0.4354  0.2128
  310TMC3    H1 4668   3.476   0.616  16.604  1.6858  2.6538  0.4517
  310TMC3    H2 4669   3.388   0.699  16.201 -1.4929 -0.5629 -0.7845
  310TMC3    C7 4670   3.539   0.567  16.362  0.1427  0.5216 -0.3337
  310TMC3    C8 4671   3.183   0.867  16.251  0.0341  0.4728  0.2968
  310TMC3    O1 4672   3.552   0.464  16.422 -0.2206  0.5638  0.3859
  310TMC3    O2 4673   3.062   0.867  16.273 -0.0187  0.0538  0.2020
  311MPD2     C 4674   0.481   2.421  12.721 -0.2763  0.3089  1.0891
  311MPD2    C1 4675   0.477   2.419  12.857  0.0075  0.3239 -0.1962
  311MPD2    C2 4676   0.359   2.391  12.930 -0.4913  0.4755  0.2072
  311MPD2    C3 4677   0.247   2.333  12.870  0.2862  0.0341 -0.7641
  311MPD2    C4 4678   0.252   2.326  12.735 -0.3111  0.3502  0.4403
  311MPD2    C5 4679   0.366   2.369  12.663  0.1806 -0.2809  0.3218
  311MPD2     H 4680   0.360   2.410  13.037 -1.9381  0.8942  0.1422
  311MPD2    H1 4681   0.175   2.279  12.674  2.1481 -2.3082 -0.6243
  311MPD2    H2 4682   0.560   2.457  12.656  1.0631 -0.3603  2.3395
  311MPD2    H3 4683   0.362   2.365  12.555 -1.1097 -1.7333  0.4306
  311MPD2     N 4684   0.139   2.298  12.949  0.1059  0.1832  0.5281
  311MPD2    H5 4685   0.161   2.299  13.048  2.2642 -0.4334  0.0582
  311MPD2    N1 4686   0.588   2.464  12.928  0.1324 -0.2869 -0.3186
  311MPD2    H7 4687   0.579   2.495  13.024 -0.6137  2.4709 -1.2824
  312TMC3    C1 4688   4.656   2.194  12.998 -0.9187  0.5399 -0.9328
  312TMC3    C2 4689   4.532   2.155  12.954  0.6529 -0.1310  0.3047
  312TMC3    C3 4690   4.454   2.073  13.032  0.5013 -0.0902  0.4928
  312TMC3    C4 4691   4.701   2.161  13.125 -0.3958  0.8763  0.3347
  312TMC3    C5 4692   4.614   2.081  13.194 -0.7158 -0.7080 -0.4760
  312TMC3    C6 4693   4.496   2.027  13.153 -0.1143  0.2345  0.7730
  312TMC3     C 4694   0.018   2.257  12.902  0.0645 -0.0379 -0.2264
  312TMC3     O 4695   4.698   2.279  12.790  0.1817 -0.4474  0.4759
  312TMC3     H 4696   4.502   2.169  12.851  3.5771  0.6077 -0.4748
  312TMC3    H1 4697   0.078   2.182  13.158  0.0050 -1.5738  0.6601
  312TMC3    H2 4698   4.437   1.956  13.210  0.2413  1.9095  3.2361
  312TMC3    C7 4699   4.650   2.034  13.328 -0.1203 -0.3597 -0.3415
  312TMC3    C8 4700   4.338   1.994  12.972  0.6177 -0.0057 -0.6801
  312TMC3    O1 4701   4.603   1.927  13.369 -0.9384  0.5068  0.0161
  312TMC3    O2 4702   4.328   1.876  13.005 -0.0445  0.4695  1.0102
  313MPD2     C 4703   0.376   1.655  10.162 -0.2287 -0.8444  0.3816
  313MPD2    C1 4704   0.268   1.665  10.254  0.3871 -0.1904  0.0785
  313MPD2    C2 4705   0.170   1.571  10.251  0.7358 -0.0542 -0.9698
  313MPD2    C3 4706   0.175   1.471  10.158  0.1813 -0.6458 -0.3257
  313MPD2    C4 4707   0.276   1.455  10.070  0.1277 -0.3995  0.2425
  313MPD2    C5 4708   0.374   1.551  10.070 -0.7429 -0.1177 -0.7975
  313MPD2     H 4709   0.092   1.563  10.326  1.2319 -0.9829 -0.5563
  313MPD2    H1 4710   0.275   1.378   9.994  0.7959 -1.0964  0.9395
  313MPD2    H2 4711   0.459   1.724  10.159  0.5779 -1.8479 -0.2393
  313MPD2    H3 4712   0.455   1.543   9.998  0.6055  1.2968  0.5757
  313MPD2     N 4713   0.064   1.382  10.172  0.0412 -0.4120 -0.5651
  313MPD2    H5 4714   4.708   1.404  10.230  1.6114  0.6923  1.1565
  313MPD2    N1 4715   0.244   1.767  10.343  0.2045  0.1357  0.4049
  313MPD2    H7 4716   0.152   1.759  10.385  0.1596  0.7390  0.4084
  314TMC3    C1 4717   0.299   1.934  10.487 -0.6665  0.4621 -0.3566
  314TMC3    C2 4718   0.397   1.982  10.572  0.2266  0.0280  0.2810
  314TMC3    C3 4719   0.359   2.020  10.699  0.4298  0.1055  0.7126
  314TMC3    C4 4720   0.170   1.921  10.537 -0.4320 -0.2216 -0.0050
  314TMC3    C5 4721   0.133   1.956  10.664 -0.0584 -0.2037  0.6528
  314TMC3    C6 4722   0.227   2.013  10.742 -0.1398  1.0556  0.3850
  314TMC3     C 4723   0.345   1.856  10.378 -0.1200 -0.0854  0.2166
  314TMC3     O 4724   0.459   1.868  10.342  0.1928  0.0919 -0.3528
  314TMC3     H 4725   0.502   1.974  10.546  0.1570 -1.1690  0.4056
  314TMC3    H1 4726   0.084   1.887  10.480 -0.8533  0.1207  0.4357
  314TMC3    H2 4727   0.195   2.048  10.839 -0.4575  2.4901 -0.2356
  314TMC3    C7 4728   0.008   2.022  10.669 -1.1886 -1.0582  0.4655
  314TMC3    C8 4729   0.453   2.074  10.795 -0.5698 -0.2537 -0.5076
  314TMC3    O1 4730   4.642   1.947  10.698 -0.3485  0.6289 -0.4487
  314TMC3    O2 4731   0.413   2.126  10.902  0.0918 -0.4209 -0.3515
  315MPD2     C 4732   3.980   1.183   0.582 -0.2551 -0.1309 -0.1795
  315MPD2    C1 4733   4.047   1.126   0.473  0.5347 -0.0202  0.2896
  315MPD2    C2 4734   4.093   1.218   0.378  0.4128 -0.0527  0.8034
  315MPD2    C3 4735   4.077   1.350   0.389 -0.6116 -0.1691 -0.6741
  315MPD2    C4 4736   4.032   1.406   0.507  0.3623  0.8476 -0.2414
  315MPD2    C5 4737   3.977   1.317   0.600  0.6199  0.0576  0.0003
  315MPD2     H 4738   4.144   1.177   0.291  0.9860 -0.9439  1.5675
  315MPD2    H1 4739   4.039   1.508   0.543 -0.8922  0.3338  1.4580
  315MPD2    H2 4740   3.932   1.119   0.656 -2.5965 -0.0247 -1.5862
  315MPD2    H3 4741   3.941   1.345   0.698 -1.1157  0.7068 -0.8242
  315MPD2     N 4742   4.131   1.432   0.284 -0.1012  0.6377 -0.6316
  315MPD2    H5 4743   4.194   1.385   0.220  1.9862  0.4934  1.5178
  315MPD2    N1 4744   4.073   0.985   0.444 -0.1476  0.0709  0.8217
  315MPD2    H7 4745   4.125   0.965   0.359 -1.1786 -1.6310  0.6027
  316TMC3    C1 4746   4.243   1.603   0.189  0.7408 -0.2189 -0.1613
  316TMC3    C2 4747   4.366   1.595   0.256 -1.1160  0.3468 -0.1673
  316TMC3    C3 4748   4.466   1.514   0.223  0.1308  0.2848  0.4820
  316TMC3    C4 4749   4.233   1.538   0.068 -0.3715 -0.3147  0.6879
  316TMC3    C5 4750   4.355   1.473   0.026  0.2053  0.2669  0.6124
  316TMC3    C6 4751   4.474   1.459   0.098  0.5689 -0.6085  0.4528
  316TMC3     C 4752   4.128   1.571   0.276  0.4684  0.6088  0.3973
  316TMC3     O 4753   4.050   1.654   0.331 -0.6333 -0.3853  0.1043
  316TMC3     H 4754   4.361   1.629   0.358  0.7345  0.0679  0.0145
  316TMC3    H1 4755   4.142   1.541   0.011  0.8398  1.4320 -1.1240
  316TMC3    H2 4756   4.555   1.397   0.062  2.1024  1.1636  0.8951
  316TMC3    C7 4757   4.347   1.389  17.614  0.4485  0.2360 -0.4359
  316TMC3    C8 4758   4.492   1.421   0.325  0.2805 -0.2323  0.8382
  316TMC3    O1 4759   4.436   1.306  17.615  0.2394 -0.0101 -0.0771
  316TMC3    O2 4760   4.478   1.453   0.442 -0.4727 -0.2096 -0.5951
  317MPD2     C 4761   1.555   4.401  13.088  0.2554 -0.2213  0.0008
  317MPD2    C1 4762   1.615   4.278  13.051 -0.4465 -1.0634  0.3191
  317MPD2    C2 4763   1.691   4.208  13.150 -0.1939 -0.5408 -1.2629
  317MPD2    C3 4764   1.705   4.261  13.280 -0.8332 -0.7332 -0.6927
  317MPD2    C4 4765   1.661   4.387  13.306 -0.8081 -0.6621  0.0095
  317MPD2    C5 4766   1.590   4.458  13.210  0.3495 -0.4130 -0.9131
  317MPD2     H 4767   1.739   4.115  13.125 -0.0483 -0.9311  0.4563
  317MPD2    H1 4768   1.682   4.437  13.400 -2.0646  0.5877 -0.3658
  317MPD2    H2 4769   1.510   4.471  13.018  1.3875  0.3353 -0.1607
  317MPD2    H3 4770   1.542   4.547  13.250 -1.2298 -1.8758  0.4458
  317MPD2     N 4771   1.777   4.189  13.375 -0.1967 -0.1210 -0.5287
  317MPD2    H5 4772   1.823   4.106  13.338  0.5323 -0.2313  0.6187
  317MPD2    N1 4773   1.592   4.219  12.928 -0.5474  0.0045  0.2095
  317MPD2    H7 4774   1.643   4.132  12.915 -1.0190 -0.3181  0.5100
  318TMC3    C1 4775   1.884   4.123  13.577  0.5927 -0.3174  0.6514
  318TMC3    C2 4776   1.854   4.049  13.686 -0.1698 -0.0474 -0.2647
  318TMC3    C3 4777   1.944   3.954  13.727 -0.0917  0.4033 -0.4178
  318TMC3    C4 4778   2.008   4.098  13.504  0.2923 -0.2828 -0.6599
  318TMC3    C5 4779   2.087   3.999  13.551  0.2550  0.4791  0.8197
  318TMC3    C6 4780   2.063   3.935  13.669  0.5942  0.9642  0.2479
  318TMC3     C 4781   1.771   4.192  13.512 -0.3368  0.5332  0.9832
  318TMC3     O 4782   1.676   4.230  13.579 -0.4910 -0.3470 -0.3036
  318TMC3     H 4783   1.763   4.068  13.741 -1.1145  1.9583 -2.5554
  318TMC3    H1 4784   2.018   4.154  13.411  1.1277 -2.7469 -2.0765
  318TMC3    H2 4785   2.128   3.857  13.706  0.1343  0.3734 -0.1895
  318TMC3    C7 4786   2.211   3.978  13.476  0.2932 -1.0744 -0.1123
  318TMC3    C8 4787   1.888   3.850  13.805 -0.4529 -0.2947 -0.1481
  318TMC3    O1 4788   2.250   4.076  13.416  0.8434 -0.2781 -0.3567
  318TMC3    O2 4789   1.963   3.793  13.883  0.1719 -0.4517 -0.5550
  319MPD2     C 4790   2.647   0.495  16.489 -0.2709  0.5914  0.5979
  319MPD2    C1 4791   2.587   0.534  16.607 -0.3537 -0.0221  0.2799
  319MPD2    C2 4792   2.451   0.562  16.609 -0.6995 -0.5750 -0.6250
  319MPD2    C3 4793   2.374   0.543  16.500  0.5611 -0.2021  0.2407
  319MPD2    C4 4794   2.433   0.497  16.380  0.1384 -0.7107 -0.3674
  319MPD2    C5 4795   2.569   0.481  16.377  0.1788 -0.2666 -0.7465
  319MPD2     H 4796   2.416   0.594  16.707 -1.2837 -0.4156 -0.8891
  319MPD2    H1 4797   2.378   0.486  16.287  0.1791  1.0184 -0.5953
  319MPD2    H2 4798   2.752   0.477  16.471 -0.6658 -2.6021  1.4831
  319MPD2    H3 4799   2.600   0.465  16.274 -2.7922  0.1618 -1.7186
  319MPD2     N 4800   2.238   0.565  16.493 -0.4384  0.3657  0.2037
  319MPD2    H5 4801   2.195   0.560  16.401  1.3324  1.0652 -0.6557
  319MPD2    N1 4802   2.654   0.535  16.728 -0.0693  0.4481  0.0473
  319MPD2    H7 4803   2.604   0.568  16.810  0.4010 -1.4264  1.1049
  320TMC3    C1 4804   2.015   0.590  16.574 -0.1340  0.3581  0.0257
  320TMC3    C2 4805   1.968   0.675  16.479  0.0770  0.3594  1.5599
  320TMC3    C3 4806   1.859   0.640  16.406 -0.6049  0.6085  0.3106
  320TMC3    C4 4807   1.954   0.473  16.589 -0.3825 -0.3254  0.6078
  320TMC3    C5 4808   1.841   0.438  16.522 -0.2348  0.2080 -0.4190
  320TMC3    C6 4809   1.793   0.521  16.423 -0.6213 -0.2797 -0.3772
  320TMC3     C 4810   2.156   0.575  16.601  0.9345  0.6594 -0.5557
  320TMC3     O 4811   2.189   0.551  16.716 -0.4865  0.0905 -0.2347
  320TMC3     H 4812   2.018   0.767  16.451  0.7360 -0.4429  0.0610
  320TMC3    H1 4813   1.997   0.406  16.663  0.8684  0.1514  0.3209
  320TMC3    H2 4814   1.698   0.505  16.371 -0.7493 -2.4049  0.5130
  320TMC3    C7 4815   1.833   0.300  16.491 -0.3600 -0.3070  0.2776
  320TMC3    C8 4816   1.801   0.741  16.321 -0.1600 -0.2910 -0.6872
  320TMC3    O1 4817   1.838   0.264  16.373  0.1081  0.0747 -0.2975
  320TMC3    O2 4818   1.821   0.856  16.358 -1.1042 -0.3014 -0.1090
  321TMC3    C1 4819   2.815   0.494  16.898  0.8727  0.8453  0.9135
  321TMC3    C2 4820   2.718   0.462  16.980 -0.2242 -0.2162 -0.5793
  321TMC3    C3 4821   2.743   0.468  17.113 -0.6170 -0.6382  0.7538
  321TMC3    C4 4822   2.953   0.495  16.937  0.2695  0.3157 -0.4231
  321TMC3    C5 4823   2.975   0.507  17.073  0.1957 -0.0634  0.4451
  321TMC3    C6 4824   2.871   0.493  17.166  0.7250 -0.3741 -0.4750
  321TMC3     C 4825   2.785   0.513  16.751  0.5074  0.1520  0.3863
  321TMC3     O 4826   2.879   0.490  16.677 -0.4061 -0.2361  0.3940
  321TMC3     H 4827   2.631   0.418  16.934 -0.8102  0.8482 -0.4978
  321TMC3    H1 4828   3.035   0.512  16.868 -2.0052  0.5173 -3.0895
  321TMC3    H2 4829   2.878   0.506  17.273  2.1599 -1.5937 -0.4104
  321TMC3    C7 4830   3.081   0.425  17.116  0.0685  0.0486  0.0044
  321TMC3    C8 4831   2.678   0.372  17.195  0.1903 -0.3489 -0.0445
  321TMC3    O1 4832   3.188   0.417  17.055 -0.5728 -0.4816  0.6969
  321TMC3    O2 4833   2.755   0.328  17.278  0.4510 -0.0815 -0.5582
  322MPD2     C 4834   1.197   1.750  13.367  0.1736 -0.1286  0.5299
  322MPD2    C1 4835   1.190   1.718  13.501  0.3677 -0.5280 -0.0610
  322MPD2    C2 4836   1.187   1.585  13.542 -0.5220 -0.1137  0.3948
  322MPD2    C3 4837   1.175   1.485  13.445  0.5023 -0.0224  0.3017
  322MPD2    C4 4838   1.178   1.520  13.312  0.6525  0.3145  0.3475
  322MPD2    C5 4839   1.182   1.651  13.275 -0.2324 -0.1390 -0.8353
  322MPD2     H 4840   1.193   1.555  13.646  0.4605  0.7523  0.5824
  322MPD2    H1 4841   1.165   1.440  13.240 -1.2823  3.1989 -2.5034
  322MPD2    H2 4842   1.206   1.853  13.335  1.3375 -1.1764 -2.4071
  322MPD2    H3 4843   1.158   1.670  13.171 -0.4149 -0.0027 -0.7679
  322MPD2     N 4844   1.168   1.349  13.493 -0.0594 -0.6278  0.4373
  322MPD2    H5 4845   1.164   1.334  13.593  0.9070  3.2055  1.0478
  322MPD2    N1 4846   1.208   1.824  13.593  0.1362  0.1519 -0.2897
  322MPD2    H7 4847   1.254   1.906  13.556  0.1276  0.5010  0.4680
  323TMC3    C1 4848   1.263   1.905  13.809 -0.5783 -0.2027  0.0089
  323TMC3    C2 4849   1.385   1.955  13.758  0.0929  0.0345 -0.3539
  323TMC3    C3 4850   1.456   2.037  13.849  0.3317  0.0608  0.3683
  323TMC3    C4 4851   1.211   1.932  13.934 -0.1461 -1.2793 -0.0497
  323TMC3    C5 4852   1.290   2.006  14.019 -0.6795 -0.1544 -0.0431
  323TMC3    C6 4853   1.411   2.064  13.977  0.2334 -0.2487 -0.5009
  323TMC3     C 4854   1.182   1.810  13.730 -0.8331 -0.2545  0.3741
  323TMC3     O 4855   1.089   1.752  13.785 -0.9195 -0.0279 -0.3178
  323TMC3     H 4856   1.414   1.948  13.654  2.2214 -0.4359  0.2561
  323TMC3    H1 4857   1.114   1.889  13.956 -0.7026 -0.3440 -0.7085
  323TMC3    H2 4858   1.477   2.116  14.045 -2.4038  1.4513  0.8017
  323TMC3    C7 4859   1.248   2.008  14.154 -0.5767  0.0016  0.0395
  323TMC3    C8 4860   1.601   2.071  13.820  1.2979  0.0380  0.2077
  323TMC3    O1 4861   1.149   1.938  14.186 -0.4800 -0.4022 -0.3442
  323TMC3    O2 4862   1.661   2.139  13.903  0.0950 -0.0799 -0.1003
  324MPD2     C 4863   2.770   2.187  15.127  0.0069 -0.3925  0.5453
  324MPD2    C1 4864   2.786   2.307  15.067 -0.1058 -0.0949  1.1126
  324MPD2    C2 4865   2.673   2.367  15.016  0.1461 -0.4113  0.0815
  324MPD2    C3 4866   2.555   2.298  15.010  0.0429  0.2984  0.2435
  324MPD2    C4 4867   2.537   2.177  15.065  0.2704  0.1517  0.0041
  324MPD2    C5 4868   2.650   2.127  15.131  0.2258  0.2608 -0.1863
  324MPD2     H 4869   2.681   2.467  14.975  0.0791 -0.6299 -0.4751
  324MPD2    H1 4870   2.443   2.124  15.074  0.2708  0.2167  0.3820
  324MPD2    H2 4871   2.862   2.142  15.162  1.3440  2.2398  0.4665
  324MPD2    H3 4872   2.636   2.031  15.179  1.1228 -0.3068 -1.0719
  324MPD2     N 4873   2.454   2.367  14.953 -0.0588 -0.2107 -0.5991
  324MPD2    H5 4874   2.478   2.458  14.914 -1.3118  0.1033 -0.6259
  324MPD2    N1 4875   2.911   2.371  15.053  0.1056  0.1850 -0.1200
  324MPD2    H7 4876   2.901   2.456  14.999  2.1775  0.5829  0.1186
  325TMC3    C1 4877   2.245   2.457  14.912 -0.3154 -0.9373 -0.3751
  325TMC3    C2 4878   2.137   2.439  14.824 -0.4767 -0.8556 -0.3907
  325TMC3    C3 4879   2.040   2.535  14.817  0.3165 -0.0907  0.2578
  325TMC3    C4 4880   2.234   2.545  15.012  0.0637 -0.1581  0.0287
  325TMC3    C5 4881   2.116   2.619  15.012 -0.9148  0.2220  0.2117
  325TMC3    C6 4882   2.021   2.626  14.912 -0.8967  0.2294  0.0766
  325TMC3     C 4883   2.324   2.339  14.943 -0.3158 -0.3417 -0.5987
  325TMC3     O 4884   2.272   2.227  14.940 -0.4397  1.1707 -0.5973
  325TMC3     H 4885   2.150   2.363  14.747 -1.7568 -0.7193 -0.7440
  325TMC3    H1 4886   2.312   2.549  15.088 -2.1113  0.9227  2.1883
  325TMC3    H2 4887   1.931   2.685  14.925 -0.6916 -0.5169  4.8226
  325TMC3    C7 4888   2.099   2.704  15.130  0.1728  0.5251 -0.3007
  325TMC3    C8 4889   1.983   2.551  14.682 -1.0125  0.2145  0.4361
  325TMC3    O1 4890   2.159   2.670  15.235 -0.6156 -0.2874 -1.0355
  325TMC3    O2 4891   2.027   2.474  14.598 -0.2292 -0.1929  0.7425
  326MPD2     C 4892   4.408   4.137  11.075  0.8387 -0.6820  0.3304
  326MPD2    C1 4893   4.391   4.173  10.948 -0.6521  0.1115 -0.2541
  326MPD2    C2 4894   4.480   4.270  10.901 -0.2129  0.6821  0.3351
  326MPD2    C3 4895   4.564   4.342  10.985 -0.0528 -0.6537  0.4522
  326MPD2    C4 4896   4.568   4.304  11.118 -0.2930  0.4437  0.4023
  326MPD2    C5 4897   4.495   4.196  11.159 -0.2484  0.4668 -0.4361
  326MPD2     H 4898   4.484   4.291  10.794 -1.1366  2.5184  0.6616
  326MPD2    H1 4899   4.611   4.358  11.202  2.1027 -3.0761  1.4625
  326MPD2    H2 4900   4.356   4.050  11.114 -1.8752  0.4040 -0.8310
  326MPD2    H3 4901   4.517   4.151  11.255  0.6208  0.9677 -0.4064
  326MPD2     N 4902   4.651   4.448  10.949 -0.5350  0.6191  0.3826
  326MPD2    H5 4903   4.690   4.502  11.026 -1.3541  1.2834  0.3336
  326MPD2    N1 4904   4.310   4.106  10.852 -0.3670  1.2343  0.1230
  326MPD2    H7 4905   4.293   4.145  10.760  0.0459  1.0629 -0.0257
  327TMC3    C1 4906   4.152   3.951  10.775 -0.2520  0.0754  0.1822
  327TMC3    C2 4907   4.067   4.043  10.727  0.5681  0.0296 -0.5273
  327TMC3    C3 4908   4.060   4.078  10.594  0.1074  0.5885 -0.0272
  327TMC3    C4 4909   4.230   3.885  10.690 -0.1581  0.4208 -0.0279
  327TMC3    C5 4910   4.235   3.922  10.558 -0.1752 -0.7064  0.2741
  327TMC3    C6 4911   4.139   4.009  10.513  0.1602  0.6348 -0.1172
  327TMC3     C 4912   4.232   3.993  10.885 -0.3900 -0.3209  0.2465
  327TMC3     O 4913   4.244   3.910  10.977 -0.4624  1.0602 -0.0874
  327TMC3     H 4914   4.017   4.102  10.804  1.0289  0.1715 -0.3370
  327TMC3    H1 4915   4.301   3.817  10.735  1.0718  2.7095  1.4913
  327TMC3    H2 4916   4.136   4.043  10.410  0.0306  3.5966  0.8735
  327TMC3    C7 4917   4.365   3.973  10.516  0.8292  0.6945 -0.1663
  327TMC3    C8 4918   4.054   4.215  10.560  1.2127 -0.1443 -0.7964
  327TMC3    O1 4919   4.371   4.037  10.410 -0.0888  0.3227  0.0178
  327TMC3    O2 4920   4.156   4.262  10.503 -0.3441  0.4263  0.9430
  328MPD2     C 4921   1.703   3.451  17.397 -0.4218  0.4483 -0.4579
  328MPD2    C1 4922   1.584   3.409  17.340  0.1444 -0.0261 -0.4862
  328MPD2    C2 4923   1.540   3.470  17.222 -0.0983  0.5267  0.9015
  328MPD2    C3 4924   1.611   3.583  17.174 -0.2738 -0.3938 -0.0119
  328MPD2    C4 4925   1.731   3.617  17.227 -0.3576 -0.1534  0.0357
  328MPD2    C5 4926   1.772   3.552  17.346  0.3860 -0.1000  0.2900
  328MPD2     H 4927   1.448   3.432  17.181  0.0589  1.3858 -0.2145
  328MPD2    H1 4928   1.781   3.704  17.186 -0.7621 -0.4364 -1.0641
  328MPD2    H2 4929   1.748   3.417  17.490 -1.7930  2.3096  0.8720
  328MPD2    H3 4930   1.863   3.590  17.392  0.9991 -0.8915 -0.2827
  328MPD2     N 4931   1.556   3.664  17.071 -0.0782 -0.1876  0.3811
  328MPD2    H5 4932   1.609   3.748  17.052  2.1377 -1.2376  1.9996
  328MPD2    N1 4933   1.489   3.327  17.407 -0.5049  0.1400  0.7303
  328MPD2    H7 4934   1.396   3.313  17.368 -0.2435 -0.6398  0.3971
  329TMC3    C1 4935   1.414   3.237  17.613 -0.6279  0.1079  0.0012
  329TMC3    C2 4936   1.295   3.311  17.600 -0.6824  0.2223  0.0001
  329TMC3    C3 4937   1.218   3.344   0.011  0.0357  0.0870 -0.5372
  329TMC3    C4 4938   1.441   3.190   0.039 -0.1317 -0.2054  0.0327
  329TMC3    C5 4939   1.353   3.215   0.146  0.2794 -0.1745  0.5006
  329TMC3    C6 4940   1.252   3.305   0.135  0.2892  0.4535 -0.5379
  329TMC3     C 4941   1.520   3.261  17.527  0.3325 -0.4382  0.4977
  329TMC3     O 4942   1.630   3.240  17.578 -0.1476  1.0495  0.2523
  329TMC3     H 4943   1.282   3.370  17.510 -2.1692 -0.1231 -0.0100
  329TMC3    H1 4944   1.527   3.125   0.050  1.2113  1.6006  0.1921
  329TMC3    H2 4945   1.194   3.334   0.222  2.9979 -0.2469  1.4746
  329TMC3    C7 4946   1.379   3.167   0.287  0.4376 -0.3839 -0.3430
  329TMC3    C8 4947   1.108   3.437  17.666 -0.0597 -0.2818 -0.6608
  329TMC3    O1 4948   1.296   3.200   0.368 -0.2999 -0.5551 -0.2165
  329TMC3    O2 4949   1.042   3.395  17.571 -0.5402  0.0054 -0.1326
  330TMC3    C1 4950   4.661   3.759   9.628 -0.1061 -0.3835 -0.0047
  330TMC3    C2 4951   4.543   3.717   9.572 -0.3123 -0.1496  0.5846
  330TMC3    C3 4952   4.518   3.584   9.560  0.3587  0.4403  0.4766
  330TMC3    C4 4953   0.040   3.666   9.656  0.3089  0.5778  0.5013
  330TMC3    C5 4954   0.009   3.536   9.624 -0.0052 -0.0712 -0.2683
  330TMC3    C6 4955   4.611   3.493   9.584 -0.2619  0.5352 -0.1375
  330TMC3     C 4956   4.680   3.895   9.662  0.8624  0.6678 -0.7275
  330TMC3     O 4957   0.072   3.930   9.698  0.2563  0.2491  0.4496
  330TMC3     H 4958   4.474   3.791   9.532  1.4523  1.8102  1.1477
  330TMC3    H1 4959   0.138   3.707   9.675 -0.9010  2.5503  2.4097
  330TMC3    H2 4960   4.592   3.386   9.572  1.5775  0.3804 -1.6367
  330TMC3    C7 4961   0.108   3.445   9.670 -0.3400  0.3763  0.1684
  330TMC3    C8 4962   4.391   3.539   9.497  0.9024  0.6995  0.1036
  330TMC3    O1 4963   0.224   3.488   9.670  0.0519  0.2125  0.1422
  330TMC3    O2 4964   4.323   3.621   9.436  0.3589  0.1623  0.0526
  331MPD2     C 4965   2.154   2.091  12.729  0.5611 -0.0148 -0.9777
  331MPD2    C1 4966   2.269   2.148  12.685  0.1116 -0.1695  0.0353
  331MPD2    C2 4967   2.369   2.079  12.620  0.5172  0.0653  0.9258
  331MPD2    C3 4968   2.351   1.947  12.605 -0.4468 -0.3245  0.4067
  331MPD2    C4 4969   2.249   1.887  12.675  0.3047 -0.1028 -0.0172
  331MPD2    C5 4970   2.144   1.954  12.726  0.2970 -1.1533 -0.4960
  331MPD2     H 4971   2.465   2.122  12.593  1.1806 -1.4081  0.9644
  331MPD2    H1 4972   2.242   1.779  12.669 -2.4861  0.1165 -0.7604
  331MPD2    H2 4973   2.072   2.155  12.761  0.5948 -1.0787  1.2455
  331MPD2    H3 4974   2.054   1.907  12.763  0.5686 -1.5121 -0.2908
  331MPD2     N 4975   2.441   1.867  12.531  0.2070 -0.3127  0.0986
  331MPD2    H5 4976   2.431   1.768  12.551  1.8191 -0.7369 -1.2506
  331MPD2    N1 4977   2.280   2.282  12.711  0.3411 -0.1599 -0.1103
  331MPD2    H7 4978   2.197   2.336  12.730  0.0938  0.0559 -1.7627
  332TMC3    C1 4979   2.623   1.820  12.398 -0.6604  0.0296  0.5849
  332TMC3    C2 4980   2.715   1.852  12.299  0.5560 -0.1504 -0.3951
  332TMC3    C3 4981   2.844   1.801  12.296  0.3966  0.1644 -0.0200
  332TMC3    C4 4982   2.660   1.728  12.493 -0.1195 -0.0801  0.1211
  332TMC3    C5 4983   2.782   1.663  12.475 -0.4866 -0.2570 -0.1092
  332TMC3    C6 4984   2.869   1.700  12.383 -0.7230 -0.2114  0.7225
  332TMC3     C 4985   2.525   1.920  12.434 -0.4964 -0.6428 -0.2966
  332TMC3     O 4986   2.540   2.037  12.394  0.8177  0.2029 -0.1586
  332TMC3     H 4987   2.685   1.932  12.233  2.2230  0.8943  0.1264
  332TMC3    H1 4988   2.596   1.701  12.576 -0.1989 -1.1805 -0.2999
  332TMC3    H2 4989   2.971   1.663  12.375 -0.6001  0.4499 -0.6893
  332TMC3    C7 4990   2.811   1.547  12.559  0.1782  0.1192 -0.0599
  332TMC3    C8 4991   2.966   1.886  12.270  0.3590  0.0843 -0.2405
  332TMC3    O1 4992   2.716   1.479  12.594 -0.6878  0.1594 -0.1158
  332TMC3    O2 4993   3.069   1.858  12.331  0.2567 -0.1153  0.1024
  333MPD2     C 4994   3.255   2.122  11.593  0.1007  0.1575  0.2149
  333MPD2    C1 4995   3.197   2.071  11.481 -0.1187  0.2149  0.4240
  333MPD2    C2 4996   3.071   2.007  11.478  0.2105 -0.1188 -0.3102
  333MPD2    C3 4997   3.001   2.003  11.599  0.1814  0.3934  0.0679
  333MPD2    C4 4998   3.050   2.072  11.712  0.6314  0.4672 -0.6231
  333MPD2    C5 4999   3.180   2.124  11.712  0.0433  0.2454 -0.2627
  333MPD2     H 5000   3.040   1.955  11.388  2.2163  0.0977 -1.1261
  333MPD2    H1 5001   2.999   2.067  11.807  1.4634  1.5114 -0.1282
  333MPD2    H2 5002   3.351   2.171  11.602  0.2927  0.3421 -2.9616
  333MPD2    H3 5003   3.214   2.170  11.804 -0.2966 -0.5391  0.2619
  333MPD2     N 5004   2.879   1.927  11.592  0.2799 -0.0803 -0.4797
  333MPD2    H5 5005   2.869   1.878  11.503 -0.6518  1.6022 -1.2960
  333MPD2    N1 5006   3.280   2.074  11.366  0.2731  0.7430  0.3096
  333MPD2    H7 5007   3.379   2.085  11.383  0.7921 -1.6888 -1.1922
  334TMC3    C1 5008   3.349   2.072  11.141 -0.6043  0.7473 -0.5490
  334TMC3    C2 5009   3.475   2.030  11.174 -0.1223  0.4409  0.8307
  334TMC3    C3 5010   3.584   2.071  11.104 -0.0604 -0.0229  0.1827
  334TMC3    C4 5011   3.340   2.156  11.031  0.6941  0.0539  0.6913
  334TMC3    C5 5012   3.448   2.197  10.959 -0.0632 -0.3753  0.2587
  334TMC3    C6 5013   3.575   2.164  11.000 -0.5922  0.7298  0.2335
  334TMC3     C 5014   3.241   2.077  11.238  0.1140 -0.2428 -0.1633
  334TMC3     O 5015   3.132   2.100  11.192 -0.3745  0.3413  0.2681
  334TMC3     H 5016   3.491   1.964  11.258 -0.6192 -1.2953 -0.4366
  334TMC3    H1 5017   3.236   2.177  11.006  0.2963 -2.5476  0.2157
  334TMC3    H2 5018   3.658   2.204  10.943  0.0743 -0.5704  0.3030
  334TMC3    C7 5019   3.428   2.318  10.895 -0.1727 -0.2980  0.0846
  334TMC3    C8 5020   3.715   2.046  11.158 -0.0065 -0.5617 -0.1642
  334TMC3    O1 5021   3.393   2.414  10.964 -0.1699 -0.4471 -0.0033
  334TMC3    O2 5022   3.719   1.966  11.253  0.0744 -0.0404 -0.1650
  335TMC3    C1 5023   2.576   3.686  17.342  0.3691 -0.3097  0.0493
  335TMC3    C2 5024   2.453   3.630  17.328 -0.3666 -0.3914 -0.3995
  335TMC3    C3 5025   2.451   3.491  17.340 -0.6076 -0.0479  0.0584
  335TMC3    C4 5026   2.693   3.610  17.340  0.1663 -0.7152 -0.1084
  335TMC3    C5 5027   2.679   3.473  17.341  0.3955  0.8175 -0.0990
  335TMC3    C6 5028   2.555   3.412  17.342 -0.4955  0.0854  0.3807
  335TMC3     C 5029   2.580   3.833  17.343 -0.6573  0.3424 -0.3641
  335TMC3     O 5030   2.470   3.895  17.342 -0.2436 -0.2832  0.5548
  335TMC3     H 5031   2.360   3.686  17.333 -1.3871 -2.1898  1.0231
  335TMC3    H1 5032   2.791   3.653  17.355 -0.3999  0.7356 -0.5327
  335TMC3    H2 5033   2.535   3.306  17.351 -2.1389  0.3261 -0.4605
  335TMC3    C7 5034   2.786   3.404  17.271  0.3004 -0.0580  0.1309
  335TMC3    C8 5035   2.321   3.431  17.306  0.5743  0.0114 -0.3221
  335TMC3    O1 5036   2.856   3.464  17.190  0.0090  0.2076 -0.3360
  335TMC3    O2 5037   2.281   3.339  17.375 -0.0920  0.3732  0.4555
  336MPD2     C 5038   2.147   1.861  16.061  0.0367 -0.2847 -0.1630
  336MPD2    C1 5039   2.055   1.785  15.983  0.2671 -0.4561 -1.0667
  336MPD2    C2 5040   2.028   1.656  16.005  0.3780 -0.1386 -0.3945
  336MPD2    C3 5041   2.106   1.591  16.102  0.2238 -0.3385 -0.0759
  336MPD2    C4 5042   2.208   1.665  16.168  1.1814 -0.5666 -0.0159
  336MPD2    C5 5043   2.231   1.797  16.150  0.0448 -0.1357  0.5238
  336MPD2     H 5044   1.940   1.603  15.970 -0.5410  1.2706 -0.2375
  336MPD2    H1 5045   2.269   1.612  16.240 -0.8431 -1.6747  0.8950
  336MPD2    H2 5046   2.159   1.968  16.046  0.2977 -0.0675  1.5515
  336MPD2    H3 5047   2.306   1.853  16.205 -0.8662  0.9043  0.7205
  336MPD2     N 5048   2.096   1.464  16.142  0.4188  0.1889 -0.3756
  336MPD2    H5 5049   2.158   1.435  16.217 -0.1054 -0.9021 -0.3488
  336MPD2    N1 5050   1.978   1.861  15.894  0.3599  0.0962  0.0399
  336MPD2    H7 5051   1.885   1.827  15.873  1.1146 -1.8201 -0.1495
  337TMC3    C1 5052   1.910   2.026  15.749 -0.2868  0.3573  0.3518
  337TMC3    C2 5053   1.784   1.972  15.766  0.3813 -0.4826  0.0499
  337TMC3    C3 5054   1.675   2.056  15.742 -0.0668  0.1382  0.3113
  337TMC3    C4 5055   1.939   2.144  15.696  0.5564  0.3761  0.1451
  337TMC3    C5 5056   1.828   2.223  15.669 -0.1247  0.0591 -0.4625
  337TMC3    C6 5057   1.697   2.185  15.694 -0.0525  0.0636  0.3186
  337TMC3     C 5058   2.023   1.973  15.831  0.0105  0.1880  0.0921
  337TMC3     O 5059   2.127   2.037  15.834  0.5952 -0.8870  0.0339
  337TMC3     H 5060   1.770   1.867  15.788 -1.6242 -0.1617  0.2913
  337TMC3    H1 5061   2.043   2.169  15.674  0.5143 -1.0071 -1.6331
  337TMC3    H2 5062   1.614   2.253  15.679  1.7947  1.4740 -3.5350
  337TMC3    C7 5063   1.842   2.365  15.640 -0.0995  0.2219  0.1417
  337TMC3    C8 5064   1.541   1.996  15.744 -0.8224  0.3497 -0.5682
  337TMC3    O1 5065   1.753   2.424  15.581  0.1584  0.0205 -0.8295
  337TMC3    O2 5066   1.545   1.878  15.768  0.3656  0.1105  0.4216
  338MPD2     C 5067   2.999   0.988   0.557  0.3641  0.2819 -0.2263
  338MPD2    C1 5068   2.865   0.979   0.531 -0.2533 -0.3601 -0.0484
  338MPD2    C2 5069   2.774   1.067   0.584 -0.1843 -0.3284  0.3911
  338MPD2    C3 5070   2.812   1.157   0.675  0.3342 -0.1258  0.3218
  338MPD2    C4 5071   2.940   1.158   0.716 -0.2930  0.1776  0.0785
  338MPD2    C5 5072   3.036   1.078   0.657 -0.8583 -0.3857  0.3498
  338MPD2     H 5073   2.667   1.062   0.569 -0.7236  2.6212  3.3395
  338MPD2    H1 5074   2.971   1.223   0.797  0.4482  1.2754 -1.0838
  338MPD2    H2 5075   3.063   0.912   0.513  0.9565  0.2956  0.6170
  338MPD2    H3 5076   3.141   1.088   0.684 -0.7468 -1.7245  0.4127
  338MPD2     N 5077   2.716   1.240   0.736  0.2431 -0.0111 -0.4450
  338MPD2    H5 5078   2.619   1.225   0.708  0.1927 -1.7975  0.7194
  338MPD2    N1 5079   2.813   0.889   0.433  0.1622  0.3363 -0.2130
  338MPD2    H7 5080   2.714   0.891   0.413  0.2946 -1.6679 -1.0518
  339TMC3    C1 5081   2.620   1.422   0.848 -0.1935  0.5349 -0.6702
  339TMC3    C2 5082   2.509   1.361   0.895  1.0353 -0.3225 -0.1678
  339TMC3    C3 5083   2.402   1.436   0.931  0.2818 -1.1245  0.3611
  339TMC3    C4 5084   2.628   1.558   0.849  0.0450  0.4650  0.1683
  339TMC3    C5 5085   2.516   1.628   0.874  0.4503  0.4009  0.1214
  339TMC3    C6 5086   2.401   1.569   0.915  0.8369  0.4110 -0.2640
  339TMC3     C 5087   2.745   1.356   0.803 -0.3817  0.0010  0.3838
  339TMC3     O 5088   2.852   1.417   0.810  0.1038 -0.3277 -0.2319
  339TMC3     H 5089   2.514   1.253   0.904 -0.2821 -0.2869  1.0079
  339TMC3    H1 5090   2.720   1.605   0.815  0.2706 -2.2156 -2.9151
  339TMC3    H2 5091   2.313   1.628   0.938 -0.7570 -1.0732 -2.6648
  339TMC3    C7 5092   2.521   1.769   0.849  0.7880 -0.7361  0.2044
  339TMC3    C8 5093   2.299   1.382   1.018 -0.2980 -0.1747 -0.7139
  339TMC3    O1 5094   2.409   1.814   0.836 -0.2010 -0.3394 -0.1100
  339TMC3    O2 5095   2.243   1.463   1.090 -0.1923  0.2658  0.0063
  340MPD2     C 5096   2.616   4.038  10.889  0.0870  0.0452  0.4990
  340MPD2    C1 5097   2.700   4.074  10.789 -0.1071 -0.5380  0.3304
  340MPD2    C2 5098   2.788   4.185  10.802 -0.0770  0.0756  0.0657
  340MPD2    C3 5099   2.809   4.241  10.926  0.9454 -0.7374  0.3534
  340MPD2    C4 5100   2.734   4.186  11.030  0.4096  0.0347 -0.8109
  340MPD2    C5 5101   2.638   4.091  11.010 -0.4812  0.9264 -0.4793
  340MPD2     H 5102   2.842   4.211  10.711  0.1340  0.6871  0.3639
  340MPD2    H1 5103   2.740   4.223  11.131  0.5120  0.1523 -0.8597
  340MPD2    H2 5104   2.533   3.968  10.882 -0.7417  1.3895 -3.0386
  340MPD2    H3 5105   2.574   4.061  11.092 -0.2745 -1.3948 -1.1662
  340MPD2     N 5106   2.914   4.327  10.955  0.0404  0.4505  0.5942
  340MPD2    H5 5107   2.959   4.332  11.045 -0.3681  0.4943  0.7932
  340MPD2    N1 5108   2.685   4.005  10.668  0.5068 -0.3397  0.3848
  340MPD2    H7 5109   2.624   3.923  10.671 -0.0343  0.0750  0.6361
  341TMC3    C1 5110   2.725   3.918  10.449 -0.1364 -0.1975  0.7862
  341TMC3    C2 5111   2.692   3.791  10.495  0.3635 -0.2131  0.3334
  341TMC3    C3 5112   2.747   3.692  10.424 -0.1339 -0.2499  0.2556
  341TMC3    C4 5113   2.790   3.943  10.329  0.4231  0.1119 -0.4556
  341TMC3    C5 5114   2.819   3.829  10.256  0.0928 -0.0702  0.2404
  341TMC3    C6 5115   2.811   3.707  10.305  0.0006  0.2653  0.8410
  341TMC3     C 5116   2.755   4.018  10.549 -1.0242  0.1120  0.4104
  341TMC3     O 5117   2.828   4.109  10.521  0.2591 -0.3461 -0.6581
  341TMC3     H 5118   2.639   3.763  10.585  0.2627 -1.4773 -0.1208
  341TMC3    H1 5119   2.806   4.046  10.301  0.0774  0.3438  0.1904
  341TMC3    H2 5120   2.860   3.628  10.249 -1.3845 -1.5683  2.2022
  341TMC3    C7 5121   2.902   3.851  10.137 -0.1957  0.3984  0.2730
  341TMC3    C8 5122   2.753   3.555  10.481  0.3142 -0.5917 -0.9234
  341TMC3    O1 5123   2.935   3.746  10.089  0.1398  0.3838  0.5067
  341TMC3    O2 5124   2.674   3.533  10.572  0.4792  0.0867 -0.2861
  342MPD2     C 5125   4.680   2.115  17.390 -0.8686  0.0778  0.4735
  342MPD2    C1 5126   0.095   2.116  17.411  0.3705 -1.0601  0.3946
  342MPD2    C2 5127   0.159   2.231  17.461  0.3727  0.4609 -0.3260
  342MPD2    C3 5128   0.080   2.339  17.499  0.5991  0.1677  0.1382
  342MPD2    C4 5129   4.667   2.339  17.483  0.1133  0.3063  0.5311
  342MPD2    C5 5130   4.609   2.231  17.422 -0.2762  0.0720  0.1042
  342MPD2     H 5131   0.267   2.230  17.466  0.4510  0.2246 -2.0620
  342MPD2    H1 5132   4.605   2.415  17.529  1.7438  0.9116  1.7311
  342MPD2    H2 5133   4.625   2.029  17.355 -2.1015  0.8990  0.3742
  342MPD2    H3 5134   4.502   2.220  17.415 -0.5133  2.9281 -0.7654
  342MPD2     N 5135   0.135   2.457  17.566  0.4479  0.1421  0.4452
  342MPD2    H5 5136   0.072   2.525  17.607  1.6170  1.0124  0.8097
  342MPD2    N1 5137   0.181   2.003  17.376 -0.1016 -0.4121  0.2074
  342MPD2    H7 5138   0.278   2.004  17.407  0.0513 -0.6556 -0.2490
  343TMC3    C1 5139   0.262   1.826  17.258 -0.1002  0.0734 -0.5622
  343TMC3    C2 5140   0.389   1.865  17.285  0.2791 -0.1404 -0.0393
  343TMC3    C3 5141   0.488   1.768  17.275 -0.5773 -0.1968  0.0997
  343TMC3    C4 5142   0.233   1.695  17.234 -0.2881  0.4482  0.3580
  343TMC3    C5 5143   0.327   1.603  17.244 -0.1938  0.2972 -0.0319
  343TMC3    C6 5144   0.462   1.635  17.258  0.1307  0.1273 -0.0939
  343TMC3     C 5145   0.150   1.911  17.284  0.2707  1.1430 -0.1473
  343TMC3     O 5146   0.042   1.894  17.233  0.1009  0.4748 -0.2809
  343TMC3     H 5147   0.417   1.969  17.300 -0.9879 -0.0330  1.5275
  343TMC3    H1 5148   0.130   1.675  17.208  0.5099  0.5137 -2.8531
  343TMC3    H2 5149   0.533   1.554  17.269 -1.7847 -1.1197  2.7430
  343TMC3    C7 5150   0.292   1.472  17.193  0.0424  0.5054 -0.3903
  343TMC3    C8 5151   0.617   1.791  17.330  0.0360 -0.1418  0.3052
  343TMC3    O1 5152   0.183   1.432  17.229  0.0852  0.2590  0.2214
  343TMC3    O2 5153   0.624   1.873  17.420 -0.3657 -0.1625  0.4439
  344MPD2     C 5154   1.825   1.465  10.632 -0.3191  0.5486  1.0413
  344MPD2    C1 5155   1.827   1.530  10.751  0.1580 -0.4434  0.2535
  344MPD2    C2 5156   1.902   1.648  10.773 -0.4257 -0.4783  0.2979
  344MPD2    C3 5157   1.982   1.703  10.672  0.0702  0.3910  0.7221
  344MPD2    C4 5158   1.978   1.635  10.553  0.8025 -0.0756  0.4291
  344MPD2    C5 5159   1.903   1.520  10.537 -0.3688 -0.8979 -0.6884
  344MPD2     H 5160   1.895   1.688  10.874 -0.4781 -2.6260  1.1512
  344MPD2    H1 5161   2.039   1.675  10.474  0.2731 -0.7621 -0.3309
  344MPD2    H2 5162   1.781   1.368  10.609 -0.8010  0.5480  1.9919
  344MPD2    H3 5163   1.920   1.469  10.443  0.8003 -2.7620  0.5241
  344MPD2     N 5164   2.050   1.825  10.665 -0.3528  0.1096  0.0899
  344MPD2    H5 5165   2.110   1.843  10.585 -1.4885  0.6511 -0.6440
  344MPD2    N1 5166   1.773   1.458  10.861 -0.1590  0.3531  0.0935
  344MPD2    H7 5167   1.803   1.475  10.957 -2.0898  1.6370  0.4566
  345TMC3    C1 5168   2.105   2.035  10.723 -0.0092  0.7573  0.1741
  345TMC3    C2 5169   2.193   2.109  10.804 -0.3156  0.5646  0.7461
  345TMC3    C3 5170   2.268   2.205  10.746  1.1696  0.2919 -0.8661
  345TMC3    C4 5171   2.092   2.073  10.595 -0.4784  0.0821 -0.3570
  345TMC3    C5 5172   2.145   2.189  10.549 -0.9124 -0.0964 -0.2922
  345TMC3    C6 5173   2.252   2.248  10.616 -0.6798  0.1732  0.0613
  345TMC3     C 5174   2.061   1.904  10.772  0.1631  0.3136 -0.5237
  345TMC3     O 5175   2.044   1.875  10.887 -0.4448 -0.6222 -0.2607
  345TMC3     H 5176   2.222   2.084  10.906  1.0239  1.7450  0.6554
  345TMC3    H1 5177   2.025   2.021  10.527  0.6709 -0.8299 -0.8046
  345TMC3    H2 5178   2.297   2.342  10.586 -0.3219  0.3501  1.1468
  345TMC3    C7 5179   2.057   2.284  10.492 -0.4275 -0.0057  0.0547
  345TMC3    C8 5180   2.327   2.299  10.836  0.9914  0.2031 -0.9316
  345TMC3    O1 5181   2.084   2.400  10.517  0.2527  0.8276  0.0125
  345TMC3    O2 5182   2.270   2.317  10.946 -0.1123 -0.3187 -0.1484
  346MPD2     C 5183   1.816   3.258  14.128 -0.2957 -0.2579  0.0908
  346MPD2    C1 5184   1.944   3.267  14.168 -0.0288 -0.1427 -0.2913
  346MPD2    C2 5185   1.983   3.321  14.285 -0.4108 -0.4763 -0.1483
  346MPD2    C3 5186   1.886   3.367  14.377 -0.2296  0.0285 -0.1699
  346MPD2    C4 5187   1.756   3.365  14.333  0.0421 -1.1426  0.3395
  346MPD2    C5 5188   1.717   3.306  14.214 -0.3528 -1.1343 -0.0419
  346MPD2     H 5189   2.086   3.302  14.312 -0.6645  0.6283  1.5674
  346MPD2    H1 5190   1.672   3.392  14.397 -2.0789 -3.3156 -1.5316
  346MPD2    H2 5191   1.786   3.213  14.034  0.5876  1.1690 -0.8670
  346MPD2    H3 5192   1.612   3.290  14.191 -1.3557  0.4845  3.3690
  346MPD2     N 5193   1.918   3.408  14.505  0.5221 -0.2536  0.1524
  346MPD2    H5 5194   2.009   3.381  14.540  1.1409  2.2001  0.4142
  346MPD2    N1 5195   2.050   3.236  14.074  0.5796  0.2660  0.2836
  346MPD2    H7 5196   2.143   3.249  14.113  1.7599 -2.3891 -1.6756
  347TMC3    C1 5197   1.891   3.495  14.725  0.2988  0.1915  0.1363
  347TMC3    C2 5198   1.998   3.426  14.764 -0.3424  0.4600 -0.5582
  347TMC3    C3 5199   2.027   3.437  14.897 -0.0048  0.2797 -0.3046
  347TMC3    C4 5200   1.815   3.572  14.811 -0.1124 -0.3283  0.3285
  347TMC3    C5 5201   1.853   3.587  14.942  0.1642 -0.1061  0.4546
  347TMC3    C6 5202   1.954   3.509  14.989 -0.5226 -0.3438  0.5132
  347TMC3     C 5203   1.834   3.480  14.587  0.1766 -0.2272  0.7587
  347TMC3     O 5204   1.728   3.532  14.565  0.0035  0.0804 -0.2213
  347TMC3     H 5205   2.046   3.359  14.693 -1.4141 -2.3919  1.4035
  347TMC3    H1 5206   1.729   3.617  14.762  1.6583  1.0603 -1.5170
  347TMC3    H2 5207   1.976   3.506  15.095  1.0722  0.2128  0.1893
  347TMC3    C7 5208   1.822   3.714  15.006 -0.7997  0.2811  0.0312
  347TMC3    C8 5209   2.086   3.313  14.942 -0.4176  1.1440  0.0920
  347TMC3    O1 5210   1.867   3.724  15.122  0.1488 -0.6350 -0.0654
  347TMC3    O2 5211   2.106   3.227  14.855  0.7411  0.1271  0.0900
  348MPD2     C 5212   0.135   3.020  12.408 -0.0104  0.2505 -0.4529
  348MPD2    C1 5213   0.252   3.058  12.359 -0.4544 -0.4540  0.0374
  348MPD2    C2 5214   0.271   3.056  12.219  0.0221 -0.8433  0.0298
  348MPD2    C3 5215   0.161   3.052  12.140  0.7071  0.0828 -0.3350
  348MPD2    C4 5216   0.036   3.033  12.195  0.0517 -0.2829  0.5045
  348MPD2    C5 5217   0.025   3.003  12.330 -0.0095 -0.1469  0.7557
  348MPD2     H 5218   0.365   3.084  12.174 -0.7580 -0.2339 -1.2145
  348MPD2    H1 5219   4.668   3.033  12.137 -1.0248  0.4655  2.2154
  348MPD2    H2 5220   0.128   2.990  12.511  1.5738  0.7261 -0.2091
  348MPD2    H3 5221   4.652   2.982  12.373 -1.0288 -0.0843 -1.4978
  348MPD2     N 5222   0.188   3.060  12.001  0.0686  0.0376 -0.4367
  348MPD2    H5 5223   0.282   3.080  11.968  1.0947 -4.4089 -0.1524
  348MPD2    N1 5224   0.377   3.075  12.433  0.6566 -0.1686 -0.0336
  348MPD2    H7 5225   0.461   3.093  12.379  2.0118  0.1053  2.2090
  349TMC3    C1 5226   0.536   3.077  12.596  0.3599  0.6066  0.4742
  349TMC3    C2 5227   0.590   2.958  12.633 -0.8116  0.5418 -0.7621
  349TMC3    C3 5228   0.703   2.918  12.564 -0.4331  0.1170 -0.0839
  349TMC3    C4 5229   0.601   3.165  12.510  0.1822 -0.3514  0.3201
  349TMC3    C5 5230   0.709   3.120  12.452  0.7194  0.2469 -0.0172
  349TMC3    C6 5231   0.758   2.995  12.466  0.1694 -0.3175  0.7668
  349TMC3     C 5232   0.396   3.056  12.569  0.2605 -0.7819 -0.4447
  349TMC3     O 5233   0.317   3.031  12.660  1.0244 -0.2549 -0.2025
  349TMC3     H 5234   0.528   2.884  12.682  0.7315 -0.4045 -0.2600
  349TMC3    H1 5235   0.539   3.239  12.460  1.0121 -0.3471 -0.6939
  349TMC3    H2 5236   0.849   2.974  12.411  0.6346  1.1984  0.9667
  349TMC3    C7 5237   0.720   3.168  12.307 -0.1807 -0.0653  0.0705
  349TMC3    C8 5238   0.742   2.776  12.579 -0.0157  0.4477 -0.7086
  349TMC3    O1 5239   0.618   3.197  12.244  0.1748 -0.5224  0.4872
  349TMC3    O2 5240   0.680   2.721  12.667 -0.5787 -0.7533 -0.4771
  350MPD2     C 5241   3.886   0.972  10.160  0.4100  0.4450 -0.1132
  350MPD2    C1 5242   3.955   0.853  10.132 -1.2049 -0.6641 -0.1539
  350MPD2    C2 5243   4.090   0.861  10.135 -0.1072  0.0977 -0.2711
  350MPD2    C3 5244   4.155   0.986  10.163  0.2352 -0.0194 -0.0481
  350MPD2    C4 5245   4.081   1.100  10.196  0.6087  0.3863 -0.9877
  350MPD2    C5 5246   3.948   1.086  10.193  0.4461 -0.3329 -0.4778
  350MPD2     H 5247   4.152   0.772  10.127 -2.1115 -1.3587  0.3849
  350MPD2    H1 5248   4.122   1.196  10.224 -0.9582  0.2922  1.6697
  350MPD2    H2 5249   3.779   0.986  10.170  0.3634  0.9549 -1.2472
  350MPD2    H3 5250   3.881   1.169  10.211 -1.3321 -1.7925 -0.4243
  350MPD2     N 5251   4.295   0.981  10.186  0.1838 -0.3593 -0.2972
  350MPD2    H5 5252   4.333   0.890  10.210 -0.5319 -0.2814  1.1613
  350MPD2    N1 5253   3.890   0.727  10.109 -0.1834  0.7248 -0.1439
  350MPD2    H7 5254   3.947   0.652  10.073  0.0076  1.3417 -1.1377
  351TMC3    C1 5255   3.704   0.596  10.036  0.9651 -0.1221  0.1166
  351TMC3    C2 5256   3.790   0.541   9.944  0.3415 -0.4700  0.6698
  351TMC3    C3 5257   3.738   0.431   9.883  0.4772  0.4603 -0.2797
  351TMC3    C4 5258   3.576   0.561  10.046  0.2287 -0.3495 -0.1137
  351TMC3    C5 5259   3.527   0.454   9.976  1.1100 -0.1627  1.1992
  351TMC3    C6 5260   3.614   0.383   9.895 -0.1168 -0.0503  0.0593
  351TMC3     C 5261   3.752   0.714  10.099 -0.0502 -0.1766  0.0117
  351TMC3     O 5262   3.660   0.789  10.129 -0.0692  0.7583  0.0096
  351TMC3     H 5263   3.887   0.580   9.916  0.2071  0.4422  1.4755
  351TMC3    H1 5264   3.520   0.610  10.125 -0.2149 -0.3572 -0.4272
  351TMC3    H2 5265   3.588   0.281   9.870  0.8859 -1.0170  2.9260
  351TMC3    C7 5266   3.405   0.400  10.039 -0.1328 -0.6176  0.0739
  351TMC3    C8 5267   3.828   0.377   9.783 -0.9520  0.1949 -0.1321
  351TMC3    O1 5268   3.365   0.456  10.136  0.2629  0.1196  0.1308
  351TMC3    O2 5269   3.948   0.395   9.801 -0.5780  0.4701  0.2590
  352MPD2     C 5270   2.372   3.207   0.840 -0.1410  1.0614 -0.1473
  352MPD2    C1 5271   2.261   3.144   0.893 -0.2802 -0.7301 -0.2957
  352MPD2    C2 5272   2.294   3.030   0.965 -0.2152  0.4658  0.4861
  352MPD2    C3 5273   2.424   2.983   0.997 -1.0617  0.2790  0.5165
  352MPD2    C4 5274   2.529   3.061   0.948 -1.0891  0.8725 -0.9774
  352MPD2    C5 5275   2.501   3.170   0.869 -0.0656  0.1471 -0.0124
  352MPD2     H 5276   2.212   2.978   1.013 -0.8800  0.4422 -0.6712
  352MPD2    H1 5277   2.633   3.046   0.976 -1.3930  0.8513  0.1269
  352MPD2    H2 5278   2.356   3.292   0.775  3.0202  0.2758 -1.9659
  352MPD2    H3 5279   2.587   3.232   0.846 -0.4214  0.4245 -0.5973
  352MPD2     N 5280   2.451   2.870   1.079 -0.1626  0.1036 -0.0062
  352MPD2    H5 5281   2.545   2.833   1.069  0.1003  1.1145 -1.2707
  352MPD2    N1 5282   2.126   3.181   0.865  0.7439 -0.7670 -0.0159
  352MPD2    H7 5283   2.112   3.266   0.811 -0.0858 -0.1756  1.1227
  353TMC3    C1 5284   2.420   2.722   1.264  0.0312 -0.0220 -0.3291
  353TMC3    C2 5285   2.550   2.668   1.248  0.3644 -0.1169  0.2292
  353TMC3    C3 5286   2.584   2.567   1.340 -0.1791 -0.1886  0.2490
  353TMC3    C4 5287   2.326   2.662   1.341  0.3268  0.1995 -0.0177
  353TMC3    C5 5288   2.368   2.556   1.424  0.0181  0.5207  0.4669
  353TMC3    C6 5289   2.501   2.508   1.424 -0.1060 -0.1846 -0.2043
  353TMC3     C 5290   2.363   2.810   1.163 -0.7599  0.3961  0.0106
  353TMC3     O 5291   2.243   2.825   1.173 -0.7042 -0.3929  0.0768
  353TMC3     H 5292   2.625   2.701   1.177  1.7113 -1.3818  1.0462
  353TMC3    H1 5293   2.228   2.705   1.354  1.3999  2.6443 -0.0208
  353TMC3    H2 5294   2.543   2.436   1.493  0.4836  1.5958  1.3103
  353TMC3    C7 5295   2.280   2.489   1.508 -0.0280  0.3094 -0.7565
  353TMC3    C8 5296   2.691   2.483   1.283  0.5924  0.0656  0.2201
  353TMC3    O1 5297   2.337   2.430   1.598  0.3756  0.7477  0.0525
  353TMC3    O2 5298   2.790   2.541   1.246 -0.0936 -0.4738 -0.3120
  354TMC3    C1 5299   4.349   4.069  13.189  0.3581  0.4166  0.0254
  354TMC3    C2 5300   4.319   4.207  13.172  0.5730 -0.1956 -0.2028
  354TMC3    C3 5301   4.391   4.273  13.069 -0.1160  0.0110  0.4352
  354TMC3    C4 5302   4.418   3.997  13.103  0.3528 -0.1973 -0.0857
  354TMC3    C5 5303   4.483   4.069  13.002  0.4412 -0.5085  0.2101
  354TMC3    C6 5304   4.468   4.206  12.981  0.4004  0.0612  0.5166
  354TMC3     C 5305   4.297   4.003  13.308 -0.3955  0.0285 -0.5421
  354TMC3     O 5306   4.278   3.883  13.294  0.4546  0.2508 -0.2044
  354TMC3     H 5307   4.256   4.266  13.238 -1.1383 -0.4723 -1.5892
  354TMC3    H1 5308   4.458   3.899  13.127  0.6404  0.2166  1.1494
  354TMC3    H2 5309   4.512   4.261  12.899 -1.0366 -1.6783 -1.4348
  354TMC3    C7 5310   4.587   4.002  12.931  0.2727  0.1659 -0.6822
  354TMC3    C8 5311   4.391   4.422  13.056 -1.0110 -0.1099  0.0905
  354TMC3    O1 5312   4.587   3.882  12.923  0.4848  1.2074  0.8250
  354TMC3    O2 5313   4.467   4.471  12.972 -0.5528  0.0086 -0.0139
  355MPD2     C 5314   4.364   0.877  12.000  0.0596  0.5541 -0.9472
  355MPD2    C1 5315   4.398   0.778  11.906 -0.4614 -0.2117 -0.0524
  355MPD2    C2 5316   4.483   0.678  11.951  0.7845  0.1708  0.6716
  355MPD2    C3 5317   4.545   0.693  12.074 -0.1020 -0.1505  0.1008
  355MPD2    C4 5318   4.505   0.791  12.160 -0.7551  0.1252 -0.2018
  355MPD2    C5 5319   4.406   0.876  12.127 -0.0918 -0.8000  0.8262
  355MPD2     H 5320   4.501   0.592  11.888 -0.8013 -0.0470  0.5141
  355MPD2    H1 5321   4.556   0.808  12.255 -0.0417 -0.0539 -0.5532
  355MPD2    H2 5322   4.304   0.961  11.968 -1.7488  0.4011  2.0354
  355MPD2    H3 5323   4.371   0.953  12.195 -1.9123  1.0037 -2.1719
  355MPD2     N 5324   4.655   0.621  12.113 -0.1165 -0.4754 -0.3710
  355MPD2    H5 5325   4.683   0.620  12.211  1.1856 -1.2849 -0.7533
  355MPD2    N1 5326   4.369   0.805  11.771  0.2728 -0.0089 -0.5729
  355MPD2    H7 5327   4.329   0.897  11.756  0.6591  0.5270  1.7599
  356TMC3    C1 5328   0.137   0.499  12.093 -0.6569 -0.0727 -0.8567
  356TMC3    C2 5329   0.221   0.479  11.988 -0.1676  0.4795  0.1441
  356TMC3    C3 5330   0.339   0.545  11.986 -0.7191 -0.5803 -0.5496
  356TMC3    C4 5331   0.169   0.581  12.196 -0.9526 -0.0137  0.0722
  356TMC3    C5 5332   0.294   0.646  12.193 -0.2292 -0.2165  0.5633
  356TMC3    C6 5333   0.381   0.634  12.085 -0.2668  0.2851  0.4749
  356TMC3     C 5334   0.008   0.540  12.030 -0.3136 -0.2228  0.3129
  356TMC3     O 5335   0.015   0.559  11.908 -0.1642 -0.2159  0.6779
  356TMC3     H 5336   0.188   0.421  11.902  1.6846  1.3385 -1.1423
  356TMC3    H1 5337   0.109   0.583  12.286 -0.7098 -0.5568  0.2496
  356TMC3    H2 5338   0.481   0.673  12.096  0.3331 -0.7051 -1.4011
  356TMC3    C7 5339   0.359   0.638  12.320 -0.9170 -0.0902  0.2677
  356TMC3    C8 5340   0.402   0.543  11.854 -0.2294  0.0947  0.3727
  356TMC3    O1 5341   0.354   0.530  12.377  0.0155  0.2785 -0.6896
  356TMC3    O2 5342   0.380   0.445  11.782  0.5627 -0.3487 -0.6594
  357MPD2     C 5343   4.227   0.077   0.992  0.0433 -0.2114  0.6969
  357MPD2    C1 5344   4.227   0.003   1.108  0.5550  0.3507 -0.3777
  357MPD2    C2 5345   4.163   0.053   1.217  0.0439  0.3800 -0.4809
  357MPD2    C3 5346   4.085   0.168   1.212  0.2292 -0.1759  0.5309
  357MPD2    C4 5347   4.080   0.241   1.097  0.0524 -0.0581 -0.5185
  357MPD2    C5 5348   4.146   0.189   0.986  0.0183  0.0811  0.3038
  357MPD2     H 5349   4.152   4.706   1.298  1.7585  0.0319 -0.5697
  357MPD2    H1 5350   4.026   0.333   1.080  0.7866  0.5196  0.2763
  357MPD2    H2 5351   4.273   0.042   0.900  1.4990 -2.0047  2.1108
  357MPD2    H3 5352   4.142   0.252   0.898  0.0180  0.3618  0.5054
  357MPD2     N 5353   4.014   0.214   1.327 -0.0130  0.3013 -0.1286
  357MPD2    H5 5354   3.941   0.282   1.309 -0.4200 -0.8103 -2.7576
  357MPD2    N1 5355   4.276   4.595   1.106  0.0833 -0.0873  0.1558
  357MPD2    H7 5356   4.315   4.570   1.016  0.6703  3.3552 -0.5310
  358TMC3    C1 5357   4.341   4.368   1.160  0.6564  0.3502 -0.1692
  358TMC3    C2 5358   4.328   4.341   1.028  0.5319 -0.0685 -1.1257
  358TMC3    C3 5359   4.316   4.217   0.990 -1.1547  0.9193 -0.3582
  358TMC3    C4 5360   4.347   4.269   1.255 -0.5949 -0.3880 -0.2656
  358TMC3    C5 5361   4.335   4.144   1.201 -0.7531 -0.0523 -0.0186
  358TMC3    C6 5362   4.307   4.106   1.076  0.6616 -0.2900  0.2777
  358TMC3     C 5363   4.287   4.496   1.202  0.1780 -1.0357 -0.0181
  358TMC3     O 5364   4.261   4.509   1.320  0.6636 -0.6285  0.3097
  358TMC3     H 5365   4.305   4.412   0.950  0.5693 -0.2013 -1.2582
  358TMC3    H1 5366   4.361   4.291   1.360  2.7373  0.0166 -0.7925
  358TMC3    H2 5367   4.343   4.007   1.051  1.1374 -0.2195  0.6759
  358TMC3    C7 5368   4.373   4.041   1.296  0.3678  0.9081  0.1113
  358TMC3    C8 5369   4.269   4.198   0.858 -0.3121 -0.1977  0.4315
  358TMC3    O1 5370   4.434   4.061   1.398  0.3045 -0.5215 -0.4861
  358TMC3    O2 5371   4.279   4.286   0.774 -0.0641 -0.5277  0.2170
  359MPD2     C 5372   4.368   3.338  12.434 -0.1691  0.0794  0.2526
  359MPD2    C1 5373   4.486   3.264  12.444  0.3455 -0.3201  0.4569
  359MPD2    C2 5374   4.497   3.152  12.527 -0.4381 -0.2429 -0.2921
  359MPD2    C3 5375   4.384   3.111  12.596 -0.4339 -0.4189 -0.1111
  359MPD2    C4 5376   4.273   3.188  12.593  0.0557 -0.7949 -0.4471
  359MPD2    C5 5377   4.261   3.304  12.521 -0.3521 -0.1813 -0.3131
  359MPD2     H 5378   4.589   3.096  12.543  0.0459 -0.2421 -3.0123
  359MPD2    H1 5379   4.188   3.155  12.653  0.5229  0.6443  1.0095
  359MPD2    H2 5380   4.359   3.419  12.362 -0.3308 -1.2474 -1.2186
  359MPD2    H3 5381   4.172   3.366  12.525 -0.1802 -0.0422  1.5296
  359MPD2     N 5382   4.379   2.992  12.677 -0.0968  0.0885  0.0607
  359MPD2    H5 5383   4.304   2.975  12.743 -0.3182 -0.4439 -0.3215
  359MPD2    N1 5384   4.604   3.292  12.365  0.2267  1.1118  0.4932
  359MPD2    H7 5385   4.687   3.234  12.362 -1.5439 -1.2504 -2.1799
  360TMC3    C1 5386   0.027   3.386  12.213 -0.0178 -0.0076  0.0394
  360TMC3    C2 5387   0.139   3.390  12.290 -0.5673  0.3984 -1.1362
  360TMC3    C3 5388   0.254   3.437  12.235 -0.8621 -0.3783 -0.9903
  360TMC3    C4 5389   0.024   3.438  12.083  0.3300 -0.1604 -0.2048
  360TMC3    C5 5390   0.140   3.467  12.031  0.4020  0.0684  0.2941
  360TMC3    C6 5391   0.258   3.464  12.101 -0.2683  0.2253  0.1724
  360TMC3     C 5392   4.617   3.386  12.268  0.2116  0.6297 -0.1546
  360TMC3     O 5393   4.538   3.471  12.225  0.4515 -0.3146  0.1850
  360TMC3     H 5394   0.127   3.389  12.398  0.2595  2.1848 -1.0403
  360TMC3    H1 5395   4.659   3.450  12.022 -0.0752 -1.6002  0.1053
  360TMC3    H2 5396   0.350   3.501  12.056  0.4451  0.0770  1.4879
  360TMC3    C7 5397   0.146   3.516  11.899  0.2607 -0.0645 -0.6196
  360TMC3    C8 5398   0.370   3.451  12.318 -0.0223  0.1668 -0.4198
  360TMC3    O1 5399   0.233   3.597  11.873 -0.1137 -0.4746 -0.0938
  360TMC3    O2 5400   0.359   3.429  12.440 -0.2118 -0.1372 -0.2739
  361MPD2     C 5401   1.094   2.353  17.165  0.4198 -0.6075 -1.0305
  361MPD2    C1 5402   1.093   2.290  17.040  0.2788 -0.8852 -0.2107
  361MPD2    C2 5403   1.205   2.225  16.994  0.1403  0.2265 -0.4139
  361MPD2    C3 5404   1.324   2.231  17.068 -0.4133  0.0724  0.6618
  361MPD2    C4 5405   1.330   2.311  17.178  0.1236  0.3765 -0.6974
  361MPD2    C5 5406   1.212   2.363  17.231  0.3873 -0.0140 -0.7431
  361MPD2     H 5407   1.216   2.185  16.894  2.9532  3.1444 -1.2589
  361MPD2    H1 5408   1.422   2.328  17.233 -1.3364 -1.1255  2.1898
  361MPD2    H2 5409   1.008   2.404  17.206  0.0406 -0.5074 -1.9412
  361MPD2    H3 5410   1.204   2.430  17.316  2.1360  0.9077 -1.2976
  361MPD2     N 5411   1.445   2.173  17.028  0.5346 -0.2304  0.6167
  361MPD2    H5 5412   1.527   2.198  17.083  0.4425  0.2692  0.5342
  361MPD2    N1 5413   0.975   2.309  16.963  0.2089  0.4142  0.5448
  361MPD2    H7 5414   0.904   2.353  17.021  1.1847  1.5166  0.9088
  362TMC3    C1 5415   0.833   2.344  16.776  0.4220 -0.1181  0.1310
  362TMC3    C2 5416   0.730   2.356  16.865  0.0308 -0.5668 -0.0951
  362TMC3    C3 5417   0.630   2.433  16.832 -0.5456 -0.2262  0.6992
  362TMC3    C4 5418   0.838   2.407  16.657  0.2782 -0.1731 -0.4217
  362TMC3    C5 5419   0.731   2.489  16.626  0.8707 -0.2272  0.4748
  362TMC3    C6 5420   0.623   2.505  16.713  0.4963  0.6201 -0.0428
  362TMC3     C 5421   0.965   2.305  16.828  0.2766  0.4124 -0.0500
  362TMC3     O 5422   1.056   2.285  16.751  0.0373 -0.4386 -0.3665
  362TMC3     H 5423   0.733   2.305  16.961 -1.6730  1.2318  0.9159
  362TMC3    H1 5424   0.921   2.411  16.587 -0.0012 -0.4702 -0.7699
  362TMC3    H2 5425   0.531   2.558  16.690  0.0446 -0.0419  0.2462
  362TMC3    C7 5426   0.742   2.580  16.510 -1.0815 -0.4322  0.4904
  362TMC3    C8 5427   0.505   2.377  16.888 -0.9793 -0.1622  0.5290
  362TMC3    O1 5428   0.851   2.603  16.467  0.3132  0.1099  0.6452
  362TMC3    O2 5429   0.506   2.261  16.922  0.0502 -0.3528  0.7760
  363TMC3    C1 5430   0.296   0.489   9.316 -0.5311  0.0134 -0.3802
  363TMC3    C2 5431   0.397   0.424   9.388 -0.8962  0.8447 -0.3840
  363TMC3    C3 5432   0.474   0.503   9.470  0.2344  0.1146 -0.2751
  363TMC3    C4 5433   0.271   0.622   9.321 -0.5360  0.0261  0.4042
  363TMC3    C5 5434   0.359   0.690   9.398 -0.1378  0.3743 -0.0056
  363TMC3    C6 5435   0.464   0.639   9.468 -0.2258 -0.2550  0.2748
  363TMC3     C 5436   0.218   0.407   9.230  0.7361  0.8102  0.1116
  363TMC3     O 5437   0.277   0.311   9.190  0.5507 -0.7236  0.2464
  363TMC3     H 5438   0.412   0.318   9.370  0.8361  1.0772 -0.3352
  363TMC3    H1 5439   0.198   0.670   9.257  0.4749 -0.3595 -1.0417
  363TMC3    H2 5440   0.537   0.701   9.520 -0.2208  0.9415 -1.1865
  363TMC3    C7 5441   0.333   0.830   9.414 -0.1174 -0.2083  0.0249
  363TMC3    C8 5442   0.602   0.448   9.529 -0.0647 -0.3821 -0.0559
  363TMC3    O1 5443   0.222   0.857   9.379 -0.1627  0.4719 -0.4075
  363TMC3    O2 5444   0.687   0.532   9.551 -0.6186 -0.1967  0.5758
  364MPD2     C 5445   3.965   4.657  10.807  0.4487  0.2954  0.0764
  364MPD2    C1 5446   4.071   4.608  10.732 -0.1607 -0.5753  0.1858
  364MPD2    C2 5447   4.069   4.485  10.675  0.6367  0.3598 -0.7888
  364MPD2    C3 5448   3.964   4.402  10.700 -0.1283  0.1899  0.3161
  364MPD2    C4 5449   3.856   4.450  10.770 -0.1798 -0.0458 -0.0763
  364MPD2    C5 5450   3.861   4.573  10.827 -0.2953 -0.1443  0.0539
  364MPD2     H 5451   4.160   4.453  10.625 -0.5329 -1.3370 -1.8437
  364MPD2    H1 5452   3.761   4.397  10.777  0.3198 -1.1023 -1.2776
  364MPD2    H2 5453   3.967   0.031  10.851  1.9114  0.4970 -0.4272
  364MPD2    H3 5454   3.782   4.596  10.897 -2.2433  2.2690 -2.9639
  364MPD2     N 5455   3.967   4.274  10.643 -0.4761  0.3243  0.0396
  364MPD2    H5 5456   3.884   4.218  10.663  0.1185  0.1015  1.8225
  364MPD2    N1 5457   4.175   4.706  10.722  0.4726 -0.0580  0.2033
  364MPD2    H7 5458   4.158   0.079  10.747  2.5410  0.5124 -0.5865
  365TMC3    C1 5459   4.377   0.070  10.629 -0.2831 -0.0834  0.1592
  365TMC3    C2 5460   4.503   0.047  10.580 -0.3816 -0.2642  0.1276
  365TMC3    C3 5461   4.574   0.144  10.506  0.6887  0.3190 -0.5127
  365TMC3    C4 5462   4.316   0.188  10.584  0.2663 -0.5924 -0.1556
  365TMC3    C5 5463   4.383   0.287  10.510  0.5366  0.9631 -0.0752
  365TMC3    C6 5464   4.516   0.265  10.475 -0.1634  0.2008  0.5657
  365TMC3     C 5465   4.307   4.680  10.682 -0.8610 -0.3336 -0.1222
  365TMC3     O 5466   4.364   4.570  10.685 -0.3416  0.1616  0.2075
  365TMC3     H 5467   4.549   4.682  10.622 -1.6023 -0.4052  1.1643
  365TMC3    H1 5468   4.208   0.200  10.588  0.2464 -1.1711  1.1030
  365TMC3    H2 5469   4.567   0.338  10.414 -3.0648  0.4268 -1.5884
  365TMC3    C7 5470   4.321   0.416  10.481  0.1440 -0.3249  0.4708
  365TMC3    C8 5471   4.679   0.092  10.422 -0.2921  0.1555  0.0512
  365TMC3    O1 5472   4.375   0.485  10.394  0.0150 -0.1735  0.1014
  365TMC3    O2 5473   0.030   0.177  10.375  0.3273  0.1038 -0.4402
  366MPD2     C 5474   1.126   1.239  15.577  0.2253 -0.3525 -0.6399
  366MPD2    C1 5475   1.263   1.204  15.578  0.2786 -0.2135  0.4609
  366MPD2    C2 5476   1.301   1.070  15.590  0.8074 -0.2911 -0.1372
  366MPD2    C3 5477   1.205   0.975  15.594  0.4969 -0.6482 -0.0703
  366MPD2    C4 5478   1.070   1.016  15.599  0.3810 -0.1036 -0.2703
  366MPD2    C5 5479   1.032   1.149  15.598  0.2918 -0.3311 -0.5297
  366MPD2     H 5480   1.408   1.055  15.599  0.4217 -1.1773  2.8856
  366MPD2    H1 5481   0.999   0.938  15.627 -0.3369  0.9099  0.7286
  366MPD2    H2 5482   1.097   1.342  15.565 -2.2474 -0.9514  0.1520
  366MPD2    H3 5483   0.929   1.176  15.618  0.9121  0.7009  1.2809
  366MPD2     N 5484   1.234   0.836  15.604  0.4585 -0.4436 -0.3046
  366MPD2    H5 5485   1.163   0.781  15.651  1.6713 -1.3094  0.5309
  366MPD2    N1 5486   1.371   1.298  15.560 -0.0914  0.0854  0.6439
  366MPD2    H7 5487   1.467   1.268  15.544 -1.0094 -0.9029 -3.0306
  367TMC3    C1 5488   1.465   1.499  15.510  0.6834  0.0746  0.0645
  367TMC3    C2 5489   1.580   1.477  15.573  0.0918 -0.1770 -0.5456
  367TMC3    C3 5490   1.670   1.582  15.573 -0.5195  1.0306 -1.0150
  367TMC3    C4 5491   1.429   1.628  15.473  0.5578 -0.0543  0.1243
  367TMC3    C5 5492   1.520   1.725  15.474  0.4255 -0.9583  0.3925
  367TMC3    C6 5493   1.640   1.707  15.532  0.4620 -0.4880  0.0112
  367TMC3     C 5494   1.350   1.433  15.561 -0.0096 -0.7248 -0.1491
  367TMC3     O 5495   1.250   1.495  15.594 -0.3071 -0.7844 -0.0219
  367TMC3     H 5496   1.600   1.381  15.619  0.1507 -0.7515 -1.7633
  367TMC3    H1 5497   1.325   1.652  15.454  0.8691  0.8925 -0.3966
  367TMC3    H2 5498   1.716   1.785  15.532  0.2606 -0.2973  1.6458
  367TMC3    C7 5499   1.495   1.818  15.359  0.4246 -0.1571  0.1534
  367TMC3    C8 5500   1.802   1.555  15.626  0.4876  0.0214  0.3776
  367TMC3    O1 5501   1.397   1.790  15.288 -0.6371 -0.0673  1.4447
  367TMC3    O2 5502   1.865   1.644  15.679  0.1598 -0.1147 -0.2509
  368MPD2     C 5503   2.814   2.215  12.628  0.2921  0.9053  0.1036
  368MPD2    C1 5504   2.855   2.270  12.752 -1.1437 -0.3109  0.4624
  368MPD2    C2 5505   2.990   2.290  12.768 -0.3642  0.0950  0.1187
  368MPD2    C3 5506   3.080   2.247  12.679  0.0876  1.1187 -0.3837
  368MPD2    C4 5507   3.039   2.186  12.558  0.0460  0.4753  0.9283
  368MPD2    C5 5508   2.903   2.185  12.530  0.5105 -0.1009  0.2821
  368MPD2     H 5509   3.012   2.358  12.850 -2.2116 -0.1091  0.7970
  368MPD2    H1 5510   3.112   2.157  12.483 -0.9852  3.0093 -1.0682
  368MPD2    H2 5511   2.710   2.194  12.607  0.0719 -0.0426  2.1392
  368MPD2    H3 5512   2.860   2.150  12.437 -0.1117 -0.3807  0.6811
  368MPD2     N 5513   3.220   2.265  12.710 -0.0829 -0.1345  0.1404
  368MPD2    H5 5514   3.284   2.234  12.639  1.1624 -0.5965  1.4655
  368MPD2    N1 5515   2.763   2.309  12.855  0.0969 -0.3547  0.6513
  368MPD2    H7 5516   2.667   2.311  12.821 -0.0032  2.3611  1.1340
  369TMC3    C1 5517   2.688   2.418  13.049 -0.6743  0.2001 -0.0088
  369TMC3    C2 5518   2.725   2.538  13.105 -0.6395 -0.5169  0.1814
  369TMC3    C3 5519   2.630   2.627  13.127 -0.3286  1.0230  0.1332
  369TMC3    C4 5520   2.554   2.390  13.026  0.3959 -0.6599  0.7084
  369TMC3    C5 5521   2.462   2.482  13.073 -0.6249  0.1104 -0.1740
  369TMC3    C6 5522   2.495   2.602  13.121 -0.3176 -0.4945 -0.5589
  369TMC3     C 5523   2.788   2.337  12.989 -0.3547  0.3429  0.2642
  369TMC3     O 5524   2.890   2.340  13.059  0.5516 -0.1323  0.3938
  369TMC3     H 5525   2.831   2.559  13.108 -1.1978  2.0559  2.0691
  369TMC3    H1 5526   2.519   2.301  12.976  0.1403  1.0713 -2.2438
  369TMC3    H2 5527   2.426   2.682  13.143  2.7150  1.7881  0.6876
  369TMC3    C7 5528   2.328   2.437  13.100 -0.3534 -0.1103 -0.2300
  369TMC3    C8 5529   2.652   2.766  13.098  0.1834  0.7900 -0.0612
  369TMC3    O1 5530   2.291   2.331  13.054  0.6649  0.3649 -0.1619
  369TMC3    O2 5531   2.591   2.810  13.003 -0.0999  0.9017  0.1920
  370TMC3    C1 5532   2.440   3.303  16.249  0.1160  0.1302  0.4784
  370TMC3    C2 5533   2.356   3.249  16.338 -0.1303 -0.0732 -0.7098
  370TMC3    C3 5534   2.333   3.115  16.333 -0.4941  0.2572 -0.0232
  370TMC3    C4 5535   2.507   3.232  16.148  0.8625 -0.6210 -0.4657
  370TMC3    C5 5536   2.467   3.105  16.144 -0.3142  0.0986  0.3988
  370TMC3    C6 5537   2.385   3.041  16.235  0.1549 -0.1861 -0.5289
  370TMC3     C 5538   2.442   3.449  16.248 -0.5459 -0.1143 -0.0458
  370TMC3     O 5539   2.347   3.502  16.305  0.0373 -0.0737 -0.3137
  370TMC3     H 5540   2.302   3.307  16.412 -1.6382  1.2115 -2.8141
  370TMC3    H1 5541   2.574   3.272  16.074 -1.9576  1.7968 -1.7033
  370TMC3    H2 5542   2.361   2.936  16.226  0.8332 -0.4863  1.0395
  370TMC3    C7 5543   2.478   3.035  16.017 -0.5884 -0.7471  0.2279
  370TMC3    C8 5544   2.268   3.045  16.443 -0.0568  0.2583 -0.2418
  370TMC3    O1 5545   2.476   3.107  15.914 -0.6775 -0.0106 -0.3660
  370TMC3    O2 5546   2.252   2.923  16.439  0.9307 -0.2494  0.0377
  371TMC3    C1 5547   3.743   1.297  15.811 -0.1011 -0.5745 -0.7225
  371TMC3    C2 5548   3.613   1.308  15.859 -0.4365  0.3667 -0.3807
  371TMC3    C3 5549   3.567   1.432  15.886 -0.1443 -0.7058  0.0890
  371TMC3    C4 5550   3.829   1.400  15.798  0.2635  0.2697 -0.0392
  371TMC3    C5 5551   3.776   1.522  15.840  0.3413  0.0540  0.5797
  371TMC3    C6 5552   3.649   1.538  15.871  0.4678  0.1599 -0.0759
  371TMC3     C 5553   3.785   1.170  15.745 -0.3874  0.1358  0.2637
  371TMC3     O 5554   3.862   1.179  15.651  0.2171 -0.7427 -0.6010
  371TMC3     H 5555   3.553   1.224  15.892 -3.3475  3.1332  1.3939
  371TMC3    H1 5556   3.925   1.375  15.754 -0.6571 -1.5803 -0.9690
  371TMC3    H2 5557   3.611   1.636  15.896  2.9247  1.8550 -2.9945
  371TMC3    C7 5558   3.848   1.652  15.843 -0.0043  0.1956  0.1905
  371TMC3    C8 5559   3.442   1.451  15.954  0.1366 -1.0792  0.4103
  371TMC3    O1 5560   3.781   1.753  15.821 -0.0814 -0.1729 -0.9009
  371TMC3    O2 5561   3.412   1.369  16.040  0.5159  0.6652 -0.0026
  372MPD2     C 5562   3.453   2.841  13.207  0.3213  0.0241 -0.3760
  372MPD2    C1 5563   3.548   2.787  13.294 -0.2474  0.5355  0.2113
  372MPD2    C2 5564   3.510   2.696  13.394  0.3707 -0.4923 -0.4239
  372MPD2    C3 5565   3.375   2.655  13.400 -0.7699 -0.5310 -0.0105
  372MPD2    C4 5566   3.280   2.714  13.316  0.3729  0.1848  0.1418
  372MPD2    C5 5567   3.324   2.804  13.222  0.1182  0.5171 -0.7586
  372MPD2     H 5568   3.585   2.647  13.455 -0.3056 -0.6918  0.2452
  372MPD2    H1 5569   3.173   2.698  13.322  0.3599  0.0668 -0.4088
  372MPD2    H2 5570   3.474   2.911  13.127 -0.5885 -1.4090 -1.8828
  372MPD2    H3 5571   3.259   2.853  13.151  1.9774 -0.2378 -2.9689
  372MPD2     N 5572   3.338   2.570  13.505  0.8384  0.0664 -0.3348
  372MPD2    H5 5573   3.405   2.523  13.565 -0.0618 -2.5365 -1.3817
  372MPD2    N1 5574   3.686   2.827  13.288 -0.3406 -0.0197  0.0628
  372MPD2    H7 5575   3.750   2.797  13.361  0.0501 -0.8820 -0.6338
  373TMC3    C1 5576   3.208   2.455  13.656  0.1346  0.0714 -0.5125
  373TMC3    C2 5577   3.117   2.463  13.757 -0.0060 -0.0303 -0.6079
  373TMC3    C3 5578   3.119   2.370  13.853 -0.2453  0.1580  0.1772
  373TMC3    C4 5579   3.300   2.359  13.654  0.3428 -0.2450  0.9566
  373TMC3    C5 5580   3.292   2.259  13.746  0.1142 -0.3429  0.2845
  373TMC3    C6 5581   3.208   2.262  13.852 -0.1228  0.3200 -0.2981
  373TMC3     C 5582   3.211   2.558  13.552  0.0510  0.4926  0.0438
  373TMC3     O 5583   3.115   2.632  13.530  0.1175  0.5786  0.3802
  373TMC3     H 5584   3.046   2.545  13.766  0.4588  0.4584 -1.4569
  373TMC3    H1 5585   3.349   2.342  13.558 -0.4782  0.3814  0.4248
  373TMC3    H2 5586   3.221   2.191  13.933  1.9069  2.0875  0.9395
  373TMC3    C7 5587   3.390   2.147  13.729 -0.4868 -0.2488 -0.1016
  373TMC3    C8 5588   3.146   2.436  13.980  0.6781  0.3813  0.0372
  373TMC3    O1 5589   3.417   2.120  13.613 -0.3109  0.0230 -0.0348
  373TMC3    O2 5590   3.164   2.556  13.979  0.5970  0.1729  0.5169
  374TMC3    C1 5591   3.890   3.356   9.893 -0.2961 -0.0425  0.1684
  374TMC3    C2 5592   4.020   3.399   9.931 -0.4763 -0.8286  0.3121
  374TMC3    C3 5593   4.082   3.486   9.842  0.1015  0.1324  0.5063
  374TMC3    C4 5594   3.825   3.408   9.780  0.0431 -0.2026  0.0533
  374TMC3    C5 5595   3.897   3.485   9.689 -0.1220  0.2320 -0.1267
  374TMC3    C6 5596   4.026   3.523   9.721 -0.1359  0.5832 -0.0207
  374TMC3     C 5597   3.842   3.234   9.954  0.2746 -0.0583  0.4369
  374TMC3     O 5598   3.880   3.207  10.065 -0.3595 -0.2298 -0.2000
  374TMC3     H 5599   4.074   3.355  10.014 -1.2082  1.0921  1.8174
  374TMC3    H1 5600   3.723   3.380   9.755  0.0728 -1.6996  1.5899
  374TMC3    H2 5601   4.074   3.595   9.656 -0.3303  0.0845 -0.7147
  374TMC3    C7 5602   3.831   3.554   9.578  0.4409  0.7791  0.3298
  374TMC3    C8 5603   4.217   3.540   9.858 -0.3232  0.4563 -0.3839
  374TMC3    O1 5604   3.860   3.672   9.564 -0.5408 -0.9066  0.2614
  374TMC3    O2 5605   4.264   3.606   9.767  0.2319 -0.4062 -0.2368
  375MPD2     C 5606   4.104   3.114  17.311 -0.2354  0.4647 -0.2416
  375MPD2    C1 5607   4.023   3.100  17.206  0.6581 -0.7039 -0.4045
  375MPD2    C2 5608   4.078   3.064  17.088  0.0087  0.1070  0.2636
  375MPD2    C3 5609   4.213   3.052  17.070  0.6933 -0.4382 -0.2026
  375MPD2    C4 5610   4.294   3.079  17.176  0.1814  0.9023  0.3842
  375MPD2    C5 5611   4.241   3.108  17.300  0.0463 -0.2637  0.1765
  375MPD2     H 5612   4.010   3.040  17.007  0.6745 -3.1211  0.6447
  375MPD2    H1 5613   4.402   3.070  17.170  0.1959  0.8143  0.8133
  375MPD2    H2 5614   4.053   3.136  17.405  0.5460  1.0235  0.0494
  375MPD2    H3 5615   4.306   3.128  17.384  0.7310 -1.3601 -0.0805
  375MPD2     N 5616   4.279   3.030  16.945  0.1054 -0.4354  0.2982
  375MPD2    H5 5617   4.380   3.035  16.945  0.1766 -1.9012 -1.5619
  375MPD2    N1 5618   3.882   3.120  17.208  0.1944  0.9349  0.6385
  375MPD2    H7 5619   3.842   3.097  17.118  2.3138 -2.2416  0.5095
  376TMC3    C1 5620   4.291   3.001  16.714 -0.5589 -0.2354  0.0440
  376TMC3    C2 5621   4.423   3.041  16.725  0.7867  0.2139 -0.4395
  376TMC3    C3 5622   4.470   3.092  16.607  0.1223 -0.7130  0.0855
  376TMC3    C4 5623   4.223   2.990  16.600 -0.2205 -0.3645  0.2115
  376TMC3    C5 5624   4.277   3.038  16.484  0.0175 -0.1379 -0.3962
  376TMC3    C6 5625   4.403   3.093  16.484 -0.3209  0.9492 -0.1921
  376TMC3     C 5626   4.210   3.013  16.830 -0.1789 -0.2959  0.4064
  376TMC3     O 5627   4.090   3.001  16.804  0.0518  0.6105 -0.3136
  376TMC3     H 5628   4.475   3.057  16.819 -0.0616  0.7330 -0.0548
  376TMC3    H1 5629   4.122   2.951  16.603 -0.6408  0.7493  0.5955
  376TMC3    H2 5630   4.441   3.132  16.390  1.9352  1.5061  0.9433
  376TMC3    C7 5631   4.189   3.066  16.365 -0.3505  0.4631  0.3273
  376TMC3    C8 5632   4.603   3.146  16.600 -0.9448  0.1778 -0.2120
  376TMC3    O1 5633   4.244   3.108  16.261  0.4269 -0.1960 -0.8450
  376TMC3    O2 5634   4.632   3.214  16.502 -0.4849 -0.8912  0.4925
  377MPD2     C 5635   2.280   3.237  12.661 -0.1244 -0.3264  0.2036
  377MPD2    C1 5636   2.283   3.105  12.697  0.2555  0.3545 -0.0705
  377MPD2    C2 5637   2.200   3.056  12.795  0.8305  0.0780 -0.1231
  377MPD2    C3 5638   2.130   3.142  12.874 -0.2695  0.6684  0.2247
  377MPD2    C4 5639   2.127   3.279  12.845 -0.2554  0.0577 -0.3253
  377MPD2    C5 5640   2.200   3.320  12.734  0.2266  0.5956 -0.8687
  377MPD2     H 5641   2.205   2.952  12.825  1.7471 -0.3270 -1.6615
  377MPD2    H1 5642   2.077   3.354  12.905 -1.5182 -2.0445  1.2366
  377MPD2    H2 5643   2.332   3.272  12.572  1.3540  1.1372  1.6342
  377MPD2    H3 5644   2.185   3.420  12.695 -1.5449  0.9806  0.8216
  377MPD2     N 5645   2.061   3.111  12.991 -0.8771 -0.3502  0.0284
  377MPD2    H5 5646   2.011   3.187  13.035 -0.0118  0.9948 -1.2849
  377MPD2    N1 5647   2.376   3.017  12.634  0.5205  0.8924 -0.3423
  377MPD2    H7 5648   2.400   2.931  12.682  1.4837 -0.4635 -3.2086
  378TMC3    C1 5649   2.640   2.936  12.286 -0.6611  0.3593  0.5786
  378TMC3    C2 5650   2.526   2.922  12.359 -0.7139 -0.5129 -0.4247
  378TMC3    C3 5651   2.535   2.937  12.488  0.0405  0.1669 -0.0655
  378TMC3    C4 5652   2.765   2.944  12.339 -0.3181 -0.1855 -0.8895
  378TMC3    C5 5653   2.774   2.954  12.473 -0.2805  0.2395  0.1263
  378TMC3    C6 5654   2.660   2.953  12.551 -0.2708  0.2897  0.1705
  378TMC3     C 5655   2.630   3.020  12.172  0.2400  0.2224  0.3120
  378TMC3     O 5656   2.721   3.026  12.088 -0.3799  0.3266  0.0545
  378TMC3     H 5657   2.426   2.935  12.319 -0.8356  0.8535  0.3192
  378TMC3    H1 5658   2.848   2.962  12.271  0.0885 -0.8660 -0.5769
  378TMC3    H2 5659   2.661   2.969  12.659  0.2647 -1.5003  0.4272
  378TMC3    C7 5660   2.907   2.938  12.530 -0.4298  0.0931  0.8831
  378TMC3    C8 5661   2.450   3.048  12.527  0.1304  0.6810 -0.5531
  378TMC3    O1 5662   2.931   2.969  12.646 -0.5704 -0.5066  0.2717
  378TMC3    O2 5663   2.446   3.142  12.444  0.0859 -0.7116 -0.1642
  379MPD2     C 5664   3.111   1.196  15.856  0.6322  0.3054  0.6268
  379MPD2    C1 5665   3.018   1.145  15.944 -0.1088  0.0430 -0.0018
  379MPD2    C2 5666   3.060   1.045  16.035  0.0705 -0.2813 -0.1161
  379MPD2    C3 5667   3.197   1.017  16.044  0.0586  0.2581  0.0673
  379MPD2    C4 5668   3.290   1.069  15.953  0.4779 -0.3104  0.1319
  379MPD2    C5 5669   3.238   1.145  15.846  0.5489 -1.1348  0.5903
  379MPD2     H 5670   2.990   1.003  16.106  2.2733 -2.9161  0.5369
  379MPD2    H1 5671   3.394   1.039  15.963  0.0401 -2.4250 -1.7863
  379MPD2    H2 5672   3.088   1.271  15.781 -1.5522 -1.2739 -0.2928
  379MPD2    H3 5673   3.302   1.181  15.767  1.1119 -2.3519  0.4890
  379MPD2     N 5674   3.253   0.927  16.144 -0.0476 -0.1251  0.1604
  379MPD2    H5 5675   3.354   0.917  16.145 -0.1713 -1.2776  2.2892
  379MPD2    N1 5676   2.882   1.180  15.934 -0.2796 -0.1033 -0.4306
  379MPD2    H7 5677   2.858   1.258  15.873 -0.6127 -2.1726 -2.9441
  380TMC3    C1 5678   2.661   1.231  16.018 -0.8351  0.7503  0.4498
  380TMC3    C2 5679   2.592   1.247  16.138  0.5261 -0.5527 -0.4611
  380TMC3    C3 5680   2.469   1.303  16.136  0.1103 -0.2027  0.1137
  380TMC3    C4 5681   2.611   1.287  15.907  0.1589 -0.9491 -0.4318
  380TMC3    C5 5682   2.494   1.355  15.908 -0.1745 -0.2000 -0.0710
  380TMC3    C6 5683   2.423   1.365  16.031  0.0211  0.2244  0.1560
  380TMC3     C 5684   2.778   1.142  16.017 -0.2957  0.3751  0.1013
  380TMC3     O 5685   2.776   1.063  16.110  0.0827  0.3760 -0.0168
  380TMC3     H 5686   2.633   1.209  16.231 -0.8079 -0.9046 -0.0229
  380TMC3    H1 5687   2.658   1.256  15.815  1.3466  4.0453 -1.4795
  380TMC3    H2 5688   2.327   1.417  16.035  0.4737  1.0666  0.1589
  380TMC3    C7 5689   2.424   1.344  15.777  0.2016  0.0528  0.4673
  380TMC3    C8 5690   2.395   1.294  16.268 -0.3569 -0.5886 -0.7764
  380TMC3    O1 5691   2.475   1.268  15.692  0.1811  0.1231 -0.4264
  380TMC3    O2 5692   2.333   1.399  16.300  0.8095 -0.1585  0.1814
  381TMC3    C1 5693   2.250   2.357  16.390  0.1778 -0.4606 -0.0180
  381TMC3    C2 5694   2.305   2.477  16.350  0.7669  0.2518 -0.4457
  381TMC3    C3 5695   2.376   2.553  16.436 -0.2980 -0.0287  0.5110
  381TMC3    C4 5696   2.276   2.312  16.518 -0.2137 -0.5927 -0.6288
  381TMC3    C5 5697   2.345   2.389  16.601  0.9097 -0.0812 -0.1924
  381TMC3    C6 5698   2.392   2.515  16.562 -0.1159  1.1694  0.2849
  381TMC3     C 5699   2.132   2.304  16.330  0.1598 -0.9673  0.4134
  381TMC3     O 5700   2.077   2.202  16.378 -0.0638 -0.0242  0.0412
  381TMC3     H 5701   2.312   2.504  16.245  0.7573 -0.0766 -0.5282
  381TMC3    H1 5702   2.250   2.213  16.555 -1.2205 -0.3378 -0.6573
  381TMC3    H2 5703   2.455   2.572  16.628 -0.6384  1.6595  0.3550
  381TMC3    C7 5704   2.330   2.365  16.737 -0.0669  0.8645 -0.3345
  381TMC3    C8 5705   2.463   2.656  16.378  0.5657  0.0513  0.7226
  381TMC3    O1 5706   2.365   2.254  16.779 -0.5374 -0.4934  0.4385
  381TMC3    O2 5707   2.482   2.651  16.257  0.0877 -0.0910 -0.3839
  382MPD2     C 5708   1.897   4.542  17.136  0.6294 -0.3030 -0.0850
  382MPD2    C1 5709   1.819   4.599  17.236 -0.3284 -1.1276 -0.5666
  382MPD2    C2 5710   1.722   4.522  17.299 -0.3826  0.0325 -0.7724
  382MPD2    C3 5711   1.699   4.393  17.270 -0.9846 -0.8691 -0.7088
  382MPD2    C4 5712   1.776   4.338  17.168 -0.2992 -0.8090  0.6468
  382MPD2    C5 5713   1.871   4.410  17.097  0.3374 -0.1247 -0.0813
  382MPD2     H 5714   1.650   4.567  17.366  0.4418  1.2919 -0.7485
  382MPD2    H1 5715   1.779   4.233  17.140  2.7021 -0.5536  0.0809
  382MPD2    H2 5716   1.975   4.603  17.093  1.7697  0.8348  3.6349
  382MPD2    H3 5717   1.930   4.366  17.017  0.6362  1.4270 -0.7247
  382MPD2     N 5718   1.592   4.316  17.315  0.0525 -0.1257 -0.3488
  382MPD2    H5 5719   1.577   4.234  17.258  1.1617 -0.6494  0.1116
  382MPD2    N1 5720   1.832   0.013  17.272 -0.4805  0.1894 -0.5517
  382MPD2    H7 5721   1.772   0.042  17.349 -3.1204  0.4316 -2.7027
  383TMC3    C1 5722   1.415   4.238  17.445  0.1577 -0.6805  0.2195
  383TMC3    C2 5723   1.368   4.170  17.335  0.1399 -0.0310  0.0962
  383TMC3    C3 5724   1.315   4.047  17.366 -0.3171  0.0369  0.4566
  383TMC3    C4 5725   1.406   4.190  17.567  0.7190  0.7359 -0.2937
  383TMC3    C5 5726   1.359   4.064  17.593 -0.8612 -0.5134 -0.4946
  383TMC3    C6 5727   1.321   3.988  17.489 -0.0196 -0.0273 -0.3212
  383TMC3     C 5728   1.512   4.342  17.427  0.3275  0.1020 -0.0712
  383TMC3     O 5729   1.524   4.424  17.520  0.0923 -0.5730 -0.3823
  383TMC3     H 5730   1.374   4.218  17.237  0.8140  0.6921  0.4908
  383TMC3    H1 5731   1.439   4.257  17.646 -0.3758  0.3769  0.4607
  383TMC3    H2 5732   1.273   3.892  17.506  2.1981 -1.1458 -0.2582
  383TMC3    C7 5733   1.396   4.008   0.019  0.5086  1.0177 -0.3355
  383TMC3    C8 5734   1.228   3.977  17.270  0.3150 -0.6173 -0.2199
  383TMC3    O1 5735   1.418   4.088   0.112  1.2683 -0.4849  0.2689
  383TMC3    O2 5736   1.175   4.048  17.189 -0.2292 -0.5898 -0.2472
  384MPD2     C 5737   3.775   1.119  12.678 -0.1046  0.1294 -0.8752
  384MPD2    C1 5738   3.750   0.995  12.619  0.0655 -0.4740 -0.0395
  384MPD2    C2 5739   3.827   0.959  12.511 -0.3307  0.0339 -0.3568
  384MPD2    C3 5740   3.910   1.050  12.453  0.5043  0.0666 -0.6063
  384MPD2    C4 5741   3.935   1.176  12.507  0.4890  0.0661  0.4016
  384MPD2    C5 5742   3.877   1.199  12.627  0.2693  0.1554 -0.1591
  384MPD2     H 5743   3.810   0.864  12.462  0.5833 -0.2823 -0.0598
  384MPD2    H1 5744   4.015   1.240  12.472  0.7724  0.8992  2.5935
  384MPD2    H2 5745   3.729   1.141  12.774 -1.4328  0.6882 -1.6356
  384MPD2    H3 5746   3.904   1.284  12.689  0.0116  0.6564 -0.7293
  384MPD2     N 5747   3.979   0.997  12.344  0.7248 -0.0606  0.1349
  384MPD2    H5 5748   3.954   0.902  12.317  0.4462 -0.2627  1.0994
  384MPD2    N1 5749   3.644   0.908  12.652 -0.0344 -0.0972  0.8382
  384MPD2    H7 5750   3.636   0.821  12.601 -0.0800 -0.3071  1.2082
  385TMC3    C1 5751   4.083   0.962  12.142 -0.3061  0.0425  0.1255
  385TMC3    C2 5752   4.070   1.019  12.020  0.0310  0.5494 -0.2011
  385TMC3    C3 5753   4.014   0.948  11.920 -0.1024  0.1495  0.8701
  385TMC3    C4 5754   4.051   0.828  12.157 -0.3937  1.1313  0.4687
  385TMC3    C5 5755   3.990   0.763  12.056 -0.5617  0.1578 -0.9009
  385TMC3    C6 5756   3.978   0.815  11.934  0.1054  0.8174 -0.1285
  385TMC3     C 5757   4.067   1.055  12.255 -0.1363 -0.1499  0.4521
  385TMC3     O 5758   4.103   1.173  12.253 -0.2213 -0.6701  0.3039
  385TMC3     H 5759   4.094   1.124  12.009  0.4095  0.4813 -0.0113
  385TMC3    H1 5760   4.064   0.780  12.254 -1.7492 -0.3855 -0.1073
  385TMC3    H2 5761   3.940   0.752  11.854  1.3729  0.3925 -0.3872
  385TMC3    C7 5762   3.888   0.669  12.097  0.4844  0.0797  0.2188
  385TMC3    C8 5763   4.062   1.002  11.797  0.6768  0.6403  0.3496
  385TMC3    O1 5764   3.916   0.597  12.192  0.0883  0.1356 -0.1511
  385TMC3    O2 5765   4.173   1.055  11.797  0.3840  0.2074 -0.2221
  386TMC3    C1 5766   3.755   3.183  11.923 -0.0272  0.3635  0.1939
  386TMC3    C2 5767   3.728   3.103  11.814 -0.1847  0.7128  0.0147
  386TMC3    C3 5768   3.601   3.048  11.801 -0.6927 -0.3002  0.2687
  386TMC3    C4 5769   3.654   3.214  12.010 -0.7721  0.0842  0.3098
  386TMC3    C5 5770   3.532   3.154  11.994 -0.2273  0.0534  0.4315
  386TMC3    C6 5771   3.498   3.077  11.887  0.3807  0.2813 -0.3756
  386TMC3     C 5772   3.894   3.233  11.950 -0.4094  0.5720 -0.2591
  386TMC3     O 5773   3.906   3.324  12.032 -0.2548 -0.2743 -0.0009
  386TMC3     H 5774   3.811   3.078  11.750  0.6574  1.4938  0.8011
  386TMC3    H1 5775   3.675   3.270  12.100 -0.7603  0.1628  0.2580
  386TMC3    H2 5776   3.398   3.036  11.883  0.3875  0.1542  0.6349
  386TMC3    C7 5777   3.442   3.149  12.110 -0.0440  0.3876 -0.1102
  386TMC3    C8 5778   3.572   3.014  11.663  0.3654  0.3280 -0.7440
  386TMC3    O1 5779   3.325   3.143  12.076 -0.7601 -0.3709  0.1676
  386TMC3    O2 5780   3.661   3.026  11.586 -0.1311 -0.6400  0.2683
  387MPD2     C 5781   1.163   3.563  10.048  0.3485  0.4199  0.5027
  387MPD2    C1 5782   1.252   3.564  10.156  0.0972  0.3562 -0.1936
  387MPD2    C2 5783   1.303   3.442  10.200  0.2856 -0.1146  0.1703
  387MPD2    C3 5784   1.270   3.319  10.153  0.3958 -0.2661 -0.6111
  387MPD2    C4 5785   1.171   3.319  10.051 -1.0488  0.6985  0.3390
  387MPD2    C5 5786   1.125   3.438  10.000 -0.0134 -0.0027  0.7122
  387MPD2     H 5787   1.380   3.437  10.276  1.4909  0.5955 -0.9879
  387MPD2    H1 5788   1.148   3.228   9.997  1.4160 -0.9691  2.1198
  387MPD2    H2 5789   1.122   3.652  10.003 -1.7755 -1.0520 -0.5298
  387MPD2    H3 5790   1.056   3.425   9.917  0.4780  2.0445 -0.0109
  387MPD2     N 5791   1.340   3.212  10.208  0.8322 -0.2213  0.7313
  387MPD2    H5 5792   1.404   3.228  10.285  0.7429 -3.3907  1.4642
  387MPD2    N1 5793   1.314   3.682  10.206 -0.3757  0.3547 -0.0382
  387MPD2    H7 5794   1.393   3.667  10.269  0.1586 -0.5419 -0.9396
  388TMC3    C1 5795   1.413   3.890  10.194  0.4912  0.9563 -0.3081
  388TMC3    C2 5796   1.402   4.027  10.193 -0.5614  0.5588 -0.3667
  388TMC3    C3 5797   1.507   4.100  10.226 -0.2073  0.2785  0.2532
  388TMC3    C4 5798   1.539   3.830  10.212 -0.9954  0.1908 -0.3628
  388TMC3    C5 5799   1.645   3.911  10.257  0.1305 -0.4723 -0.0508
  388TMC3    C6 5800   1.632   4.052  10.265 -0.1427 -0.3015 -0.1394
  388TMC3     C 5801   1.297   3.814  10.157 -0.1281 -0.0585 -0.1170
  388TMC3     O 5802   1.219   3.865  10.077  0.0489  0.1362  0.2649
  388TMC3     H 5803   1.303   4.071  10.185  1.0887  3.9542 -1.6458
  388TMC3    H1 5804   1.548   3.724  10.195 -0.0968 -0.0669  1.7675
  388TMC3    H2 5805   1.715   4.116  10.292 -0.1863 -0.7163  0.9800
  388TMC3    C7 5806   1.772   3.849  10.251  0.0665 -0.3240 -0.7690
  388TMC3    C8 5807   1.480   4.236  10.277  0.3091 -0.5121  0.0266
  388TMC3    O1 5808   1.863   3.903  10.188  0.6798  0.0371 -0.5031
  388TMC3    O2 5809   1.532   4.278  10.379  0.5005  0.2843 -0.2557
  389MPD2     C 5810   1.101   1.912  11.031  0.0944  0.5332  0.2482
  389MPD2    C1 5811   1.014   1.823  10.972  1.2257 -0.2457 -0.2603
  389MPD2    C2 5812   0.945   1.744  11.052 -0.1465 -0.2673 -0.4390
  389MPD2    C3 5813   0.954   1.758  11.193  0.3163  0.1332 -0.0044
  389MPD2    C4 5814   1.053   1.843  11.248  0.3975  0.2629 -0.0736
  389MPD2    C5 5815   1.133   1.916  11.164  0.1911  0.2541 -0.4363
  389MPD2     H 5816   0.867   1.682  11.009  0.4848 -0.7571 -0.8739
  389MPD2    H1 5817   1.066   1.839  11.356 -0.9437  3.5802  0.2198
  389MPD2    H2 5818   1.153   1.987  10.973 -2.2293  1.9451  0.0015
  389MPD2    H3 5819   1.219   1.975  11.194  0.4583 -1.2669  1.8240
  389MPD2     N 5820   0.869   1.702  11.286 -0.5614  0.1915 -0.4308
  389MPD2    H5 5821   0.889   1.718  11.384  2.1816  0.3638 -1.0187
  389MPD2    N1 5822   1.019   1.802  10.828  0.0230  0.5818  0.8734
  389MPD2    H7 5823   1.098   1.844  10.779  1.1325 -1.3930  0.9976
  390TMC3    C1 5824   0.675   1.600  11.379 -0.1247  0.3385  0.6741
  390TMC3    C2 5825   0.562   1.513  11.359  0.1947 -0.4482  0.3594
  390TMC3    C3 5826   0.453   1.531  11.444 -0.0852  0.0694  0.9171
  390TMC3    C4 5827   0.673   1.696  11.476 -0.1919  0.2834  0.4505
  390TMC3    C5 5828   0.569   1.698  11.561  0.3073  0.1661  0.4372
  390TMC3    C6 5829   0.468   1.608  11.556  0.0997 -0.1059 -0.4508
  390TMC3     C 5830   0.752   1.627  11.262 -0.1744 -0.1050  0.6448
  390TMC3     O 5831   0.727   1.556  11.162 -0.5975 -0.3704  0.1248
  390TMC3     H 5832   0.551   1.448  11.272 -1.8031  1.8954 -1.1365
  390TMC3    H1 5833   0.753   1.767  11.496 -0.6638  0.7562  0.6745
  390TMC3    H2 5834   0.391   1.605  11.632 -1.7657 -1.6845 -2.4109
  390TMC3    C7 5835   0.565   1.803  11.663 -0.2495  0.6618  0.1192
  390TMC3    C8 5836   0.327   1.460  11.424 -0.1445 -1.1474  0.5737
  390TMC3    O1 5837   0.609   1.910  11.627 -0.4513 -0.0070  0.2335
  390TMC3    O2 5838   0.338   1.345  11.386 -0.3384  0.3531  0.1887
  391MPD2     C 5839   4.431   3.084  11.339 -0.4402 -0.0635 -0.6953
  391MPD2    C1 5840   4.569   3.097  11.327  0.2061 -0.0972  0.0408
  391MPD2    C2 5841   4.614   3.145  11.203 -0.8350 -0.0458  0.5210
  391MPD2    C3 5842   4.532   3.163  11.089  0.0800  0.9235  0.3120
  391MPD2    C4 5843   4.400   3.122  11.099 -0.8774  0.7978  0.2545
  391MPD2    C5 5844   4.357   3.086  11.225  0.3528 -0.1250  0.4906
  391MPD2     H 5845   4.717   3.174  11.187 -1.1560 -0.1676 -1.7043
  391MPD2    H1 5846   4.335   3.120  11.013  1.3202 -4.3505 -1.3116
  391MPD2    H2 5847   4.382   3.076  11.435 -0.0649  1.8830 -0.3303
  391MPD2    H3 5848   4.249   3.077  11.230  0.4766 -2.5272 -0.7332
  391MPD2     N 5849   4.584   3.208  10.971  0.1972  0.3116  0.0123
  391MPD2    H5 5850   4.685   3.208  10.981  0.5395 -0.4082 -3.3569
  391MPD2    N1 5851   4.648   3.066  11.438  0.7176  0.9004  0.2568
  391MPD2    H7 5852   4.602   3.055  11.527  1.7032 -0.5991  0.5821
  392TMC3    C1 5853   4.608   3.277  10.746 -0.2561  0.8918  0.2240
  392TMC3    C2 5854   4.559   3.305  10.624  0.0526  0.7308  0.5064
  392TMC3    C3 5855   4.629   3.365  10.521 -0.0632 -0.0453  0.7243
  392TMC3    C4 5856   0.013   3.326  10.769 -1.1090  0.1913  0.0753
  392TMC3    C5 5857   0.089   3.369  10.665  0.2613 -0.8715 -0.5239
  392TMC3    C6 5858   0.042   3.389  10.537 -0.1234  0.6497 -0.1502
  392TMC3     C 5859   4.518   3.245  10.855 -0.4766 -0.3625  0.0048
  392TMC3     O 5860   4.400   3.241  10.825 -0.0037 -0.2139 -0.1169
  392TMC3     H 5861   4.458   3.271  10.603  0.4812 -0.7141  0.7860
  392TMC3    H1 5862   0.059   3.314  10.866 -0.4648  2.3457  0.0281
  392TMC3    H2 5863   0.087   3.452  10.461 -1.7106 -0.0293 -1.6606
  392TMC3    C7 5864   0.213   3.435  10.699  0.0903 -0.0263  0.5353
  392TMC3    C8 5865   4.557   3.393  10.397  0.2618  0.4339 -0.1226
  392TMC3    O1 5866   0.233   3.454  10.818 -0.0645 -0.0079  0.7175
  392TMC3    O2 5867   4.440   3.359  10.383 -0.0692 -0.1333  0.9240
  393TMC3    C1 5868   3.997   1.803  10.907 -0.2550  0.3968  0.5095
  393TMC3    C2 5869   3.948   1.806  11.035  0.0852 -1.2510 -0.4590
  393TMC3    C3 5870   4.033   1.788  11.140 -0.1107  0.4214 -0.3813
  393TMC3    C4 5871   4.124   1.761  10.878 -0.1422 -0.1098  0.0479
  393TMC3    C5 5872   4.201   1.731  10.986 -0.4994 -0.6349  0.0114
  393TMC3    C6 5873   4.163   1.752  11.117  0.3864 -0.0381 -0.1109
  393TMC3     C 5874   3.904   1.784  10.797  0.0201  1.0328 -0.2311
  393TMC3     O 5875   3.948   1.806  10.685  0.1678  0.2841  0.1055
  393TMC3     H 5876   3.845   1.838  11.050 -0.4763 -2.8719 -0.8140
  393TMC3    H1 5877   4.157   1.757  10.775 -1.9100  0.1432 -0.5317
  393TMC3    H2 5878   4.234   1.726  11.194 -0.8178 -1.9854  0.3277
  393TMC3    C7 5879   4.342   1.709  10.954  0.7371 -0.3616  0.3844
  393TMC3    C8 5880   3.965   1.740  11.266  0.1315 -0.1786 -0.2457
  393TMC3    O1 5881   4.425   1.760  11.028 -0.0191  0.1480 -0.0429
  393TMC3    O2 5882   3.845   1.714  11.256  0.3574 -0.2423 -0.0040
  394TMC3    C1 5883   0.965   1.718  10.629 -0.2620 -0.0298 -0.3453
  394TMC3    C2 5884   0.976   1.586  10.590  0.5487 -0.2547  0.2507
  394TMC3    C3 5885   1.051   1.563  10.480  0.3995  0.3189 -0.8035
  394TMC3    C4 5886   1.021   1.822  10.555 -0.1935 -0.0544  0.1240
  394TMC3    C5 5887   1.095   1.793  10.442 -0.4908 -0.2846 -0.1383
  394TMC3    C6 5888   1.109   1.662  10.411 -0.1026  0.1955 -0.0992
  394TMC3     C 5889   0.924   1.737  10.758  0.2903  0.6029  0.0683
  394TMC3     O 5890   0.823   1.677  10.793 -0.1549  0.7751  0.2576
  394TMC3     H 5891   0.943   1.504  10.653  1.5763  1.5577  3.1296
  394TMC3    H1 5892   1.009   1.927  10.577 -0.1801  0.1191 -0.7025
  394TMC3    H2 5893   1.159   1.645  10.316  2.0810  1.7987  0.7659
  394TMC3    C7 5894   1.206   1.881  10.414 -0.3710 -0.0879  0.0902
  394TMC3    C8 5895   1.149   1.456  10.492 -0.2755 -0.2537  0.3787
  394TMC3    O1 5896   1.185   2.001  10.426 -0.4040  0.7295 -0.4062
  394TMC3    O2 5897   1.268   1.479  10.479 -0.2937 -0.1218  0.2800
  395TMC3    C1 5898   4.555   3.873  14.623  0.3897  0.0876  0.2590
  395TMC3    C2 5899   4.448   3.863  14.711 -0.4148 -0.4558 -0.6764
  395TMC3    C3 5900   4.447   3.916  14.837  0.3849 -0.8904 -1.2343
  395TMC3    C4 5901   4.660   3.953  14.659  0.0814 -0.4871 -0.3418
  395TMC3    C5 5902   4.662   4.005  14.787  0.2405 -0.5141 -0.3364
  395TMC3    C6 5903   4.558   3.981  14.877 -0.0269  0.0149 -0.0374
  395TMC3     C 5904   4.608   3.742  14.608  0.0142 -0.1736 -0.3041
  395TMC3     O 5905   4.709   3.720  14.674  0.1686 -0.0271  0.0086
  395TMC3     H 5906   4.365   3.806  14.672 -0.4333 -2.8221  2.8516
  395TMC3    H1 5907   0.023   3.965  14.596 -0.0283  2.6982  0.1582
  395TMC3    H2 5908   4.567   4.000  14.984  3.8259  1.3357 -0.5957
  395TMC3    C7 5909   0.069   4.014  14.848  0.0303 -0.2205  0.7876
  395TMC3    C8 5910   4.395   3.833  14.937  0.3582 -0.1804 -0.5649
  395TMC3    O1 5911   0.083   4.099  14.932 -0.1654 -0.0683 -0.6750
  395TMC3    O2 5912   4.392   3.880  15.048 -0.4669  0.2137 -0.0107
  396MPD2     C 5913   4.699   4.249  17.039  0.0828  0.1454 -0.0706
  396MPD2    C1 5914   0.089   4.320  17.065  0.1317 -0.1393  0.3071
  396MPD2    C2 5915   0.114   4.428  16.982 -0.4755 -0.0250  0.1340
  396MPD2    C3 5916   0.036   4.457  16.868  0.0606 -0.0290 -0.4034
  396MPD2    C4 5917   4.648   4.380  16.842  0.0220  0.8791 -1.0034
  396MPD2    C5 5918   4.617   4.276  16.926 -0.6374 -0.1766  0.5865
  396MPD2     H 5919   0.198   4.491  17.007 -0.6089  0.2042  0.0043
  396MPD2    H1 5920   4.583   4.398  16.757  0.2377 -1.3328 -1.6308
  396MPD2    H2 5921   4.679   4.162  17.100 -0.9299  0.3900 -0.0595
  396MPD2    H3 5922   4.526   4.223  16.903 -0.2848  0.9573 -3.4799
  396MPD2     N 5923   0.063   4.573  16.792 -0.0144  0.1914 -0.3914
  396MPD2    H5 5924   0.153   4.616  16.814 -0.8416  2.0682 -0.7123
  396MPD2    N1 5925   0.159   4.289  17.186 -0.7884  0.1465  0.4278
  396MPD2    H7 5926   0.125   4.207  17.235  0.1892 -0.3872  0.2136
  397TMC3    C1 5927   0.338   4.284  17.337 -0.1619  0.4504 -0.0227
  397TMC3    C2 5928   0.448   4.242  17.272  0.5522 -0.4906  0.1716
  397TMC3    C3 5929   0.469   4.107  17.266 -0.4861 -0.1229  0.0552
  397TMC3    C4 5930   0.255   4.202  17.403  0.3911 -0.1030  0.1597
  397TMC3    C5 5931   0.290   4.072  17.418  0.0086 -0.1180 -0.8647
  397TMC3    C6 5932   0.397   4.022  17.347  0.0494 -0.4584 -0.4046
  397TMC3     C 5933   0.267   4.359  17.238 -0.1223  0.2223  0.4800
  397TMC3     O 5934   0.319   4.458  17.189  0.4074 -0.0647  0.7217
  397TMC3     H 5935   0.473   4.310  17.191  1.4609 -2.7151 -1.4175
  397TMC3    H1 5936   0.171   4.249  17.453  0.4126  0.0020  0.0965
  397TMC3    H2 5937   0.410   3.916  17.332 -2.1776 -0.7966  0.0746
  397TMC3    C7 5938   0.191   3.973  17.468 -0.5352  0.8263  0.3791
  397TMC3    C8 5939   0.492   4.047  17.135  0.4205 -0.6092  0.5523
  397TMC3    O1 5940   0.182   3.862  17.417  0.6357  0.2300  0.0613
  397TMC3    O2 5941   0.413   3.963  17.096  0.7578  0.2567 -0.0709
  398MPD2     C 5942   2.968   0.900   0.038 -0.1151  0.1860  0.7030
  398MPD2    C1 5943   3.052   0.798   0.074  0.5491 -0.6146 -0.5125
  398MPD2    C2 5944   3.153   0.826   0.169 -0.2105 -0.1816  0.4295
  398MPD2    C3 5945   3.156   0.939   0.238  0.8349  0.0951  0.5030
  398MPD2    C4 5946   3.063   1.031   0.209  1.1142  0.2065 -0.2518
  398MPD2    C5 5947   2.967   1.017   0.109  0.8147 -0.6904 -0.1834
  398MPD2     H 5948   3.232   0.753   0.184 -1.2914 -1.4209  0.1157
  398MPD2    H1 5949   3.054   1.126   0.260  1.7828  1.0826 -1.7467
  398MPD2    H2 5950   2.889   0.889  17.662  0.4531  0.0122  0.1328
  398MPD2    H3 5951   2.899   1.100   0.093 -0.9059 -1.5093  2.8095
  398MPD2     N 5952   3.271   0.962   0.318 -0.5335 -0.1272  0.0365
  398MPD2    H5 5953   3.345   0.893   0.326 -0.2336  0.4371  2.1836
  398MPD2    N1 5954   3.062   0.671   0.003  0.2062  0.5079 -0.3822
  398MPD2    H7 5955   3.141   0.619   0.040 -0.8452  0.0869  1.3003
  399TMC3    C1 5956   2.990   0.482  17.577  0.3083 -0.2793  0.2556
  399TMC3    C2 5957   3.111   0.420  17.612 -0.1131  0.2087  0.5547
  399TMC3    C3 5958   3.107   0.285  17.637  0.3150  0.3047 -0.5850
  399TMC3    C4 5959   2.876   0.404  17.559  0.4688  0.1794  0.3966
  399TMC3    C5 5960   2.885   0.267  17.570 -0.7180 -0.3307 -0.7164
  399TMC3    C6 5961   2.999   0.202  17.615  0.7459 -0.1498  0.2457
  399TMC3     C 5962   2.969   0.623  17.608  0.5416 -0.1909 -0.0475
  399TMC3     O 5963   2.863   0.672  17.566 -0.0317 -0.2738  0.5039
  399TMC3     H 5964   3.200   0.477  17.636 -0.0540  1.1991 -2.0004
  399TMC3    H1 5965   2.791   0.455  17.515 -0.2229 -0.3825  1.0929
  399TMC3    H2 5966   3.003   0.094  17.625  0.6737 -0.1125  0.6608
  399TMC3    C7 5967   2.762   0.188  17.576 -0.5617 -0.3021 -0.1636
  399TMC3    C8 5968   3.243   0.231  17.665  0.1831 -0.0184  0.8942
  399TMC3    O1 5969   2.771   0.067  17.580 -0.1060  0.7499  0.1261
  399TMC3    O2 5970   3.342   0.307  17.661 -0.3250  0.5643 -0.1393
  400TMC3    C1 5971   1.410   3.754  16.913  0.4265  0.6434  0.1503
  400TMC3    C2 5972   1.289   3.725  16.839 -0.9119  0.1472  0.4491
  400TMC3    C3 5973   1.223   3.836  16.795 -0.4499  0.3501 -0.4460
  400TMC3    C4 5974   1.459   3.877  16.939 -0.3662  0.0791 -0.5796
  400TMC3    C5 5975   1.379   3.979  16.898  0.0304  0.3295  0.1144
  400TMC3    C6 5976   1.265   3.964  16.822  0.0821 -0.3748  0.0855
  400TMC3     C 5977   1.458   3.634  16.979 -0.6097  0.3557  0.4705
  400TMC3     O 5978   1.403   3.526  16.952 -0.1832 -0.1695 -0.4201
  400TMC3     H 5979   1.250   3.628  16.813 -0.2274 -0.3643  1.3397
  400TMC3    H1 5980   1.551   3.893  16.995 -1.3329  1.7007  0.5402
  400TMC3    H2 5981   1.210   4.055  16.799 -1.5479 -0.4202  3.8984
  400TMC3    C7 5982   1.444   4.108  16.884 -0.3490  0.2439  0.4269
  400TMC3    C8 5983   1.102   3.825  16.717 -0.2509  0.3517 -0.9984
  400TMC3    O1 5984   1.558   4.109  16.836 -0.2275  0.1509 -0.4965
  400TMC3    O2 5985   1.042   3.932  16.693  0.6301  0.5701  0.1489
  401MPD2     C 5986   4.452   2.879   1.347  0.0187  0.6221  0.3020
  401MPD2    C1 5987   4.555   2.870   1.255  0.0736  1.0434  0.3143
  401MPD2    C2 5988   4.551   2.780   1.150  0.7104  0.5461  0.3926
  401MPD2    C3 5989   4.441   2.690   1.137  0.0699 -0.4286 -0.2243
  401MPD2    C4 5990   4.338   2.705   1.222 -0.2145  0.6554  0.6844
  401MPD2    C5 5991   4.339   2.808   1.320  0.1259  0.3468  0.0732
  401MPD2     H 5992   4.642   2.764   1.094  0.9229 -0.3767  0.9978
  401MPD2    H1 5993   4.244   2.652   1.214  1.7012 -2.6335 -0.2311
  401MPD2    H2 5994   4.457   2.945   1.433 -0.9070 -0.7742  1.4247
  401MPD2    H3 5995   4.256   2.815   1.390  1.1123  2.9422  0.9650
  401MPD2     N 5996   4.446   2.582   1.044 -0.9324  0.5879  0.1338
  401MPD2    H5 5997   4.529   2.580   0.986 -0.7589  0.2292  0.3952
  401MPD2    N1 5998   4.678   2.936   1.273 -0.0778 -0.5520  0.0187
  401MPD2    H7 5999   0.020   2.933   1.196 -0.0677  3.2451 -0.1233
  402TMC3    C1 6000   4.412   2.357   0.963  0.3981  0.2068 -0.6377
  402TMC3    C2 6001   4.400   2.225   1.010  0.1383  0.7126  0.2196
  402TMC3    C3 6002   4.503   2.135   0.987  0.3617  0.5580  0.5206
  402TMC3    C4 6003   4.511   2.391   0.877  0.3575  0.1674 -0.0043
  402TMC3    C5 6004   4.598   2.293   0.846 -0.4680 -0.2921  0.3664
  402TMC3    C6 6005   4.607   2.170   0.907  0.9204 -0.3665  0.1674
  402TMC3     C 6006   4.366   2.464   1.050 -0.0712 -0.2715 -0.2960
  402TMC3     O 6007   4.266   2.437   1.116  0.4576 -0.3701  0.2997
  402TMC3     H 6008   4.323   2.215   1.086 -0.0533  2.8284  0.3198
  402TMC3    H1 6009   4.520   2.490   0.834  1.2513  1.0500  2.1716
  402TMC3    H2 6010   4.678   2.093   0.882  0.1577 -0.0303 -2.9879
  402TMC3    C7 6011   4.715   2.339   0.764 -0.3958 -0.3553  0.2405
  402TMC3    C8 6012   4.518   2.019   1.076  0.2930 -0.0434 -0.1588
  402TMC3    O1 6013   4.704   2.425   0.676  0.2440  0.1208  0.6007
  402TMC3    O2 6014   4.633   1.993   1.098  0.0176 -0.4291  0.0873
  403MPD2     C 6015   2.862   1.104  13.470 -0.0682 -0.6928 -0.8994
  403MPD2    C1 6016   2.843   0.985  13.527 -0.1168 -0.4831 -0.2168
  403MPD2    C2 6017   2.889   0.956  13.657  0.0923  0.2923  0.0396
  403MPD2    C3 6018   2.959   1.051  13.724  0.1550 -0.7587  0.0205
  403MPD2    C4 6019   2.977   1.174  13.665  0.1507 -0.0624  0.1729
  403MPD2    C5 6020   2.934   1.194  13.536  0.6210  0.6341  0.2698
  403MPD2     H 6021   2.870   0.860  13.703  1.0537  0.7877  1.4759
  403MPD2    H1 6022   3.045   1.252  13.699 -1.0909  0.0860  2.3314
  403MPD2    H2 6023   2.823   1.139  13.375  2.3646  0.2791 -1.5381
  403MPD2    H3 6024   2.955   1.282  13.477  4.1051 -0.8567 -0.6975
  403MPD2     N 6025   3.020   1.017  13.847  0.3460  0.3794 -0.2021
  403MPD2    H5 6026   2.998   0.924  13.881 -1.4599  1.1082  0.5966
  403MPD2    N1 6027   2.783   0.886  13.446 -0.6138 -0.1419  0.4147
  403MPD2    H7 6028   2.755   0.915  13.353  1.3240  2.3189  0.5841
  404TMC3    C1 6029   2.676   0.685  13.377 -0.3924 -0.5750 -0.2170
  404TMC3    C2 6030   2.606   0.573  13.414  0.0516 -0.2041 -0.2761
  404TMC3    C3 6031   2.574   0.479  13.327 -0.3165 -0.1588 -0.6721
  404TMC3    C4 6032   2.723   0.696  13.250  0.1922 -0.8664  0.3564
  404TMC3    C5 6033   2.686   0.599  13.157 -0.5029 -0.4128 -0.2424
  404TMC3    C6 6034   2.615   0.491  13.191  0.5131  0.2719  0.5380
  404TMC3     C 6035   2.737   0.764  13.488  0.3929 -0.2366  0.8014
  404TMC3     O 6036   2.707   0.733  13.602  0.1300 -0.1848 -0.5730
  404TMC3     H 6037   2.581   0.568  13.520 -1.3771  1.1665 -0.5462
  404TMC3    H1 6038   2.788   0.779  13.224 -1.0785  0.3149  0.9644
  404TMC3    H2 6039   2.614   0.402  13.129 -0.3144  0.6436  0.0205
  404TMC3    C7 6040   2.724   0.626  13.017 -0.6727  0.7954 -0.1981
  404TMC3    C8 6041   2.549   0.347  13.376  0.2274 -0.2884 -0.0916
  404TMC3    O1 6042   2.795   0.721  12.991  0.0626  0.2411  0.1152
  404TMC3    O2 6043   2.548   0.253  13.295 -0.7324  0.4347 -0.4944
  405MPD2     C 6044   3.270   1.210  15.117 -0.4250  0.1041 -0.3262
  405MPD2    C1 6045   3.196   1.136  15.017  0.1520  0.7350  0.8740
  405MPD2    C2 6046   3.176   1.193  14.895  0.0698 -1.0701 -0.3935
  405MPD2    C3 6047   3.218   1.322  14.865  0.5623  0.0532 -0.5264
  405MPD2    C4 6048   3.293   1.390  14.954 -0.0769 -0.1535 -0.5848
  405MPD2    C5 6049   3.323   1.329  15.077 -0.2463  0.3523  0.1019
  405MPD2     H 6050   3.106   1.149  14.825 -2.4811  1.5882  0.4998
  405MPD2    H1 6051   3.317   1.493  14.931  1.2583 -0.4573 -0.5268
  405MPD2    H2 6052   3.291   1.165  15.213  1.2390 -0.8600 -1.1509
  405MPD2    H3 6053   3.395   1.376  15.143 -0.9070  2.3232 -0.5934
  405MPD2     N 6054   3.155   1.376  14.744 -0.4230 -0.1515  0.3779
  405MPD2    H5 6055   3.086   1.313  14.703 -0.5541  1.1223 -1.3266
  405MPD2    N1 6056   3.139   1.007  15.046  0.1075  0.5172  0.4289
  405MPD2    H7 6057   3.142   0.980  15.143  1.2824  1.8074  0.7426
  406TMC3    C1 6058   2.975   1.614  14.400  0.1483  0.4691  0.5876
  406TMC3    C2 6059   2.936   1.501  14.336 -0.1551  0.4037 -0.3133
  406TMC3    C3 6060   2.995   1.388  14.382 -0.0843 -0.0321 -0.3672
  406TMC3    C4 6061   3.059   1.608  14.512 -0.0186  0.1726  0.4730
  406TMC3    C5 6062   3.115   1.496  14.559 -0.2443 -0.3444  1.0449
  406TMC3    C6 6063   3.082   1.381  14.489 -0.7700  0.4059  0.2502
  406TMC3     C 6064   2.865   1.705  14.420  0.7677 -0.2850 -0.1503
  406TMC3     O 6065   2.842   1.733  14.536  0.7948 -0.2318  0.2882
  406TMC3     H 6066   2.856   1.495  14.264  1.3338 -0.1576 -1.9238
  406TMC3    H1 6067   3.072   1.703  14.563  0.2690  0.8251 -0.8183
  406TMC3    H2 6068   3.144   1.293  14.500  0.8567  1.5077  0.0144
  406TMC3    C7 6069   3.176   1.498  14.689  0.2319  0.2103 -0.2650
  406TMC3    C8 6070   2.938   1.264  14.330  0.2440 -0.0161  0.5555
  406TMC3    O1 6071   3.226   1.601  14.737 -0.4230 -0.3716 -0.6149
  406TMC3    O2 6072   2.896   1.260  14.214  0.3418 -0.1567  0.4119
  407MPD2     C 6073   0.797   2.957   9.992  0.3108  0.0048 -0.1467
  407MPD2    C1 6074   0.926   2.985  10.024 -0.4660 -0.2717 -0.0887
  407MPD2    C2 6075   0.953   3.083  10.122  0.6523 -0.4801  0.1507
  407MPD2    C3 6076   0.849   3.154  10.176 -0.3024  0.0670  0.4211
  407MPD2    C4 6077   0.726   3.149  10.114  0.1851  0.2645  0.9994
  407MPD2    C5 6078   0.698   3.036  10.039 -0.8579  0.2973 -0.0332
  407MPD2     H 6079   1.054   3.102  10.156  1.0077 -1.0402 -0.5989
  407MPD2    H1 6080   0.645   3.213  10.146 -1.2110 -0.5439 -0.8989
  407MPD2    H2 6081   0.776   2.886   9.913 -1.2895 -3.3271  3.3135
  407MPD2    H3 6082   0.599   3.018   9.998 -0.5717  1.1863 -1.1264
  407MPD2     N 6083   0.853   3.247  10.279  0.7815 -1.0234  0.4683
  407MPD2    H5 6084   0.780   3.317  10.277 -0.2377 -2.0585  1.8806
  407MPD2    N1 6085   1.046   2.925   9.970  0.0326  0.0855  0.5413
  407MPD2    H7 6086   1.134   2.971   9.992  0.4291  0.1526 -1.1454
  408TMC3    C1 6087   1.175   2.819   9.802  0.0345  0.8440  0.5053
  408TMC3    C2 6088   1.218   2.691   9.779 -0.7518 -0.2232  0.5340
  408TMC3    C3 6089   1.341   2.675   9.719 -0.0646  0.1847 -0.5663
  408TMC3    C4 6090   1.255   2.928   9.773 -0.1821  0.0518  0.5192
  408TMC3    C5 6091   1.373   2.908   9.708  0.1701 -0.8105  0.1182
  408TMC3    C6 6092   1.422   2.780   9.679 -0.4913  0.0040 -0.7758
  408TMC3     C 6093   1.049   2.829   9.870 -0.3244 -0.5153  0.0989
  408TMC3     O 6094   0.964   2.747   9.838 -0.2057  0.2818 -0.5338
  408TMC3     H 6095   1.173   2.604   9.825 -1.3353  0.2729  0.8875
  408TMC3    H1 6096   1.221   3.027   9.802  0.5082  0.9374 -1.7228
  408TMC3    H2 6097   1.512   2.768   9.619 -2.1758  0.3253 -3.3853
  408TMC3    C7 6098   1.469   3.019   9.701  0.2443 -0.2915  0.7229
  408TMC3    C8 6099   1.401   2.545   9.736  0.0360 -0.0658 -0.0154
  408TMC3    O1 6100   1.562   3.007   9.621 -0.3041  0.5430  0.5487
  408TMC3    O2 6101   1.333   2.444   9.761 -1.1057 -0.1205  0.1479
  409MPD2     C 6102   4.649   3.415  16.866  0.3653 -0.0373 -0.3227
  409MPD2    C1 6103   0.029   3.407  16.953 -0.4302 -0.1479 -0.0418
  409MPD2    C2 6104   0.141   3.483  16.931 -0.5226  0.3472 -0.5684
  409MPD2    C3 6105   0.148   3.579  16.829  0.3841  0.8401 -0.9781
  409MPD2    C4 6106   0.033   3.601  16.754 -0.1370 -0.2353  0.0890
  409MPD2    C5 6107   4.648   3.516  16.775 -0.0699  0.1688  0.1531
  409MPD2     H 6108   0.227   3.461  16.994  0.3949  0.6797 -1.7123
  409MPD2    H1 6109   0.017   3.675  16.676  0.9778  1.3320  1.3462
  409MPD2    H2 6110   4.564   3.350  16.884 -0.1197  0.8038  0.4351
  409MPD2    H3 6111   4.555   3.532  16.720  0.8470  1.3185 -1.0666
  409MPD2     N 6112   0.269   3.647  16.786  0.3467 -0.1255  0.2166
  409MPD2    H5 6113   0.253   3.722  16.720 -0.9051  0.4213  1.1511
  409MPD2    N1 6114   0.040   3.316  17.060  0.4985 -0.1730 -0.3889
  409MPD2    H7 6115   0.127   3.313  17.113  0.1604 -0.1896  0.1669
  410TMC3    C1 6116   0.503   3.726  16.797  0.4004 -0.6166 -1.0382
  410TMC3    C2 6117   0.606   3.741  16.881  0.3616  0.4802 -0.5609
  410TMC3    C3 6118   0.699   3.840  16.854  0.3562 -0.7132  0.3417
  410TMC3    C4 6119   0.495   3.783  16.676 -0.3724  0.6551  0.0521
  410TMC3    C5 6120   0.603   3.868  16.650  0.4321  0.4038 -0.7895
  410TMC3    C6 6121   0.697   3.904  16.738 -0.1225 -0.2810  0.6783
  410TMC3     C 6122   0.396   3.637  16.850  0.5865  0.4321  0.2803
  410TMC3     O 6123   0.422   3.577  16.950 -0.3719 -0.5404 -0.2215
  410TMC3     H 6124   0.601   3.685  16.974  0.8746  0.8744 -0.2952
  410TMC3    H1 6125   0.409   3.789  16.611  0.0362  0.2716 -0.5274
  410TMC3    H2 6126   0.767   3.983  16.713  0.2561 -0.6520  0.5832
  410TMC3    C7 6127   0.608   3.920  16.512 -0.2101  0.2180  0.4360
  410TMC3    C8 6128   0.818   3.850  16.944 -0.4471  1.0599 -0.6540
  410TMC3    O1 6129   0.531   3.869  16.435 -0.0605 -0.1238 -0.3768
  410TMC3    O2 6130   0.861   3.960  16.972 -0.7871 -0.1999  0.4801
  411MPD2     C 6131   0.778   4.308  14.745  0.3672  0.3931  0.1649
  411MPD2    C1 6132   0.649   4.334  14.698  0.0372 -0.6427  0.3857
  411MPD2    C2 6133   0.575   4.237  14.629 -0.1422 -0.0862  0.7557
  411MPD2    C3 6134   0.632   4.121  14.591  0.1902 -0.2012  0.7151
  411MPD2    C4 6135   0.753   4.093  14.632 -0.6751  0.1033 -0.6661
  411MPD2    C5 6136   0.832   4.188  14.701  0.5467 -0.5631  0.2477
  411MPD2     H 6137   0.478   4.270  14.591 -1.4989 -0.4365  3.9029
  411MPD2    H1 6138   0.792   4.000  14.590 -0.5607 -0.8526  1.5250
  411MPD2    H2 6139   0.844   4.380  14.792  0.1932  0.0441  0.9488
  411MPD2    H3 6140   0.934   4.157  14.722  0.9332 -0.4077 -1.4252
  411MPD2     N 6141   0.575   4.021  14.512 -0.5079 -0.1212 -0.1900
  411MPD2    H5 6142   0.628   3.935  14.499  1.8089  1.0467  1.7200
  411MPD2    N1 6143   0.584   4.457  14.726 -0.2755 -0.2762  0.0858
  411MPD2    H7 6144   0.494   4.474  14.682 -0.4806 -0.4820  0.4240
  412TMC3    C1 6145   0.407   3.917  14.369  0.2632 -0.0163 -0.3547
  412TMC3    C2 6146   0.309   3.833  14.398 -0.6883  0.2215 -0.6045
  412TMC3    C3 6147   0.269   3.756  14.294 -0.5124  0.5038 -0.1860
  412TMC3    C4 6148   0.439   3.945  14.243 -0.2289  0.0753 -0.7002
  412TMC3    C5 6149   0.383   3.878  14.138  0.7577  0.0555 -0.1395
  412TMC3    C6 6150   0.313   3.767  14.165  0.1301  0.6793 -0.0978
  412TMC3     C 6151   0.441   4.027  14.464  0.0694 -0.0935  0.4190
  412TMC3     O 6152   0.345   4.098  14.493  0.2895 -0.6235  0.8726
  412TMC3     H 6153   0.259   3.840  14.494 -0.1618  0.6257 -0.3598
  412TMC3    H1 6154   0.497   4.035  14.228 -0.4351  0.8070  2.8905
  412TMC3    H2 6155   0.264   3.711  14.086 -0.3755  0.3666  0.4394
  412TMC3    C7 6156   0.301   3.974  14.054  0.3079 -0.2179  0.5650
  412TMC3    C8 6157   0.124   3.745  14.293 -0.2324  0.6555  0.1852
  412TMC3    O1 6158   0.211   3.926  13.985  0.0210 -0.0443  0.0700
  412TMC3    O2 6159   0.059   3.848  14.299 -0.0585  0.3997  0.0633
  413MPD2     C 6160   2.124   1.849  15.012  0.2024  0.7397 -0.2194
  413MPD2    C1 6161   2.224   1.878  15.102  0.6902  0.7131 -0.6545
  413MPD2    C2 6162   2.343   1.811  15.092 -0.0230  0.2269  0.2739
  413MPD2    C3 6163   2.371   1.716  14.993 -0.3538  0.4919 -0.2825
  413MPD2    C4 6164   2.266   1.679  14.913 -0.5632 -0.2388  0.2397
  413MPD2    C5 6165   2.142   1.742  14.928 -0.0479  0.1592 -0.1290
  413MPD2     H 6166   2.430   1.836  15.152  0.2679  2.5624 -1.0806
  413MPD2    H1 6167   2.275   1.601  14.837 -3.0128  1.2760 -1.6176
  413MPD2    H2 6168   2.028   1.899  15.024 -0.4346 -0.9432  1.7690
  413MPD2    H3 6169   2.064   1.705  14.863 -0.9133  1.0596  0.3853
  413MPD2     N 6170   2.495   1.650  14.999 -0.2033  0.4994  0.4468
  413MPD2    H5 6171   2.572   1.684  15.056  0.1099 -0.8989  0.8749
  413MPD2    N1 6172   2.200   1.976  15.205 -0.2375  0.0812  0.2900
  413MPD2    H7 6173   2.113   2.028  15.194 -2.3411 -3.8604 -1.3973
  414TMC3    C1 6174   2.664   1.512  14.926  0.1741  0.6607  0.5176
  414TMC3    C2 6175   2.697   1.393  14.979 -0.2468 -0.3794 -0.2223
  414TMC3    C3 6176   2.827   1.381  15.003  0.7159  0.2960  0.9503
  414TMC3    C4 6177   2.749   1.606  14.886  0.1347 -0.3274 -0.1568
  414TMC3    C5 6178   2.882   1.586  14.917 -0.0192  0.6848  0.6846
  414TMC3    C6 6179   2.923   1.475  14.982 -0.1951  0.1363 -0.5316
  414TMC3     C 6180   2.519   1.534  14.927 -0.4558 -0.3750  0.1721
  414TMC3     O 6181   2.442   1.437  14.917  0.1109  0.2625  0.7692
  414TMC3     H 6182   2.624   1.316  15.002  0.0793 -0.4138  0.6808
  414TMC3    H1 6183   2.703   1.699  14.856 -0.3239 -0.9776 -1.4769
  414TMC3    H2 6184   3.020   1.463  15.028 -0.3727  0.3594 -0.1005
  414TMC3    C7 6185   2.975   1.693  14.912 -0.1059  0.0430  1.2349
  414TMC3    C8 6186   2.851   1.263  15.094 -0.3207 -0.6298 -0.2345
  414TMC3    O1 6187   3.055   1.705  15.007 -0.4347  0.1685 -0.2057
  414TMC3    O2 6188   2.773   1.169  15.088 -0.0203  0.5064 -0.0957
  415TMC3    C1 6189   3.047   0.638  10.104  0.2522  0.1538 -0.6599
  415TMC3    C2 6190   3.145   0.648  10.013 -0.5089 -0.1599  0.6403
  415TMC3    C3 6191   3.108   0.624   9.875 -0.5705  0.3427 -0.4135
  415TMC3    C4 6192   2.921   0.592  10.079  0.3574 -0.3699  0.3854
  415TMC3    C5 6193   2.889   0.568   9.943  0.0147 -0.5044 -0.4097
  415TMC3    C6 6194   2.981   0.590   9.848 -0.0105 -1.0157  0.7148
  415TMC3     C 6195   3.069   0.687  10.248 -0.5199  0.4212  0.4902
  415TMC3     O 6196   2.968   0.730  10.299 -0.4902 -0.0148  0.0115
  415TMC3     H 6197   3.247   0.659  10.048  0.1878  0.6200 -1.6223
  415TMC3    H1 6198   2.845   0.581  10.156  0.6123 -0.7165  0.5863
  415TMC3    H2 6199   2.942   0.597   9.747  0.5612  2.2462  0.7470
  415TMC3    C7 6200   2.768   0.496   9.909  0.2012 -0.0115 -0.3742
  415TMC3    C8 6201   3.207   0.616   9.769 -0.1259 -0.2116  0.4621
  415TMC3    O1 6202   2.723   0.494   9.795 -0.4295  0.0552  0.0503
  415TMC3    O2 6203   3.168   0.544   9.677  0.3356  0.0304 -0.2577
  416MPD2     C 6204   0.407   4.612  11.655 -0.2471  1.0196 -0.1438
  416MPD2    C1 6205   0.304   4.616  11.566 -0.0438 -0.1885 -0.0038
  416MPD2    C2 6206   0.275   4.508  11.484  0.2534 -0.3290 -0.5699
  416MPD2    C3 6207   0.367   4.405  11.487 -0.4027  0.2749 -0.1146
  416MPD2    C4 6208   0.472   4.400  11.576 -0.4763  0.1595  0.1394
  416MPD2    C5 6209   0.486   4.499  11.664  0.1413  0.3547  0.4741
  416MPD2     H 6210   0.183   4.510  11.427  0.8303  1.2641 -1.4694
  416MPD2    H1 6211   0.540   4.317  11.591 -0.8130 -0.3822 -1.4106
  416MPD2    H2 6212   0.417   4.689  11.730  0.0488 -0.2305  1.1047
  416MPD2    H3 6213   0.566   4.487  11.736  0.7814 -2.4840 -0.7203
  416MPD2     N 6214   0.349   4.291  11.406  0.0352 -0.9774 -0.2689
  416MPD2    H5 6215   0.413   4.212  11.417  0.6406 -0.3868  0.4443
  416MPD2    N1 6216   0.223   0.006  11.579  0.1689  0.8050 -0.4414
  416MPD2    H7 6217   0.234   0.067  11.659  2.3582  1.6603 -1.3906
  417TMC3    C1 6218   0.024   0.132  11.559  0.2332  0.0798  0.0328
  417TMC3    C2 6219   0.004   0.134  11.693 -0.3733  0.3422 -0.1918
  417TMC3    C3 6220   4.636   0.217  11.742  0.1775  0.0222 -0.0532
  417TMC3    C4 6221   4.678   0.208  11.472 -0.5806 -0.5810  0.2788
  417TMC3    C5 6222   4.592   0.299  11.529  0.3613 -0.2068 -0.4741
  417TMC3    C6 6223   4.561   0.306  11.663  0.2194  0.4083 -0.0826
  417TMC3     C 6224   0.112   0.028  11.502  0.0687 -0.4979 -0.2603
  417TMC3     O 6225   0.082   4.713  11.393 -0.0018 -0.3989  0.4362
  417TMC3     H 6226   0.055   0.060  11.753  0.2000  0.0664 -1.0162
  417TMC3    H1 6227   4.693   0.212  11.365  3.0313  1.9327  0.9015
  417TMC3    H2 6228   4.495   0.384  11.699 -1.4563  0.0719 -2.4432
  417TMC3    C7 6229   4.502   0.361  11.431 -0.7851  0.2907  0.3195
  417TMC3    C8 6230   4.617   0.215  11.884 -0.4894 -0.0621  0.4800
  417TMC3    O1 6231   4.530   0.346  11.316  0.1955  0.0483  0.3999
  417TMC3    O2 6232   4.543   0.300  11.928  0.1784  0.4366  0.3570
  418TMC3    C1 6233   3.636   1.131   0.460  0.0693 -0.0127 -0.5948
  418TMC3    C2 6234   3.507   1.166   0.448  0.5021  0.1436  0.3939
  418TMC3    C3 6235   3.416   1.072   0.467 -0.8369 -0.2843 -0.2603
  418TMC3    C4 6236   3.663   1.005   0.516 -0.0412 -0.5821  0.5112
  418TMC3    C5 6237   3.563   0.918   0.544 -0.8062  0.0045  0.4334
  418TMC3    C6 6238   3.439   0.949   0.513 -0.2159 -0.3250 -0.1917
  418TMC3     C 6239   3.716   1.188   0.353  0.2784  0.1961 -0.6465
  418TMC3     O 6240   3.717   1.305   0.325  0.5076  0.5279 -0.3531
  418TMC3     H 6241   3.484   1.255   0.391 -0.2609 -0.6052 -0.4648
  418TMC3    H1 6242   3.763   0.967   0.529  0.3321  0.2974  0.2116
  418TMC3    H2 6243   3.360   0.880   0.541 -0.4146 -0.9262 -2.1819
  418TMC3    C7 6244   3.580   0.783   0.587  0.2981 -0.6299  0.0629
  418TMC3    C8 6245   3.304   1.085   0.377 -0.3972  0.6901  0.0716
  418TMC3    O1 6246   3.496   0.704   0.553  0.0903 -0.0395  0.2911
  418TMC3    O2 6247   3.248   1.193   0.364  0.0339  0.2292 -0.7508
  419MPD2     C 6248   2.327   4.095  12.647  0.2761  0.6816  0.0537
  419MPD2    C1 6249   2.238   4.189  12.595 -0.6610 -0.7784  0.7361
  419MPD2    C2 6250   2.153   4.254  12.687  0.0149 -0.3535  0.1402
  419MPD2    C3 6251   2.141   4.209  12.814 -0.9277  0.1980 -0.4360
  419MPD2    C4 6252   2.225   4.107  12.865  0.6807  0.1298 -0.0524
  419MPD2    C5 6253   2.313   4.048  12.774 -0.5833  0.1605  0.1078
  419MPD2     H 6254   2.084   4.327  12.646  0.2334 -0.3797 -0.2800
  419MPD2    H1 6255   2.215   4.071  12.967  1.9357  0.0118  0.0207
  419MPD2    H2 6256   2.387   4.030  12.584  0.7330  0.3721  0.8151
  419MPD2    H3 6257   2.373   3.958  12.783 -0.9352  0.0897  1.6495
  419MPD2     N 6258   2.054   4.284  12.890  0.9991  0.3872 -0.1405
  419MPD2    H5 6259   2.024   4.373  12.852  0.9492  0.7965  0.8594
  419MPD2    N1 6260   2.210   4.218  12.462  0.7355 -0.3727 -0.0677
  419MPD2    H7 6261   2.142   4.289  12.438  2.0380  1.3896  1.3854
  420TMC3    C1 6262   2.003   4.384  13.090 -0.3451 -0.2343  0.4574
  420TMC3    C2 6263   1.969   4.496  13.025  0.0214  0.1240  0.3525
  420TMC3    C3 6264   1.957   4.608  13.108  0.0658 -0.1558 -0.3361
  420TMC3    C4 6265   2.015   4.374  13.231 -0.2319 -0.6215 -0.3661
  420TMC3    C5 6266   1.997   4.485  13.303  0.6227 -0.3654 -1.0729
  420TMC3    C6 6267   1.972   4.606  13.240 -0.7521  0.5265 -0.5613
  420TMC3     C 6268   2.033   4.264  13.022 -0.4057  0.7362 -0.5988
  420TMC3     O 6269   2.061   4.161  13.083  0.1970  0.2847 -0.3654
  420TMC3     H 6270   1.964   4.499  12.917 -1.8372 -2.2147  0.3859
  420TMC3    H1 6271   2.036   4.282  13.284  1.6644 -0.7918 -1.4264
  420TMC3    H2 6272   1.974   4.696  13.301  1.0814  0.5124 -0.5925
  420TMC3    C7 6273   2.008   4.476  13.449 -0.3884 -0.0567  0.0396
  420TMC3    C8 6274   1.889   4.723  13.051 -0.3964  0.0864 -0.3577
  420TMC3    O1 6275   2.065   4.380  13.493  0.7639 -0.5436  0.1525
  420TMC3    O2 6276   1.905   0.116  13.091 -0.0274 -0.2968 -0.5549
  421TMC3    C1 6277   3.147   1.008  14.045  0.6967 -0.1730  0.0638
  421TMC3    C2 6278   3.188   1.081  14.156  0.2387  0.5791  0.0247
  421TMC3    C3 6279   3.220   1.009  14.264  0.4693  0.5268  0.0447
  421TMC3    C4 6280   3.172   0.871  14.028 -0.6649  0.6103 -0.6419
  421TMC3    C5 6281   3.219   0.806  14.136  0.1381 -0.2367  0.6315
  421TMC3    C6 6282   3.231   0.871  14.253 -0.0571 -0.1662  0.0325
  421TMC3     C 6283   3.102   1.091  13.930  0.1825 -0.0897 -0.7798
  421TMC3     O 6284   3.122   1.210  13.933  0.6839 -0.3552  0.7530
  421TMC3     H 6285   3.186   1.190  14.155  0.3126  0.6019  2.7646
  421TMC3    H1 6286   3.177   0.833  13.927  1.5677 -2.7173  0.7238
  421TMC3    H2 6287   3.270   0.812  14.336 -0.5504  0.2362  0.5465
  421TMC3    C7 6288   3.322   0.699  14.114 -0.1429 -0.5241 -0.3912
  421TMC3    C8 6289   3.284   1.060  14.381 -0.0098 -0.6309 -0.1114
  421TMC3    O1 6290   3.412   0.730  14.041 -0.1056 -0.6427 -0.1666
  421TMC3    O2 6291   3.321   0.981  14.468 -0.5570  0.5007  0.2932
  422TMC3    C1 6292   1.018   2.622  12.870 -0.3209  0.0835 -0.2559
  422TMC3    C2 6293   0.977   2.739  12.924  0.3506 -0.0812 -0.3173
  422TMC3    C3 6294   0.868   2.740  13.007 -0.6006 -0.1631 -0.0131
  422TMC3    C4 6295   0.946   2.505  12.889  0.9328 -0.2311 -0.0280
  422TMC3    C5 6296   0.825   2.510  12.962  0.2292  0.8587 -0.3722
  422TMC3    C6 6297   0.788   2.629  13.027 -0.1435  0.1560 -0.8559
  422TMC3     C 6298   1.136   2.629  12.787 -0.0682  0.5256  0.9341
  422TMC3     O 6299   1.218   2.719  12.811 -0.1506 -0.0735  0.1591
  422TMC3     H 6300   1.040   2.825  12.905 -1.7501  1.8827  1.5822
  422TMC3    H1 6301   0.974   2.409  12.847 -1.0148 -0.9820  0.3713
  422TMC3    H2 6302   0.685   2.639  13.060  0.1499  1.0343 -0.2187
  422TMC3    C7 6303   0.714   2.442  12.891  0.4434 -0.3479 -0.5794
  422TMC3    C8 6304   0.875   2.845  13.115  0.3049  0.7752 -0.4983
  422TMC3    O1 6305   0.748   2.379  12.789  0.2585  0.2669  0.0451
  422TMC3    O2 6306   0.945   2.941  13.083  0.2824 -0.3550 -0.5886
  423MPD2     C 6307   1.759   3.332   0.274  0.2716  0.5802  0.4519
  423MPD2    C1 6308   1.820   3.223   0.345  0.3362  0.2935 -0.9239
  423MPD2    C2 6309   1.889   3.125   0.279  0.5056  0.7904 -0.0369
  423MPD2    C3 6310   1.895   3.138   0.143  0.6000 -0.3875  0.0162
  423MPD2    C4 6311   1.847   3.251   0.071  0.4375 -0.3689 -0.0648
  423MPD2    C5 6312   1.778   3.347   0.142 -0.3572  0.4810  0.6814
  423MPD2     H 6313   1.918   3.036   0.334  3.1321  1.6091 -0.0749
  423MPD2    H1 6314   1.871   3.268  17.665  0.9293  0.1971  0.1372
  423MPD2    H2 6315   1.704   3.409   0.326  0.8086  1.9233 -0.9513
  423MPD2    H3 6316   1.749   3.438   0.091 -0.3799 -0.0154 -0.1786
  423MPD2     N 6317   1.955   3.043   0.068  0.6013  0.6958  0.2617
  423MPD2    H5 6318   1.949   3.065  17.668 -1.1251  0.1298  0.2396
  423MPD2    N1 6319   1.814   3.214   0.487 -0.1202 -0.1145 -0.5045
  423MPD2    H7 6320   1.871   3.143   0.532 -0.7728 -0.5069 -0.3057
  424TMC3    C1 6321   1.768   3.282   0.714 -0.0248 -0.3749  0.2396
  424TMC3    C2 6322   1.891   3.248   0.750  0.1728 -0.0676  0.1055
  424TMC3    C3 6323   1.894   3.213   0.884  0.3285 -0.1599 -0.3475
  424TMC3    C4 6324   1.658   3.288   0.790  0.2223  0.5743  0.1465
  424TMC3    C5 6325   1.667   3.251   0.924 -0.9081  0.6670 -0.8056
  424TMC3    C6 6326   1.789   3.222   0.978  0.0513 -0.0605 -0.2119
  424TMC3     C 6327   1.750   3.308   0.575  0.5211  0.0467  0.0405
  424TMC3     O 6328   1.660   3.381   0.548  0.4554  0.8164 -0.4464
  424TMC3     H 6329   1.976   3.215   0.690 -1.9409 -0.7936 -2.5171
  424TMC3    H1 6330   1.564   3.304   0.739  0.7335 -1.5964 -1.4692
  424TMC3    H2 6331   1.799   3.177   1.077 -1.0145  0.4242  0.1119
  424TMC3    C7 6332   1.541   3.259   0.991  0.3643  0.0356 -0.0226
  424TMC3    C8 6333   2.014   3.147   0.937  0.3672 -0.4764 -1.0229
  424TMC3    O1 6334   1.438   3.244   0.925 -0.1125 -0.0264  0.6397
  424TMC3    O2 6335   1.995   3.079   1.038 -0.1430 -0.0919  0.1672
  425MPD2     C 6336   1.034   2.535   0.273  0.3543 -0.5698 -0.2862
  425MPD2    C1 6337   1.001   2.482   0.148  0.3994 -0.5108  0.7166
  425MPD2    C2 6338   0.885   2.527   0.078 -0.3138 -0.2286 -0.5294
  425MPD2    C3 6339   0.797   2.617   0.150 -0.2591 -0.2080 -0.1099
  425MPD2    C4 6340   0.824   2.650   0.280 -0.2553  0.5169 -0.3793
  425MPD2    C5 6341   0.945   2.614   0.340  0.4200  0.2810 -0.0392
  425MPD2     H 6342   0.857   2.491  17.678 -2.4020 -3.6954  1.3182
  425MPD2    H1 6343   0.760   2.702   0.350 -3.3159 -2.3329 -1.0819
  425MPD2    H2 6344   1.131   2.516   0.316  1.2922 -0.0715 -2.1635
  425MPD2    H3 6345   0.960   2.639   0.445  0.0537  0.3389 -0.0006
  425MPD2     N 6346   0.679   2.638   0.092  0.3657 -0.0747  0.6893
  425MPD2    H5 6347   0.670   2.615  17.692 -0.9166  1.9062  0.3346
  425MPD2    N1 6348   1.098   2.391   0.093 -0.2840 -0.3855 -0.4171
  425MPD2    H7 6349   1.170   2.354   0.155  0.8102 -0.4585 -1.7271
  426TMC3    C1 6350   1.142   2.217  17.647 -0.2866 -0.1964  0.2544
  426TMC3    C2 6351   1.146   2.172  17.516  0.7456 -0.2582 -1.0777
  426TMC3    C3 6352   1.191   2.041  17.489 -0.5969  0.3354 -0.5189
  426TMC3    C4 6353   1.156   2.129   0.054 -0.3788  0.1577  0.6083
  426TMC3    C5 6354   1.180   1.999   0.022  0.2669 -0.4763  0.3549
  426TMC3    C6 6355   1.210   1.959  17.593 -0.1746 -0.5650 -0.0508
  426TMC3     C 6356   1.090   2.355  17.660  0.3271  0.3241  0.2469
  426TMC3     O 6357   1.059   2.422  17.565 -0.5367 -0.3279 -0.1946
  426TMC3     H 6358   1.125   2.238  17.433 -0.4379 -0.6401 -1.0783
  426TMC3    H1 6359   1.143   2.161   0.157 -0.6048 -1.2474  1.0141
  426TMC3    H2 6360   1.252   1.863  17.566  1.1731  0.2592 -0.9044
  426TMC3    C7 6361   1.175   1.888   0.118 -0.3050  0.2199 -0.5681
  426TMC3    C8 6362   1.159   1.981  17.358 -0.2825 -0.0323 -0.0679
  426TMC3    O1 6363   1.220   1.779   0.084  0.1041  0.1614  0.0360
  426TMC3    O2 6364   1.244   1.909  17.305  0.6964 -0.1328  0.0592
  427MPD2     C 6365   4.347   4.273  14.914 -0.1203 -0.3136 -0.8671
  427MPD2    C1 6366   4.318   4.237  15.046 -0.0991 -0.2482 -0.3865
  427MPD2    C2 6367   4.185   4.244  15.092 -0.0592 -0.5362  0.6104
  427MPD2    C3 6368   4.084   4.289  15.010 -0.1809  0.2790  0.0133
  427MPD2    C4 6369   4.114   4.332  14.883 -0.6393 -0.5449  0.7365
  427MPD2    C5 6370   4.246   4.319  14.837  0.3570 -0.3246 -0.4253
  427MPD2     H 6371   4.146   4.207  15.187  1.5395 -0.1826  1.4044
  427MPD2    H1 6372   4.033   4.371  14.822 -0.9937  0.6845  1.9816
  427MPD2    H2 6373   4.447   4.269  14.871 -0.1036 -1.2760 -0.7381
  427MPD2    H3 6374   4.268   4.353  14.736  0.2306  1.0539  0.0115
  427MPD2     N 6375   3.941   4.294  15.052 -0.3565  0.3314 -0.6448
  427MPD2    H5 6376   3.873   4.320  14.980 -1.1381  0.9348  0.3108
  427MPD2    N1 6377   4.422   4.208  15.144 -0.0576  0.7912 -0.2743
  427MPD2    H7 6378   4.401   4.163  15.232 -1.6370 -0.9174 -1.5188
  428TMC3    C1 6379   4.635   4.185  15.227 -0.2048 -0.2437  0.0323
  428TMC3    C2 6380   4.597   4.058  15.272 -0.2208  0.5972  0.1994
  428TMC3    C3 6381   4.674   4.011  15.376 -0.0894  0.1703 -0.1778
  428TMC3    C4 6382   0.021   4.250  15.269 -0.3542  0.5397 -0.2192
  428TMC3    C5 6383   0.097   4.196  15.366  0.4232  0.6521  0.3883
  428TMC3    C6 6384   0.055   4.081  15.425 -0.6545 -0.0898  1.0206
  428TMC3     C 6385   4.556   4.239  15.125 -0.1775  0.6120  0.3386
  428TMC3     O 6386   4.601   4.321  15.046 -0.0798  0.2649  0.5591
  428TMC3     H 6387   4.532   3.999  15.209  1.5635 -0.6917 -0.4587
  428TMC3    H1 6388   0.043   4.346  15.222  5.8980 -1.3140 -1.1338
  428TMC3    H2 6389   0.103   4.028  15.507 -0.8146 -0.1928  1.0485
  428TMC3    C7 6390   0.206   4.271  15.429 -1.6059 -1.1534  0.2552
  428TMC3    C8 6391   4.668   3.868  15.387 -0.4008 -0.6229 -0.2965
  428TMC3    O1 6392   0.214   4.262  15.550  0.1810 -0.0269  0.0803
  428TMC3    O2 6393   4.608   3.821  15.292 -0.0745  0.0677  0.3304
  429MPD2     C 6394   0.515   4.202  17.678  0.2585  0.2161  0.1385
  429MPD2    C1 6395   0.627   4.166  17.606  0.0838  0.2132 -0.6694
  429MPD2    C2 6396   0.704   4.263  17.544 -0.2294 -0.1442 -0.2561
  429MPD2    C3 6397   0.674   4.399  17.558 -0.6014  0.1440 -0.5260
  429MPD2    C4 6398   0.566   4.435  17.630  0.0218 -0.3206 -0.3531
  429MPD2    C5 6399   0.488   4.339  17.693  0.8944 -0.2451 -0.7431
  429MPD2     H 6400   0.785   4.229  17.481  0.9489  1.0838  0.5987
  429MPD2    H1 6401   0.542   4.540  17.641 -1.1357 -0.7696  1.3354
  429MPD2    H2 6402   0.438   4.132   0.010  1.2558 -0.9779 -0.0636
  429MPD2    H3 6403   0.400   4.372   0.049  1.2074 -1.8016  0.6940
  429MPD2     N 6404   0.772   4.494  17.514 -0.2198  0.1770 -0.0636
  429MPD2    H5 6405   0.856   4.456  17.472  0.5509  1.2092  0.5425
  429MPD2    N1 6406   0.666   4.035  17.583 -0.0981 -0.4606  0.6369
  429MPD2    H7 6407   0.737   4.020  17.513  0.4506 -2.1349  1.5390
  430TMC3    C1 6408   0.870   4.694  17.438 -0.5661  0.5419  0.0477
  430TMC3    C2 6409   0.850   0.086  17.367  0.7887  0.4804  0.2010
  430TMC3    C3 6410   0.949   0.128  17.284 -0.4103 -0.9955 -0.1640
  430TMC3    C4 6411   0.986   4.621  17.419  0.2449  0.5622  0.3906
  430TMC3    C5 6412   1.090   4.669  17.345  1.1974 -0.1555  0.0932
  430TMC3    C6 6413   1.062   0.059  17.274  0.1217  0.5125 -0.1310
  430TMC3     C 6414   0.751   4.634  17.508  0.2087  0.5164  0.1732
  430TMC3     O 6415   0.669   4.706  17.560 -0.5865  0.7787  0.3426
  430TMC3     H 6416   0.767   0.153  17.383 -0.1544 -0.5351 -0.3832
  430TMC3    H1 6417   1.002   4.532  17.480  0.7179  0.9518  0.8420
  430TMC3    H2 6418   1.132   0.091  17.198  0.8729 -0.7826  0.0018
  430TMC3    C7 6419   1.164   4.563  17.273 -0.4522 -0.1872  0.5037
  430TMC3    C8 6420   0.911   0.183  17.155  0.2516 -0.1866  0.1066
  430TMC3    O1 6421   1.114   4.452  17.280 -0.0822 -0.6357  0.3479
  430TMC3    O2 6422   0.795   0.168  17.120  0.0152  0.4319 -0.0934
  431MPD2     C 6423   1.689   4.645  12.486  0.4831 -0.2028  0.2299
  431MPD2    C1 6424   1.785   4.674  12.397  0.1997 -0.3162 -0.5932
  431MPD2    C2 6425   1.826   4.578  12.310  0.2330 -0.5564  0.1515
  431MPD2    C3 6426   1.773   4.458  12.314 -0.8240 -0.4608  0.0918
  431MPD2    C4 6427   1.679   4.420  12.406 -0.2465  0.5185 -0.2528
  431MPD2    C5 6428   1.630   4.520  12.485  0.6663 -0.4859 -0.1031
  431MPD2     H 6429   1.912   4.593  12.244  0.6794 -2.4640  0.2896
  431MPD2    H1 6430   1.624   4.327  12.399 -0.1180  0.6742 -3.2542
  431MPD2    H2 6431   1.644   4.716  12.555  0.1728 -0.7629  0.6040
  431MPD2    H3 6432   1.544   4.497  12.547  1.7351 -0.6167  1.3295
  431MPD2     N 6433   1.829   4.352  12.248  0.1710  0.3619  0.0660
  431MPD2    H5 6434   1.794   4.262  12.279 -0.3096  0.7474  0.6262
  431MPD2    N1 6435   1.862   0.071  12.408  0.6228 -0.1133 -0.1710
  431MPD2    H7 6436   1.820   0.150  12.455 -0.3631 -0.6599 -0.1400
  432TMC3    C1 6437   1.996   4.235  12.140 -1.3886  0.6749  0.2017
  432TMC3    C2 6438   2.056   4.214  12.017 -0.1402 -0.2242  0.8827
  432TMC3    C3 6439   2.182   4.168  12.013 -0.2292  0.3209  0.2772
  432TMC3    C4 6440   2.067   4.209  12.258 -0.7439 -1.1137  0.0097
  432TMC3    C5 6441   2.197   4.170  12.243  0.0019 -0.6809 -0.2421
  432TMC3    C6 6442   2.256   4.137  12.122 -0.3501 -0.1383 -0.2487
  432TMC3     C 6443   1.919   4.353  12.141  0.3653 -1.0242  0.1620
  432TMC3     O 6444   1.955   4.450  12.073  0.1018  0.8873  0.3904
  432TMC3     H 6445   2.019   4.251  11.922  1.3095  2.4618  1.3468
  432TMC3    H1 6446   2.011   4.234  12.347 -1.2319 -1.3540 -0.2269
  432TMC3    H2 6447   2.360   4.105  12.128 -0.0440  0.6839 -1.1195
  432TMC3    C7 6448   2.271   4.151  12.359 -0.0676 -0.0127 -0.3487
  432TMC3    C8 6449   2.230   4.117  11.891  0.2560  0.4724  0.3173
  432TMC3    O1 6450   2.365   4.074  12.357 -0.0284  0.0644  0.5733
  432TMC3    O2 6451   2.256   3.999  11.896 -0.3205  0.1194 -0.2104
  433MPD2     C 6452   1.168   3.909  11.326  0.0345  0.0687  0.0037
  433MPD2    C1 6453   1.090   3.813  11.391  0.1466  0.6203  0.1199
  433MPD2    C2 6454   1.082   3.820  11.535 -0.3932  0.2545 -0.1473
  433MPD2    C3 6455   1.151   3.924  11.602  0.5513  0.4910 -0.6428
  433MPD2    C4 6456   1.229   4.019  11.536 -0.0760 -0.7626 -0.2053
  433MPD2    C5 6457   1.239   4.009  11.396  0.3810  0.0996  0.1781
  433MPD2     H 6458   1.026   3.750  11.595 -0.5380  0.9192  0.4992
  433MPD2    H1 6459   1.291   4.093  11.585 -0.0275 -0.5847 -0.5367
  433MPD2    H2 6460   1.183   3.909  11.219  1.0003  2.2211  0.1417
  433MPD2    H3 6461   1.304   4.084  11.353  0.8678 -0.7172 -0.5044
  433MPD2     N 6462   1.131   3.926  11.741  0.7330 -0.5411  0.0206
  433MPD2    H5 6463   1.065   3.857  11.775 -1.0634 -0.0252 -2.4152
  433MPD2    N1 6464   1.024   3.714  11.319  0.4009 -0.9682  0.6157
  433MPD2    H7 6465   0.985   3.635  11.370 -0.7314 -2.9696 -3.3330
  434TMC3    C1 6466   0.989   3.565  11.150  0.0818  0.1379  0.0004
  434TMC3    C2 6467   1.058   3.464  11.211  0.7494  0.4109  0.2216
  434TMC3    C3 6468   1.072   3.344  11.148  0.4820  0.1183  0.1207
  434TMC3    C4 6469   0.929   3.547  11.030  0.3959 -0.0626  0.2103
  434TMC3    C5 6470   0.939   3.421  10.976  0.1701 -0.0188 -0.6045
  434TMC3    C6 6471   1.010   3.321  11.030 -0.2883 -0.0748 -0.0499
  434TMC3     C 6472   1.024   3.702  11.184 -0.3823  0.7954 -0.3546
  434TMC3     O 6473   1.033   3.785  11.095  0.0577  0.0296  0.0382
  434TMC3     H 6474   1.109   3.478  11.306  0.0127 -0.5666  0.7641
  434TMC3    H1 6475   0.879   3.629  10.979  0.7501 -0.2398 -0.4095
  434TMC3    H2 6476   1.017   3.222  10.986 -1.2094 -0.8300  1.4960
  434TMC3    C7 6477   0.826   3.388  10.890  0.2015  0.3275  0.1005
  434TMC3    C8 6478   1.154   3.241  11.208 -0.0023 -0.6009  0.5592
  434TMC3    O1 6479   0.726   3.458  10.894 -0.4552  0.3766  0.1763
  434TMC3    O2 6480   1.184   3.261  11.324 -0.1253 -0.0255  0.0092
  435MPD2     C 6481   2.658   3.081  15.452 -0.2806  0.2439  0.8040
  435MPD2    C1 6482   2.628   3.095  15.585 -0.5324  0.0541  0.2752
  435MPD2    C2 6483   2.718   3.043  15.677 -0.7063  0.5463  0.0038
  435MPD2    C3 6484   2.832   2.984  15.633  0.3497  0.4381  0.6017
  435MPD2    C4 6485   2.865   2.968  15.502  0.4307 -0.2374  0.6586
  435MPD2    C5 6486   2.772   3.022  15.407 -0.3202  0.0672  0.1954
  435MPD2     H 6487   2.701   3.063  15.782 -0.8854 -1.0730  0.2912
  435MPD2    H1 6488   2.953   2.925  15.455  1.2738  0.4452  1.6159
  435MPD2    H2 6489   2.593   3.111  15.370 -3.5772 -1.9396  2.6642
  435MPD2    H3 6490   2.786   3.023  15.300  1.5169 -0.2460  0.4343
  435MPD2     N 6491   2.913   2.926  15.736  0.3126  0.6160  0.2320
  435MPD2    H5 6492   2.873   2.942  15.827  1.8036 -1.7365  1.2850
  435MPD2    N1 6493   2.521   3.161  15.636 -0.1817 -0.5961  0.4571
  435MPD2    H7 6494   2.510   3.171  15.736  1.7798 -1.1195  0.7051
  436TMC3    C1 6495   2.176   3.299  15.806  0.0504  0.3767 -0.3311
  436TMC3    C2 6496   2.263   3.234  15.727  0.2512 -0.3409  0.1114
  436TMC3    C3 6497   2.325   3.300  15.625  0.0080 -0.0338 -0.3431
  436TMC3    C4 6498   2.149   3.428  15.782  0.2304  0.6701  0.7590
  436TMC3    C5 6499   2.196   3.487  15.667 -0.1638 -0.4187 -0.9245
  436TMC3    C6 6500   2.286   3.428  15.589 -0.1789  0.1582 -0.5365
  436TMC3     C 6501   2.139   3.218  15.925  0.3111  0.1923  0.5138
  436TMC3     O 6502   2.144   3.094  15.924  0.0573 -0.4907  0.3122
  436TMC3     H 6503   2.300   3.137  15.756  1.1120 -0.3836 -1.1297
  436TMC3    H1 6504   2.073   3.473  15.844 -0.7045 -0.8256  0.6893
  436TMC3    H2 6505   2.330   3.493  15.515  1.1259 -1.0760 -0.8403
  436TMC3    C7 6506   2.195   3.635  15.672 -0.2697  0.0379 -0.7857
  436TMC3    C8 6507   2.429   3.237  15.560  0.4463  0.2961  0.0739
  436TMC3    O1 6508   2.157   3.692  15.775  0.1386  0.0820  0.0497
  436TMC3    O2 6509   2.435   3.273  15.446 -0.3180  0.1676  0.4433
  437TMC3    C1 6510   1.601   0.533  11.895  0.4179  0.6935  0.3132
  437TMC3    C2 6511   1.514   0.561  11.794  0.3688  0.0436  1.1414
  437TMC3    C3 6512   1.553   0.655  11.700 -0.0567  0.0688 -1.1066
  437TMC3    C4 6513   1.724   0.594  11.903 -0.2626  0.5241 -0.1583
  437TMC3    C5 6514   1.762   0.682  11.803 -0.0355  0.4264  0.1600
  437TMC3    C6 6515   1.674   0.724  11.704 -0.2487  0.4223 -0.8194
  437TMC3     C 6516   1.557   0.452  12.006  0.2912 -0.2492  0.5100
  437TMC3     O 6517   1.444   0.411  11.991 -0.1041  0.1577  0.2773
  437TMC3     H 6518   1.421   0.506  11.790  0.5641 -0.2395  0.4077
  437TMC3    H1 6519   1.802   0.547  11.961 -0.1898  0.2592 -0.4688
  437TMC3    H2 6520   1.700   0.789  11.622 -1.5391 -0.0898 -1.6463
  437TMC3    C7 6521   1.889   0.750  11.803 -0.0978  0.4109 -0.2029
  437TMC3    C8 6522   1.485   0.658  11.574 -0.1120  0.3594  0.1232
  437TMC3    O1 6523   1.914   0.824  11.707  0.2820  0.4965 -0.3456
  437TMC3    O2 6524   1.542   0.700  11.475  0.2629  0.3357 -0.3277
  438MPD2     C 6525   3.691   0.963  16.434 -0.7685  0.1380  0.0822
  438MPD2    C1 6526   3.783   0.878  16.488 -0.4950  0.3408  0.1675
  438MPD2    C2 6527   3.766   0.828  16.616  0.4814 -0.4479 -0.5466
  438MPD2    C3 6528   3.658   0.858  16.689 -0.2311  0.2212  0.4766
  438MPD2    C4 6529   3.569   0.949  16.643 -0.0981 -0.3597 -0.1957
  438MPD2    C5 6530   3.591   1.002  16.518  0.3309 -0.8184 -0.2208
  438MPD2     H 6531   3.835   0.756  16.658  1.1798 -0.0145 -0.9641
  438MPD2    H1 6532   3.487   0.982  16.705 -0.6497  0.6456 -1.4613
  438MPD2    H2 6533   3.704   1.004  16.334 -0.1877  0.1343  0.1586
  438MPD2    H3 6534   3.512   1.067  16.483  0.6068 -0.1208  0.4537
  438MPD2     N 6535   3.635   0.792  16.810 -0.9706  0.2313  0.3493
  438MPD2    H5 6536   3.535   0.795  16.829 -0.9342  0.2095  0.5450
  438MPD2    N1 6537   3.890   0.829  16.412  0.0157 -0.3893 -0.1436
  438MPD2    H7 6538   3.930   0.750  16.462 -1.3324 -0.1303  1.3512
  439TMC3    C1 6539   4.067   0.818  16.256  0.2914 -0.6071  0.4688
  439TMC3    C2 6540   4.113   0.833  16.132 -0.0229  0.4041 -0.0681
  439TMC3    C3 6541   4.222   0.760  16.097 -0.1237  0.1071 -0.6077
  439TMC3    C4 6542   4.122   0.732  16.348  0.3858  0.3948  0.5074
  439TMC3    C5 6543   4.240   0.676  16.313  0.6273 -0.6739  1.0676
  439TMC3    C6 6544   4.290   0.689  16.194 -0.0690  0.2845  0.0804
  439TMC3     C 6545   3.942   0.874  16.296  0.9308 -0.6963  0.0879
  439TMC3     O 6546   3.896   0.958  16.223  0.2338 -0.1401  0.1744
  439TMC3     H 6547   4.052   0.900  16.071 -0.1458 -2.3702 -2.9763
  439TMC3    H1 6548   4.104   0.738  16.455 -2.3780  2.7874 -0.0930
  439TMC3    H2 6549   4.382   0.637  16.169  0.7137  1.4944  0.4194
  439TMC3    C7 6550   4.327   0.632  16.422 -0.0871  0.1286  0.1543
  439TMC3    C8 6551   4.312   0.823  16.001 -0.5458 -0.7958  0.4963
  439TMC3    O1 6552   4.277   0.605  16.531 -0.2289 -0.1358  0.4187
  439TMC3    O2 6553   4.431   0.827  16.027 -0.1761 -0.7123  0.1901
  440MPD2     C 6554   2.011   0.957  15.096  0.3811  0.5863 -0.0930
  440MPD2    C1 6555   2.117   1.052  15.124 -0.4171 -0.4831 -0.5301
  440MPD2    C2 6556   2.216   1.022  15.229 -0.6201 -0.7100  0.1930
  440MPD2    C3 6557   2.198   0.902  15.295  0.2586 -0.0275  0.2472
  440MPD2    C4 6558   2.095   0.812  15.262  0.2933 -0.8621 -0.5858
  440MPD2    C5 6559   1.997   0.849  15.174 -0.8662  0.2541 -1.0606
  440MPD2     H 6560   2.289   1.097  15.255 -1.0889 -0.0203 -0.4916
  440MPD2    H1 6561   2.077   0.728  15.329  1.6286  1.5633  2.7870
  440MPD2    H2 6562   1.934   0.976  15.022  0.7518  1.6438 -0.2196
  440MPD2    H3 6563   1.913   0.781  15.168  1.8591 -3.3012  0.7370
  440MPD2     N 6564   2.275   0.858  15.408  0.0558 -0.2030  0.4537
  440MPD2    H5 6565   2.251   0.777  15.464 -0.4160 -1.3150 -1.3859
  440MPD2    N1 6566   2.116   1.180  15.075 -0.2038  0.0179 -0.3716
  440MPD2    H7 6567   2.179   1.242  15.126  0.9093 -1.1003 -0.3830
  441TMC3    C1 6568   2.457   0.841  15.551  0.4583  0.0896  0.4131
  441TMC3    C2 6569   2.597   0.832  15.548 -0.4474  0.0756  0.4834
  441TMC3    C3 6570   2.672   0.840  15.662  0.5112 -0.3524  0.2638
  441TMC3    C4 6571   2.392   0.866  15.673 -0.4198 -0.2111 -0.5420
  441TMC3    C5 6572   2.469   0.863  15.786 -0.2210 -0.3316  0.3432
  441TMC3    C6 6573   2.606   0.863  15.781  1.0038  0.2721  0.3544
  441TMC3     C 6574   2.399   0.907  15.439  0.2180 -0.4814  0.4714
  441TMC3     O 6575   2.472   0.984  15.379  0.0924  0.1376  0.2304
  441TMC3     H 6576   2.636   0.808  15.450  0.8628  0.3299  0.9402
  441TMC3    H1 6577   2.292   0.908  15.676  0.2782  1.3289  1.6248
  441TMC3    H2 6578   2.660   0.883  15.874  1.9765 -0.2097 -0.1018
  441TMC3    C7 6579   2.411   0.917  15.903  0.8284 -0.1471 -0.1511
  441TMC3    C8 6580   2.806   0.892  15.644 -0.3162 -0.4940 -0.1987
  441TMC3    O1 6581   2.362   1.029  15.894 -0.0763 -0.4505 -0.1299
  441TMC3    O2 6582   2.881   0.895  15.742 -0.5578  0.3308 -0.1497
  442MPD2     C 6583   0.498   2.237  16.382  0.1136 -0.2587 -0.6730
  442MPD2    C1 6584   0.422   2.169  16.471  0.9790 -0.3374  0.1422
  442MPD2    C2 6585   0.432   2.031  16.467 -0.4116 -0.2332 -0.0846
  442MPD2    C3 6586   0.532   1.968  16.387  0.5299 -0.0658 -0.3845
  442MPD2    C4 6587   0.613   2.047  16.310 -0.5698 -0.1953 -0.0040
  442MPD2    C5 6588   0.586   2.179  16.296  0.1962  0.0099 -0.9612
  442MPD2     H 6589   0.381   1.977  16.546 -1.6310 -2.2769 -2.2604
  442MPD2    H1 6590   0.698   2.012  16.252 -0.0239  0.2707  0.5157
  442MPD2    H2 6591   0.487   2.345  16.375  0.1056 -0.1166  1.4924
  442MPD2    H3 6592   0.640   2.234  16.220  0.2819  1.3144  0.0493
  442MPD2     N 6593   0.545   1.829  16.390 -0.3186 -0.1156  0.1500
  442MPD2    H5 6594   0.624   1.791  16.338 -1.6301  0.7178 -2.3890
  442MPD2    N1 6595   0.323   2.232  16.559 -0.3051 -0.3862  0.6413
  442MPD2    H7 6596   0.259   2.174  16.613  0.7682 -4.2730 -2.2790
  443TMC3    C1 6597   0.232   2.410  16.677 -0.4062  0.5283  0.1340
  443TMC3    C2 6598   0.208   2.543  16.686 -0.5102  0.4135 -0.0299
  443TMC3    C3 6599   0.087   2.586  16.724  0.1859 -0.1544  0.5186
  443TMC3    C4 6600   0.139   2.320  16.735  0.8972  0.7644 -0.2735
  443TMC3    C5 6601   0.022   2.375  16.787 -0.0610  0.4553 -0.6971
  443TMC3    C6 6602   4.720   2.509  16.782 -0.8444 -0.2227 -0.0090
  443TMC3     C 6603   0.320   2.368  16.572 -0.2962  0.0853  1.2806
  443TMC3     O 6604   0.400   2.454  16.540  0.1614 -0.1942 -0.5721
  443TMC3     H 6605   0.276   2.603  16.626 -1.7794 -0.4126 -2.2902
  443TMC3    H1 6606   0.157   2.216  16.757 -1.4484  0.5507  0.6657
  443TMC3    H2 6607   4.618   2.537  16.802 -1.0048  1.5139 -3.3137
  443TMC3    C7 6608   4.651   2.298  16.862  0.2746 -0.1281  0.2798
  443TMC3    C8 6609   0.060   2.722  16.691  0.6464  0.4720 -0.3661
  443TMC3    O1 6610   4.652   2.177  16.837 -0.2051 -0.3654 -0.7196
  443TMC3    O2 6611   0.009   2.789  16.780  0.4995  0.0589  0.3123
  444MPD2     C 6612   0.878   1.727  17.461 -0.2227 -0.1074 -0.7246
  444MPD2    C1 6613   0.839   1.686  17.336  0.5219  0.1253  0.9846
  444MPD2    C2 6614   0.929   1.608  17.262 -0.6453  0.1863 -0.2728
  444MPD2    C3 6615   1.054   1.571  17.309  0.5906 -0.1810  0.5633
  444MPD2    C4 6616   1.098   1.621  17.428  0.3130  0.7480  0.4317
  444MPD2    C5 6617   0.999   1.689  17.500 -0.5430  0.6260  0.4723
  444MPD2     H 6618   0.893   1.567  17.168 -0.1506 -1.0689  0.0891
  444MPD2    H1 6619   1.198   1.602  17.464 -0.1103  0.0308  1.2077
  444MPD2    H2 6620   0.817   1.779  17.534  1.1794 -1.4904  1.4363
  444MPD2    H3 6621   1.022   1.715  17.602 -0.5062  0.0587  0.6112
  444MPD2     N 6622   1.139   1.507  17.216  0.3559  0.3168 -0.6109
  444MPD2    H5 6623   1.110   1.501  17.119 -0.8547 -0.2151 -0.2022
  444MPD2    N1 6624   0.714   1.704  17.280  0.1421 -0.4277  0.5658
  444MPD2    H7 6625   0.690   1.655  17.194 -1.4882 -2.0285  1.9548
  445TMC3    C1 6626   1.312   1.377  17.131 -0.3078 -0.1684  0.5534
  445TMC3    C2 6627   1.238   1.330  17.026  0.7627  0.6527  0.2284
  445TMC3    C3 6628   1.302   1.261  16.925  0.0801 -0.6367  0.3291
  445TMC3    C4 6629   1.449   1.356  17.136 -0.3083 -0.0973  0.6422
  445TMC3    C5 6630   1.508   1.294  17.032  0.1626  1.6875  0.4940
  445TMC3    C6 6631   1.436   1.234  16.929 -0.2006 -0.2087  0.3669
  445TMC3     C 6632   1.259   1.451  17.248 -0.1670  0.0828  0.0862
  445TMC3     O 6633   1.312   1.441  17.359  0.2677  0.0316 -0.3123
  445TMC3     H 6634   1.131   1.321  17.034  0.8593 -1.2711 -0.5635
  445TMC3    H1 6635   1.503   1.381  17.227 -2.2944  2.3030  1.1952
  445TMC3    H2 6636   1.486   1.179  16.849  0.5622 -0.0967  0.7675
  445TMC3    C7 6637   1.656   1.264  17.036  0.3931  0.3841 -0.0760
  445TMC3    C8 6638   1.223   1.194  16.825 -0.9426  0.3369 -0.2897
  445TMC3    O1 6639   1.704   1.234  17.148  0.2558  0.0666 -0.7841
  445TMC3    O2 6640   1.112   1.237  16.814 -0.2364  0.0876 -0.1676
  446MPD2     C 6641   0.955   2.881  11.669 -0.0286 -0.0386 -0.5290
  446MPD2    C1 6642   0.973   2.927  11.538 -0.0124  0.1876 -0.0580
  446MPD2    C2 6643   1.043   3.042  11.527 -0.1990  0.9577  0.1221
  446MPD2    C3 6644   1.068   3.127  11.629  0.3585 -0.3324 -0.2673
  446MPD2    C4 6645   1.030   3.087  11.759  0.3027  0.2032 -0.3010
  446MPD2    C5 6646   0.985   2.961  11.775 -0.5435 -0.0148  0.1702
  446MPD2     H 6647   1.065   3.069  11.424 -1.6283 -0.2575 -0.4968
  446MPD2    H1 6648   1.053   3.138  11.852  0.0751 -0.0921 -0.0831
  446MPD2    H2 6649   0.907   2.785  11.688 -0.1823  0.0668 -0.3860
  446MPD2    H3 6650   0.963   2.916  11.872 -1.7240  0.1864 -0.0019
  446MPD2     N 6651   1.154   3.243  11.612  0.5940  0.0681 -0.3032
  446MPD2    H5 6652   1.165   3.283  11.520  0.1507  1.5490  0.2764
  446MPD2    N1 6653   0.932   2.862  11.419  0.0035  0.2519  0.8244
  446MPD2    H7 6654   0.946   2.904  11.328  0.5563  2.0925  1.7693
  447TMC3    C1 6655   1.334   3.395  11.646  0.2890 -0.1127  0.1007
  447TMC3    C2 6656   1.310   3.467  11.531  0.6855  0.0808  0.0394
  447TMC3    C3 6657   1.414   3.502  11.450  0.0821 -0.5381 -0.5047
  447TMC3    C4 6658   1.463   3.380  11.696  0.1792  0.2060  0.7276
  447TMC3    C5 6659   1.561   3.423  11.618 -0.2521 -0.2894  0.1601
  447TMC3    C6 6660   1.545   3.482  11.495  0.0185  0.4545 -0.0245
  447TMC3     C 6661   1.239   3.300  11.712  0.3412 -0.2122 -0.0433
  447TMC3     O 6662   1.261   3.274  11.829 -0.0586  0.3097  0.0936
  447TMC3     H 6663   1.207   3.494  11.510  0.9837  1.3964  0.2317
  447TMC3    H1 6664   1.473   3.329  11.791 -0.7231 -0.5557  0.4190
  447TMC3    H2 6665   1.626   3.517  11.433 -0.3398 -0.3062 -0.9229
  447TMC3    C7 6666   1.689   3.399  11.666 -0.2987  0.1564  0.1453
  447TMC3    C8 6667   1.394   3.523  11.309  0.6338  0.6166  0.0352
  447TMC3    O1 6668   1.773   3.398  11.577  0.1078  0.5049 -0.2332
  447TMC3    O2 6669   1.319   3.610  11.263 -0.4933 -0.0171 -0.0852
  448TMC3    C1 6670   3.649   2.847  17.453  0.5859 -0.3213  0.1775
  448TMC3    C2 6671   3.624   2.744  17.369  0.7470  0.0291  0.4101
  448TMC3    C3 6672   3.732   2.665  17.329 -0.2218  0.3549  0.1334
  448TMC3    C4 6673   3.771   2.862  17.519 -0.8070 -0.4057  0.8473
  448TMC3    C5 6674   3.876   2.778  17.475 -0.5204 -0.5024 -0.1107
  448TMC3    C6 6675   3.853   2.679  17.381 -0.5782  0.2946 -0.6808
  448TMC3     C 6676   3.539   2.934  17.488  1.2228  0.0407 -0.0513
  448TMC3     O 6677   3.432   2.883  17.469 -0.1926  0.6971  0.2316
  448TMC3     H 6678   3.524   2.725  17.333 -0.1701  4.3742  0.6864
  448TMC3    H1 6679   3.787   2.939  17.594 -2.8679  1.2289 -0.4017
  448TMC3    H2 6680   3.940   2.627  17.343  0.1304 -0.6738  2.2845
  448TMC3    C7 6681   4.005   2.796  17.538 -0.3922 -0.2212  0.4076
  448TMC3    C8 6682   3.702   2.540  17.273 -0.7057  0.5651  0.7043
  448TMC3    O1 6683   4.022   2.906  17.591 -0.4314 -0.0807  0.1342
  448TMC3    O2 6684   3.777   2.449  17.303  0.5206  0.3200 -0.0991
  449MPD2     C 6685   0.443   1.231  13.709 -0.2906  0.1597 -0.2359
  449MPD2    C1 6686   0.305   1.238  13.697  0.5786  0.5821 -0.7266
  449MPD2    C2 6687   0.225   1.186  13.797  0.5399 -0.1773  0.2717
  449MPD2    C3 6688   0.279   1.134  13.910  0.6022 -0.0618 -0.3374
  449MPD2    C4 6689   0.417   1.130  13.925 -0.4047  0.1649 -0.0784
  449MPD2    C5 6690   0.494   1.177  13.828 -0.2062  0.0370  0.8059
  449MPD2     H 6691   0.117   1.192  13.791  0.4559 -0.2153  1.8299
  449MPD2    H1 6692   0.457   1.085  14.015  2.5187  0.9498 -0.9869
  449MPD2    H2 6693   0.517   1.265  13.638 -0.9585 -0.6330 -1.3128
  449MPD2    H3 6694   0.599   1.153  13.834  0.5086  3.2862  1.4089
  449MPD2     N 6695   0.184   1.070  13.987  0.0083 -0.1230 -0.2146
  449MPD2    H5 6696   0.090   1.074  13.949 -0.1646 -2.0082  0.0116
  449MPD2    N1 6697   0.241   1.300  13.589  0.0155  0.6634  0.5582
  449MPD2    H7 6698   0.140   1.306  13.588 -0.0138 -0.0190 -0.0986
  450TMC3    C1 6699   0.210   1.367  13.363  0.2963 -0.3557 -0.2753
  450TMC3    C2 6700   0.221   1.275  13.267 -0.4560  0.6140  0.5863
  450TMC3    C3 6701   0.112   1.212  13.211 -0.1408  0.2614 -0.6754
  450TMC3    C4 6702   0.088   1.400  13.412 -0.2262  0.9334 -0.2866
  450TMC3    C5 6703   4.704   1.334  13.364  0.5167  0.1270 -0.0450
  450TMC3    C6 6704   4.715   1.239  13.266  0.0910 -0.0264  0.0450
  450TMC3     C 6705   0.303   1.335  13.471  0.7310  0.2034 -0.1309
  450TMC3     O 6706   0.418   1.318  13.437  0.1176 -0.1641  0.0095
  450TMC3     H 6707   0.320   1.277  13.222 -0.2490 -1.0890  0.9580
  450TMC3    H1 6708   0.087   1.477  13.489  0.1243  1.3040 -0.6521
  450TMC3    H2 6709   4.621   1.195  13.232  0.3135  0.6704 -1.4755
  450TMC3    C7 6710   4.624   1.298  13.479  0.7523 -0.0622  0.1145
  450TMC3    C8 6711   0.126   1.074  13.172  0.1647 -0.0667  0.1850
  450TMC3    O1 6712   4.682   1.318  13.587 -0.0298 -0.3637 -0.0729
  450TMC3    O2 6713   0.034   1.003  13.199  0.1948 -0.0724  0.0765
  451MPD2     C 6714   1.533   4.236   1.495 -0.2877 -0.1450  0.6170
  451MPD2    C1 6715   1.581   4.287   1.375 -0.7113  0.0061 -0.4467
  451MPD2    C2 6716   1.652   4.195   1.293  0.2553 -0.4199  0.2100
  451MPD2    C3 6717   1.688   4.067   1.342  0.3415  0.2684  0.1286
  451MPD2    C4 6718   1.653   4.028   1.472  0.4107 -0.1892  0.3249
  451MPD2    C5 6719   1.574   4.113   1.544 -0.1844 -0.7970 -0.5181
  451MPD2     H 6720   1.677   4.218   1.190 -3.0579 -0.4070 -0.5755
  451MPD2    H1 6721   1.669   3.930   1.515 -1.1524 -1.0879 -1.1364
  451MPD2    H2 6722   1.482   4.304   1.563 -0.1146 -0.4417  1.0465
  451MPD2    H3 6723   1.555   4.086   1.648 -0.6578 -1.4257 -0.7687
  451MPD2     N 6724   1.764   3.975   1.266 -0.4563 -0.2554 -0.2419
  451MPD2    H5 6725   1.755   3.878   1.295 -1.3567 -0.7521 -2.1265
  451MPD2    N1 6726   1.540   4.417   1.340  0.1212  0.2059 -0.5127
  451MPD2    H7 6727   1.493   4.481   1.403 -1.1943 -1.2242 -0.0398
  452TMC3    C1 6728   1.915   3.893   1.104  0.5514  0.6378 -0.2542
  452TMC3    C2 6729   1.992   3.831   1.198 -0.1719  0.7155  0.0026
  452TMC3    C3 6730   2.128   3.818   1.171 -0.1400 -0.3168  0.6103
  452TMC3    C4 6731   1.968   3.914   0.979  0.1655  0.4702 -0.0780
  452TMC3    C5 6732   2.102   3.896   0.954 -0.3492  0.0586 -0.0576
  452TMC3    C6 6733   2.187   3.848   1.051 -0.3323  0.1615  0.2177
  452TMC3     C 6734   1.830   3.999   1.149  0.3708 -0.0746 -0.3182
  452TMC3     O 6735   1.852   4.107   1.093  0.5780  0.0504  0.3975
  452TMC3     H 6736   1.953   3.809   1.297  1.4198 -1.8702  0.0544
  452TMC3    H1 6737   1.905   3.960   0.903  0.3387 -0.1644 -0.6152
  452TMC3    H2 6738   2.293   3.831   1.038 -0.5879  0.8551 -2.7435
  452TMC3    C7 6739   2.146   3.964   0.833  0.4278  0.4906  0.0017
  452TMC3    C8 6740   2.205   3.749   1.271 -0.7438 -0.4501 -0.6549
  452TMC3    O1 6741   2.066   3.986   0.745  0.2490 -0.4150  0.1591
  452TMC3    O2 6742   2.140   3.670   1.331 -0.0677  0.2247 -0.5799
  453TMC3    C1 6743   3.173   1.751  11.810  0.3531 -0.5420 -0.1679
  453TMC3    C2 6744   3.062   1.728  11.895 -0.1086  0.6163  0.1394
  453TMC3    C3 6745   2.960   1.665  11.842 -0.1024  0.2153  0.3065
  453TMC3    C4 6746   3.181   1.704  11.685 -0.2032 -0.1667  0.5603
  453TMC3    C5 6747   3.072   1.633  11.642 -0.6010 -1.0226 -0.3297
  453TMC3    C6 6748   2.956   1.611  11.720  0.6335 -0.0976  0.1984
  453TMC3     C 6749   3.289   1.812  11.867  0.1129 -0.4761 -0.1708
  453TMC3     O 6750   3.375   1.848  11.790 -0.2716  0.5409  0.0810
  453TMC3     H 6751   3.059   1.765  11.997 -2.3255 -0.1261  0.3260
  453TMC3    H1 6752   3.263   1.735  11.621  0.4642 -1.0030  1.0082
  453TMC3    H2 6753   2.875   1.551  11.680  1.1936 -0.9278  0.3089
  453TMC3    C7 6754   3.047   1.629  11.503  0.0561 -0.7169 -1.7679
  453TMC3    C8 6755   2.855   1.633  11.928  0.7749  0.4370 -0.0999
  453TMC3    O1 6756   2.935   1.642  11.467 -0.0170 -0.1514 -0.3549
  453TMC3    O2 6757   2.812   1.719  12.007  0.0956  1.0854 -0.6155
  454MPD2     C 6758   1.619   1.842  16.205 -0.3260 -0.3644 -0.1111
  454MPD2    C1 6759   1.496   1.795  16.156  0.0972  0.0171 -0.0582
  454MPD2    C2 6760   1.382   1.817  16.225  0.3424 -0.3113  0.1321
  454MPD2    C3 6761   1.384   1.898  16.340 -0.3784  0.1976 -0.2669
  454MPD2    C4 6762   1.504   1.951  16.388 -0.7077 -0.3660  0.1316
  454MPD2    C5 6763   1.620   1.916  16.322 -0.1187  0.0087 -1.1793
  454MPD2     H 6764   1.291   1.768  16.195  0.9801 -2.0324  1.0561
  454MPD2    H1 6765   1.524   2.007  16.478  1.4930 -1.4314  0.3002
  454MPD2    H2 6766   1.720   1.829  16.167  0.5309 -1.8065  2.6202
  454MPD2    H3 6767   1.712   1.953  16.366 -0.1511 -1.8792  0.4424
  454MPD2     N 6768   1.278   1.905  16.436 -1.4336  0.4978 -1.0307
  454MPD2    H5 6769   1.299   1.944  16.527  1.4892  0.7551 -1.7895
  454MPD2    N1 6770   1.480   1.707  16.048  0.3864  0.1637 -0.7531
  454MPD2    H7 6771   1.384   1.688  16.024  0.2130 -0.0869  0.1408
  455TMC3    C1 6772   1.101   1.774  16.508 -0.1666  0.7877  0.0589
  455TMC3    C2 6773   1.125   1.819  16.637 -0.2742 -0.3660 -0.5687
  455TMC3    C3 6774   1.197   1.736  16.716 -0.2731 -0.4517  0.2753
  455TMC3    C4 6775   1.137   1.649  16.476 -0.3255  0.1262  0.2177
  455TMC3    C5 6776   1.208   1.569  16.563 -0.0360  0.5430  0.1402
  455TMC3    C6 6777   1.245   1.614  16.685 -0.2081  0.2088 -0.4976
  455TMC3     C 6778   1.146   1.870  16.410 -0.3843 -1.0182  0.4604
  455TMC3     O 6779   1.099   1.849  16.300 -0.0966  0.1605  0.7803
  455TMC3     H 6780   1.106   1.923  16.662 -1.4771 -1.2214  1.9808
  455TMC3    H1 6781   1.109   1.604  16.382  1.0907  2.4483 -1.3070
  455TMC3    H2 6782   1.281   1.545  16.761 -1.8930 -1.0206 -0.8417
  455TMC3    C7 6783   1.238   1.430  16.524  0.3363  0.1405 -0.3181
  455TMC3    C8 6784   1.162   1.752  16.853  0.8191 -0.0507 -0.1634
  455TMC3    O1 6785   1.155   1.384  16.448  0.0918 -0.6398 -0.7360
  455TMC3    O2 6786   1.249   1.737  16.935  0.4177  0.4036  0.8458
  456MPD2     C 6787   3.744   1.291  16.396 -0.5334  0.4712 -0.0927
  456MPD2    C1 6788   3.864   1.292  16.465 -0.5086 -0.1181 -0.1989
  456MPD2    C2 6789   3.879   1.384  16.572  0.7079  0.4284  0.3956
  456MPD2    C3 6790   3.776   1.472  16.604 -0.7460 -0.1580 -0.4219
  456MPD2    C4 6791   3.658   1.470  16.535 -0.4812  0.0735 -0.3124
  456MPD2    C5 6792   3.644   1.384  16.430  0.1249  0.6822 -0.2127
  456MPD2     H 6793   3.975   1.393  16.621  0.6138 -1.5167  0.9238
  456MPD2    H1 6794   3.574   1.537  16.549 -1.2978 -0.9650 -0.2957
  456MPD2    H2 6795   3.734   1.227  16.309  0.1209 -0.2583  0.3723
  456MPD2    H3 6796   3.556   1.396  16.367  1.4824  0.6174 -2.1073
  456MPD2     N 6797   3.801   1.571  16.704 -0.1697  1.1531 -0.5925
  456MPD2    H5 6798   3.898   1.571  16.732 -0.1187 -1.5657 -0.7704
  456MPD2    N1 6799   3.962   1.203  16.426  0.6346  0.2817  0.6741
  456MPD2    H7 6800   3.956   1.146  16.342  0.3664 -0.6498  1.3244
  457TMC3    C1 6801   3.762   1.726  16.868  0.4851  0.1707  0.0461
  457TMC3    C2 6802   3.726   1.851  16.902 -0.5097  0.2685 -0.2083
  457TMC3    C3 6803   3.796   1.912  17.000  0.6927 -0.3707  0.9209
  457TMC3    C4 6804   3.858   1.658  16.949  0.6623  0.1404 -0.2944
  457TMC3    C5 6805   3.929   1.728  17.046  0.7952 -0.4800 -0.4895
  457TMC3    C6 6806   3.907   1.861  17.063  0.3669 -0.3553  0.3699
  457TMC3     C 6807   3.703   1.649  16.761 -0.0293 -0.3712 -0.0813
  457TMC3     O 6808   3.581   1.644  16.757  0.0360 -0.5045  0.3461
  457TMC3     H 6809   3.656   1.907  16.841 -2.0999 -0.9761  0.4862
  457TMC3    H1 6810   3.881   1.552  16.943 -1.0005 -0.2211 -0.3032
  457TMC3    H2 6811   3.950   1.909  17.150  0.5093 -0.2563  0.2442
  457TMC3    C7 6812   4.000   1.659  17.149 -0.2082  0.7703  1.0318
  457TMC3    C8 6813   3.756   2.049  17.045  0.3720 -0.0797 -0.2547
  457TMC3    O1 6814   3.992   1.701  17.263 -0.5561 -0.3138 -0.0812
  457TMC3    O2 6815   3.823   2.106  17.130  0.2097  0.0910  0.7535
  458MPD2     C 6816   2.276   0.987  12.043  0.2777  0.9957  0.1716
  458MPD2    C1 6817   2.217   0.903  12.133  0.3804  0.1027  0.7394
  458MPD2    C2 6818   2.115   0.812  12.093 -0.2029 -0.4685  0.8168
  458MPD2    C3 6819   2.067   0.810  11.962  0.4484  0.0414 -0.4058
  458MPD2    C4 6820   2.134   0.899  11.877 -0.1133 -0.2365  0.0970
  458MPD2    C5 6821   2.231   0.988  11.920  0.2052 -0.0779 -0.4933
  458MPD2     H 6822   2.063   0.751  12.166 -1.1380 -0.6337  0.0017
  458MPD2    H1 6823   2.101   0.923  11.777 -1.1334 -2.5047 -0.1076
  458MPD2    H2 6824   2.355   1.054  12.076  1.6469 -0.4176 -0.2641
  458MPD2    H3 6825   2.270   1.064  11.854 -1.3038 -0.9190 -2.3402
  458MPD2     N 6826   1.952   0.739  11.929 -0.2303  0.8103  0.2715
  458MPD2    H5 6827   1.911   0.689  12.007 -2.4416  2.7495  0.3590
  458MPD2    N1 6828   2.273   0.911  12.261 -0.1046  0.5020  0.0322
  458MPD2    H7 6829   2.343   0.984  12.273 -0.1151  0.4314  0.5001
  459TMC3    C1 6830   2.296   0.850  12.500  0.3262  0.1049 -0.4158
  459TMC3    C2 6831   2.399   0.941  12.507  0.2753  0.5243  0.5284
  459TMC3    C3 6832   2.479   0.940  12.620  0.5530 -0.1071 -0.0118
  459TMC3    C4 6833   2.271   0.778  12.615 -0.0680  0.2878 -0.8699
  459TMC3    C5 6834   2.347   0.786  12.726 -0.2118 -0.3966  0.0073
  459TMC3    C6 6835   2.458   0.859  12.731  0.2414 -0.2728  0.3900
  459TMC3     C 6836   2.233   0.827  12.371  0.4721  1.7057  0.0202
  459TMC3     O 6837   2.163   0.726  12.373 -0.4356  0.4080 -0.0335
  459TMC3     H 6838   2.420   1.009  12.425 -1.6801  0.8505  0.3091
  459TMC3    H1 6839   2.200   0.697  12.610  0.6184 -0.5046  1.7733
  459TMC3    H2 6840   2.529   0.856  12.813  1.1154  2.0326 -0.2927
  459TMC3    C7 6841   2.302   0.702  12.839 -0.3299 -0.1500  0.1535
  459TMC3    C8 6842   2.619   0.979  12.607  0.1900 -0.0279  0.3897
  459TMC3    O1 6843   2.221   0.616  12.830 -0.3748 -0.1478 -0.0406
  459TMC3    O2 6844   2.689   0.945  12.700 -0.0051 -0.4552  0.0706
  460MPD2     C 6845   1.484   3.271  11.064  0.7667  0.1295 -0.3499
  460MPD2    C1 6846   1.429   3.393  11.102  0.6211  0.1311 -0.0061
  460MPD2    C2 6847   1.352   3.462  11.001  0.4088 -0.4289  0.0944
  460MPD2    C3 6848   1.347   3.417  10.870 -0.3934  0.4869  0.2099
  460MPD2    C4 6849   1.408   3.294  10.842  0.2297 -0.1082 -0.3292
  460MPD2    C5 6850   1.480   3.229  10.936  0.5064  0.1486  0.4159
  460MPD2     H 6851   1.302   3.554  11.028 -0.1716 -0.8896  0.6018
  460MPD2    H1 6852   1.417   3.248  10.744 -0.2881  1.0270 -0.8998
  460MPD2    H2 6853   1.549   3.208  11.124  0.1430  0.7974  1.0363
  460MPD2    H3 6854   1.509   3.132  10.898 -1.4353 -0.8285  1.4376
  460MPD2     N 6855   1.261   3.486  10.773  0.9178  0.7558 -0.2093
  460MPD2    H5 6856   1.200   3.556  10.812 -0.5125 -0.7475  0.2167
  460MPD2    N1 6857   1.447   3.419  11.238 -0.0121 -0.3434  0.3048
  460MPD2    H7 6858   1.503   3.351  11.289  0.0518  0.7665  1.7041
  461TMC3    C1 6859   1.100   3.487  10.611  0.6448  0.8012  0.6295
  461TMC3    C2 6860   1.020   3.384  10.568  0.3552  0.1897  0.2953
  461TMC3    C3 6861   0.944   3.386  10.452 -0.0221 -0.0525 -0.1807
  461TMC3    C4 6862   1.103   3.600  10.530 -0.1489  0.7224  0.3276
  461TMC3    C5 6863   1.031   3.597  10.413 -0.5642 -0.7597  0.6455
  461TMC3    C6 6864   0.958   3.495  10.371  0.2257  0.6742 -0.3195
  461TMC3     C 6865   1.230   3.435  10.652  0.2665  0.3749 -0.1859
  461TMC3     O 6866   1.269   3.327  10.611 -0.4720  0.7478 -0.1113
  461TMC3     H 6867   1.017   3.287  10.615 -2.5570  0.5056  0.7885
  461TMC3    H1 6868   1.181   3.674  10.543  0.1574  0.3290  0.7338
  461TMC3    H2 6869   0.903   3.505  10.278  0.1715 -1.0381 -0.4616
  461TMC3    C7 6870   1.021   3.717  10.332 -0.0647 -0.1462 -0.6194
  461TMC3    C8 6871   0.944   3.260  10.379  0.1834  0.4518  0.2947
  461TMC3    O1 6872   0.943   3.712  10.242  0.0872 -0.1766  0.0472
  461TMC3    O2 6873   1.037   3.186  10.418 -0.0922 -0.1637  0.3027
  462TMC3    C1 6874   1.026   4.507   0.138 -0.1299  0.2767 -0.3200
  462TMC3    C2 6875   1.072   4.403   0.062 -0.0508 -0.5754  0.3383
  462TMC3    C3 6876   1.053   4.277   0.118  0.4168  0.4082 -0.5647
  462TMC3    C4 6877   0.935   4.488   0.242 -0.3776 -0.0405  0.0455
  462TMC3    C5 6878   0.899   4.360   0.270 -0.8195 -0.0867 -0.2300
  462TMC3    C6 6879   0.970   4.252   0.224  0.3977 -0.3479 -0.1298
  462TMC3     C 6880   1.012   4.633   0.066  0.0804 -0.5786 -0.2174
  462TMC3     O 6881   0.902   4.686   0.082  0.0291 -0.4781  0.0777
  462TMC3     H 6882   1.137   4.421  17.675 -0.9051  0.2929 -0.1210
  462TMC3    H1 6883   0.889   4.573   0.290 -0.2665  0.4606 -0.7268
  462TMC3    H2 6884   0.937   4.150   0.241  0.8657 -0.3342  0.9090
  462TMC3    C7 6885   0.779   4.333   0.353  0.1215  0.1496  0.5543
  462TMC3    C8 6886   1.053   4.175   0.012 -0.1756  0.5878  0.6402
  462TMC3    O1 6887   0.800   4.231   0.417 -0.4899  0.0077  0.2762
  462TMC3    O2 6888   1.032   4.209  17.595  0.5687 -0.2995  0.2540
  463MPD2     C 6889   1.583   2.894   1.260  0.0191 -0.6712  0.0039
  463MPD2    C1 6890   1.542   2.821   1.366  0.1665  0.4600 -0.7663
  463MPD2    C2 6891   1.627   2.772   1.464 -0.0523 -0.2814 -0.4226
  463MPD2    C3 6892   1.763   2.801   1.455 -0.3677 -1.3723  0.2300
  463MPD2    C4 6893   1.801   2.894   1.352  0.5699  0.4837  0.2854
  463MPD2    C5 6894   1.710   2.939   1.262 -0.3673  0.7124  0.4031
  463MPD2     H 6895   1.592   2.713   1.548  2.0166 -0.0084  0.6327
  463MPD2    H1 6896   1.897   2.944   1.351  1.4891 -1.2735  0.8981
  463MPD2    H2 6897   1.511   2.930   1.188  1.7099  0.3003 -1.2145
  463MPD2    H3 6898   1.747   3.007   1.186  0.7302 -2.1132 -1.6228
  463MPD2     N 6899   1.864   2.780   1.557 -0.1499 -0.7143  0.0597
  463MPD2    H5 6900   1.953   2.825   1.539  0.3991 -2.5688 -1.8129
  463MPD2    N1 6901   1.408   2.783   1.390 -1.2315 -0.2348  0.0660
  463MPD2    H7 6902   1.386   2.734   1.476 -0.7221 -0.1385  0.2511
  464TMC3    C1 6903   1.171   2.782   1.382  0.8114 -0.3682 -0.0629
  464TMC3    C2 6904   1.054   2.824   1.330 -0.1694  0.1690  0.6388
  464TMC3    C3 6905   0.939   2.813   1.406 -0.5635  0.3383  0.6802
  464TMC3    C4 6906   1.174   2.709   1.500 -0.0634  0.4191  0.3118
  464TMC3    C5 6907   1.057   2.703   1.573 -0.3228  0.2899  0.4966
  464TMC3    C6 6908   0.939   2.759   1.536  0.5433  0.2371 -0.2310
  464TMC3     C 6909   1.301   2.813   1.311 -0.1703  0.0880  0.1525
  464TMC3     O 6910   1.296   2.858   1.199 -0.0078 -0.3730  0.3503
  464TMC3     H 6911   1.050   2.877   1.235  1.9675  2.4366  1.7983
  464TMC3    H1 6912   1.259   2.685   1.563 -1.4416 -0.4361  1.8211
  464TMC3    H2 6913   0.844   2.750   1.587  1.8981  0.3293  2.3068
  464TMC3    C7 6914   1.067   2.647   1.708 -0.0487 -0.5636  0.4377
  464TMC3    C8 6915   0.817   2.833   1.331  0.7500  0.7163 -0.6145
  464TMC3    O1 6916   1.028   2.706   1.806  0.0768  0.3535 -0.3990
  464TMC3    O2 6917   0.827   2.880   1.219 -0.2347  0.0361  0.6102
  465MPD2     C 6918   2.964   1.205  16.434  0.2573 -0.4436 -0.3381
  465MPD2    C1 6919   2.902   1.244  16.548  0.1426 -0.5098 -0.2298
  465MPD2    C2 6920   2.795   1.329  16.551 -0.5605  0.8294 -0.0219
  465MPD2    C3 6921   2.752   1.382  16.432 -0.0208 -0.6395 -0.3174
  465MPD2    C4 6922   2.823   1.357  16.310  0.1004 -0.0859  0.6106
  465MPD2    C5 6923   2.921   1.257  16.316  0.1071  0.5619  0.1390
  465MPD2     H 6924   2.755   1.350  16.649 -0.0768 -0.5525  0.4734
  465MPD2    H1 6925   2.807   1.391  16.208 -2.5961  0.7631  1.3207
  465MPD2    H2 6926   3.039   1.126  16.431 -1.0901 -1.6597 -2.1418
  465MPD2    H3 6927   2.970   1.213  16.230 -1.6075 -0.2742 -0.4159
  465MPD2     N 6928   2.653   1.490  16.443  1.0227  0.1828  0.4733
  465MPD2    H5 6929   2.610   1.511  16.532 -1.0197  0.0281 -0.4899
  465MPD2    N1 6930   2.956   1.205  16.678 -0.3095  0.5824  0.5853
  465MPD2    H7 6931   2.905   1.239  16.759  1.1611  2.3303  0.7897
  466TMC3    C1 6932   2.385   1.746  16.542 -0.1478 -0.3906 -0.4168
  466TMC3    C2 6933   2.407   1.873  16.503  0.8338 -0.7563 -0.5446
  466TMC3    C3 6934   2.486   1.891  16.397  0.0833 -0.1806  0.2322
  466TMC3    C4 6935   2.436   1.639  16.479 -0.0128  0.6720 -0.3019
  466TMC3    C5 6936   2.515   1.665  16.372  0.6278 -0.2038 -0.6133
  466TMC3    C6 6937   2.542   1.792  16.321  0.1895  0.1300 -0.4809
  466TMC3     C 6938   2.359   1.718  16.683 -0.1252  0.0069  0.2255
  466TMC3     O 6939   2.415   1.618  16.727 -0.0381  0.2522  0.5195
  466TMC3     H 6940   2.374   1.949  16.573  0.3114 -0.8843 -0.6478
  466TMC3    H1 6941   2.419   1.540  16.521  1.9040 -0.0066 -1.1043
  466TMC3    H2 6942   2.615   1.814  16.244 -0.0010 -0.9180 -0.9641
  466TMC3    C7 6943   2.614   1.573  16.337  0.4982  0.3078 -1.1052
  466TMC3    C8 6944   2.522   2.027  16.362  0.5831  0.0595 -0.8841
  466TMC3    O1 6945   2.670   1.581  16.229  0.2322 -0.1255  0.1483
  466TMC3    O2 6946   2.538   2.049  16.239 -0.1268 -0.3650  0.1608
  467TMC3    C1 6947   3.664   0.239  14.009 -0.5744  0.2587 -0.1848
  467TMC3    C2 6948   3.627   0.197  13.883  0.5380  0.1467  0.2317
  467TMC3    C3 6949   3.539   0.096  13.867 -0.4816  0.0029 -0.2624
  467TMC3    C4 6950   3.633   0.158  14.113  0.4983 -0.6184  0.0339
  467TMC3    C5 6951   3.540   0.054  14.101  0.0459 -0.7581  0.0059
  467TMC3    C6 6952   3.488   0.028  13.976  0.1677 -0.5224 -0.6832
  467TMC3     C 6953   3.795   0.304  14.024 -0.3895  0.2862  0.6973
  467TMC3     O 6954   3.881   0.259  14.097 -0.0687  0.2856  0.0450
  467TMC3     H 6955   3.689   0.230  13.800 -0.2685 -0.1777 -0.4918
  467TMC3    H1 6956   3.687   0.171  14.206 -1.9925 -0.3872  1.4531
  467TMC3    H2 6957   3.445   4.654  13.961  1.1116 -0.9196 -0.7951
  467TMC3    C7 6958   3.516   4.690  14.211  0.5062  0.3107  0.6678
  467TMC3    C8 6959   3.523   0.031  13.736  0.7805 -0.6907 -0.5819
  467TMC3    O1 6960   3.610   4.681  14.291  0.3453  0.5325  0.5717
  467TMC3    O2 6961   3.481   4.639  13.727 -0.2855  0.7388  0.3911
  468MPD2     C 6962   3.561   2.643  10.519 -0.5359 -0.9627  1.2354
  468MPD2    C1 6963   3.517   2.665  10.644 -0.3313 -0.0843  0.5095
  468MPD2    C2 6964   3.478   2.562  10.724 -0.3060  0.2365 -0.1350
  468MPD2    C3 6965   3.499   2.430  10.684 -0.7287  0.2182  0.0573
  468MPD2    C4 6966   3.558   2.413  10.561  0.4263 -0.0235  0.4648
  468MPD2    C5 6967   3.582   2.515  10.480 -0.1540  0.3249  1.2006
  468MPD2     H 6968   3.470   2.581  10.830  1.4778  0.2136  0.0156
  468MPD2    H1 6969   3.567   2.312  10.521 -0.2810  1.2587 -2.8570
  468MPD2    H2 6970   3.589   2.726  10.455  1.0796 -3.0200 -0.7170
  468MPD2    H3 6971   3.634   2.488  10.388 -1.0594  1.1009  0.4592
  468MPD2     N 6972   3.477   2.316  10.767  0.7051  0.2028  0.6614
  468MPD2    H5 6973   3.498   2.221  10.735 -3.0690 -0.7493  0.9962
  468MPD2    N1 6974   3.536   2.790  10.705 -0.9924  0.7444 -0.1907
  468MPD2    H7 6975   3.497   2.792  10.799 -1.1758 -0.0607 -0.2460
  469TMC3    C1 6976   3.593   3.002  10.770  0.1820 -0.1515 -0.1251
  469TMC3    C2 6977   3.577   2.955  10.904 -0.3030 -0.2270 -0.6894
  469TMC3    C3 6978   3.616   3.044  10.999 -0.0392  0.3210 -0.0747
  469TMC3    C4 6979   3.622   3.129  10.739  0.4821 -0.0106  1.4089
  469TMC3    C5 6980   3.647   3.217  10.844  0.3753  0.2365 -0.0690
  469TMC3    C6 6981   3.653   3.170  10.972  0.4030 -0.1975  0.2443
  469TMC3     C 6982   3.584   2.904  10.661  0.9183 -0.1458  0.0411
  469TMC3     O 6983   3.625   2.935  10.549 -0.2946  0.0234  0.4306
  469TMC3     H 6984   3.560   2.851  10.929 -0.8500 -0.2930 -1.3423
  469TMC3    H1 6985   3.615   3.159  10.635  0.7899 -1.0611  1.0809
  469TMC3    H2 6986   3.689   3.232  11.054  0.6085  0.5172 -0.3894
  469TMC3    C7 6987   3.732   3.334  10.813  0.2534 -0.3910  0.1589
  469TMC3    C8 6988   3.570   3.029  11.133  0.0234 -0.2477 -0.2807
  469TMC3    O1 6989   3.797   3.335  10.712 -0.4917  0.4277 -0.1118
  469TMC3    O2 6990   3.626   3.094  11.220  0.2979 -0.1715 -0.4406
  470TMC3    C1 6991   0.217   3.719   0.967 -0.5878  0.1173 -0.0746
  470TMC3    C2 6992   0.253   3.849   0.925  0.4370 -0.4468  0.3369
  470TMC3    C3 6993   0.357   3.908   0.997  0.4083  0.8123  1.3615
  470TMC3    C4 6994   0.286   3.662   1.072  0.0489 -0.3904 -0.2875
  470TMC3    C5 6995   0.393   3.723   1.133  0.0717 -0.0374  0.2838
  470TMC3    C6 6996   0.426   3.852   1.097 -0.2844  0.2131 -0.8337
  470TMC3     C 6997   0.144   3.638   0.869 -0.1012  0.5089  0.3951
  470TMC3     O 6998   0.131   3.680   0.756 -0.0727  0.6583  0.0687
  470TMC3     H 6999   0.216   3.889   0.831 -0.4223 -2.8614 -0.3611
  470TMC3    H1 7000   0.260   3.566   1.115  2.8409  0.2716  2.9484
  470TMC3    H2 7001   0.500   3.910   1.152 -1.3453  3.0170 -2.3221
  470TMC3    C7 7002   0.446   3.659   1.254 -0.0453 -0.7112 -0.1728
  470TMC3    C8 7003   0.384   4.050   0.977 -0.5163 -0.5025  0.3106
  470TMC3    O1 7004   0.556   3.687   1.295 -0.6378  0.4249 -0.1498
  470TMC3    O2 7005   0.459   4.110   1.056 -0.1498  0.0573  0.2201
  471MPD2     C 7006   1.046   0.386  16.699 -0.4507  0.5027  0.0299
  471MPD2    C1 7007   0.949   0.285  16.730  0.6130 -0.1592  0.3246
  471MPD2    C2 7008   0.938   0.238  16.861  0.0668  0.1572  0.2953
  471MPD2    C3 7009   1.018   0.296  16.958 -0.3050 -0.2342 -0.7841
  471MPD2    C4 7010   1.107   0.398  16.923  0.4417  0.3098  0.4930
  471MPD2    C5 7011   1.129   0.435  16.795 -0.5863 -0.2481 -0.3523
  471MPD2     H 7012   0.877   0.156  16.898 -2.6225  0.8869 -2.5368
  471MPD2    H1 7013   1.177   0.435  16.997  1.2487  3.0131 -1.6553
  471MPD2    H2 7014   1.061   0.426  16.599 -0.0106  0.6773  0.1652
  471MPD2    H3 7015   1.193   0.521  16.778 -0.2030 -0.6554 -0.9836
  471MPD2     N 7016   1.011   0.255  17.095 -0.2106 -0.2353  0.2911
  471MPD2    H5 7017   1.093   0.277  17.151  0.0154  3.0078 -1.3247
  471MPD2    N1 7018   0.871   0.224  16.629 -0.0564  0.0758 -0.1412
  471MPD2    H7 7019   0.800   0.156  16.655 -0.5037 -0.5478 -3.0579
  472TMC3    C1 7020   0.816   0.154  16.413  0.4445  0.1728 -0.6117
  472TMC3    C2 7021   0.722   0.185  16.323 -0.1658  0.6157  0.0780
  472TMC3    C3 7022   0.658   0.088  16.261 -0.3140  0.0824  0.6447
  472TMC3    C4 7023   0.846   0.020  16.443 -0.3705  0.0209 -0.4872
  472TMC3    C5 7024   0.782   4.648  16.374  0.0126  0.4495  0.2531
  472TMC3    C6 7025   0.687   4.681  16.287  0.2795  0.4073 -1.0864
  472TMC3     C 7026   0.873   0.259  16.494 -0.2247  0.5347  0.1153
  472TMC3     O 7027   0.910   0.357  16.433 -0.0624  0.2327  0.3491
  472TMC3     H 7028   0.710   0.289  16.294  0.5162  0.9811  1.1048
  472TMC3    H1 7029   0.918   4.705  16.515 -0.5565  0.4568 -0.0653
  472TMC3    H2 7030   0.628   4.601  16.245 -0.3575  0.3407 -0.0567
  472TMC3    C7 7031   0.811   4.506  16.386 -0.1659  0.2669 -0.6082
  472TMC3    C8 7032   0.520   0.110  16.230  0.6042  0.3995  0.0568
  472TMC3    O1 7033   0.837   4.468  16.500  0.2059 -0.2727  0.2283
  472TMC3    O2 7034   0.491   0.215  16.180  0.6411 -0.7323  0.7294
  473MPD2     C 7035   0.882   2.636  14.949  0.0904 -0.1867 -0.1437
  473MPD2    C1 7036   0.807   2.722  14.872  0.5985  0.2174 -0.2200
  473MPD2    C2 7037   0.800   2.856  14.914  0.8880  0.1627 -0.2318
  473MPD2    C3 7038   0.883   2.902  15.015 -0.3997  0.2460  0.5225
  473MPD2    C4 7039   0.958   2.812  15.087  0.2023  0.6382 -0.5797
  473MPD2    C5 7040   0.953   2.678  15.058 -0.7422  0.6191 -0.0345
  473MPD2     H 7041   0.752   2.925  14.846  0.7970 -1.4171 -1.7651
  473MPD2    H1 7042   1.028   2.844  15.164 -0.6362  0.1778  0.3709
  473MPD2    H2 7043   0.893   2.529  14.932  1.4280 -0.1331  0.3980
  473MPD2    H3 7044   1.028   2.624  15.114  0.0967 -0.3904 -2.1580
  473MPD2     N 7045   0.887   3.038  15.045  0.3800 -0.3993  0.6309
  473MPD2    H5 7046   0.949   3.050  15.125  0.1287 -2.7322  1.1822
  473MPD2    N1 7047   0.748   2.683  14.750 -0.0693  0.9311  0.2066
  473MPD2    H7 7048   0.691   2.750  14.699 -0.2010 -1.4863 -2.8542
  474TMC3    C1 7049   0.844   3.273  15.045  0.3842 -0.7369  0.5631
  474TMC3    C2 7050   0.745   3.354  14.997 -0.0060 -0.2435 -0.5030
  474TMC3    C3 7051   0.785   3.459  14.916  0.0108 -0.4015 -0.0122
  474TMC3    C4 7052   0.971   3.313  15.048  0.4101 -0.4172  0.2752
  474TMC3    C5 7053   1.000   3.444  15.003 -1.0048  0.0610  0.0527
  474TMC3    C6 7054   0.917   3.502  14.922 -0.1441  0.0163 -0.0495
  474TMC3     C 7055   0.817   3.138  14.989 -0.5991 -0.5156  0.2498
  474TMC3     O 7056   0.723   3.142  14.908  0.0842 -0.6718  0.5929
  474TMC3     H 7057   0.639   3.335  15.009  0.3787 -1.8274  0.3119
  474TMC3    H1 7058   1.037   3.260  15.116  1.5221 -3.1133 -2.9102
  474TMC3    H2 7059   0.949   3.593  14.873  1.8526 -0.0425  1.1583
  474TMC3    C7 7060   1.129   3.503  15.013 -0.6368  0.4081  0.3554
  474TMC3    C8 7061   0.708   3.479  14.794 -0.3084  0.8443  0.0354
  474TMC3    O1 7062   1.153   3.605  14.950  0.0777 -0.3427  0.1236
  474TMC3    O2 7063   0.595   3.432  14.781  0.2700  0.4386 -0.7229
  475MPD2     C 7064   0.011   1.495  10.710  0.0018 -0.2862 -0.2890
  475MPD2    C1 7065   4.620   1.443  10.660  0.1776  0.5599  0.4052
  475MPD2    C2 7066   4.496   1.493  10.704  0.4167  0.0003 -0.1700
  475MPD2    C3 7067   4.490   1.599  10.800  0.3003  0.2768  0.2745
  475MPD2    C4 7068   4.610   1.650  10.850 -0.5128 -0.4736 -0.2526
  475MPD2    C5 7069   0.000   1.591  10.807 -0.4316 -0.0292 -0.6131
  475MPD2     H 7070   4.406   1.445  10.668 -0.1391 -0.2508  1.5127
  475MPD2    H1 7071   4.620   1.722  10.931 -1.7729  1.7912 -2.1118
  475MPD2    H2 7072   0.110   1.466  10.675  1.0582  1.4386  1.2894
  475MPD2    H3 7073   0.095   1.633  10.840  0.5263 -2.1469 -0.6679
  475MPD2     N 7074   4.361   1.638  10.836  0.1718  0.5306 -0.6278
  475MPD2    H5 7075   4.279   1.607  10.785 -0.0171 -0.6148  0.4002
  475MPD2    N1 7076   4.628   1.336  10.565 -0.4344 -0.1295 -1.0715
  475MPD2    H7 7077   4.721   1.316  10.529  0.0292 -1.0266  0.6252
  476TMC3    C1 7078   4.586   1.161  10.424 -0.3993  0.4318  0.1817
  476TMC3    C2 7079   4.495   1.082  10.361 -1.2877 -0.3487 -0.7723
  476TMC3    C3 7080   4.506   1.066  10.219  0.0145  0.0858 -0.0574
  476TMC3    C4 7081   4.690   1.206  10.345 -0.4663  0.2030 -0.1082
  476TMC3    C5 7082   4.699   1.184  10.210 -0.0089  0.3465  0.0736
  476TMC3    C6 7083   4.612   1.113  10.140 -0.1597  1.2512  0.1000
  476TMC3     C 7084   4.530   1.256  10.516  0.5250 -0.8275  0.2250
  476TMC3     O 7085   4.409   1.250  10.532 -0.3158  0.0965 -0.0664
  476TMC3     H 7086   4.408   1.044  10.413 -1.4403  0.1341 -0.6762
  476TMC3    H1 7087   0.049   1.255  10.394 -0.3491  1.1614 -1.2585
  476TMC3    H2 7088   4.605   1.111  10.032 -1.2629 -1.0382  0.2019
  476TMC3    C7 7089   0.068   1.253  10.131 -0.0108  0.1058 -0.1067
  476TMC3    C8 7090   4.375   1.090  10.162 -0.4788 -0.5049 -0.2317
  476TMC3    O1 7091   0.144   1.196  10.057 -0.2343 -0.0076  0.6726
  476TMC3    O2 7092   4.359   1.191  10.098 -0.1265  0.3811 -0.2138
  477MPD2     C 7093   1.676   2.431  11.718 -0.4992 -0.7627  0.0105
  477MPD2    C1 7094   1.608   2.472  11.828 -0.1651  0.0725 -0.3446
  477MPD2    C2 7095   1.649   2.425  11.949  0.1190 -0.3220 -0.0216
  477MPD2    C3 7096   1.757   2.348  11.965  0.4276 -0.0060  0.0619
  477MPD2    C4 7097   1.833   2.311  11.857  0.3240  0.0139  0.8742
  477MPD2    C5 7098   1.786   2.351  11.737  0.2496 -0.4280  1.0538
  477MPD2     H 7099   1.591   2.447  12.038 -2.2280 -4.4490 -0.5121
  477MPD2    H1 7100   1.917   2.242  11.853  1.8522  2.0008 -0.7853
  477MPD2    H2 7101   1.643   2.463  11.620  0.6055 -0.2706 -0.1980
  477MPD2    H3 7102   1.839   2.327  11.646 -0.5060  2.6242 -0.1659
  477MPD2     N 7103   1.789   2.315  12.101 -0.0172  0.9456 -0.1040
  477MPD2    H5 7104   1.737   2.363  12.174  0.8159  0.7406  0.6266
  477MPD2    N1 7105   1.507   2.564  11.810 -0.2571  0.2724  0.2562
  477MPD2    H7 7106   1.490   2.598  11.716  1.0832 -1.4967 -0.6399
  478TMC3    C1 7107   1.329   2.713  11.872 -0.4800 -0.1023 -0.6130
  478TMC3    C2 7108   1.337   2.815  11.970  0.7441  0.2738 -0.2429
  478TMC3    C3 7109   1.364   2.945  11.937  0.3513 -0.1514 -0.0806
  478TMC3    C4 7110   1.337   2.750  11.738 -0.6171  0.6495  0.1015
  478TMC3    C5 7111   1.355   2.884  11.709  0.4581  0.2054  0.6703
  478TMC3    C6 7112   1.371   2.980  11.809  0.2259 -0.2946  0.0206
  478TMC3     C 7113   1.426   2.611  11.912  0.1498  0.0945 -0.4876
  478TMC3     O 7114   1.412   2.569  12.025  0.3677  0.5448  0.3299
  478TMC3     H 7115   1.337   2.780  12.073 -1.9813  1.2392  0.0888
  478TMC3    H1 7116   1.320   2.667  11.671 -0.9036 -0.2946  1.3395
  478TMC3    H2 7117   1.402   3.080  11.781  0.9583 -1.1040 -2.0822
  478TMC3    C7 7118   1.365   2.927  11.572 -0.1326 -0.6316  0.2427
  478TMC3    C8 7119   1.427   3.018  12.045  0.5507 -0.3935 -0.6227
  478TMC3    O1 7120   1.418   3.036  11.555  0.2269  0.3923 -0.0415
  478TMC3    O2 7121   1.483   2.948  12.122 -0.2696  0.3272 -0.0929
  479MPD2     C 7122   0.436   4.486  15.250 -0.0700 -0.7972 -0.5045
  479MPD2    C1 7123   0.383   4.423  15.363  0.0441  0.1495 -0.4965
  479MPD2    C2 7124   0.458   4.436  15.479 -0.0982  0.0503 -1.1791
  479MPD2    C3 7125   0.573   4.514  15.488 -0.1342 -0.3456 -0.4456
  479MPD2    C4 7126   0.615   4.575  15.372  0.1225  0.8050 -0.1291
  479MPD2    C5 7127   0.554   4.561  15.255  0.1838  0.3936  0.5200
  479MPD2     H 7128   0.413   4.377  15.558  2.9230  0.0041  0.5106
  479MPD2    H1 7129   0.707   4.631  15.358  0.3465  0.3205 -0.5988
  479MPD2    H2 7130   0.382   4.477  15.156 -2.1439  2.2429  0.3830
  479MPD2    H3 7131   0.601   4.606  15.169  0.5276 -4.3928 -1.7847
  479MPD2     N 7132   0.656   4.522  15.603 -0.6106 -0.6589 -0.1105
  479MPD2    H5 7133   0.752   4.552  15.588 -0.6254 -0.4436  0.2139
  479MPD2    N1 7134   0.268   4.349  15.338 -0.2986  0.8258 -0.1468
  479MPD2    H7 7135   0.224   4.366  15.248 -2.2329  0.6873  0.7609
  480TMC3    C1 7136   0.338   4.423  15.954 -0.3473 -0.0628  0.9102
  480TMC3    C2 7137   0.235   4.495  15.892 -0.6388  0.6910  0.0007
  480TMC3    C3 7138   0.273   4.577  15.788 -0.2756  0.6155  0.4033
  480TMC3    C4 7139   0.465   4.412  15.894 -0.1824  0.9573 -0.5843
  480TMC3    C5 7140   0.494   4.488  15.785 -0.3591  0.4272  0.2997
  480TMC3    C6 7141   0.405   4.581  15.742 -0.5096 -0.3079 -0.3320
  480TMC3     C 7142   0.305   4.316  16.046  0.0244 -0.1983  0.4144
  480TMC3     O 7143   0.400   4.272  16.104 -0.2152 -0.5305 -0.1570
  480TMC3     H 7144   0.131   4.488  15.919  0.3122 -1.2746  3.1810
  480TMC3    H1 7145   0.542   4.360  15.949 -2.1209  0.5895  1.8006
  480TMC3    H2 7146   0.430   4.639  15.654  2.2297  1.1111  1.3861
  480TMC3    C7 7147   0.632   4.489  15.735 -0.0286  0.8160  0.3997
  480TMC3    C8 7148   0.170   4.628  15.704 -0.4023 -0.2282 -0.1215
  480TMC3    O1 7149   0.718   4.463  15.819  0.0359  0.6368 -0.0662
  480TMC3    O2 7150   0.056   4.614  15.747 -0.3386 -0.1639  0.0821
  481MPD2     C 7151   2.143   3.846  14.674  0.5558 -0.4491  0.2222
  481MPD2    C1 7152   2.114   3.980  14.670 -0.2402 -0.5099  0.0272
  481MPD2    C2 7153   2.062   4.047  14.779 -0.6487  0.2343  0.5832
  481MPD2    C3 7154   2.056   3.985  14.903  1.2471  0.6681 -0.0796
  481MPD2    C4 7155   2.090   3.852  14.906  0.0895  0.0834 -0.6020
  481MPD2    C5 7156   2.118   3.784  14.796  0.6326 -0.0604  0.5924
  481MPD2     H 7157   2.039   4.153  14.771  0.4470  0.3802 -0.6340
  481MPD2    H1 7158   2.070   3.796  14.996 -0.1283  3.0677  1.2185
  481MPD2    H2 7159   2.166   3.787  14.586 -3.6867 -1.6010 -0.0850
  481MPD2    H3 7160   2.134   3.677  14.808  0.9337  0.0847  1.4367
  481MPD2     N 7161   2.034   4.043  15.028 -0.1302  0.5592  0.0170
  481MPD2    H5 7162   2.037   3.981  15.109  2.2028 -1.9395 -1.9954
  481MPD2    N1 7163   2.111   4.024  14.538  0.3033  0.3038 -0.2276
  481MPD2    H7 7164   2.145   3.961  14.466  0.0697 -0.6212  0.4816
  482TMC3    C1 7165   2.099   4.160  14.351 -0.4194  0.3281  0.3120
  482TMC3    C2 7166   2.163   4.059  14.280 -0.6881 -0.1244  0.1612
  482TMC3    C3 7167   2.151   4.067  14.143  0.2229  0.1183  0.2028
  482TMC3    C4 7168   2.038   4.257  14.288  0.0203 -0.7583 -0.1210
  482TMC3    C5 7169   2.027   4.257  14.153 -0.1775  0.5296 -0.1609
  482TMC3    C6 7170   2.084   4.160  14.075 -0.7588 -0.6817  0.2692
  482TMC3     C 7171   2.072   4.148  14.491 -0.1567 -0.1671 -0.0706
  482TMC3     O 7172   2.039   4.245  14.555 -0.2848  0.5192 -0.7471
  482TMC3     H 7173   2.224   3.981  14.324 -1.9040 -0.9289  0.4357
  482TMC3    H1 7174   1.998   4.345  14.336  0.7224 -0.6213  0.1965
  482TMC3    H2 7175   2.059   4.142  13.971  0.6214  0.4334 -0.2615
  482TMC3    C7 7176   1.943   4.359  14.087  0.0513 -0.1739  0.1562
  482TMC3    C8 7177   2.204   3.949  14.079 -0.1251 -1.1110 -0.5068
  482TMC3    O1 7178   1.853   4.414  14.153 -0.0570 -0.0190 -0.7729
  482TMC3    O2 7179   2.213   3.845  14.147  0.0576 -0.2152  0.0990
  483TMC3    C1 7180   0.125   3.060   1.382 -0.0194  0.9329  0.4108
  483TMC3    C2 7181   0.174   3.132   1.274  0.1970  0.6095 -0.3506
  483TMC3    C3 7182   0.295   3.194   1.287 -0.0941 -0.3390 -0.5416
  483TMC3    C4 7183   0.197   3.032   1.490 -0.4734  0.0627 -0.4355
  483TMC3    C5 7184   0.322   3.092   1.499  0.1504  0.3106 -0.1112
  483TMC3    C6 7185   0.373   3.169   1.397  0.5105  0.4635 -0.0979
  483TMC3     C 7186   4.714   3.003   1.388 -0.5657  0.2730  0.5487
  483TMC3     O 7187   4.671   2.992   1.503 -0.1970  0.1626 -0.3757
  483TMC3     H 7188   0.111   3.151   1.188  0.3011  3.1169  0.1256
  483TMC3    H1 7189   0.153   2.975   1.571 -0.4325 -0.1036 -0.5314
  483TMC3    H2 7190   0.462   3.230   1.411  1.3587 -0.7015 -0.4082
  483TMC3    C7 7191   0.407   3.033   1.595 -0.3740  0.4457  0.3732
  483TMC3    C8 7192   0.327   3.275   1.170 -0.1551 -0.7248  0.4286
  483TMC3    O1 7193   0.374   2.933   1.653  0.1202 -0.1788 -0.2286
  483TMC3    O2 7194   0.239   3.318   1.099 -0.0845 -0.0644  0.1824
  484MPD2     C 7195   2.818   1.199  12.383  0.3359 -0.5812  0.0312
  484MPD2    C1 7196   2.785   1.091  12.460 -0.2745 -0.4910 -0.2715
  484MPD2    C2 7197   2.881   0.997  12.492  0.1194  0.2485  0.3916
  484MPD2    C3 7198   3.011   1.028  12.476 -0.1635 -0.1550  0.8703
  484MPD2    C4 7199   3.045   1.143  12.412  0.3157  0.9100  0.5683
  484MPD2    C5 7200   2.947   1.223  12.363 -0.0876  0.0566 -0.1697
  484MPD2     H 7201   2.856   0.908  12.549 -0.4126 -0.6409 -1.2551
  484MPD2    H1 7202   3.149   1.160  12.384  0.4696  2.2582  1.9753
  484MPD2    H2 7203   2.746   1.276  12.358 -1.2586 -1.8043  0.8484
  484MPD2    H3 7204   2.977   1.312  12.308  3.6737 -0.4183  1.0815
  484MPD2     N 7205   3.122   0.949  12.518 -0.0503 -0.4926  0.4653
  484MPD2    H5 7206   3.212   0.993  12.503 -1.2100  1.6360 -0.3609
  484MPD2    N1 7207   2.648   1.072  12.509  0.8950 -0.2330 -0.4236
  484MPD2    H7 7208   2.575   1.129  12.467  0.8589  1.6815  2.2536
  485TMC3    C1 7209   3.240   0.778  12.619 -0.1150 -0.8671 -0.6586
  485TMC3    C2 7210   3.291   0.667  12.564  0.4993  0.4076  0.0938
  485TMC3    C3 7211   3.422   0.635  12.589 -0.3957 -0.1481  0.2295
  485TMC3    C4 7212   3.320   0.860  12.693 -0.6351 -0.0577  0.2788
  485TMC3    C5 7213   3.445   0.817  12.733 -0.1473 -0.4448  0.2356
  485TMC3    C6 7214   3.496   0.705  12.678  0.2468  0.4950 -0.7955
  485TMC3     C 7215   3.116   0.824  12.572 -0.0086  0.1821 -0.1684
  485TMC3     O 7216   3.022   0.742  12.576 -0.4701  0.1776 -0.4792
  485TMC3     H 7217   3.234   0.606  12.496  1.7243 -2.7087  1.8833
  485TMC3    H1 7218   3.287   0.960  12.719 -0.1821  0.2213 -0.2122
  485TMC3    H2 7219   3.600   0.678  12.691 -0.1384  0.2335  1.7412
  485TMC3    C7 7220   3.538   0.928  12.740 -0.5754  0.0575 -0.0037
  485TMC3    C8 7221   3.500   0.614  12.470  0.0502 -0.0061  0.0053
  485TMC3    O1 7222   3.522   1.024  12.812  0.4984 -0.0083  0.1895
  485TMC3    O2 7223   3.610   0.666  12.465 -0.0957 -0.2446 -0.2145
  486MPD2     C 7224   4.697   0.161  13.192 -0.1430  0.4066 -0.4918
  486MPD2    C1 7225   0.072   0.172  13.101 -0.5657  0.3562  0.1085
  486MPD2    C2 7226   0.094   0.293  13.032 -0.0582 -0.0211  0.7181
  486MPD2    C3 7227   0.012   0.408  13.057  0.0607 -0.2162  0.1191
  486MPD2    C4 7228   4.654   0.394  13.165  0.0100 -0.1660 -0.0954
  486MPD2    C5 7229   4.629   0.277  13.233 -0.7029  0.3244 -0.0356
  486MPD2     H 7230   0.166   0.297  12.951 -1.0180  0.0372 -0.1410
  486MPD2    H1 7231   4.598   0.477  13.208  0.8388  1.5904 -2.4394
  486MPD2    H2 7232   4.683   0.073  13.254  0.6437  1.0680  0.6135
  486MPD2    H3 7233   4.562   0.275  13.318  0.0670  1.6328  0.6039
  486MPD2     N 7234   0.038   0.529  12.986  0.3604  0.1875  0.9432
  486MPD2    H5 7235   0.121   0.534  12.929  0.8281 -0.3607  1.5660
  486MPD2    N1 7236   0.152   0.056  13.081 -0.1218  0.1491  0.0626
  486MPD2    H7 7237   0.128   4.694  13.128  1.1492  0.2317  0.8349
  487TMC3    C1 7238   0.308   4.633  12.997 -0.2916 -0.0378  0.3377
  487TMC3    C2 7239   0.358   4.577  12.884 -0.5508 -0.1202 -0.3249
  487TMC3    C3 7240   0.431   4.460  12.888 -0.0507  0.9004 -0.7404
  487TMC3    C4 7241   0.326   4.579  13.124 -0.6461  0.0232  0.1153
  487TMC3    C5 7242   0.384   4.451  13.120 -0.3642  0.4896  0.3326
  487TMC3    C6 7243   0.435   4.388  13.007  0.4176 -0.9299  0.4940
  487TMC3     C 7244   0.247   0.039  12.986 -0.1309  0.2836 -0.0225
  487TMC3     O 7245   0.279   0.108  12.887  0.3301 -0.4013 -0.6572
  487TMC3     H 7246   0.352   4.631  12.790 -0.7219 -0.8148 -0.7065
  487TMC3    H1 7247   0.290   4.625  13.216 -2.5107  0.4193 -0.8027
  487TMC3    H2 7248   0.502   4.304  13.023  2.1173  0.3443  0.0601
  487TMC3    C7 7249   0.312   4.364  13.211 -0.4321 -0.3156  0.1880
  487TMC3    C8 7250   0.381   4.384  12.776  0.8411 -0.6871 -0.4316
  487TMC3    O1 7251   0.261   4.413  13.310  0.0031  0.5197 -0.7032
  487TMC3    O2 7252   0.276   4.432  12.733 -0.5759  0.3020  0.0004
  488MPD2     C 7253   0.058   1.545  16.534  0.3844 -0.0959  0.0177
  488MPD2    C1 7254   0.012   1.671  16.560  0.1245 -0.4040 -0.2838
  488MPD2    C2 7255   4.679   1.690  16.683  0.5867 -0.0570 -0.5472
  488MPD2    C3 7256   4.665   1.593  16.780 -0.1385 -0.3209 -0.1041
  488MPD2    C4 7257   4.708   1.469  16.752 -0.4693 -0.7143  0.5982
  488MPD2    C5 7258   0.046   1.454  16.631  0.5802 -0.1006 -0.4052
  488MPD2     H 7259   4.648   1.790  16.711 -1.0157 -0.4458 -0.9283
  488MPD2    H1 7260   4.705   1.379  16.813 -1.0586  0.5420  2.4137
  488MPD2    H2 7261   0.116   1.513  16.449 -1.4505 -3.2819 -0.0297
  488MPD2    H3 7262   0.095   1.357  16.619  0.2040 -0.0363 -2.4660
  488MPD2     N 7263   4.585   1.623  16.887  0.6423 -0.4751 -0.2381
  488MPD2    H5 7264   4.549   1.717  16.894  1.8521 -0.0388  0.2655
  488MPD2    N1 7265   0.033   1.784  16.481 -0.4426 -0.3188 -0.3849
  488MPD2    H7 7266   0.008   1.877  16.512  2.4990  0.6971 -0.9879
  489TMC3    C1 7267   4.465   1.585  17.088 -0.8202 -0.4033 -0.2189
  489TMC3    C2 7268   4.366   1.684  17.066  0.7294  0.0754  0.9115
  489TMC3    C3 7269   4.352   1.784  17.160 -0.3200 -0.0625  0.0471
  489TMC3    C4 7270   4.525   1.566  17.210 -0.0208  0.0187  0.2358
  489TMC3    C5 7271   4.502   1.662  17.301  0.9960 -0.2204  0.6399
  489TMC3    C6 7272   4.419   1.769  17.277 -0.2933  0.5725  0.3566
  489TMC3     C 7273   4.535   1.532  16.975 -0.2381  0.4560  0.3529
  489TMC3     O 7274   4.563   1.412  16.990  0.2437 -0.4038  0.3078
  489TMC3     H 7275   4.317   1.697  16.970 -0.2250  2.0589  1.6700
  489TMC3    H1 7276   4.611   1.501  17.220 -1.0254 -1.5371 -1.2364
  489TMC3    H2 7277   4.413   1.847  17.352 -0.7405 -0.1965  1.1262
  489TMC3    C7 7278   4.558   1.658  17.435  0.0813 -0.6488 -0.4531
  489TMC3    C8 7279   4.368   1.912  17.104  0.3461  0.1672  0.1496
  489TMC3    O1 7280   4.503   1.731  17.517  0.7716  0.5316  0.0489
  489TMC3    O2 7281   4.426   1.907  16.997  0.5200 -0.3563  0.2420
  490MPD2     C 7282   1.224   0.969  17.154 -0.7964 -0.5540  0.1679
  490MPD2    C1 7283   1.117   0.949  17.239  0.7798 -0.6307  0.4256
  490MPD2    C2 7284   1.140   0.970  17.378  0.4229 -0.3446 -0.4789
  490MPD2    C3 7285   1.263   1.019  17.418  0.0947  0.4265  0.3819
  490MPD2    C4 7286   1.369   1.040  17.330  0.1678 -0.0594 -0.0695
  490MPD2    C5 7287   1.346   1.010  17.199 -0.8571 -0.7882 -0.0997
  490MPD2     H 7288   1.059   0.955  17.448  0.6706 -0.9268 -0.3196
  490MPD2    H1 7289   1.472   1.057  17.360 -0.0093 -0.6024  0.8716
  490MPD2    H2 7290   1.221   0.951  17.047  0.5362  0.6614 -0.0799
  490MPD2    H3 7291   1.417   1.021  17.118 -0.0297  2.3061  1.0616
  490MPD2     N 7292   1.302   1.035  17.554 -0.0572  0.2981  0.3436
  490MPD2    H5 7293   1.396   1.069  17.572  0.3704 -0.3289 -0.7678
  490MPD2    N1 7294   0.997   0.888  17.198  0.4560 -0.1697 -0.1365
  490MPD2    H7 7295   0.923   0.878  17.267  0.7633  0.3865  0.2738
  491TMC3    C1 7296   0.825   0.785  17.066  0.2022 -0.1321  0.0278
  491TMC3    C2 7297   0.752   0.796  17.179 -0.0718  1.4730 -0.1312
  491TMC3    C3 7298   0.662   0.697  17.205  0.0370  0.4648 -0.7576
  491TMC3    C4 7299   0.822   0.679  16.986  0.3971  0.1499  0.4916
  491TMC3    C5 7300   0.731   0.590  17.009 -0.0463 -0.0574  0.3113
  491TMC3    C6 7301   0.648   0.586  17.122  0.8937  0.4015  0.3646
  491TMC3     C 7302   0.958   0.855  17.073 -0.3866 -0.0056  0.1953
  491TMC3     O 7303   1.030   0.858  16.976  0.2865  0.1304  0.1975
  491TMC3     H 7304   0.736   0.898  17.212  1.2449  2.6204 -3.0448
  491TMC3    H1 7305   0.893   0.664  16.906  0.0269  0.7178  0.0625
  491TMC3    H2 7306   0.573   0.511  17.138 -0.3960  1.9184  1.4186
  491TMC3    C7 7307   0.703   0.495  16.910 -0.2705  0.6943 -0.1675
  491TMC3    C8 7308   0.539   0.708  17.286 -0.4637  0.4090  0.8324
  491TMC3    O1 7309   0.633   0.400  16.948  0.2522 -0.4790 -0.5328
  491TMC3    O2 7310   0.483   0.604  17.309  0.8845 -0.0368  0.2701
  492MPD2     C 7311   1.697   1.425  11.599 -0.7483 -0.2272 -0.3907
  492MPD2    C1 7312   1.600   1.368  11.523 -0.1595 -0.3444  0.2678
  492MPD2    C2 7313   1.484   1.329  11.592 -0.6452 -0.1064  0.1409
  492MPD2    C3 7314   1.466   1.343  11.732  0.4508  0.1547 -0.0239
  492MPD2    C4 7315   1.568   1.412  11.798  0.0564  0.0766  0.0341
  492MPD2    C5 7316   1.682   1.446  11.733 -0.0937  1.2683  0.0904
  492MPD2     H 7317   1.401   1.296  11.531  0.6300  0.8210 -2.0687
  492MPD2    H1 7318   1.574   1.423  11.905 -1.1808 -0.6476  0.1791
  492MPD2    H2 7319   1.783   1.461  11.544 -0.8998  1.6446  0.6134
  492MPD2    H3 7320   1.764   1.493  11.784 -0.7409  0.7333  1.6344
  492MPD2     N 7321   1.353   1.305  11.806  0.0796  0.1674  0.7583
  492MPD2    H5 7322   1.345   1.341  11.901  2.4346  0.6772  0.7636
  492MPD2    N1 7323   1.627   1.354  11.388  0.3341 -0.0194 -0.1708
  492MPD2    H7 7324   1.721   1.381  11.361  1.5276 -1.2458  2.7874
  493TMC3    C1 7325   1.632   1.226  11.190  0.2108 -0.0908 -0.2921
  493TMC3    C2 7326   1.658   1.317  11.088 -0.4387 -0.4305 -0.2153
  493TMC3    C3 7327   1.663   1.277  10.956 -0.4340  0.1129  0.7834
  493TMC3    C4 7328   1.605   1.094  11.151  0.3176 -1.0697 -0.0854
  493TMC3    C5 7329   1.583   1.057  11.019  0.8333  0.0387 -0.3232
  493TMC3    C6 7330   1.614   1.154  10.919 -0.2485  0.2467 -0.2423
  493TMC3     C 7331   1.555   1.272  11.305  0.0241  0.4238  0.1594
  493TMC3     O 7332   1.454   1.204  11.322 -0.3406  0.2603 -0.0982
  493TMC3     H 7333   1.652   1.419  11.125  1.2200 -0.2230 -0.5097
  493TMC3    H1 7334   1.580   1.025  11.231  1.5870 -2.1798 -0.6431
  493TMC3    H2 7335   1.626   1.119  10.817 -0.2162  0.4571 -0.3113
  493TMC3    C7 7336   1.525   0.927  10.984 -0.0545  0.2382  0.3006
  493TMC3    C8 7337   1.668   1.372  10.849  0.8583  0.0802 -0.5458
  493TMC3    O1 7338   1.461   0.923  10.880 -0.2855 -0.5511  0.2917
  493TMC3    O2 7339   1.590   1.351  10.753 -0.0338 -0.2847  0.2444
  494TMC3    C1 7340   1.154   2.883   0.544 -0.3862 -0.0115  0.6685
  494TMC3    C2 7341   1.217   2.793   0.618  0.2620 -0.0114 -0.3506
  494TMC3    C3 7342   1.291   2.695   0.555 -0.2144  0.4268 -0.3249
  494TMC3    C4 7343   1.156   2.884   0.408 -0.5349  0.6792  0.6234
  494TMC3    C5 7344   1.229   2.789   0.345  0.0541 -0.1451  0.2946
  494TMC3    C6 7345   1.298   2.695   0.414 -0.5226 -0.3786  0.1436
  494TMC3     C 7346   1.054   2.965   0.617  0.5607  0.7983  0.6952
  494TMC3     O 7347   0.997   2.929   0.721 -0.0894  0.1811  0.4438
  494TMC3     H 7348   1.191   2.781   0.722  0.8936  1.5496 -0.0108
  494TMC3    H1 7349   1.099   2.957   0.352  0.4400  0.6105 -0.4540
  494TMC3    H2 7350   1.351   2.613   0.367 -1.3087  1.2837 -3.6250
  494TMC3    C7 7351   1.259   2.800   0.198 -0.1117  0.1348 -0.0707
  494TMC3    C8 7352   1.341   2.584   0.637  0.2765  0.1517  0.4844
  494TMC3    O1 7353   1.369   2.761   0.166  0.4229  0.6093 -0.0329
  494TMC3    O2 7354   1.310   2.591   0.757  0.4703  0.4440 -0.5046
  495TMC3    C1 7355   0.529   4.666  14.819  0.2810  0.0308  0.3926
  495TMC3    C2 7356   0.426   4.664  14.728  0.3815  0.1828 -0.6874
  495TMC3    C3 7357   0.312   0.010  14.755  0.1524 -0.2056  0.0086
  495TMC3    C4 7358   0.513   0.004  14.940  0.8523 -0.3725 -0.2820
  495TMC3    C5 7359   0.398   0.069  14.974  0.2655 -0.9149  0.2662
  495TMC3    C6 7360   0.299   0.078  14.878 -0.6191  0.0749 -0.5242
  495TMC3     C 7361   0.617   4.546  14.826  0.2923  0.2497 -0.0606
  495TMC3     O 7362   0.687   4.531  14.926 -0.3180 -0.4190  0.0641
  495TMC3     H 7363   0.444   4.626  14.628 -1.9272 -1.8385 -0.3521
  495TMC3    H1 7364   0.588   4.717  15.018  1.6869 -0.7332 -1.1346
  495TMC3    H2 7365   0.208   0.135  14.895 -0.7402 -0.3217  0.1436
  495TMC3    C7 7366   0.347   0.047  15.103 -0.0082 -0.1845 -0.0117
  495TMC3    C8 7367   0.202   0.020  14.658  0.0463 -0.4359  0.0315
  495TMC3    O1 7368   0.426   0.080  15.189 -0.3342  1.0293  0.0784
  495TMC3    O2 7369   0.133   0.120  14.660  0.1686 -0.2917 -0.0757
  496MPD2     C 7370   2.935   4.456  15.645  0.2627  0.6413 -0.3666
  496MPD2    C1 7371   2.801   4.420  15.645  0.5125  0.3857 -0.3969
  496MPD2    C2 7372   2.726   4.471  15.748  0.1814  0.9950 -0.3885
  496MPD2    C3 7373   2.776   4.557  15.846  0.0022  0.1170  0.0794
  496MPD2    C4 7374   2.913   4.585  15.839 -0.4408 -0.9674  0.1473
  496MPD2    C5 7375   2.988   4.538  15.738 -0.1001 -0.0832 -1.0017
  496MPD2     H 7376   2.619   4.464  15.737  0.3804 -2.4534  0.0302
  496MPD2    H1 7377   2.955   4.655  15.910 -1.0518 -0.3073 -0.1473
  496MPD2    H2 7378   3.001   4.410  15.572 -0.2080  2.8775 -2.2003
  496MPD2    H3 7379   3.095   4.553  15.746 -0.0743 -0.7573 -0.0841
  496MPD2     N 7380   2.685   4.632  15.927 -0.1030 -0.2096  0.1103
  496MPD2    H5 7381   2.585   4.617  15.921  0.1027 -2.5843  2.5409
  496MPD2    N1 7382   2.758   4.312  15.558 -0.0383 -0.3196 -0.2823
  496MPD2    H7 7383   2.835   4.272  15.505  0.5979 -2.1336  2.0485
  497TMC3    C1 7384   2.596   0.026  16.103 -0.0129 -0.6875 -0.1312
  497TMC3    C2 7385   2.505   0.091  16.020  0.4941  0.0640 -0.3143
  497TMC3    C3 7386   2.412   0.176  16.086 -0.3239  0.0873 -0.5293
  497TMC3    C4 7387   2.603   0.048  16.242 -0.0519  0.0194 -0.1996
  497TMC3    C5 7388   2.504   0.132  16.297 -0.1554  0.4316  0.2990
  497TMC3    C6 7389   2.406   0.200  16.222  0.0846  0.0186  0.5185
  497TMC3     C 7390   2.720   4.708  16.036 -0.3821 -0.4701  0.5764
  497TMC3     O 7391   2.825   0.001  16.093  0.1562  0.7427 -0.1655
  497TMC3     H 7392   2.513   0.083  15.912  0.1401 -0.3709 -0.3089
  497TMC3    H1 7393   2.673   4.712  16.298 -0.9859 -1.6779 -0.8556
  497TMC3    H2 7394   2.338   0.269  16.270  1.7392  1.5373  0.6609
  497TMC3    C7 7395   2.511   0.173  16.439 -0.1606  0.1928  0.1428
  497TMC3    C8 7396   2.313   0.239  16.005  0.0059  0.1008  0.1055
  497TMC3    O1 7397   2.400   0.176  16.492 -0.0279  0.0132 -0.5668
  497TMC3    O2 7398   2.336   0.240  15.884  0.8823  0.1696  0.0369
  498MPD2     C 7399   3.678   0.656   9.599 -0.2648 -1.0012  0.3127
  498MPD2    C1 7400   3.671   0.744   9.714 -0.0620  0.2656  0.4315
  498MPD2    C2 7401   3.545   0.761   9.772  0.1296  0.4568  0.7074
  498MPD2    C3 7402   3.439   0.688   9.722 -0.0359 -0.5129 -0.3218
  498MPD2    C4 7403   3.453   0.603   9.614  0.6429  0.3462 -0.5113
  498MPD2    C5 7404   3.571   0.581   9.555 -0.0521  0.2403 -1.5050
  498MPD2     H 7405   3.534   0.833   9.853 -0.2738  0.0086  1.0519
  498MPD2    H1 7406   3.364   0.556   9.574  0.3178  0.9299 -0.4656
  498MPD2    H2 7407   3.772   0.646   9.546 -2.0494  1.0279 -3.2099
  498MPD2    H3 7408   3.585   0.516   9.469 -1.1258 -1.3123 -0.4976
  498MPD2     N 7409   3.318   0.698   9.790 -0.1859 -0.2580 -0.1810
  498MPD2    H5 7410   3.319   0.759   9.871  1.9198 -0.8313  0.2331
  498MPD2    N1 7411   3.776   0.827   9.750  0.0926 -0.1849  0.2127
  498MPD2    H7 7412   3.753   0.897   9.819  1.0155  1.9924 -1.6901
  499TMC3    C1 7413   4.011   0.899   9.776 -0.0180 -0.7764  0.0076
  499TMC3    C2 7414   4.141   0.851   9.785 -0.3613  0.0595 -0.1944
  499TMC3    C3 7415   4.245   0.937   9.817  1.2302  0.1332 -0.1450
  499TMC3    C4 7416   3.984   1.027   9.786 -0.1083 -0.6479  0.3368
  499TMC3    C5 7417   4.088   1.112   9.820  0.0078  0.0958  0.1466
  499TMC3    C6 7418   4.220   1.071   9.833 -0.6873 -0.5418 -0.1330
  499TMC3     C 7419   3.907   0.814   9.717 -0.2267  0.3117 -0.2285
  499TMC3     O 7420   3.960   0.724   9.655  0.4198 -0.4359 -0.2861
  499TMC3     H 7421   4.161   0.748   9.759  1.5842  0.6736 -1.1531
  499TMC3    H1 7422   3.894   1.070   9.743 -0.2535 -0.0272  1.2521
  499TMC3    H2 7423   4.304   1.138   9.847 -0.1679 -1.4081  0.9672
  499TMC3    C7 7424   4.053   1.249   9.843 -0.3812 -0.0939  0.7426
  499TMC3    C8 7425   4.382   0.885   9.846  0.1573  0.1435 -0.3404
  499TMC3    O1 7426   3.955   1.295   9.787 -0.4096 -0.2391 -0.1734
  499TMC3    O2 7427   4.480   0.962   9.855  0.0299 -0.0772  0.5559
  500MPD2     C 7428   0.609   2.557   9.970 -0.1695 -0.5413 -0.0142
  500MPD2    C1 7429   0.559   2.581  10.096  0.5712 -0.8877  0.2524
  500MPD2    C2 7430   0.433   2.638  10.101 -0.2066  0.1997  0.4162
  500MPD2    C3 7431   0.354   2.646   9.987 -0.0534 -0.4638 -0.0599
  500MPD2    C4 7432   0.408   2.614   9.870 -0.2117 -0.3067  0.4509
  500MPD2    C5 7433   0.532   2.571   9.860 -0.9416  0.4134 -0.5708
  500MPD2     H 7434   0.396   2.654  10.201  1.2140  1.8149  0.6883
  500MPD2    H1 7435   0.344   2.618   9.782  0.5840  0.5089 -0.0815
  500MPD2    H2 7436   0.704   2.506   9.955 -0.2096 -0.4927 -0.4210
  500MPD2    H3 7437   0.574   2.542   9.764 -1.2902  2.2807 -1.2803
  500MPD2     N 7438   0.220   2.693   9.984  0.4820  0.5070 -0.1400
  500MPD2    H5 7439   0.171   2.659   9.902  0.1219 -0.0617  0.3076
  500MPD2    N1 7440   0.638   2.570  10.216 -0.4336  0.1178  0.7573
  500MPD2    H7 7441   0.598   2.604  10.304  2.0250 -0.0351  1.9354
  501TMC3    C1 7442   0.801   2.521  10.363  0.0774 -0.4230 -0.3426
  501TMC3    C2 7443   0.793   2.646  10.417 -0.5500  0.4798 -0.0659
  501TMC3    C3 7444   0.854   2.672  10.533 -0.1039 -0.2351  0.0235
  501TMC3    C4 7445   0.890   2.433  10.414  0.5722 -0.0679  0.7044
  501TMC3    C5 7446   0.945   2.460  10.532 -0.0865  0.2816  0.5311
  501TMC3    C6 7447   0.930   2.581  10.596  0.3282  0.0779  0.0334
  501TMC3     C 7448   0.745   2.498  10.233 -0.2191 -0.4360  0.5018
  501TMC3     O 7449   0.801   2.414  10.162  0.2242  0.2334 -0.1792
  501TMC3     H 7450   0.721   2.720  10.384  1.4495  1.8481 -1.3686
  501TMC3    H1 7451   0.916   2.343  10.361  0.4613 -0.8058  1.9009
  501TMC3    H2 7452   0.965   2.602  10.697 -0.9680 -0.8831  0.6932
  501TMC3    C7 7453   1.055   2.379  10.584  0.1617  0.1466 -0.1826
  501TMC3    C8 7454   0.852   2.810  10.584 -0.2065 -0.3268  0.4089
  501TMC3    O1 7455   1.063   2.256  10.556  0.5119  0.2149  0.0110
  501TMC3    O2 7456   0.944   2.839  10.663  0.3649  0.0567 -0.5771
  502TMC3    C1 7457   4.064   0.394  14.855  0.0081  0.2026  0.7359
  502TMC3    C2 7458   4.036   0.524  14.829 -0.1844  0.9654 -0.1306
  502TMC3    C3 7459   3.953   0.603  14.913  1.0485 -0.2387  0.3673
  502TMC3    C4 7460   4.012   0.330  14.964 -0.3289 -0.0944  0.1437
  502TMC3    C5 7461   3.918   0.405  15.036  0.2179 -0.3485 -0.0422
  502TMC3    C6 7462   3.883   0.535  15.010 -0.4360 -0.2518  0.2607
  502TMC3     C 7463   4.204   0.389  14.848 -0.1363 -0.1322  0.0424
  502TMC3     O 7464   4.261   0.372  14.741  0.1328 -0.0010  0.7666
  502TMC3     H 7465   4.092   0.573  14.750 -1.3469 -1.2474 -2.3464
  502TMC3    H1 7466   4.031   0.225  14.984 -1.1661 -0.1864  0.4603
  502TMC3    H2 7467   3.832   0.601  15.080 -1.1711  0.3867 -0.8771
  502TMC3    C7 7468   3.858   0.331  15.142  0.5380  0.4603 -0.3241
  502TMC3    C8 7469   4.002   0.737  14.935  0.3820  0.3551  0.1347
  502TMC3    O1 7470   3.950   0.263  15.199 -0.1846  0.0634 -0.0265
  502TMC3    O2 7471   4.038   0.796  14.836  0.2539 -0.2020  0.1936
  503MPD2     C 7472   2.003   1.652  16.586 -0.1978  0.3420  0.9056
  503MPD2    C1 7473   1.992   1.643  16.722  0.1488  1.0499 -0.2066
  503MPD2    C2 7474   2.066   1.548  16.785  0.6292  0.0085  0.2294
  503MPD2    C3 7475   2.149   1.455  16.719  0.0207  0.4390  1.0563
  503MPD2    C4 7476   2.143   1.463  16.586  0.2733  0.5531  0.2857
  503MPD2    C5 7477   2.078   1.559  16.516  0.1742 -0.1560 -0.9952
  503MPD2     H 7478   2.063   1.540  16.893  0.5343  0.3314  0.2503
  503MPD2    H1 7479   2.201   1.400  16.519 -0.0338 -1.0085  1.4982
  503MPD2    H2 7480   1.952   1.727  16.528  0.9504  0.2549 -0.2205
  503MPD2    H3 7481   2.086   1.567  16.408  0.9196  1.4515 -0.8184
  503MPD2     N 7482   2.219   1.361  16.797 -0.5969 -0.3859 -0.9799
  503MPD2    H5 7483   2.215   1.372  16.898  2.4603 -1.5305 -0.7211
  503MPD2    N1 7484   1.909   1.716  16.804  0.5662 -0.4647  0.1187
  503MPD2    H7 7485   1.903   1.692  16.902  0.6251 -2.5268 -0.3790
  504TMC3    C1 7486   2.363   1.181  16.847  0.2512 -0.0952  0.4496
  504TMC3    C2 7487   2.323   1.182  16.978 -0.1977 -0.2149  0.1348
  504TMC3    C3 7488   2.401   1.118  17.069  0.0742  0.7507 -0.6389
  504TMC3    C4 7489   2.478   1.117  16.812  0.7304 -0.4602 -0.0707
  504TMC3    C5 7490   2.558   1.058  16.909 -0.1929 -0.3651  0.6297
  504TMC3    C6 7491   2.521   1.064  17.036 -0.9851 -0.0910  0.7936
  504TMC3     C 7492   2.305   1.265  16.743 -0.3318 -0.0155 -0.6287
  504TMC3     O 7493   2.338   1.237  16.627  0.2460 -0.5754 -0.1794
  504TMC3     H 7494   2.230   1.227  17.011 -0.9483 -1.1788 -0.6479
  504TMC3    H1 7495   2.509   1.098  16.709 -1.0808  0.2152 -0.7399
  504TMC3    H2 7496   2.590   1.032  17.113  3.5887 -0.6215 -3.5726
  504TMC3    C7 7497   2.688   0.999  16.868  0.6495 -0.4646  0.1178
  504TMC3    C8 7498   2.368   1.149  17.212  0.1348  0.1471 -0.5242
  504TMC3    O1 7499   2.709   0.989  16.749  0.1258 -0.0082  0.6244
  504TMC3    O2 7500   2.290   1.244  17.228 -0.0598 -0.1071 -0.1204
  505MPD2     C 7501   2.154   0.619  10.708 -0.0654 -0.2871 -0.2309
  505MPD2    C1 7502   2.222   0.511  10.750  0.5938 -0.2504  0.4283
  505MPD2    C2 7503   2.331   0.531  10.826 -0.6635  0.1288 -0.1362
  505MPD2    C3 7504   2.393   0.655  10.846 -0.0935 -0.1342 -0.0744
  505MPD2    C4 7505   2.316   0.766  10.812  0.3335  0.0265 -0.4602
  505MPD2    C5 7506   2.192   0.742  10.758 -0.1798  0.0020  0.1718
  505MPD2     H 7507   2.386   0.443  10.854 -1.7611  0.3268  2.6636
  505MPD2    H1 7508   2.334   0.869  10.843  0.4607 -0.2884  0.5332
  505MPD2    H2 7509   2.063   0.615  10.650  0.0960 -1.1859 -0.4121
  505MPD2    H3 7510   2.135   0.829  10.727 -1.1283 -0.8367 -0.4395
  505MPD2     N 7511   2.523   0.661  10.919  0.9481  0.4948  1.0336
  505MPD2    H5 7512   2.561   0.574  10.954 -0.2805 -1.2981 -2.0910
  505MPD2    N1 7513   2.188   0.383  10.697  0.3183  0.4501  0.2159
  505MPD2    H7 7514   2.120   0.377  10.622  0.4894 -2.8032  0.3053
  506TMC3    C1 7515   2.209   0.140  10.659 -0.3172 -0.1350 -0.3385
  506TMC3    C2 7516   2.189   0.155  10.530 -0.7564 -0.2619 -0.1861
  506TMC3    C3 7517   2.270   0.094  10.438 -0.0639  0.4074  0.3311
  506TMC3    C4 7518   2.294   0.035  10.696 -0.9268  0.4808  0.2698
  506TMC3    C5 7519   2.362   4.689  10.598  0.3701  0.0463  1.0015
  506TMC3    C6 7520   2.357   4.721  10.467  0.1082 -0.9455  0.1484
  506TMC3     C 7521   2.242   0.259  10.733 -0.3195 -0.1664  0.1226
  506TMC3     O 7522   2.333   0.230  10.811 -0.0345 -0.1607  0.1443
  506TMC3     H 7523   2.125   0.234  10.492  1.0040  1.8085  1.1440
  506TMC3    H1 7524   2.287   4.717  10.796 -2.1736 -0.0847 -0.0617
  506TMC3    H2 7525   2.416   4.664  10.396  1.5831 -0.9456  1.3429
  506TMC3    C7 7526   2.494   4.647  10.641 -0.0187  0.6462  0.9258
  506TMC3    C8 7527   2.268   0.137  10.297 -0.1482 -0.8860 -0.1702
  506TMC3    O1 7528   2.552   4.572  10.564 -0.3264  0.3863  0.0564
  506TMC3    O2 7529   2.158   0.169  10.258  0.0542  0.7333 -0.0675
  507TMC3    C1 7530   2.825   0.721  15.054  0.1849 -0.2613  0.1201
  507TMC3    C2 7531   2.824   0.627  14.955  0.4118 -0.6357  0.1274
  507TMC3    C3 7532   2.929   0.637  14.861  0.2139  0.3719 -0.0543
  507TMC3    C4 7533   2.931   0.807  15.074 -0.4648  0.2470 -0.1825
  507TMC3    C5 7534   3.041   0.796  14.987 -0.1803  0.1069  0.0299
  507TMC3    C6 7535   3.038   0.714  14.883  0.3651  0.2576  0.4599
  507TMC3     C 7536   2.718   0.725  15.153  0.7661  0.4619 -0.1313
  507TMC3     O 7537   2.739   0.783  15.262 -0.8810  0.1422  0.2870
  507TMC3     H 7538   2.746   0.556  14.932 -0.4357 -0.8755  3.7775
  507TMC3    H1 7539   2.925   0.882  15.153  1.2569 -0.7494  0.9035
  507TMC3    H2 7540   3.123   0.706  14.816 -1.1192 -0.4973 -1.3142
  507TMC3    C7 7541   3.096   0.921  14.945  0.0561 -0.2870 -0.4486
  507TMC3    C8 7542   2.871   0.657  14.732  0.2489 -0.3424  0.0377
  507TMC3    O1 7543   3.096   0.929  14.821 -0.4211 -0.0674  0.1276
  507TMC3    O2 7544   2.789   0.579  14.674  0.3618 -0.0171  0.4114
  508MPD2     C 7545   3.866   2.905  16.315  0.5473 -0.2644  0.5618
  508MPD2    C1 7546   3.969   2.991  16.283 -0.0882  0.4292 -0.2127
  508MPD2    C2 7547   3.957   3.071  16.172 -0.0733  0.5388 -0.0863
  508MPD2    C3 7548   3.845   3.066  16.091  0.5575  0.6554 -0.1318
  508MPD2    C4 7549   3.745   2.964  16.117  0.1658  0.5710 -0.3909
  508MPD2    C5 7550   3.754   2.892  16.236  0.3740  0.2534 -0.2291
  508MPD2     H 7551   4.043   3.134  16.156 -0.0417  0.8681  1.3933
  508MPD2    H1 7552   3.660   2.955  16.050 -0.4985 -1.8177  0.7718
  508MPD2    H2 7553   3.872   2.845  16.405  2.0658  0.7734  1.1624
  508MPD2    H3 7554   3.671   2.827  16.261 -1.7162  2.9464 -0.2457
  508MPD2     N 7555   3.839   3.161  15.986  0.2568 -0.8167  0.0390
  508MPD2    H5 7556   3.915   3.228  15.983  0.6645 -1.3339 -1.3392
  508MPD2    N1 7557   4.069   3.001  16.376  0.3382  0.4739  0.3807
  508MPD2    H7 7558   4.061   2.948  16.462  0.9333 -1.1501 -0.5737
  509TMC3    C1 7559   3.650   3.401  15.624  0.0121 -0.0411 -0.0088
  509TMC3    C2 7560   3.773   3.452  15.589 -0.0736 -0.5149 -0.3535
  509TMC3    C3 7561   3.882   3.391  15.645 -0.3338  0.7781 -0.9776
  509TMC3    C4 7562   3.636   3.303  15.715 -0.3782  0.3203  0.4382
  509TMC3    C5 7563   3.749   3.255  15.778 -0.0604 -0.1110  0.0404
  509TMC3    C6 7564   3.875   3.296  15.748 -0.2291 -1.4482 -0.8138
  509TMC3     C 7565   3.532   3.457  15.561  0.1147 -0.2675 -0.2713
  509TMC3     O 7566   3.434   3.382  15.560  0.7937  0.2198  0.1493
  509TMC3     H 7567   3.787   3.505  15.496 -1.5969 -1.1735 -0.9639
  509TMC3    H1 7568   3.536   3.269  15.739 -0.5788 -0.5074 -1.5412
  509TMC3    H2 7569   3.969   3.257  15.786 -0.1761 -1.6506 -1.1522
  509TMC3    C7 7570   3.728   3.169  15.897 -0.4635 -1.1046 -0.4054
  509TMC3    C8 7571   3.999   3.467  15.633  0.0852 -0.5498 -0.6165
  509TMC3    O1 7572   3.627   3.100  15.885 -0.1167 -0.3013 -0.0868
  509TMC3    O2 7573   4.104   3.408  15.661  0.6262 -0.5538  0.0195
  510MPD2     C 7574   2.110   0.598  14.756  0.2705 -0.0020 -0.0243
  510MPD2    C1 7575   2.059   0.469  14.756 -0.2844  0.2819 -0.1249
  510MPD2    C2 7576   2.106   0.375  14.666 -0.4501  0.2307  0.2924
  510MPD2    C3 7577   2.207   0.406  14.574 -0.9599  0.5599 -0.4540
  510MPD2    C4 7578   2.249   0.535  14.573 -0.3615  0.1925  0.3567
  510MPD2    C5 7579   2.205   0.624  14.662  0.4414  0.2692  0.2362
  510MPD2     H 7580   2.075   0.272  14.675 -0.7681  0.3249  0.2952
  510MPD2    H1 7581   2.332   0.564  14.509  0.3836 -0.3206  1.0876
  510MPD2    H2 7582   2.069   0.677  14.819  0.4221  0.1210 -0.0806
  510MPD2    H3 7583   2.240   0.726  14.665  3.4019 -0.7092 -2.0902
  510MPD2     N 7584   2.257   0.304  14.490 -0.4670  0.0293  0.7294
  510MPD2    H5 7585   2.246   0.212  14.530 -0.5067 -0.1039  0.4099
  510MPD2    N1 7586   1.947   0.418  14.835 -0.5790 -0.3998  0.0980
  510MPD2    H7 7587   1.916   0.324  14.811 -2.0621 -0.0939  0.8215
  511TMC3    C1 7588   1.763   0.436  14.996 -0.7332 -0.1713 -0.0918
  511TMC3    C2 7589   1.747   0.467  15.130 -0.2711 -0.1023  0.1094
  511TMC3    C3 7590   1.642   0.402  15.195  0.4808  0.8386 -0.0725
  511TMC3    C4 7591   1.686   0.353  14.925 -0.4741  0.1447  0.1203
  511TMC3    C5 7592   1.588   0.289  14.993  0.9728 -0.5254 -0.9887
  511TMC3    C6 7593   1.571   0.304  15.129 -0.1880 -0.6917  0.1253
  511TMC3     C 7594   1.878   0.493  14.928 -0.4420  0.0683  0.2534
  511TMC3     O 7595   1.912   0.593  14.987 -0.2303 -0.1618 -0.1963
  511TMC3     H 7596   1.807   0.543  15.179  2.2530 -2.7330  1.0238
  511TMC3    H1 7597   1.705   0.328  14.821 -0.0169  1.7746 -0.1940
  511TMC3    H2 7598   1.482   0.266  15.179 -0.2305 -1.7508 -0.7567
  511TMC3    C7 7599   1.495   0.210  14.916  0.0590  0.1096  0.1810
  511TMC3    C8 7600   1.646   0.413  15.342 -0.2376  0.3144 -0.4560
  511TMC3    O1 7601   1.492   0.247  14.800 -0.0023 -0.4454 -0.2114
  511TMC3    O2 7602   1.722   0.497  15.391 -0.1318 -0.0756 -0.8007
  512TMC3    C1 7603   1.106   0.093  13.301  0.0668  0.1466 -0.6878
  512TMC3    C2 7604   1.074   0.090  13.432 -0.1253  0.3479  0.7104
  512TMC3    C3 7605   1.063   4.700  13.494  0.2272  0.0147  0.0108
  512TMC3    C4 7606   1.139   4.702  13.236 -0.1693  0.7005 -0.1824
  512TMC3    C5 7607   1.135   4.586  13.303  0.2060 -0.9161 -0.0399
  512TMC3    C6 7608   1.107   4.585  13.439  0.0161 -0.5697 -1.3938
  512TMC3     C 7609   1.123   0.226  13.241 -0.4636 -0.4199  0.9695
  512TMC3     O 7610   1.138   0.321  13.316  0.0522  1.1308 -0.1131
  512TMC3     H 7611   1.062   0.186  13.482  1.1752  0.8637  0.0267
  512TMC3    H1 7612   1.167   4.710  13.131  0.1720  2.2496  0.0255
  512TMC3    H2 7613   1.094   4.496  13.499 -2.1367  1.3304  0.9574
  512TMC3    C7 7614   1.161   4.466  13.229 -0.0790 -0.3802 -0.3435
  512TMC3    C8 7615   1.028   4.692  13.634  0.0835  0.1928  0.3728
  512TMC3    O1 7616   1.212   4.486  13.118  0.7186  0.4375 -0.0491
  512TMC3    O2 7617   0.980   4.579  13.663 -0.7747 -0.4646 -0.0128
  513MPD2     C 7618   2.694   4.612  13.078 -0.6880  0.0391  0.7885
  513MPD2    C1 7619   2.754   4.546  12.978  0.1800  0.2741  0.2988
  513MPD2    C2 7620   2.893   4.532  12.973 -0.3199 -0.6421 -0.4306
  513MPD2    C3 7621   2.972   4.601  13.069 -0.8014 -0.3650  0.2904
  513MPD2    C4 7622   2.909   4.664  13.177  0.1239  0.1493 -0.4376
  513MPD2    C5 7623   2.769   4.668  13.180  0.0291  0.3171 -0.2398
  513MPD2     H 7624   2.949   4.485  12.894  0.4276 -0.6739  0.1215
  513MPD2    H1 7625   2.966   4.715  13.254  1.7970 -0.6159 -1.1635
  513MPD2    H2 7626   2.587   4.619  13.093 -0.5107  1.3558  1.4702
  513MPD2    H3 7627   2.714   4.710  13.264  1.0231  1.3936 -0.1282
  513MPD2     N 7628   3.112   4.599  13.052  0.0902  0.5178  0.1719
  513MPD2    H5 7629   3.149   4.548  12.973  0.0676 -1.7517  1.6309
  513MPD2    N1 7630   2.665   4.501  12.870  0.1360 -0.9552 -0.3649
  513MPD2    H7 7631   2.566   4.508  12.889  0.5974  0.4635  1.4809
  514TMC3    C1 7632   2.603   4.381  12.668  0.5777  0.2432 -0.9143
  514TMC3    C2 7633   2.558   4.472  12.581 -0.7200  0.0950  0.2274
  514TMC3    C3 7634   2.566   4.443  12.446  0.2149 -0.4408  0.5225
  514TMC3    C4 7635   2.656   4.266  12.613 -0.0807 -0.2811 -0.8783
  514TMC3    C5 7636   2.674   4.245  12.481 -0.4803 -0.0500 -0.2269
  514TMC3    C6 7637   2.618   4.329  12.394  0.1006  0.0792 -0.0634
  514TMC3     C 7638   2.707   4.436  12.757 -0.0835 -0.1168  0.1531
  514TMC3     O 7639   2.815   4.384  12.735 -0.7774 -0.0361 -0.2837
  514TMC3     H 7640   2.521   4.571  12.606  2.5208  1.0206  1.4089
  514TMC3    H1 7641   2.710   4.197  12.679  1.3671 -0.2542 -2.0288
  514TMC3    H2 7642   2.616   4.296  12.291 -1.5913 -4.2958  1.3645
  514TMC3    C7 7643   2.805   4.193  12.438 -0.1358 -0.1775 -0.5202
  514TMC3    C8 7644   2.496   4.532  12.362 -0.5012  0.2588  0.3733
  514TMC3    O1 7645   2.823   4.140  12.328  0.1745  0.0735 -0.2470
  514TMC3    O2 7646   2.396   4.584  12.412  0.1499  0.0583  0.0191
  515MPD2     C 7647   0.857   1.359  15.102  0.0714 -1.0979 -0.3096
  515MPD2    C1 7648   0.779   1.433  15.015 -0.4544  0.8472  0.4581
  515MPD2    C2 7649   0.804   1.569  15.012 -0.4655 -0.5173 -0.3685
  515MPD2    C3 7650   0.893   1.635  15.093  0.4426 -0.4737  1.2561
  515MPD2    C4 7651   0.965   1.559  15.184  0.5531  0.3555 -0.0048
  515MPD2    C5 7652   0.949   1.423  15.186  0.5007  0.0395  0.4785
  515MPD2     H 7653   0.750   1.632  14.942  1.6805  1.4993 -0.2201
  515MPD2    H1 7654   1.028   1.604  15.259  0.1523  2.3577 -0.8588
  515MPD2    H2 7655   0.834   1.255  15.123 -2.0029 -0.5469  0.0988
  515MPD2    H3 7656   1.000   1.362  15.260  0.0938  0.0466  0.7658
  515MPD2     N 7657   0.919   1.775  15.083 -0.0280 -0.3149 -0.3457
  515MPD2    H5 7658   0.988   1.811  15.148 -0.9472  1.1501 -0.1821
  515MPD2    N1 7659   0.687   1.357  14.935  0.3677  0.8379  0.6181
  515MPD2    H7 7660   0.701   1.256  14.939 -1.5774  0.5848  1.2186
  516TMC3    C1 7661   0.538   1.294  14.768 -0.7033  0.1347 -0.1396
  516TMC3    C2 7662   0.482   1.330  14.647  0.1994 -0.5311  0.5161
  516TMC3    C3 7663   0.391   1.255  14.587  0.1810 -0.2637  0.2718
  516TMC3    C4 7664   0.501   1.176  14.822 -0.7002  0.4841  0.1752
  516TMC3    C5 7665   0.416   1.090  14.750 -1.1031 -0.5034 -0.2494
  516TMC3    C6 7666   0.353   1.136  14.639 -0.3765  0.5905 -0.2950
  516TMC3     C 7667   0.594   1.403  14.843  0.4264 -0.6748 -0.3001
  516TMC3     O 7668   0.565   1.516  14.803  0.3882  0.1711  0.0106
  516TMC3     H 7669   0.508   1.427  14.605 -1.2087  0.0396  0.9502
  516TMC3    H1 7670   0.547   1.148  14.916  0.1898 -0.7104 -0.6205
  516TMC3    H2 7671   0.273   1.080  14.591  0.2793  0.0858 -0.7885
  516TMC3    C7 7672   0.371   0.967  14.821  0.0850 -0.0629  0.1816
  516TMC3    C8 7673   0.320   1.299  14.469  0.2461  0.0062  0.3012
  516TMC3    O1 7674   0.421   0.949  14.929 -0.2078 -0.2983  0.2911
  516TMC3    O2 7675   0.200   1.295  14.470  0.0230 -0.3535  0.0716
  517MPD2     C 7676   4.663   3.139   0.146 -0.6433 -0.2295  0.9163
  517MPD2    C1 7677   0.076   3.140   0.171  0.4022  0.3711  0.1672
  517MPD2    C2 7678   0.136   3.239   0.248  0.7608  0.6093 -0.1870
  517MPD2    C3 7679   0.066   3.337   0.291  0.1740  0.6076  0.1982
  517MPD2    C4 7680   4.654   3.340   0.272 -0.4769  0.4520  0.7780
  517MPD2    C5 7681   4.589   3.234   0.206  0.4448  0.2177 -0.3811
  517MPD2     H 7682   0.239   3.227   0.280  1.4405 -0.2823 -2.7312
  517MPD2    H1 7683   4.591   3.407   0.329 -0.6272  1.9830 -1.2155
  517MPD2    H2 7684   4.612   3.064   0.087 -3.1740  0.6744  1.9416
  517MPD2    H3 7685   4.481   3.237   0.206  0.3775 -1.8920  0.7572
  517MPD2     N 7686   0.144   3.427   0.369  0.1706  0.1690 -0.1949
  517MPD2    H5 7687   0.244   3.411   0.363 -0.1237 -2.2285  1.4486
  517MPD2    N1 7688   0.164   3.039   0.129  0.7089 -0.7668 -0.2640
  517MPD2    H7 7689   0.261   3.066   0.140 -0.5746  3.7519  0.2533
  518TMC3    C1 7690   0.247   2.835   0.026  0.3388  0.0308  0.5070
  518TMC3    C2 7691   0.210   2.719  17.652  0.6843 -0.2003  0.1078
  518TMC3    C3 7692   0.297   2.609  17.652 -0.2849 -0.3592 -0.7134
  518TMC3    C4 7693   0.367   2.829   0.100  0.2334  0.3920  0.1600
  518TMC3    C5 7694   0.452   2.716   0.092  0.4393 -0.0382  0.0545
  518TMC3    C6 7695   0.417   2.611   0.015 -0.5259 -0.2546 -0.3655
  518TMC3     C 7696   0.130   2.922   0.073 -0.2247  0.7405 -0.3291
  518TMC3     O 7697   0.018   2.879   0.049 -0.4284  0.2143 -0.9323
  518TMC3     H 7698   0.123   2.730  17.588 -1.3792 -1.2255  2.7566
  518TMC3    H1 7699   0.388   2.899   0.180  0.2576 -0.1610  0.6343
  518TMC3    H2 7700   0.497   2.539   0.004  1.3511  1.5822  1.2286
  518TMC3    C7 7701   0.583   2.725   0.148 -0.3169  1.3060 -0.6663
  518TMC3    C8 7702   0.271   2.483  17.586  0.0286 -0.4904  0.7445
  518TMC3    O1 7703   0.594   2.812   0.235  0.6786  0.6236 -0.4006
  518TMC3    O2 7704   0.363   2.408  17.571  0.7350  0.2776 -0.3108
  519MPD2     C 7705   1.941   1.361  14.547 -0.5451 -0.2174 -0.3280
  519MPD2    C1 7706   1.931   1.385  14.408 -0.4471 -0.7742  0.2155
  519MPD2    C2 7707   2.022   1.329  14.316  0.1623  0.6641 -0.1872
  519MPD2    C3 7708   2.107   1.231  14.368 -0.3015  0.0261  0.6341
  519MPD2    C4 7709   2.101   1.190  14.499 -0.4121 -0.4047 -0.2075
  519MPD2    C5 7710   2.023   1.261  14.588  0.0212 -0.0708  0.3821
  519MPD2     H 7711   2.020   1.353  14.210 -0.2935 -0.3992 -0.4166
  519MPD2    H1 7712   2.150   1.099  14.533  1.0680  0.1377 -0.8771
  519MPD2    H2 7713   1.881   1.416  14.619  2.0107 -0.2687  1.8657
  519MPD2    H3 7714   2.038   1.232  14.691 -2.4698 -1.1579  0.4405
  519MPD2     N 7715   2.178   1.147  14.280 -0.1687  0.8921 -0.6536
  519MPD2    H5 7716   2.219   1.064  14.321 -2.6116  0.6352  1.2716
  519MPD2    N1 7717   1.831   1.486  14.366  0.2069  0.1471 -0.2870
  519MPD2    H7 7718   1.764   1.506  14.440 -0.5537  1.7292 -1.4172
  520TMC3    C1 7719   2.245   1.041  14.086  0.3179 -0.9214  0.5860
  520TMC3    C2 7720   2.209   1.017  13.958  0.7463  0.1704  0.4256
  520TMC3    C3 7721   2.234   0.901  13.904  0.4635 -0.0352 -0.1199
  520TMC3    C4 7722   2.299   0.945  14.169 -0.0034 -0.0810 -0.2505
  520TMC3    C5 7723   2.334   0.829  14.098  0.1487 -0.0894 -0.7337
  520TMC3    C6 7724   2.302   0.808  13.970  0.1124 -0.4233  0.6848
  520TMC3     C 7725   2.191   1.160  14.146  0.2016 -0.3983 -0.1364
  520TMC3     O 7726   2.169   1.252  14.068  0.0845  0.2384 -0.5814
  520TMC3     H 7727   2.164   1.093  13.895 -0.3789  0.9814  2.1984
  520TMC3    H1 7728   2.348   0.975  14.260  0.3851 -1.3648 -0.0320
  520TMC3    H2 7729   2.315   0.711  13.924  0.6083  0.5752 -1.2708
  520TMC3    C7 7730   2.442   0.760  14.153 -0.4299  0.2955  0.5335
  520TMC3    C8 7731   2.182   0.864  13.774  0.1609 -0.3833 -1.0583
  520TMC3    O1 7732   2.466   0.783  14.266  0.4686  0.2699  0.1411
  520TMC3    O2 7733   2.233   0.772  13.714  0.1625  0.6453  0.2114
  521MPD2     C 7734   2.898   3.074  17.371 -0.6737 -0.4481 -0.4100
  521MPD2    C1 7735   2.902   3.186  17.292  0.0537  0.2405 -1.0703
  521MPD2    C2 7736   3.013   3.220  17.221 -0.1764  0.0583 -0.5290
  521MPD2    C3 7737   3.124   3.145  17.225 -0.4957  0.5410 -0.5463
  521MPD2    C4 7738   3.124   3.035  17.310 -0.0059  0.4559 -0.0240
  521MPD2    C5 7739   3.006   2.993  17.373 -0.3128  0.0113 -0.7479
  521MPD2     H 7740   3.016   3.311  17.163  1.7503  0.3180 -0.0342
  521MPD2    H1 7741   3.216   2.979  17.328  0.6070  1.1473 -1.0044
  521MPD2    H2 7742   2.803   3.036  17.409 -0.1930 -0.6657  0.5640
  521MPD2    H3 7743   3.004   2.899  17.427 -1.5674 -0.5595 -1.7817
  521MPD2     N 7744   3.246   3.186  17.166  0.9952  0.0643 -0.4517
  521MPD2    H5 7745   3.241   3.282  17.135  1.1483  0.3569  0.4256
  521MPD2    N1 7746   2.796   3.277  17.315 -0.4089 -0.4744 -0.7250
  521MPD2    H7 7747   2.727   3.251  17.385  2.6256 -2.5735  1.4433
  522TMC3    C1 7748   3.483   3.202  17.131 -0.9114 -0.2913  0.3629
  522TMC3    C2 7749   3.597   3.149  17.179  0.0668  1.0363  0.1028
  522TMC3    C3 7750   3.685   3.239  17.225  0.6102  0.6749  0.0857
  522TMC3    C4 7751   3.460   3.339  17.115  0.6552  0.3257  0.0410
  522TMC3    C5 7752   3.567   3.418  17.151 -0.0961 -0.1899  0.2205
  522TMC3    C6 7753   3.677   3.371  17.212 -0.2333 -0.0822 -0.1154
  522TMC3     C 7754   3.366   3.115  17.150  0.3769  0.3054  0.5825
  522TMC3     O 7755   3.383   2.998  17.166  0.0710 -0.1586 -0.6105
  522TMC3     H 7756   3.596   3.049  17.220 -0.0081  0.3403 -1.6020
  522TMC3    H1 7757   3.366   3.374  17.075  1.2869  2.0584  0.0851
  522TMC3    H2 7758   3.761   3.437  17.233 -0.4452 -0.7283  2.7456
  522TMC3    C7 7759   3.584   3.548  17.077 -0.9038  0.1511  0.4905
  522TMC3    C8 7760   3.807   3.206  17.287 -0.0493  0.0721  0.5929
  522TMC3    O1 7761   3.696   3.595  17.072  0.0144 -0.1762 -0.2256
  522TMC3    O2 7762   3.853   3.282  17.375 -0.5805  0.3224  0.2763
  523MPD2     C 7763   1.093   4.065  10.445  0.0771 -0.3788 -0.7888
  523MPD2    C1 7764   1.055   3.966  10.360 -0.1325 -0.6801  0.5681
  523MPD2    C2 7765   0.998   3.994  10.239 -0.3000  0.0394  0.3082
  523MPD2    C3 7766   0.975   4.130  10.207  0.0486 -0.1065 -0.6415
  523MPD2    C4 7767   1.013   4.229  10.290  0.7155 -0.4452 -0.1129
  523MPD2    C5 7768   1.076   4.198  10.407  0.4923 -0.4503 -0.2812
  523MPD2     H 7769   0.996   3.921  10.159  3.3325  0.8768 -0.5435
  523MPD2    H1 7770   0.991   4.329  10.256  1.2521 -0.3085 -0.0578
  523MPD2    H2 7771   1.140   4.048  10.541  0.3823 -1.9395 -1.2161
  523MPD2    H3 7772   1.101   4.279  10.475 -1.9007  0.0769 -0.0317
  523MPD2     N 7773   0.925   4.180  10.083  0.1157  0.4630  0.3715
  523MPD2    H5 7774   0.943   4.277  10.057 -0.1532  1.3250  3.3513
  523MPD2    N1 7775   1.076   3.828  10.397 -0.2644  0.0298  0.4032
  523MPD2    H7 7776   1.125   3.813  10.485  0.5236  2.4513  0.3856
  524TMC3    C1 7777   0.844   4.180   9.866 -0.0824  0.4630 -0.0220
  524TMC3    C2 7778   0.752   4.134   9.779 -0.4527 -0.6174 -0.7711
  524TMC3    C3 7779   0.700   4.217   9.681  0.1049 -0.3322  0.2640
  524TMC3    C4 7780   0.886   4.314   9.865 -0.0673  0.6469 -0.9621
  524TMC3    C5 7781   0.851   4.386   9.756 -0.3349 -0.5055 -0.2923
  524TMC3    C6 7782   0.743   4.351   9.668  0.1155  0.0298 -0.5305
  524TMC3     C 7783   0.856   4.109   9.989  0.1950  0.2230  0.3517
  524TMC3     O 7784   0.788   4.011  10.013  0.6188 -0.4221 -0.2974
  524TMC3     H 7785   0.717   4.034   9.803  0.2871 -1.2329 -2.2881
  524TMC3    H1 7786   0.975   4.351   9.914  1.6780 -0.4400 -3.2989
  524TMC3    H2 7787   0.722   4.419   9.586 -0.4637  0.3747 -0.1047
  524TMC3    C7 7788   0.895   4.527   9.759 -0.1886 -0.4036 -0.2148
  524TMC3    C8 7789   0.592   4.176   9.595 -0.3114  0.1191  0.3361
  524TMC3    O1 7790   1.013   4.536   9.794 -0.2960 -0.1839  0.0392
  524TMC3    O2 7791   0.541   4.068   9.618 -0.0526 -0.6305 -0.3448
  525MPD2     C 7792   3.144   0.380  14.675  0.0374 -0.1262  0.0574
  525MPD2    C1 7793   3.269   0.378  14.732 -0.1161 -0.2239  0.4366
  525MPD2    C2 7794   3.357   0.478  14.691 -0.7264 -0.8733 -0.0193
  525MPD2    C3 7795   3.319   0.580  14.608 -0.0065 -0.6709  0.4293
  525MPD2    C4 7796   3.191   0.584  14.560 -0.2324 -0.5568  0.5190
  525MPD2    C5 7797   3.108   0.480  14.593 -0.0572 -0.2506 -0.6594
  525MPD2     H 7798   3.451   0.484  14.744  0.4029 -3.9367 -1.7047
  525MPD2    H1 7799   3.145   0.651  14.488  0.7412  0.5101  0.8799
  525MPD2    H2 7800   3.073   0.303  14.703  0.2847  0.1442  1.4761
  525MPD2    H3 7801   3.006   0.482  14.555 -0.8813  0.0830  1.5702
  525MPD2     N 7802   3.400   0.699  14.589 -0.0082  0.6423  0.1541
  525MPD2    H5 7803   3.353   0.784  14.561  0.5792  0.1689 -2.2752
  525MPD2    N1 7804   3.311   0.293  14.837 -0.2213  0.2364 -0.6236
  525MPD2    H7 7805   3.409   0.294  14.864 -0.4839 -0.9392  0.4179
  526TMC3    C1 7806   3.291   0.144  15.019  0.1169 -0.0604 -0.0187
  526TMC3    C2 7807   3.225   0.095  15.129 -0.4646  0.2484 -0.8084
  526TMC3    C3 7808   3.283   0.011  15.223 -0.5839  0.3879 -0.1957
  526TMC3    C4 7809   3.417   0.093  14.991 -0.3049  0.7879 -0.7418
  526TMC3    C5 7810   3.481   0.023  15.091 -0.3362 -1.4767 -0.1769
  526TMC3    C6 7811   3.419   4.706  15.208 -0.2373  0.3312  0.4015
  526TMC3     C 7812   3.225   0.212  14.913  0.4620 -0.2081 -0.7343
  526TMC3     O 7813   3.102   0.197  14.912 -0.1827 -0.2363  0.5006
  526TMC3     H 7814   3.125   0.135  15.141  0.1879  2.0649 -1.3957
  526TMC3    H1 7815   3.449   0.115  14.890 -0.0432  1.4931 -0.5031
  526TMC3    H2 7816   3.476   4.643  15.274 -0.4816 -0.6301 -0.3092
  526TMC3    C7 7817   3.631   0.000  15.093  0.4975 -0.0298  0.7213
  526TMC3    C8 7818   3.232   0.004  15.353  0.2787 -0.5624 -0.4542
  526TMC3    O1 7819   3.669   4.647  15.180  0.1493  0.5581  0.1631
  526TMC3    O2 7820   3.316   4.689  15.429  0.4091  0.3320 -0.1421
  527MPD2     C 7821   1.254   3.150   1.397 -0.1408  0.4278  0.7850
  527MPD2    C1 7822   1.385   3.134   1.435  0.4714 -0.0925  0.3884
  527MPD2    C2 7823   1.482   3.185   1.342  0.1966  0.2978  0.2514
  527MPD2    C3 7824   1.445   3.227   1.214  0.6681  0.4982 -0.1523
  527MPD2    C4 7825   1.316   3.217   1.177  0.7478  0.5956 -0.0008
  527MPD2    C5 7826   1.224   3.183   1.268 -0.2375  0.3803 -1.3020
  527MPD2     H 7827   1.587   3.174   1.366  0.5983 -0.3364 -1.7686
  527MPD2    H1 7828   1.278   3.252   1.082  0.2444 -0.9908 -0.3810
  527MPD2    H2 7829   1.169   3.120   1.457 -1.7099  2.2200 -0.5634
  527MPD2    H3 7830   1.123   3.162   1.237 -0.1951 -2.8878  0.7900
  527MPD2     N 7831   1.551   3.269   1.131  0.3738  0.0739 -0.6849
  527MPD2    H5 7832   1.642   3.280   1.174 -0.7972 -0.2611  1.8325
  527MPD2    N1 7833   1.430   3.083   1.559 -0.1722  0.1496  0.0988
  527MPD2    H7 7834   1.526   3.094   1.589  0.5025  0.3574 -2.1775
  528TMC3    C1 7835   1.411   2.977   1.765 -1.0147 -0.1827 -0.5327
  528TMC3    C2 7836   1.545   2.968   1.768 -0.5797  0.2419  0.4938
  528TMC3    C3 7837   1.606   2.927   1.884 -0.1940  0.2907 -0.1851
  528TMC3    C4 7838   1.333   2.933   1.870 -0.6258 -0.5859  0.3857
  528TMC3    C5 7839   1.394   2.895   1.988  0.1519 -0.0794 -0.0397
  528TMC3    C6 7840   1.531   2.891   1.994  0.2331  0.4032 -0.3909
  528TMC3     C 7841   1.344   3.025   1.646  0.4395 -0.4191 -0.4847
  528TMC3     O 7842   1.223   3.013   1.643 -1.0346  0.2474 -0.6795
  528TMC3     H 7843   1.608   2.994   1.683  0.2794 -1.6548  0.5431
  528TMC3    H1 7844   1.226   2.933   1.851 -0.6275  0.3450  0.4262
  528TMC3    H2 7845   1.575   2.856   2.087  1.5220  0.7058 -0.8875
  528TMC3    C7 7846   1.321   2.822   2.090 -0.2259 -0.1056  0.5471
  528TMC3    C8 7847   1.743   2.961   1.894 -0.2951 -0.4172  0.3760
  528TMC3    O1 7848   1.389   2.749   2.159  0.3531 -0.4361 -0.0351
  528TMC3    O2 7849   1.798   3.004   1.791 -0.0547 -0.4657 -0.2702
  529MPD2     C 7850   0.009   1.770   0.811 -0.2643  0.3993 -0.6213
  529MPD2    C1 7851   4.605   1.782   0.766  0.5918  0.9739 -0.1714
  529MPD2    C2 7852   4.587   1.861   0.652 -0.1532  0.3039  0.1888
  529MPD2    C3 7853   4.694   1.912   0.582 -0.1420  0.6243 -0.2558
  529MPD2    C4 7854   0.101   1.898   0.629 -0.3508  0.1258 -0.1142
  529MPD2    C5 7855   0.118   1.827   0.741  0.2276 -0.1390 -0.0099
  529MPD2     H 7856   4.488   1.876   0.613 -0.1798  2.9695  1.2323
  529MPD2    H1 7857   0.184   1.937   0.573 -2.0514  2.9185 -0.7005
  529MPD2    H2 7858   0.026   1.724   0.908 -0.8692  1.5351  0.0233
  529MPD2    H3 7859   0.221   1.802   0.762  0.5598  0.2316 -1.1942
  529MPD2     N 7860   4.671   1.978   0.457  0.0586 -0.0369  0.0157
  529MPD2    H5 7861   0.024   2.034   0.421 -0.6098  0.9732  0.1728
  529MPD2    N1 7862   4.491   1.728   0.832 -0.4377 -0.2172  0.4916
  529MPD2    H7 7863   4.402   1.774   0.815 -0.0940  0.3994  0.3557
  530TMC3    C1 7864   4.357   1.639   0.993 -0.0048 -0.1499 -0.2516
  530TMC3    C2 7865   4.354   1.576   1.118 -0.0757 -0.0447  0.1989
  530TMC3    C3 7866   4.232   1.533   1.170 -0.5882  0.1706  0.2760
  530TMC3    C4 7867   4.240   1.646   0.926  0.2135 -0.5154  0.4738
  530TMC3    C5 7868   4.126   1.598   0.979  0.0211  0.5011 -0.5038
  530TMC3    C6 7869   4.119   1.530   1.096 -0.1390 -0.0847 -0.3493
  530TMC3     C 7870   4.486   1.635   0.932  0.4995  0.1182 -0.1616
  530TMC3     O 7871   4.585   1.581   0.989  0.5579  0.2046 -0.1817
  530TMC3     H 7872   4.446   1.554   1.171 -0.5497 -3.5014 -0.4019
  530TMC3    H1 7873   4.242   1.674   0.821  1.4751 -1.6752  0.1770
  530TMC3    H2 7874   4.024   1.504   1.142 -0.0095  1.2151  0.6672
  530TMC3    C7 7875   4.012   1.610   0.892  0.7873 -0.0826  0.0478
  530TMC3    C8 7876   4.227   1.462   1.295 -0.0738 -0.0266 -0.4568
  530TMC3    O1 7877   3.999   1.699   0.805 -0.5026  0.4460 -0.3456
  530TMC3    O2 7878   4.121   1.469   1.356 -0.0669  0.1112  0.5120
  531MPD2     C 7879   3.319   4.204  12.503  0.2678 -0.2491  0.0397
  531MPD2    C1 7880   3.260   4.270  12.606 -0.7232  0.1070  1.0006
  531MPD2    C2 7881   3.123   4.289  12.602 -0.9435 -0.3007 -0.0793
  531MPD2    C3 7882   3.046   4.227  12.508 -0.0305  0.4907  0.4134
  531MPD2    C4 7883   3.101   4.156  12.412  0.1126  0.4673 -0.5393
  531MPD2    C5 7884   3.237   4.151  12.408  0.2430 -0.6450 -0.0478
  531MPD2     H 7885   3.072   4.349  12.677  2.4854 -0.7223  2.5785
  531MPD2    H1 7886   3.044   4.105  12.335 -0.0334  0.7212 -0.6017
  531MPD2    H2 7887   3.427   4.198  12.497  0.1746  0.1666 -2.2166
  531MPD2    H3 7888   3.279   4.088  12.331 -0.2395 -1.2673  0.1954
  531MPD2     N 7889   2.903   4.235  12.526  0.7021  0.3729  0.0006
  531MPD2    H5 7890   2.866   4.292  12.602 -0.5265  1.7662 -1.6579
  531MPD2    N1 7891   3.342   4.326  12.705 -0.5636  0.1848  0.2372
  531MPD2    H7 7892   3.443   4.317  12.695 -0.6576 -0.3660 -0.2221
  532TMC3    C1 7893   3.397   4.490  12.871  0.3138  0.0694 -0.0499
  532TMC3    C2 7894   3.337   4.596  12.941  0.2722 -0.2965 -0.6001
  532TMC3    C3 7895   3.334   4.599  13.079 -0.3710 -0.4008 -0.4853
  532TMC3    C4 7896   3.469   4.399  12.946 -0.8096 -0.1334 -0.1007
  532TMC3    C5 7897   3.452   4.399  13.085  0.7140  0.2631 -0.6842
  532TMC3    C6 7898   3.392   4.505  13.151  0.4363 -0.1508  0.0236
  532TMC3     C 7899   3.297   4.424  12.795 -0.1703 -0.0787  0.4023
  532TMC3     O 7900   3.186   4.453  12.837  0.6772 -0.1869  0.3688
  532TMC3     H 7901   3.279   4.671  12.890  2.1552  0.7335 -1.2302
  532TMC3    H1 7902   3.507   4.318  12.884  1.2556 -0.0949  1.1105
  532TMC3    H2 7903   3.392   4.513  13.259 -1.5400 -0.4486  0.0378
  532TMC3    C7 7904   3.536   4.308  13.166 -0.0121  0.0067 -0.9933
  532TMC3    C8 7905   3.216   4.649  13.135  0.7926  0.4580 -0.3916
  532TMC3    O1 7906   3.569   4.338  13.281  0.5022 -0.4566 -0.0083
  532TMC3    O2 7907   3.215   0.008  13.224 -0.4039 -0.1154  0.0769
  533TMC3    C1 7908   3.574   0.851  14.602 -0.3296 -0.0154  0.3832
  533TMC3    C2 7909   3.714   0.859  14.589 -0.2968 -0.3841 -0.1346
  533TMC3    C3 7910   3.783   0.931  14.690 -0.7709  0.5127 -0.7634
  533TMC3    C4 7911   3.511   0.906  14.708 -0.3767 -0.1841 -0.1265
  533TMC3    C5 7912   3.579   0.975  14.805  0.3461 -0.1033  0.9093
  533TMC3    C6 7913   3.718   0.984  14.802 -0.0629 -0.8558  0.4416
  533TMC3     C 7914   3.538   0.715  14.592  0.2451 -0.3704 -0.2057
  533TMC3     O 7915   3.630   0.635  14.614 -0.9426 -0.1430  0.3345
  533TMC3     H 7916   3.757   0.818  14.499 -1.2025 -2.4133  0.3500
  533TMC3    H1 7917   3.407   0.884  14.726  0.7894 -2.0819  4.2299
  533TMC3    H2 7918   3.774   1.028  14.883 -1.1392  0.8390  0.2610
  533TMC3    C7 7919   3.516   0.957  14.937 -0.7066 -0.2833 -0.2026
  533TMC3    C8 7920   3.902   1.007  14.668 -0.1853  0.1811 -0.0908
  533TMC3    O1 7921   3.446   0.856  14.951  0.1170  0.8906 -0.2087
  533TMC3    O2 7922   3.945   1.078  14.758 -1.2705  0.0245  0.4087
  534MPD2     C 7923   1.132   2.473   1.946 -0.3601 -0.7883  0.2322
  534MPD2    C1 7924   1.130   2.435   1.810 -0.1124  0.0225  0.4763
  534MPD2    C2 7925   1.146   2.298   1.776  0.2191  0.6823  0.2439
  534MPD2    C3 7926   1.153   2.210   1.882  0.4204  0.0596  0.4888
  534MPD2    C4 7927   1.152   2.249   2.011 -0.1111 -0.0650  0.1184
  534MPD2    C5 7928   1.152   2.379   2.041 -0.1804 -0.4760  0.2949
  534MPD2     H 7929   1.153   2.274   1.670 -0.4324 -1.1178  0.6055
  534MPD2    H1 7930   1.163   2.176   2.090  1.9094  0.8330  0.6627
  534MPD2    H2 7931   1.131   2.577   1.976  2.0172 -0.7346  0.0892
  534MPD2    H3 7932   1.156   2.415   2.143  0.3892  1.5234 -0.4324
  534MPD2     N 7933   1.161   2.068   1.856  0.1354  0.4273 -0.3105
  534MPD2    H5 7934   1.164   2.003   1.934 -1.6691 -0.9311 -1.3575
  534MPD2    N1 7935   1.114   2.520   1.700 -0.1362 -0.0183 -0.4485
  534MPD2    H7 7936   1.132   2.498   1.603 -4.2335 -1.0021 -1.0051
  535TMC3    C1 7937   1.191   1.862   1.744  0.6042  0.3245  0.1820
  535TMC3    C2 7938   1.071   1.806   1.788  0.2117  0.1937 -0.6515
  535TMC3    C3 7939   1.027   1.698   1.718  0.2024  0.2874 -0.1564
  535TMC3    C4 7940   1.259   1.811   1.638 -0.1815 -0.0419 -0.5818
  535TMC3    C5 7941   1.198   1.717   1.565  0.1134  0.1829 -1.1000
  535TMC3    C6 7942   1.088   1.651   1.606  0.2166 -0.4192 -0.2737
  535TMC3     C 7943   1.182   2.005   1.736  0.3398 -0.6307  0.4000
  535TMC3     O 7944   1.211   2.053   1.631  0.4302  0.0264 -0.2640
  535TMC3     H 7945   1.015   1.859   1.864 -0.6049  1.4869 -2.1465
  535TMC3    H1 7946   1.346   1.862   1.596  0.2314  0.0450  0.3863
  535TMC3    H2 7947   1.035   1.582   1.540 -0.7967  0.1849 -0.0866
  535TMC3    C7 7948   1.194   1.757   1.426 -0.2285  0.7507  0.3923
  535TMC3    C8 7949   0.896   1.644   1.746 -0.0104  0.4107 -0.0014
  535TMC3    O1 7950   1.185   1.667   1.343 -0.1344 -0.1291  0.2544
  535TMC3    O2 7951   0.844   1.577   1.660 -0.1483  0.2262  0.1017
  536MPD2     C 7952   4.321   0.287  16.287  0.6112  0.3609  0.5668
  536MPD2    C1 7953   4.463   0.289  16.264  0.0141  0.1620  0.3041
  536MPD2    C2 7954   4.507   0.341  16.142 -0.2071  0.0271  1.6052
  536MPD2    C3 7955   4.416   0.397  16.056 -0.1004  0.1698 -0.2495
  536MPD2    C4 7956   4.279   0.376  16.075 -0.4503 -0.1468 -0.5586
  536MPD2    C5 7957   4.228   0.321  16.193  0.0604 -0.3113  0.5716
  536MPD2     H 7958   4.608   0.331  16.105 -0.5226 -2.3284  1.4049
  536MPD2    H1 7959   4.212   0.413  15.998  0.3150  2.5677  0.0738
  536MPD2    H2 7960   4.273   0.251  16.378 -1.4152  0.5084 -0.4304
  536MPD2    H3 7961   4.122   0.310  16.212  0.3169 -0.1382  2.1013
  536MPD2     N 7962   4.448   0.458  15.936  0.0297 -0.0960 -0.0046
  536MPD2    H5 7963   4.373   0.483  15.872 -2.1096 -1.9854  1.7866
  536MPD2    N1 7964   4.555   0.228  16.356 -0.3462  0.1464  0.0120
  536MPD2    H7 7965   4.514   0.186  16.439  0.4468 -1.1777 -0.2716
  537TMC3    C1 7966   0.037   0.151  16.437  0.1733 -0.4293  0.0412
  537TMC3    C2 7967   0.169   0.189  16.449 -0.0742 -0.3909  0.0233
  537TMC3    C3 7968   0.238   0.141  16.559 -0.1201 -0.4652 -0.1526
  537TMC3    C4 7969   4.708   0.059  16.515  0.4270 -0.2700 -0.8714
  537TMC3    C5 7970   0.064   0.002  16.612 -0.1826  1.0643 -0.1351
  537TMC3    C6 7971   0.189   0.047  16.648 -0.0292  0.5270 -0.1238
  537TMC3     C 7972   4.691   0.233  16.341 -0.0911  0.2771 -0.5776
  537TMC3     O 7973   0.031   0.309  16.269 -0.1239  0.4456  0.1612
  537TMC3     H 7974   0.208   0.265  16.383 -2.3824 -1.3162 -2.3608
  537TMC3    H1 7975   4.600   0.051  16.525  0.3759 -1.4645 -2.4602
  537TMC3    H2 7976   0.257   0.021  16.729 -1.4598 -0.2225  0.8515
  537TMC3    C7 7977   0.000   4.620  16.682  0.1497 -0.1108  0.2711
  537TMC3    C8 7978   0.361   0.202  16.598 -0.1783  0.3127 -0.1172
  537TMC3    O1 7979   4.620   4.578  16.631  0.1468  0.1019 -0.4154
  537TMC3    O2 7980   0.395   0.170  16.709  0.1273 -0.4026 -0.0378
  538TMC3    C1 7981   1.701   3.810  11.180 -0.0577 -0.1762  0.7473
  538TMC3    C2 7982   1.707   3.681  11.141  0.0896  0.2650 -0.3154
  538TMC3    C3 7983   1.637   3.644  11.030 -0.7954  0.6911 -0.2011
  538TMC3    C4 7984   1.626   3.904  11.123  0.3457 -0.2286 -0.4964
  538TMC3    C5 7985   1.559   3.859  11.011  0.0001 -0.1519 -0.0371
  538TMC3    C6 7986   1.560   3.730  10.959 -0.4646 -0.5140 -0.0689
  538TMC3     C 7987   1.801   3.859  11.270  0.0270 -0.3038  0.5947
  538TMC3     O 7988   1.892   3.918  11.215 -0.3003 -0.4626  0.1722
  538TMC3     H 7989   1.781   3.618  11.189  0.3018  0.9420  0.2434
  538TMC3    H1 7990   1.612   4.002  11.166 -2.6694  0.4664 -3.0876
  538TMC3    H2 7991   1.496   3.692  10.880 -0.7191 -1.3482  0.5370
  538TMC3    C7 7992   1.441   3.928  10.959 -0.5426 -0.3052 -0.8409
  538TMC3    C8 7993   1.711   3.550  10.951 -0.0455 -0.1562  0.0333
  538TMC3    O1 7994   1.364   3.865  10.889 -0.2296 -0.1756  0.3564
  538TMC3    O2 7995   1.714   3.589  10.834  0.6855  0.0090  0.1536
  539MPD2     C 7996   1.509   3.201  12.272  0.2496 -0.3347  0.2394
  539MPD2    C1 7997   1.445   3.244  12.156  0.4096 -0.6968  0.4242
  539MPD2    C2 7998   1.414   3.379  12.144 -0.1124 -0.0455 -0.3844
  539MPD2    C3 7999   1.420   3.467  12.249  0.6371 -0.3807  0.1243
  539MPD2    C4 8000   1.472   3.422  12.367  0.2636 -0.2678 -0.4304
  539MPD2    C5 8001   1.516   3.287  12.376  0.4668  0.1494  0.0995
  539MPD2     H 8002   1.378   3.414  12.048  1.0741  1.0818 -0.4133
  539MPD2    H1 8003   1.469   3.481  12.458  0.0710 -0.7950 -0.0954
  539MPD2    H2 8004   1.541   3.098  12.284  3.3266  0.6903  0.9225
  539MPD2    H3 8005   1.552   3.245  12.468  0.5145 -0.3961 -0.1697
  539MPD2     N 8006   1.382   3.600  12.227  0.1996 -0.1269 -0.5823
  539MPD2    H5 8007   1.373   3.665  12.305  1.9195 -0.9464  0.3190
  539MPD2    N1 8008   1.412   3.155  12.048  0.3475  0.2379 -0.3843
  539MPD2    H7 8009   1.358   3.191  11.970 -2.5178 -1.1576  0.9530
  540TMC3    C1 8010   1.286   3.787  12.134 -0.4497  0.1520 -0.4574
  540TMC3    C2 8011   1.298   3.871  12.026  0.5475 -0.3961  0.6741
  540TMC3    C3 8012   1.188   3.927  11.974 -0.7394  0.7375  0.2465
  540TMC3    C4 8013   1.164   3.757  12.184 -0.8206  0.4703 -0.0731
  540TMC3    C5 8014   1.049   3.815  12.122  0.2368  0.5347 -0.2748
  540TMC3    C6 8015   1.065   3.898  12.013 -0.4245 -0.1911  0.8278
  540TMC3     C 8016   1.372   3.668  12.113  0.3943 -0.6177 -0.3223
  540TMC3     O 8017   1.421   3.643  12.002 -0.3521  0.0085  0.4891
  540TMC3     H 8018   1.383   3.868  11.958 -1.0478 -0.7947 -1.2997
  540TMC3    H1 8019   1.162   3.677  12.257  0.0322  0.5438  0.0273
  540TMC3    H2 8020   0.983   3.941  11.956 -0.6829 -0.0590  1.2976
  540TMC3    C7 8021   0.913   3.767  12.161  0.2102 -0.3384  0.3445
  540TMC3    C8 8022   1.216   3.983  11.837  0.4215  0.7939 -0.1465
  540TMC3    O1 8023   0.819   3.784  12.083  0.2950  0.3271 -0.7566
  540TMC3    O2 8024   1.322   4.040  11.813  0.8438 -0.3644  0.5401
  541MPD2     C 8025   4.207   4.681  13.240  0.3823  0.2574 -0.5588
  541MPD2    C1 8026   4.282   4.630  13.141 -0.6160  0.3870 -0.0369
  541MPD2    C2 8027   4.333   4.720  13.051 -0.2620  0.0446 -0.7416
  541MPD2    C3 8028   4.315   0.132  13.056 -0.5033 -0.3920  0.1227
  541MPD2    C4 8029   4.245   0.181  13.164 -0.3088  0.7190 -0.0841
  541MPD2    C5 8030   4.198   0.093  13.261 -0.1170 -0.1713 -0.4330
  541MPD2     H 8031   4.384   4.687  12.960 -1.3583 -0.9614 -0.9956
  541MPD2    H1 8032   4.226   0.288  13.175  1.0169  1.2413 -2.9173
  541MPD2    H2 8033   4.165   4.612  13.313  0.0436  0.5129 -0.5126
  541MPD2    H3 8034   4.159   0.144  13.348  1.4947  0.6820 -0.2033
  541MPD2     N 8035   4.374   0.221  12.963 -0.1712 -0.6095  0.1059
  541MPD2    H5 8036   4.343   0.318  12.969 -2.0588 -1.3210  1.9725
  541MPD2    N1 8037   4.308   4.489  13.144 -0.6622 -0.9044  0.2193
  541MPD2    H7 8038   4.255   4.432  13.209  2.4485 -3.5001  0.4939
  542TMC3    C1 8039   4.520   0.297  12.785  0.1099 -0.1538  0.2558
  542TMC3    C2 8040   4.592   0.264  12.671  1.2090 -0.0768  0.3862
  542TMC3    C3 8041   4.607   0.366  12.579  0.5838 -0.2373  0.2320
  542TMC3    C4 8042   4.467   0.420  12.799 -0.5026 -0.2129 -0.4669
  542TMC3    C5 8043   4.500   0.518  12.716 -0.6821 -0.3305 -0.5537
  542TMC3    C6 8044   4.565   0.495  12.602  0.0954 -0.4352  0.2274
  542TMC3     C 8045   4.475   0.194  12.874  0.4159  0.4232  1.1332
  542TMC3     O 8046   4.554   0.101  12.862 -0.6276 -0.3119  0.3037
  542TMC3     H 8047   4.602   0.159  12.646  0.8141  0.0777 -0.4326
  542TMC3    H1 8048   4.434   0.450  12.898 -2.2562 -0.7682 -0.8883
  542TMC3    H2 8049   4.593   0.568  12.527 -1.8498 -2.8933 -2.9538
  542TMC3    C7 8050   4.433   0.643  12.733  0.5422 -0.2284 -0.0301
  542TMC3    C8 8051   4.657   0.337  12.447  0.3049  0.1505 -0.4296
  542TMC3    O1 8052   4.332   0.650  12.798 -0.5256 -0.3257 -0.0201
  542TMC3    O2 8053   4.668   0.423  12.362 -0.1121 -0.1222 -0.3838
  543TMC3    C1 8054   3.661   0.642  16.994  0.8528 -0.0674 -0.1512
  543TMC3    C2 8055   3.728   0.527  17.019  0.0565  0.5459 -0.3259
  543TMC3    C3 8056   3.679   0.444  17.119  0.3344  0.0868  0.5566
  543TMC3    C4 8057   3.547   0.675  17.063 -0.3559  0.0632  0.5569
  543TMC3    C5 8058   3.503   0.591  17.164  0.4386  0.1374 -0.9269
  543TMC3    C6 8059   3.569   0.476  17.192 -0.4212  0.0650 -0.0608
  543TMC3     C 8060   3.724   0.719  16.884  0.1350  0.2407 -0.1891
  543TMC3     O 8061   3.848   0.718  16.880  0.7415  0.3050  0.4851
  543TMC3     H 8062   3.804   0.496  16.947 -0.6226 -1.7326 -0.0521
  543TMC3    H1 8063   3.492   0.765  17.035  2.2288  1.3735 -0.2404
  543TMC3    H2 8064   3.535   0.421  17.278 -2.3077 -1.4411 -1.7684
  543TMC3    C7 8065   3.415   0.647  17.265 -0.1550  0.3459 -0.1714
  543TMC3    C8 8066   3.726   0.306  17.118  0.3579  0.2792  0.3461
  543TMC3    O1 8067   3.355   0.577  17.348 -0.1356  0.1846 -1.0637
  543TMC3    O2 8068   3.793   0.276  17.021  0.7389  0.1588  0.3005
  544MPD2     C 8069   3.665   4.534  17.215 -0.6598  0.0643 -0.3522
  544MPD2    C1 8070   3.724   4.602  17.111  0.1057  0.7859  0.2242
  544MPD2    C2 8071   3.736   0.013  17.105  0.2674 -0.4956  0.3849
  544MPD2    C3 8072   3.682   0.086  17.216  0.1457  0.7425 -0.5508
  544MPD2    C4 8073   3.632   0.022  17.325 -0.3469  0.2426 -0.6125
  544MPD2    C5 8074   3.621   4.608  17.320  0.1825  0.1006  0.2277
  544MPD2     H 8075   3.768   0.062  17.014 -0.1531  0.4690  0.7603
  544MPD2    H1 8076   3.594   0.078  17.409  1.2187  0.3772  0.0168
  544MPD2    H2 8077   3.665   4.427  17.225  3.4031  0.1448  0.4091
  544MPD2    H3 8078   3.577   4.558  17.406 -1.3356  1.9152  0.5069
  544MPD2     N 8079   3.670   0.227  17.218 -0.8908 -0.0591 -0.6673
  544MPD2    H5 8080   3.630   0.278  17.296  3.4367  0.7121  1.0401
  544MPD2    N1 8081   3.778   4.514  17.019 -0.3816  0.4354  0.2187
  544MPD2    H7 8082   3.754   4.417  17.041  0.9282  0.5718  2.2305
  545TMC3    C1 8083   3.928   4.427  16.861 -0.4003  0.2956  0.2512
  545TMC3    C2 8084   4.006   4.448  16.751 -0.0237 -0.2166  0.4235
  545TMC3    C3 8085   4.042   4.337  16.680 -0.4585  0.1983 -0.1411
  545TMC3    C4 8086   3.895   4.307  16.905 -0.5365 -0.1645 -0.2489
  545TMC3    C5 8087   3.943   4.200  16.834  0.2160  0.2714  0.1133
  545TMC3    C6 8088   4.013   4.208  16.717  0.1891  0.1547 -0.2480
  545TMC3     C 8089   3.867   4.542  16.922 -0.0324 -0.0886  0.0316
  545TMC3     O 8090   3.910   4.654  16.883  0.2036  0.2124 -0.6583
  545TMC3     H 8091   4.037   4.548  16.724  1.3050 -0.9334 -0.7071
  545TMC3    H1 8092   3.854   4.290  17.004  0.1913  0.6575  0.1990
  545TMC3    H2 8093   4.052   4.116  16.674 -0.3111  1.2377 -3.0183
  545TMC3    C7 8094   3.965   4.077  16.905  0.0890  0.5057 -0.4257
  545TMC3    C8 8095   4.124   4.344  16.565 -0.1702  0.1242 -0.5025
  545TMC3    O1 8096   3.966   3.977  16.836  0.7054  0.1459  0.9897
  545TMC3    O2 8097   4.143   4.236  16.510  0.0915  0.3132  0.2928
  546MPD2     C 8098   0.416   1.037  16.967  0.0408 -0.2402 -0.2196
  546MPD2    C1 8099   0.307   1.063  17.048  0.1554 -0.1464 -0.2226
  546MPD2    C2 8100   0.296   1.188  17.095  0.4603 -0.6191  0.3059
  546MPD2    C3 8101   0.397   1.283  17.063  0.7322 -0.4838 -0.4556
  546MPD2    C4 8102   0.506   1.252  16.981  0.2249 -0.2663 -0.3116
  546MPD2    C5 8103   0.517   1.127  16.932  0.3191  0.3031  0.1209
  546MPD2     H 8104   0.219   1.208  17.168  1.8461  0.1082  1.5621
  546MPD2    H1 8105   0.584   1.326  16.964  1.0976 -0.5835  2.3384
  546MPD2    H2 8106   0.434   0.936  16.933 -3.1499 -0.2029 -2.0718
  546MPD2    H3 8107   0.607   1.111  16.874  0.5661 -2.3290  1.2175
  546MPD2     N 8108   0.394   1.411  17.121  0.2437 -0.0295  0.4432
  546MPD2    H5 8109   0.479   1.466  17.114 -0.4493  1.0783  0.7245
  546MPD2    N1 8110   0.212   0.961  17.074 -0.2682  0.2266 -0.0520
  546MPD2    H7 8111   0.239   0.873  17.032 -0.5913  0.3595 -0.5408
  547TMC3    C1 8112   0.020   0.854  17.149 -0.0483  0.4433  0.0246
  547TMC3    C2 8113   0.002   0.770  17.043  0.5103  0.5458 -0.5491
  547TMC3    C3 8114   4.632   0.666  17.041  0.0693  0.4577 -0.5587
  547TMC3    C4 8115   4.660   0.833  17.259  0.3036 -0.5241 -1.0520
  547TMC3    C5 8116   4.563   0.738  17.250 -1.0066  0.2411 -0.4261
  547TMC3    C6 8117   4.543   0.651  17.148 -0.6058 -0.8097  0.0460
  547TMC3     C 8118   0.092   0.973  17.143 -0.1133 -0.3675 -0.4971
  547TMC3     O 8119   0.034   1.067  17.192 -0.1771 -0.7592 -0.1021
  547TMC3     H 8120   0.045   0.804  16.950  1.0547 -0.3092 -0.6082
  547TMC3    H1 8121   4.666   0.882  17.355  1.2522 -0.6504 -1.0411
  547TMC3    H2 8122   4.454   0.592  17.130 -1.1651 -0.2520  1.0163
  547TMC3    C7 8123   4.490   0.700  17.373 -0.0512 -0.1770 -0.0663
  547TMC3    C8 8124   4.581   0.631  16.909  1.0905 -0.3603 -0.5232
  547TMC3    O1 8125   4.500   0.770  17.472 -0.2591  0.2564  0.4871
  547TMC3    O2 8126   4.459   0.649  16.895  0.2426  1.0791  0.2782
  548MPD2     C 8127   0.472   2.027  12.552  0.4570  0.5308  0.1178
  548MPD2    C1 8128   0.408   1.937  12.633  0.4700 -0.2793  0.1287
  548MPD2    C2 8129   0.468   1.811  12.650 -0.4303 -0.5240  0.5005
  548MPD2    C3 8130   0.586   1.780  12.592  0.1533 -0.2855 -0.4574
  548MPD2    C4 8131   0.641   1.862  12.497 -1.0866  0.5145 -0.1299
  548MPD2    C5 8132   0.578   1.987  12.478 -0.3260  0.2798  0.0252
  548MPD2     H 8133   0.413   1.738  12.708  1.2834 -1.1926  1.2744
  548MPD2    H1 8134   0.730   1.841  12.440 -0.6079  0.0897  0.7727
  548MPD2    H2 8135   0.425   2.124  12.537  1.1465  0.9645  0.7752
  548MPD2    H3 8136   0.628   2.067  12.425 -0.0854  0.1710  0.0897
  548MPD2     N 8137   0.624   1.647  12.613 -0.0789 -0.5351  0.1458
  548MPD2    H5 8138   0.566   1.592  12.676 -0.3232  0.0742  0.4500
  548MPD2    N1 8139   0.296   1.982  12.709  0.6228 -0.1836 -0.8941
  548MPD2    H7 8140   0.266   2.077  12.686  0.4222  0.1219  0.6359
  549TMC3    C1 8141   0.098   1.929  12.829 -0.4033  0.6428 -0.1001
  549TMC3    C2 8142   0.030   1.982  12.722  0.3252  0.7861  0.4967
  549TMC3    C3 8143   4.624   1.948  12.690 -0.0542 -0.4894  0.0981
  549TMC3    C4 8144   0.037   1.829  12.902  0.8206  0.3915 -0.0120
  549TMC3    C5 8145   4.631   1.788  12.867 -0.8528  0.2719 -0.0432
  549TMC3    C6 8146   4.560   1.857  12.772 -1.0569 -0.0553  0.8194
  549TMC3     C 8147   0.241   1.906  12.809  0.4267 -0.1730  0.0903
  549TMC3     O 8148   0.283   1.804  12.864  0.1536 -0.0175 -0.1011
  549TMC3     H 8149   0.085   2.056  12.664  2.7120 -0.2912  1.3718
  549TMC3    H1 8150   0.094   1.793  12.986 -1.3288  1.4161  1.8796
  549TMC3    H2 8151   4.458   1.833  12.747 -1.5174  1.9005  0.8373
  549TMC3    C7 8152   4.609   1.648  12.883 -0.0769  0.5815  0.1733
  549TMC3    C8 8153   4.556   2.008  12.573 -0.1012  0.3511  0.0449
  549TMC3    O1 8154   4.701   1.569  12.856  0.4925 -0.4357 -0.3017
  549TMC3    O2 8155   4.466   1.939  12.525  0.2517 -0.3477  0.2328
  550TMC3    C1 8156   3.811   0.300  12.064 -0.0572  0.4292  0.1994
  550TMC3    C2 8157   3.775   0.275  12.197  0.0508 -0.0928 -0.4258
  550TMC3    C3 8158   3.637   0.248  12.220  0.2294  0.1389 -0.6591
  550TMC3    C4 8159   3.716   0.283  11.958  0.8228  0.0380 -0.7346
  550TMC3    C5 8160   3.589   0.248  11.991  0.2921  0.6491 -0.3534
  550TMC3    C6 8161   3.549   0.227  12.122  0.5529  0.6396  0.1010
  550TMC3     C 8162   3.943   0.258  12.012 -0.0675 -0.2839  0.0286
  550TMC3     O 8163   3.945   0.268  11.888 -0.1052  0.0398  0.1519
  550TMC3     H 8164   3.848   0.284  12.277  1.3639 -2.9949 -1.2696
  550TMC3    H1 8165   3.747   0.297  11.855 -0.0447 -2.4118 -1.3413
  550TMC3    H2 8166   3.446   0.201  12.143  0.1634  0.4873 -1.9512
  550TMC3    C7 8167   3.503   0.198  11.885 -0.2034  0.1355  0.6925
  550TMC3    C8 8168   3.592   0.219  12.353 -0.4599  0.8805  0.1427
  550TMC3    O1 8169   3.387   0.192  11.917  0.3376  0.4028 -0.2578
  550TMC3    O2 8170   3.495   0.150  12.369 -0.1061 -0.2059 -0.0073
  551TMC3    C1 8171   1.058   2.177  13.582 -0.6926  0.0323 -0.1056
  551TMC3    C2 8172   1.160   2.164  13.498 -0.1026  0.2199 -0.7986
  551TMC3    C3 8173   1.282   2.208  13.545 -0.0911 -0.0641 -0.1193
  551TMC3    C4 8174   1.062   2.211  13.712  0.4752  0.7109 -0.7803
  551TMC3    C5 8175   1.185   2.268  13.757  0.8511 -0.5537  0.1794
  551TMC3    C6 8176   1.302   2.259  13.673 -0.0506  0.5959  0.1995
  551TMC3     C 8177   0.944   2.100  13.535 -0.2325  0.1428 -0.3815
  551TMC3     O 8178   0.976   2.000  13.470  0.2767  0.5959  0.0067
  551TMC3     H 8179   1.141   2.136  13.395 -1.2687  0.2451 -0.5951
  551TMC3    H1 8180   0.973   2.205  13.773  0.0968 -0.3265 -1.4514
  551TMC3    H2 8181   1.401   2.298  13.692  0.3865 -0.6458  0.5015
  551TMC3    C7 8182   1.205   2.333  13.887  0.3881 -0.4676  0.2504
  551TMC3    C8 8183   1.394   2.203  13.455  0.1745  0.1357 -0.7469
  551TMC3    O1 8184   1.315   2.376  13.921  0.4617  0.5161 -0.3619
  551TMC3    O2 8185   1.411   2.101  13.391 -0.7407 -0.0615 -0.8009
  552MPD2     C 8186   2.846   4.429  13.520  0.2340  0.5261 -0.2232
  552MPD2    C1 8187   2.872   4.300  13.545 -0.2095 -0.1739 -0.2623
  552MPD2    C2 8188   2.940   4.266  13.656  0.0563 -1.2753  0.5746
  552MPD2    C3 8189   2.992   4.361  13.738 -0.6700  0.1883 -0.4505
  552MPD2    C4 8190   2.982   4.497  13.699  0.0044 -0.0276  0.0329
  552MPD2    C5 8191   2.903   4.526  13.592 -0.2664 -0.1896 -0.2280
  552MPD2     H 8192   2.960   4.161  13.672  2.6658 -1.0227 -1.1622
  552MPD2    H1 8193   3.015   4.575  13.766 -0.6039 -0.1125  0.4214
  552MPD2    H2 8194   2.788   4.471  13.439 -2.2913 -1.4665  0.5365
  552MPD2    H3 8195   2.885   4.630  13.571  1.0069 -0.2595 -1.6387
  552MPD2     N 8196   3.072   4.333  13.853  0.3095 -0.4510 -0.0178
  552MPD2    H5 8197   3.141   4.396  13.892 -0.0731  0.1590 -0.3211
  552MPD2    N1 8198   2.810   4.183  13.486  0.1897  0.5744  0.1700
  552MPD2    H7 8199   2.821   4.092  13.528 -1.1600 -0.4989 -1.8169
  553TMC3    C1 8200   2.764   4.051  13.306 -0.6876  0.2879 -0.2706
  553TMC3    C2 8201   2.826   4.041  13.186 -0.1136  0.5768 -0.1111
  553TMC3    C3 8202   2.894   3.922  13.157  0.3116  0.8031 -0.0390
  553TMC3    C4 8203   2.768   3.946  13.400  0.6488  0.2288 -0.1276
  553TMC3    C5 8204   2.849   3.836  13.375  0.2839 -0.3087 -0.0906
  553TMC3    C6 8205   2.906   3.811  13.250  0.5848 -0.0505  0.1637
  553TMC3     C 8206   2.745   4.180  13.364 -0.0555 -0.1198  0.5680
  553TMC3     O 8207   2.718   4.278  13.291 -0.2847 -0.0233  0.3587
  553TMC3     H 8208   2.795   4.115  13.113  1.4319  1.3400  0.0225
  553TMC3    H1 8209   2.707   3.954  13.489 -0.0557 -1.3516 -0.4612
  553TMC3    H2 8210   2.965   3.727  13.216  1.6684 -0.0035  1.9325
  553TMC3    C7 8211   2.859   3.728  13.474 -0.0540  0.3447  0.4998
  553TMC3    C8 8212   2.918   3.892  13.018 -0.1117 -0.0959 -0.2753
  553TMC3    O1 8213   2.784   3.721  13.569 -0.0557  0.0277 -0.2168
  553TMC3    O2 8214   2.870   3.979  12.945 -0.1538  0.6761 -0.2377
  554TMC3    C1 8215   0.138   3.087  11.770  0.8347  0.3351 -0.2359
  554TMC3    C2 8216   0.067   3.035  11.668 -0.1475  0.3163  0.6671
  554TMC3    C3 8217   0.129   3.048  11.551 -0.0833 -0.3060 -0.0912
  554TMC3    C4 8218   0.252   3.161  11.761 -0.1382 -0.1465 -0.4763
  554TMC3    C5 8219   0.312   3.171  11.637  0.3736  0.3369 -0.4329
  554TMC3    C6 8220   0.248   3.110  11.539 -0.3661 -0.8047  0.0106
  554TMC3     C 8221   0.097   3.041  11.903 -0.7901  0.5934 -0.7709
  554TMC3     O 8222   4.711   2.981  11.905 -0.4805 -0.5306 -0.1796
  554TMC3     H 8223   4.701   2.976  11.676  0.3423 -0.6675 -1.1420
  554TMC3    H1 8224   0.305   3.206  11.844  0.3284  1.5125 -1.6650
  554TMC3    H2 8225   0.293   3.113  11.441  0.5204 -1.0567  0.4045
  554TMC3    C7 8226   0.397   3.285  11.596 -0.5723  0.1480 -0.2029
  554TMC3    C8 8227   0.060   3.049  11.425 -0.4218  0.6274 -0.3715
  554TMC3    O1 8228   0.413   3.306  11.477 -0.3058  0.0466  0.6665
  554TMC3    O2 8229   0.120   3.049  11.315 -0.4051 -0.5690  0.1014
  555TMC3    C1 8230   4.004   2.499  15.693  0.2306  0.4012 -0.2658
  555TMC3    C2 8231   4.092   2.552  15.780 -0.2584 -0.6010 -0.2644
  555TMC3    C3 8232   4.133   2.475  15.885  0.2890  0.0892 -0.8351
  555TMC3    C4 8233   3.952   2.374  15.708 -0.6106 -0.4517 -0.1736
  555TMC3    C5 8234   3.997   2.301  15.816 -0.8091  0.4543  0.5757
  555TMC3    C6 8235   4.086   2.351  15.910 -0.1570 -0.1658  0.4503
  555TMC3     C 8236   4.006   2.587  15.574 -0.2582  0.2897 -0.4945
  555TMC3     O 8237   4.089   2.675  15.562  0.1586 -0.0748 -0.0645
  555TMC3     H 8238   4.098   2.660  15.790 -2.0481 -0.3930 -1.4729
  555TMC3    H1 8239   3.896   2.327  15.628  0.2290  0.0881 -1.0606
  555TMC3    H2 8240   4.113   2.287  15.994  1.7049 -1.3353 -1.0433
  555TMC3    C7 8241   4.004   2.162  15.789 -0.3952  0.1119  0.0489
  555TMC3    C8 8242   4.209   2.554  15.982 -0.2398 -0.1267  0.2180
  555TMC3    O1 8243   3.913   2.109  15.715  0.3778 -0.4628  0.6585
  555TMC3    O2 8244   4.274   2.652  15.944 -0.1788  0.5193 -0.1879
  556MPD2     C 8245   2.420   4.235  10.603 -0.5618  1.0008  0.1077
  556MPD2    C1 8246   2.359   4.154  10.692 -0.7244 -0.3873  0.4915
  556MPD2    C2 8247   2.340   4.019  10.658 -0.1095  0.5027  0.3085
  556MPD2    C3 8248   2.369   3.963  10.532 -0.6461 -0.3844  0.2972
  556MPD2    C4 8249   2.409   4.055  10.433  0.0804 -0.0794 -0.4043
  556MPD2    C5 8250   2.436   4.187  10.474  0.1623  0.0531  0.2792
  556MPD2     H 8251   2.302   3.967  10.744 -1.5254  1.6153  0.3547
  556MPD2    H1 8252   2.416   4.026  10.329  2.2674 -0.2479 -0.2090
  556MPD2    H2 8253   2.440   4.339  10.627 -1.6555  0.9574  1.1977
  556MPD2    H3 8254   2.459   4.265  10.402 -0.7254  1.3353  1.3945
  556MPD2     N 8255   2.360   3.823  10.513 -0.3984 -0.2999 -0.4645
  556MPD2    H5 8256   2.329   3.769  10.594 -0.1545  0.1976 -0.0381
  556MPD2    N1 8257   2.331   4.197  10.823  0.2269 -0.6015 -0.0604
  556MPD2    H7 8258   2.319   4.126  10.895  0.0789  1.4404  1.8929
  557TMC3    C1 8259   2.328   3.618  10.399 -0.0422 -0.2177  0.4294
  557TMC3    C2 8260   2.410   3.515  10.355 -1.0400  0.1505  0.1961
  557TMC3    C3 8261   2.369   3.386  10.371  0.4880  0.2793 -0.1328
  557TMC3    C4 8262   2.212   3.594  10.467  0.5407  0.4180  0.3117
  557TMC3    C5 8263   2.188   3.461  10.487 -0.0351 -0.8474 -0.4173
  557TMC3    C6 8264   2.258   3.355  10.445  0.5437  0.2701  0.0101
  557TMC3     C 8265   2.383   3.754  10.394 -0.2969 -0.7119 -0.6203
  557TMC3     O 8266   2.436   3.793  10.289 -0.5165 -0.4650 -0.6232
  557TMC3     H 8267   2.488   3.538  10.283 -1.3902 -0.5848 -0.4183
  557TMC3    H1 8268   2.144   3.677  10.483 -0.7391 -0.2961 -1.4398
  557TMC3    H2 8269   2.221   3.255  10.466  2.1969 -0.1580  0.9289
  557TMC3    C7 8270   2.084   3.440  10.592 -0.1779  0.0780 -0.5084
  557TMC3    C8 8271   2.467   3.287  10.336  0.3742 -0.2369  1.0890
  557TMC3    O1 8272   2.017   3.537  10.619 -0.2406 -0.3229 -0.3578
  557TMC3    O2 8273   2.585   3.322  10.327  0.0721  0.2038 -0.0134
  558TMC3    C1 8274   0.003   2.738  10.085 -0.4500 -0.1908 -0.1106
  558TMC3    C2 8275   4.664   2.692  10.191 -0.0318 -0.3554  0.2986
  558TMC3    C3 8276   4.532   2.670  10.189 -0.5514  0.5460 -0.6720
  558TMC3    C4 8277   4.668   2.757   9.964  0.6163  0.6145  0.2502
  558TMC3    C5 8278   4.531   2.737   9.953  0.3809 -0.4469 -0.0519
  558TMC3    C6 8279   4.462   2.689  10.065 -0.6475  0.0767 -0.6145
  558TMC3     C 8280   0.152   2.757  10.084 -0.4168 -0.8145 -0.2215
  558TMC3     O 8281   0.203   2.807  10.184 -0.0298 -0.3792  0.7304
  558TMC3     H 8282   4.719   2.677  10.284 -0.0127  1.9735  0.6664
  558TMC3    H1 8283   4.720   2.799   9.878  0.9442  1.9455  1.0966
  558TMC3    H2 8284   4.355   2.672  10.067 -0.5224 -0.6274  0.2697
  558TMC3    C7 8285   4.474   2.744   9.818  0.0285  0.1051  0.3064
  558TMC3    C8 8286   4.465   2.581  10.278  0.1401  0.5082 -0.5376
  558TMC3    O1 8287   4.533   2.800   9.725  0.4335  0.1166  0.0699
  558TMC3    O2 8288   4.342   2.581  10.285  0.2416  0.1661 -0.3922
  559MPD2     C 8289   0.186   2.917  10.769  0.6078  0.0771 -0.1755
  559MPD2    C1 8290   0.162   2.794  10.819  0.4416 -0.8288  0.1094
  559MPD2    C2 8291   0.267   2.738  10.897 -0.6828 -0.5193 -0.9985
  559MPD2    C3 8292   0.387   2.799  10.911  0.4631  0.0867  0.0548
  559MPD2    C4 8293   0.405   2.924  10.849  0.7147  0.5167  0.2579
  559MPD2    C5 8294   0.304   2.976  10.777 -0.2937 -0.3259  0.5060
  559MPD2     H 8295   0.252   2.647  10.953 -1.0891  0.2804  0.1849
  559MPD2    H1 8296   0.505   2.967  10.845 -0.3448  2.7396 -1.9238
  559MPD2    H2 8297   0.107   2.976  10.724 -0.9917 -1.0514  1.0950
  559MPD2    H3 8298   0.321   3.073  10.733 -3.0988 -0.9827 -2.0532
  559MPD2     N 8299   0.483   2.738  10.994 -0.6072  0.0582 -0.3643
  559MPD2    H5 8300   0.466   2.644  11.025 -0.6468 -0.8593 -3.1838
  559MPD2    N1 8301   0.027   2.742  10.813 -0.2099  1.1317 -0.2663
  559MPD2    H7 8302   4.675   2.800  10.778  0.2730  0.3503 -2.5637
  560TMC3    C1 8303   0.658   2.715  11.141  0.0279  0.0267 -0.4522
  560TMC3    C2 8304   0.639   2.577  11.134 -0.0927  0.0466 -0.0865
  560TMC3    C3 8305   0.710   2.496  11.214  0.6065 -0.4431  0.7609
  560TMC3    C4 8306   0.759   2.766  11.227 -0.0810 -0.3608 -0.0418
  560TMC3    C5 8307   0.837   2.680  11.302  0.4682 -0.1203 -0.2528
  560TMC3    C6 8308   0.820   2.541  11.292 -1.1717  0.6489  0.1616
  560TMC3     C 8309   0.593   2.803  11.049  0.2262 -0.0719  0.0674
  560TMC3     O 8310   0.633   2.917  11.027 -0.0558  0.4034  0.1861
  560TMC3     H 8311   0.553   2.533  11.086 -0.7828  0.0015  1.1808
  560TMC3    H1 8312   0.769   2.874  11.239  1.3349 -0.6713  1.6197
  560TMC3    H2 8313   0.873   2.469  11.353 -0.1558  0.7817 -0.5503
  560TMC3    C7 8314   0.904   2.723  11.420 -0.6896  0.5477 -0.0169
  560TMC3    C8 8315   0.703   2.358  11.179  1.1456 -0.0040  0.3535
  560TMC3    O1 8316   0.903   2.638  11.504 -0.1024 -0.1488 -0.4980
  560TMC3    O2 8317   0.593   2.311  11.176 -0.4533  0.3838  0.3225
  561TMC3    C1 8318   2.623   1.619  11.556 -0.7262 -0.8597  0.3843
  561TMC3    C2 8319   2.547   1.590  11.663  0.3077  0.4427 -0.2049
  561TMC3    C3 8320   2.534   1.682  11.765  0.1114  0.4937  0.2315
  561TMC3    C4 8321   2.691   1.741  11.557 -0.1924 -0.1432 -0.0074
  561TMC3    C5 8322   2.682   1.831  11.663  0.4203  0.2910  0.0001
  561TMC3    C6 8323   2.594   1.806  11.769  0.9568  0.2240  0.1290
  561TMC3     C 8324   2.597   1.563  11.426 -0.1558 -0.1635 -0.5663
  561TMC3     O 8325   2.483   1.529  11.402 -0.4502  0.3709  0.8359
  561TMC3     H 8326   2.486   1.501  11.658  0.9108 -0.0095  0.4941
  561TMC3    H1 8327   2.742   1.774  11.468 -2.0464 -0.6055 -1.2549
  561TMC3    H2 8328   2.582   1.870  11.856  0.5144 -0.8613  0.8725
  561TMC3    C7 8329   2.776   1.937  11.684  0.2074 -0.0818  0.5231
  561TMC3    C8 8330   2.436   1.636  11.865 -0.5812 -0.2085  0.1708
  561TMC3    O1 8331   2.765   2.014  11.777  0.5737  0.1841  0.3748
  561TMC3    O2 8332   2.409   1.517  11.854  0.4360 -0.4737  0.0971
  562TMC3    C1 8333   3.770   3.048  15.476 -1.5013 -0.1236 -0.0442
  562TMC3    C2 8334   3.653   3.003  15.412  0.0094  0.1228  0.9852
  562TMC3    C3 8335   3.601   2.885  15.468  0.6099  0.0825  0.0614
  562TMC3    C4 8336   3.827   2.994  15.592 -0.1194  0.6247  0.1971
  562TMC3    C5 8337   3.769   2.883  15.638 -0.1082 -0.3961 -0.5337
  562TMC3    C6 8338   3.655   2.826  15.585  0.4230 -0.6972 -0.7457
  562TMC3     C 8339   3.837   3.167  15.419  0.0459  0.3240 -0.3408
  562TMC3     O 8340   3.959   3.167  15.442  0.2511 -0.7065 -0.6156
  562TMC3     H 8341   3.618   3.052  15.322  0.5848 -1.4597 -0.0877
  562TMC3    H1 8342   3.919   3.031  15.635  1.2408 -1.5809 -0.8366
  562TMC3    H2 8343   3.612   2.738  15.631  0.5653 -0.3802 -0.0087
  562TMC3    C7 8344   3.822   2.824  15.753 -0.6049 -0.1547  0.2594
  562TMC3    C8 8345   3.472   2.834  15.423 -0.0944  0.3376  0.1496
  562TMC3    O1 8346   3.933   2.869  15.782  0.4667 -0.1208 -0.3285
  562TMC3    O2 8347   3.417   2.747  15.490 -0.1029  0.1133 -0.0182
  563MPD2     C 8348   1.468   4.285  15.712 -0.4175  0.4174 -0.2276
  563MPD2    C1 8349   1.456   4.293  15.853 -0.0580 -0.2072 -0.0960
  563MPD2    C2 8350   1.564   4.333  15.925 -0.2771  0.1577  0.3825
  563MPD2    C3 8351   1.689   4.358  15.873  0.1940  0.4019  0.5462
  563MPD2    C4 8352   1.698   4.338  15.737 -0.8770 -0.3045  0.1604
  563MPD2    C5 8353   1.591   4.319  15.655 -0.0830 -0.3052 -0.3392
  563MPD2     H 8354   1.544   4.348  16.030 -0.2949  4.3855 -0.2367
  563MPD2    H1 8355   1.792   4.357  15.688 -0.5285 -1.1784  0.4779
  563MPD2    H2 8356   1.384   4.257  15.649  0.8043 -3.3738 -0.1746
  563MPD2    H3 8357   1.597   4.324  15.547 -0.0117 -1.7838 -0.4133
  563MPD2     N 8358   1.801   4.363  15.962  0.8446  0.5946  0.4465
  563MPD2    H5 8359   1.777   4.358  16.060 -0.3193  1.0841  0.1877
  563MPD2    N1 8360   1.323   4.277  15.902 -0.4075 -0.1965 -0.2062
  563MPD2    H7 8361   1.267   4.217  15.842 -0.2279 -2.4308  1.8728
  564TMC3    C1 8362   1.177   4.255  16.098 -0.0118  1.1079  0.4834
  564TMC3    C2 8363   1.085   4.173  16.038  0.8777  0.4734  0.0994
  564TMC3    C3 8364   1.011   4.077  16.105  0.2027 -0.9774 -0.1714
  564TMC3    C4 8365   1.184   4.247  16.237  0.0058 -0.4248 -1.3309
  564TMC3    C5 8366   1.127   4.144  16.305 -0.5084  0.4327  0.2524
  564TMC3    C6 8367   1.028   4.066  16.242 -0.0874  0.2630  0.0976
  564TMC3     C 8368   1.279   4.329  16.025  0.3638  0.9384 -0.4260
  564TMC3     O 8369   1.332   4.411  16.097  0.5914 -0.1664  0.2955
  564TMC3     H 8370   1.059   4.200  15.936 -2.1234 -1.3068  0.3887
  564TMC3    H1 8371   1.268   4.292  16.289 -2.6429 -1.2044  3.5578
  564TMC3    H2 8372   0.964   3.995  16.292  1.5216 -0.3317  1.3142
  564TMC3    C7 8373   1.229   4.058  16.366 -0.0147 -0.1707  0.0713
  564TMC3    C8 8374   1.001   3.947  16.042  0.4712  0.5584 -0.6632
  564TMC3    O1 8375   1.328   4.103  16.423  0.9690 -0.5021 -0.0444
  564TMC3    O2 8376   1.028   3.851  16.112  0.4577 -0.5596  0.2621
  565TMC3    C1 8377   1.984   0.799  10.261 -0.3654  0.4520  0.1446
  565TMC3    C2 8378   1.992   0.686  10.340  0.5422 -0.0590 -0.5439
  565TMC3    C3 8379   1.871   0.620  10.357 -0.2950 -0.6114  0.3557
  565TMC3    C4 8380   1.862   0.850  10.210  1.3787  0.0271  0.0676
  565TMC3    C5 8381   1.748   0.788  10.242 -0.0176  0.5100  0.0935
  565TMC3    C6 8382   1.751   0.684  10.323  0.9845  0.2855  0.2624
  565TMC3     C 8383   2.088   0.900  10.271  1.1018  0.2654  0.0345
  565TMC3     O 8384   2.076   1.003  10.202  0.1836  0.4539 -0.0318
  565TMC3     H 8385   2.084   0.628  10.347 -0.1137 -1.3872 -2.9957
  565TMC3    H1 8386   1.862   0.938  10.146  1.0228 -0.4459 -0.5790
  565TMC3    H2 8387   1.656   0.634  10.339  1.7155  0.1091  3.9491
  565TMC3    C7 8388   1.620   0.812  10.177  0.1317  0.3087 -0.4016
  565TMC3    C8 8389   1.869   0.492  10.417  0.4380 -0.0766 -0.5868
  565TMC3    O1 8390   1.521   0.767  10.225  0.3105  0.8811 -0.5773
  565TMC3    O2 8391   1.966   0.450  10.477 -0.4894 -0.0328 -0.1894
  566MPD2     C 8392   3.366   2.388  14.428  0.1463 -0.3841 -0.1439
  566MPD2    C1 8393   3.404   2.454  14.313 -0.2592 -0.0356  0.5580
  566MPD2    C2 8394   3.324   2.441  14.205  0.5786 -0.1724  0.7478
  566MPD2    C3 8395   3.210   2.365  14.208 -0.7815 -0.1258  0.2987
  566MPD2    C4 8396   3.174   2.296  14.324  0.0973  0.5745  0.2196
  566MPD2    C5 8397   3.248   2.312  14.436 -0.1814  0.3496 -0.4774
  566MPD2     H 8398   3.346   2.498  14.115  1.3923 -0.4982  0.7387
  566MPD2    H1 8399   3.081   2.241  14.331  0.2767  0.4075  1.2046
  566MPD2    H2 8400   3.431   2.366  14.511  1.2417  1.7188 -0.4578
  566MPD2    H3 8401   3.219   2.260  14.526 -2.9225 -0.5864 -1.9051
  566MPD2     N 8402   3.138   2.346  14.090 -0.0444 -0.3226  1.0774
  566MPD2    H5 8403   3.068   2.273  14.089 -0.7458  0.3428  1.9473
  566MPD2    N1 8404   3.522   2.526  14.324  0.4209 -0.5016  0.4688
  566MPD2    H7 8405   3.555   2.542  14.419 -1.5989  1.7084  0.7997
  567TMC3    C1 8406   3.689   2.685  14.246 -0.5880 -0.3491  0.0279
  567TMC3    C2 8407   3.718   2.779  14.147  0.0603  0.2500 -0.5158
  567TMC3    C3 8408   3.806   2.872  14.175  1.0938 -0.1310 -0.0560
  567TMC3    C4 8409   3.740   2.704  14.373  0.6602 -0.3535 -0.7966
  567TMC3    C5 8410   3.820   2.811  14.400 -1.1085  0.3477  0.0510
  567TMC3    C6 8411   3.861   2.897  14.300 -0.0664  0.5064  0.1483
  567TMC3     C 8412   3.589   2.588  14.219  0.8713 -0.4256 -0.4246
  567TMC3     O 8413   3.550   2.591  14.101 -0.3557 -0.3781 -0.1658
  567TMC3     H 8414   3.693   2.772  14.042  1.0457 -3.1806 -0.5237
  567TMC3    H1 8415   3.705   2.630  14.445 -1.8849  0.3163 -1.3739
  567TMC3    H2 8416   3.944   2.966  14.317  0.3166  0.1548 -0.3016
  567TMC3    C7 8417   3.892   2.822  14.526 -0.6231 -0.4894  0.1660
  567TMC3    C8 8418   3.877   2.912  14.055 -0.4410  0.1566 -0.1852
  567TMC3    O1 8419   3.944   2.927  14.558  0.0374  0.0992  0.1706
  567TMC3    O2 8420   3.809   2.971  13.973  0.0986  0.2262 -0.0174
  568MPD2     C 8421   0.475   2.655  16.267 -0.3381  0.6461 -0.3263
  568MPD2    C1 8422   0.595   2.674  16.332  0.5078  0.4912  0.5272
  568MPD2    C2 8423   0.684   2.773  16.291  0.5765 -0.2524  0.5171
  568MPD2    C3 8424   0.658   2.847  16.180 -0.3153  0.4015  0.1716
  568MPD2    C4 8425   0.543   2.818  16.112  0.2627  0.1703 -0.3932
  568MPD2    C5 8426   0.446   2.725  16.152 -0.0067  0.0343 -0.6974
  568MPD2     H 8427   0.771   2.808  16.345  1.6014 -0.4702 -0.9940
  568MPD2    H1 8428   0.516   2.888  16.033 -2.5758 -0.0565  0.3754
  568MPD2    H2 8429   0.389   2.602  16.307 -0.0270 -0.6211 -1.3262
  568MPD2    H3 8430   0.352   2.719  16.099  0.6355  2.7276 -2.1659
  568MPD2     N 8431   0.747   2.959  16.136  0.1851 -0.4815  0.9175
  568MPD2    H5 8432   0.825   2.983  16.196  0.4059 -2.3114  1.3533
  568MPD2    N1 8433   0.624   2.602  16.456 -0.4477 -0.3373 -0.3103
  568MPD2    H7 8434   0.542   2.556  16.495  0.0442 -1.4809 -0.6230
  569TMC3    C1 8435   0.836   3.128  16.016 -0.2844 -0.0481 -0.2414
  569TMC3    C2 8436   0.892   3.174  16.133  0.1008  0.6398 -1.0247
  569TMC3    C3 8437   1.005   3.252  16.114  0.1603  0.7990 -0.0257
  569TMC3    C4 8438   0.878   3.162  15.890  0.0240  0.6678 -0.0923
  569TMC3    C5 8439   0.986   3.250  15.878 -0.0711  1.2228 -0.6928
  569TMC3    C6 8440   1.054   3.291  15.990 -0.0214  0.4869 -0.4407
  569TMC3     C 8441   0.726   3.040  16.030  0.8743 -0.6356  0.2259
  569TMC3     O 8442   0.649   3.030  15.933  0.7411  0.0976  0.3444
  569TMC3     H 8443   0.848   3.166  16.232  0.2241 -0.3320 -1.0584
  569TMC3    H1 8444   0.804   3.164  15.811 -0.6187 -1.2387  0.4603
  569TMC3    H2 8445   1.152   3.337  15.983 -1.3881  3.5822  1.2047
  569TMC3    C7 8446   0.976   3.350  15.772  0.3752  0.2563 -0.2515
  569TMC3    C8 8447   0.993   3.384  16.174  0.0891 -0.2467 -0.3946
  569TMC3    O1 8448   0.955   3.311  15.653  0.2893 -0.3628  0.7269
  569TMC3    O2 8449   1.007   3.477  16.096  0.2559  0.0848 -0.4950
  570TMC3    C1 8450   0.138   1.914  16.308  0.1470 -0.8841  0.3346
  570TMC3    C2 8451   0.237   1.921  16.213 -0.7130 -0.2901 -0.3452
  570TMC3    C3 8452   0.264   2.041  16.151 -0.0025  0.0752 -0.0941
  570TMC3    C4 8453   0.073   2.031  16.354 -1.0274  0.1873  0.1081
  570TMC3    C5 8454   0.107   2.151  16.297  0.7013 -0.0571 -0.7686
  570TMC3    C6 8455   0.201   2.156  16.196 -0.3566  0.3952  0.9105
  570TMC3     C 8456   0.115   1.778  16.366 -0.2758  0.4046 -0.0054
  570TMC3     O 8457   0.166   1.683  16.309  0.2683  0.1399 -0.2617
  570TMC3     H 8458   0.281   1.828  16.179  1.3895  0.0029  1.5698
  570TMC3    H1 8459   0.003   2.024  16.436 -0.6198  1.6642  0.5827
  570TMC3    H2 8460   0.211   2.248  16.139 -1.1547  0.9435  1.6692
  570TMC3    C7 8461   0.058   2.279  16.352 -0.0217 -0.3989  0.1594
  570TMC3    C8 8462   0.357   2.048  16.040 -0.7855 -0.5729 -0.6755
  570TMC3    O1 8463   0.016   2.289  16.467  0.1244  0.3936  0.1832
  570TMC3    O2 8464   0.389   2.158  15.998 -0.1034 -0.1966  0.6464
  571MPD2     C 8465   2.421   3.202   0.096  0.5925 -0.4942 -0.1737
  571MPD2    C1 8466   2.357   3.195   0.219  0.6578  0.3247 -0.1457
  571MPD2    C2 8467   2.246   3.278   0.238 -0.3907 -0.0558  0.0149
  571MPD2    C3 8468   2.207   3.372   0.143  0.2379  0.6646  0.0474
  571MPD2    C4 8469   2.274   3.377   0.020  0.8504  0.1471  1.3127
  571MPD2    C5 8470   2.383   3.300   0.006 -0.0418  0.1480  0.3979
  571MPD2     H 8471   2.192   3.262   0.331  3.0715  0.3560  2.0953
  571MPD2    H1 8472   2.262   3.454  17.644 -0.1273 -0.9687  0.3245
  571MPD2    H2 8473   2.508   3.141   0.074 -1.1861 -2.9601 -0.3892
  571MPD2    H3 8474   2.446   3.307  17.616 -0.9822 -0.7516 -0.3377
  571MPD2     N 8475   2.107   3.464   0.163 -0.4166  0.5836 -0.0374
  571MPD2    H5 8476   2.093   3.530   0.087 -0.3962  1.0489  0.3568
  571MPD2    N1 8477   2.418   3.111   0.312 -0.2182 -0.0973 -0.0633
  571MPD2    H7 8478   2.503   3.061   0.286  1.2278  1.9653  0.6705
  572TMC3    C1 8479   1.994   3.630   0.282  0.2945 -0.2841 -0.2003
  572TMC3    C2 8480   1.926   3.648   0.398 -0.1669 -0.4781  0.1988
  572TMC3    C3 8481   1.996   3.723   0.495 -0.7567  0.5304  0.1412
  572TMC3    C4 8482   2.094   3.720   0.247 -0.2985 -0.1804 -0.2767
  572TMC3    C5 8483   2.155   3.791   0.348  0.2915 -0.2544  0.4582
  572TMC3    C6 8484   2.118   3.782   0.477 -0.2792  0.5329 -0.2462
  572TMC3     C 8485   2.050   3.495   0.285  0.0701  0.7036  1.1709
  572TMC3     O 8486   2.062   3.444   0.393 -0.5386  0.6529 -0.0425
  572TMC3     H 8487   1.871   3.565   0.441 -1.1879 -0.6659 -1.4786
  572TMC3    H1 8488   2.140   3.731   0.149 -0.7975  1.3869 -0.3327
  572TMC3    H2 8489   2.150   3.853   0.552  0.2227 -1.0452  1.0465
  572TMC3    C7 8490   2.237   3.903   0.310 -0.3678  1.0328 -0.5235
  572TMC3    C8 8491   1.943   3.697   0.634  0.4860  0.9303 -0.1314
  572TMC3    O1 8492   2.220   3.948   0.195 -0.5034  0.2169  0.0071
  572TMC3    O2 8493   1.824   3.690   0.655 -0.7269 -0.4408 -0.2335
  573MPD2     C 8494   4.015   3.947   0.776  0.5908 -0.2103 -0.6405
  573MPD2    C1 8495   4.117   4.031   0.748 -0.2553  0.2490  0.0105
  573MPD2    C2 8496   4.174   4.052   0.621  0.6126 -0.2463 -0.4892
  573MPD2    C3 8497   4.112   3.980   0.517 -0.3361  0.2293  1.3424
  573MPD2    C4 8498   4.018   3.884   0.546 -0.4495 -0.6513 -0.0476
  573MPD2    C5 8499   3.975   3.862   0.673 -0.1752  0.0175  0.6954
  573MPD2     H 8500   4.252   4.124   0.598 -0.9307  2.0138  1.4019
  573MPD2    H1 8501   3.990   3.817   0.465  0.6921 -0.5507 -0.5255
  573MPD2    H2 8502   3.966   3.929   0.871  0.5008 -0.5028 -0.7432
  573MPD2    H3 8503   3.905   3.784   0.701 -1.6206  0.8456 -0.5785
  573MPD2     N 8504   4.136   4.002   0.380 -0.4279  0.0927  0.8717
  573MPD2    H5 8505   4.072   3.952   0.318 -0.6973  1.2060  0.2571
  573MPD2    N1 8506   4.174   4.098   0.862  0.5370  0.0637 -0.3299
  573MPD2    H7 8507   4.157   4.046   0.947 -0.1116  0.7148 -0.0630
  574TMC3    C1 8508   4.251   4.068   0.188 -0.5778  0.5685  0.3399
  574TMC3    C2 8509   4.185   3.973   0.113 -0.0880  0.1491  0.3724
  574TMC3    C3 8510   4.206   3.968  17.675  0.6457  0.0410 -0.0143
  574TMC3    C4 8511   4.329   4.165   0.127 -0.1455  0.3797  0.2532
  574TMC3    C5 8512   4.365   4.132  17.696  0.3851 -0.1987 -0.7043
  574TMC3    C6 8513   4.309   4.033  17.618 -0.2347  0.1535  0.2463
  574TMC3     C 8514   4.232   4.091   0.332  0.1892  0.3100  0.3208
  574TMC3     O 8515   4.307   4.170   0.391  0.3249  0.4041 -0.1343
  574TMC3     H 8516   4.125   3.892   0.154 -0.3987 -0.0261 -0.4186
  574TMC3    H1 8517   4.356   4.250   0.188  0.0936  0.7489 -0.3639
  574TMC3    H2 8518   4.322   4.031  17.511  0.6319 -0.3120  0.3648
  574TMC3    C7 8519   4.436   4.236  17.626  0.8504 -0.4395 -0.4129
  574TMC3    C8 8520   4.123   3.894  17.582  0.4598  0.0365 -0.3500
  574TMC3    O1 8521   4.401   4.241  17.508  0.0821  0.0651  0.4720
  574TMC3    O2 8522   4.095   3.782  17.624  0.5543 -0.4860  0.1167
  575TMC3    C1 8523   1.980   4.607  11.051 -0.1562 -0.2201  0.1059
  575TMC3    C2 8524   1.990   4.479  11.013 -0.0846 -0.0450  0.5906
  575TMC3    C3 8525   1.973   4.448  10.885 -0.4894 -0.1921  0.1942
  575TMC3    C4 8526   1.940   4.704  10.965  0.0548  0.8297  0.2837
  575TMC3    C5 8527   1.908   4.672  10.838 -0.4452  0.1850 -1.0057
  575TMC3    C6 8528   1.926   4.542  10.792 -0.6960  0.0651 -0.2466
  575TMC3     C 8529   2.002   4.637  11.191  0.3003  0.3031 -0.8634
  575TMC3     O 8530   2.022   4.546  11.275  0.5276 -0.0770  0.8252
  575TMC3     H 8531   2.022   4.405  11.085  0.3970  0.2929  0.7228
  575TMC3    H1 8532   1.930   0.083  10.997 -0.9880  1.2737 -1.4999
  575TMC3    H2 8533   1.905   4.506  10.692 -0.1150  0.0640 -0.3699
  575TMC3    C7 8534   1.875   0.052  10.747  0.3782 -0.7696 -0.1525
  575TMC3    C8 8535   1.968   4.304  10.853 -0.2312  0.1573  0.1943
  575TMC3    O1 8536   1.911   0.165  10.772  0.3284  0.9913  0.0284
  575TMC3    O2 8537   1.978   4.234  10.955 -0.5713 -0.0529  0.4579
  576MPD2     C 8538   1.390   2.087  12.668 -0.5288  0.0735 -0.1769
  576MPD2    C1 8539   1.489   2.177  12.697  0.2246  0.0132  0.3768
  576MPD2    C2 8540   1.458   2.279  12.786  0.6226 -0.3428 -0.9060
  576MPD2    C3 8541   1.347   2.277  12.865  0.2281 -0.0062 -0.6905
  576MPD2    C4 8542   1.250   2.171  12.848 -0.5111 -0.2383 -0.2289
  576MPD2    C5 8543   1.273   2.088  12.743  0.2204 -0.0504  0.0430
  576MPD2     H 8544   1.531   2.358  12.793  0.5859 -0.1056 -2.9757
  576MPD2    H1 8545   1.168   2.149  12.914  1.1184 -1.8912  1.2531
  576MPD2    H2 8546   1.399   2.010  12.593 -0.3715 -1.0886  1.0336
  576MPD2    H3 8547   1.204   2.008  12.722  0.7240 -0.4342 -0.1479
  576MPD2     N 8548   1.340   2.378  12.965  0.2733 -0.6923  0.3428
  576MPD2    H5 8549   1.411   2.451  12.964  0.5881 -1.0073 -1.0973
  576MPD2    N1 8550   1.613   2.194  12.627 -0.1322  0.4357  0.1162
  576MPD2    H7 8551   1.680   2.262  12.661 -0.1727  1.5859 -2.1235
  577TMC3    C1 8552   1.788   2.157  12.488  0.2795 -0.2884 -0.0128
  577TMC3    C2 8553   1.894   2.078  12.525  0.6913  0.0074 -0.2073
  577TMC3    C3 8554   1.998   2.074  12.440 -0.0761  0.4565  0.2302
  577TMC3    C4 8555   1.785   2.227  12.368 -0.4150  0.1595 -0.2949
  577TMC3    C5 8556   1.893   2.223  12.285  0.7213 -0.1188  0.1235
  577TMC3    C6 8557   2.006   2.160  12.334 -0.1276  0.3089  0.2945
  577TMC3     C 8558   1.662   2.114  12.524  0.1636 -0.5661 -0.1502
  577TMC3     O 8559   1.624   2.003  12.490  0.3984 -0.1989  0.5072
  577TMC3     H 8560   1.884   2.013  12.610  3.0828 -0.2930 -0.1442
  577TMC3    H1 8561   1.687   2.262  12.338 -0.5299 -0.3679 -0.5350
  577TMC3    H2 8562   2.083   2.156  12.258  0.6998  0.1902  1.1459
  577TMC3    C7 8563   1.895   2.246  12.144 -0.2436 -0.6998 -0.4498
  577TMC3    C8 8564   2.031   1.928  12.407  0.0648  0.4949 -0.2549
  577TMC3    O1 8565   1.984   2.195  12.079 -0.1127 -0.2932  0.2722
  577TMC3    O2 8566   1.972   1.838  12.471 -0.8949  0.3530 -0.0100
  578MPD2     C 8567   4.257   1.879   1.289 -0.6820 -0.4922 -0.4720
  578MPD2    C1 8568   4.385   1.896   1.242 -0.1782  0.2079 -0.0838
  578MPD2    C2 8569   4.488   1.845   1.318 -0.3308  0.8154  0.5076
  578MPD2    C3 8570   4.474   1.771   1.430 -0.4427 -0.1823  0.3572
  578MPD2    C4 8571   4.343   1.752   1.479  0.2666 -1.0144  0.2796
  578MPD2    C5 8572   4.237   1.807   1.410 -0.2111  0.2223 -0.2966
  578MPD2     H 8573   4.588   1.867   1.282  0.0503 -0.6070  0.7069
  578MPD2    H1 8574   4.329   1.689   1.567  0.7028 -0.0249  1.0554
  578MPD2    H2 8575   4.170   1.902   1.230 -2.8598  1.0224  3.3123
  578MPD2    H3 8576   4.135   1.787   1.443 -0.1635 -2.0325 -1.5252
  578MPD2     N 8577   4.588   1.707   1.481  0.2039 -0.7401 -0.0749
  578MPD2    H5 8578   4.670   1.712   1.421  0.0134  4.5272  0.0405
  578MPD2    N1 8579   4.399   1.974   1.132  0.5478  0.6229 -0.0940
  578MPD2    H7 8580   4.314   1.999   1.083  1.7299  0.0958 -2.4635
  579TMC3    C1 8581   0.013   1.583   1.617 -0.1825 -0.2741 -0.2888
  579TMC3    C2 8582   0.058   1.556   1.747 -0.2579  0.8214  0.1839
  579TMC3    C3 8583   0.175   1.483   1.756  0.1351  0.5583 -0.0834
  579TMC3    C4 8584   0.066   1.519   1.506 -0.6823 -0.0984  0.2927
  579TMC3    C5 8585   0.176   1.442   1.523  0.0387  0.4245 -0.2917
  579TMC3    C6 8586   0.229   1.416   1.648 -0.6350  0.2617 -0.7238
  579TMC3     C 8587   4.603   1.641   1.599 -0.7213  0.1408 -0.0497
  579TMC3     O 8588   4.532   1.618   1.693  0.2984 -0.0003 -0.0968
  579TMC3     H 8589   0.022   1.610   1.833  1.4951  0.5480  1.0881
  579TMC3    H1 8590   0.011   1.521   1.413  0.2995 -0.0202 -0.2888
  579TMC3    H2 8591   0.314   1.348   1.657 -2.2827 -1.3824  2.4659
  579TMC3    C7 8592   0.215   1.355   1.418 -0.7862  0.5829 -0.3489
  579TMC3    C8 8593   0.263   1.511   1.870  0.0409 -0.0108  0.4196
  579TMC3    O1 8594   0.312   1.279   1.431  0.3427 -0.5938 -0.0860
  579TMC3    O2 8595   0.213   1.560   1.974  0.0224 -0.4520 -0.0013
  580TMC3    C1 8596   0.011   1.681  12.353 -0.3099  0.1068  0.3820
  580TMC3    C2 8597   0.104   1.773  12.397 -0.2587 -0.5862 -0.5184
  580TMC3    C3 8598   0.238   1.742  12.401  0.3317 -0.3069  0.6487
  580TMC3    C4 8599   0.053   1.556  12.318  0.0043 -0.4206 -0.5814
  580TMC3    C5 8600   0.188   1.526  12.336  0.1516  0.0479  0.1635
  580TMC3    C6 8601   0.281   1.617  12.378  0.0738  0.3369 -0.7212
  580TMC3     C 8602   4.639   1.738  12.257 -0.2715  0.0039 -0.5626
  580TMC3     O 8603   4.538   1.679  12.228 -0.4535 -0.4572  0.3115
  580TMC3     H 8604   0.067   1.869  12.431 -1.6357 -0.9609 -0.9326
  580TMC3    H1 8605   4.704   1.483  12.284  0.5327 -0.9478 -0.5713
  580TMC3    H2 8606   0.389   1.607  12.380 -0.0637 -1.6389 -3.1624
  580TMC3    C7 8607   0.236   1.389  12.325 -0.8451 -0.2858 -1.2684
  580TMC3    C8 8608   0.309   1.841  12.329 -0.0488 -0.1609 -0.3497
  580TMC3    O1 8609   0.338   1.367  12.386  0.0769 -0.2461  0.4042
  580TMC3    O2 8610   0.250   1.945  12.328  0.6493  0.1200 -0.0592
  581MPD2     C 8611   1.595   1.373  15.207  0.5054  0.3577 -0.5307
  581MPD2    C1 8612   1.501   1.276  15.171  0.0041 -0.1709  0.4300
  581MPD2    C2 8613   1.394   1.319  15.094 -0.5054  0.0512 -0.3930
  581MPD2    C3 8614   1.384   1.450  15.052  0.0799  0.0888  0.2367
  581MPD2    C4 8615   1.477   1.541  15.091 -0.0762  0.4353 -0.5795
  581MPD2    C5 8616   1.587   1.503  15.169 -0.0845  0.4331 -0.3666
  581MPD2     H 8617   1.308   1.255  15.079 -0.7789  0.3353 -0.0335
  581MPD2    H1 8618   1.465   1.646  15.070  1.1016  0.5056 -0.9147
  581MPD2    H2 8619   1.684   1.345  15.262  0.0764 -2.2932 -1.2274
  581MPD2    H3 8620   1.656   1.579  15.202  1.1135  0.2837 -2.5470
  581MPD2     N 8621   1.282   1.493  14.971  0.5729 -0.2977 -0.4020
  581MPD2    H5 8622   1.261   1.592  14.973  1.8916 -0.0578  1.1286
  581MPD2    N1 8623   1.522   1.145  15.225 -0.2241  0.7624 -0.3949
  581MPD2    H7 8624   1.589   1.132  15.301  0.9228 -0.9100 -1.6817
  582TMC3    C1 8625   1.486   0.918  15.277  0.0319 -0.5455 -0.3510
  582TMC3    C2 8626   1.622   0.891  15.284 -1.2048 -0.1985 -0.3777
  582TMC3    C3 8627   1.660   0.805  15.386  0.2587 -1.0764  0.0448
  582TMC3    C4 8628   1.385   0.875  15.364  0.9290  0.3080 -0.2593
  582TMC3    C5 8629   1.442   0.809  15.475 -0.5940  0.0599  0.5893
  582TMC3    C6 8630   1.572   0.768  15.483 -0.8082  0.1042  1.0224
  582TMC3     C 8631   1.441   1.033  15.200 -0.0309  0.6386  0.2939
  582TMC3     O 8632   1.347   1.025  15.117 -1.1346  0.5269 -0.5915
  582TMC3     H 8633   1.698   0.931  15.218  1.3910 -1.3773  1.8591
  582TMC3    H1 8634   1.287   0.920  15.357  0.6321  0.0442  2.2322
  582TMC3    H2 8635   1.613   0.703  15.559  4.2040  0.4903 -1.3427
  582TMC3    C7 8636   1.357   0.778  15.590  0.1722  0.1601 -0.1635
  582TMC3    C8 8637   1.790   0.833  15.441 -0.7364 -0.5286 -0.5191
  582TMC3    O1 8638   1.401   0.685  15.658  0.4358 -0.3655  0.1013
  582TMC3    O2 8639   1.817   0.954  15.442 -0.1416 -0.0788  0.4040
  583MPD2     C 8640   2.223   2.352  17.016  0.2119 -0.1592  0.2603
  583MPD2    C1 8641   2.202   2.455  16.926  0.1376  0.6279  0.2167
  583MPD2    C2 8642   2.125   2.560  16.970  0.2978  0.1864  0.4113
  583MPD2    C3 8643   2.078   2.570  17.101  0.4195  0.0478 -0.0764
  583MPD2    C4 8644   2.101   2.467  17.183  0.0030 -0.2685 -0.4309
  583MPD2    C5 8645   2.169   2.354  17.139 -0.1582  0.0738 -0.0003
  583MPD2     H 8646   2.106   2.648  16.908 -3.6133 -0.6516  0.4306
  583MPD2    H1 8647   2.086   2.467  17.290  0.4869  2.9225 -0.3806
  583MPD2    H2 8648   2.289   2.268  16.997  0.1305 -0.4247  1.1175
  583MPD2    H3 8649   2.183   2.275  17.213 -0.6091 -1.3367 -1.4139
  583MPD2     N 8650   1.989   2.675  17.134 -0.5224 -0.3993  0.4914
  583MPD2    H5 8651   1.964   2.739  17.059  1.9642  1.1571  0.9976
  583MPD2    N1 8652   2.251   2.462  16.794 -0.3780  0.5377  0.1153
  583MPD2    H7 8653   2.225   2.540  16.734 -0.3022 -0.0661 -0.7088
  584TMC3    C1 8654   1.819   2.796  17.245 -0.7632 -0.4048 -0.1623
  584TMC3    C2 8655   1.850   2.915  17.198  0.3960 -0.1909 -0.0161
  584TMC3    C3 8656   1.750   3.005  17.198 -0.1972 -0.0511  0.3533
  584TMC3    C4 8657   1.709   2.777  17.319  0.1167  0.0058 -0.4477
  584TMC3    C5 8658   1.614   2.873  17.322 -0.2670  0.0573  0.0574
  584TMC3    C6 8659   1.629   2.991  17.260  0.4517  0.5316 -0.2673
  584TMC3     C 8660   1.907   2.682  17.243 -0.7417 -0.3171  0.3773
  584TMC3     O 8661   1.907   2.603  17.338  0.5183 -0.1883 -0.3023
  584TMC3     H 8662   1.944   2.942  17.152  0.7361 -0.3592  0.5735
  584TMC3    H1 8663   1.695   2.687  17.378 -3.2121 -1.0439 -2.8709
  584TMC3    H2 8664   1.562   3.076  17.272 -0.6648 -0.1759 -1.5023
  584TMC3    C7 8665   1.521   2.864  17.431  0.3503 -0.1453 -0.5597
  584TMC3    C8 8666   1.774   3.134  17.135 -1.2214  0.0919  0.3647
  584TMC3    O1 8667   1.540   2.782  17.524  0.9022  0.9266  0.8730
  584TMC3    O2 8668   1.680   3.184  17.077  0.3874 -0.1779  0.2021
  585MPD2     C 8669   1.502   1.362   0.858 -0.0594  0.2848 -0.1446
  585MPD2    C1 8670   1.483   1.423   0.741  0.2377  0.3659 -0.3606
  585MPD2    C2 8671   1.446   1.346   0.629  0.0934 -0.3953 -0.3600
  585MPD2    C3 8672   1.436   1.208   0.640  0.2263 -0.7347 -0.5698
  585MPD2    C4 8673   1.461   1.149   0.760 -0.2966  0.2474 -0.0645
  585MPD2    C5 8674   1.496   1.229   0.863 -0.3425 -0.1066  0.2863
  585MPD2     H 8675   1.442   1.396   0.532 -0.4485 -1.1512 -0.7275
  585MPD2    H1 8676   1.454   1.045   0.790 -0.2995 -0.0650 -1.1521
  585MPD2    H2 8677   1.538   1.415   0.946 -0.0083 -0.9875  0.5909
  585MPD2    H3 8678   1.502   1.187   0.962  1.1310 -0.1345  0.1877
  585MPD2     N 8679   1.391   1.117   0.542  0.2938  0.5281  0.4857
  585MPD2    H5 8680   1.371   1.022   0.571  0.8912 -0.1852 -1.4356
  585MPD2    N1 8681   1.513   1.563   0.738  0.3709 -1.0753  0.3348
  585MPD2    H7 8682   1.533   1.607   0.827 -0.0198 -3.6372  1.7002
  586TMC3    C1 8683   1.319   1.045   0.327  0.1345  0.8434  0.2577
  586TMC3    C2 8684   1.431   0.957   0.332 -0.9115 -0.8080 -0.0220
  586TMC3    C3 8685   1.481   0.918   0.207 -1.2618  0.0436 -0.3547
  586TMC3    C4 8686   1.263   1.087   0.206 -0.0054 -0.0580 -0.5306
  586TMC3    C5 8687   1.303   1.027   0.089 -0.6152  0.3817  0.0733
  586TMC3    C6 8688   1.418   0.954   0.088  0.1853 -0.1860  0.1923
  586TMC3     C 8689   1.334   1.156   0.425 -0.3533  0.3516  0.0356
  586TMC3     O 8690   1.291   1.264   0.394 -0.7581  0.1115  0.3761
  586TMC3     H 8691   1.491   0.936   0.420 -0.1557 -1.8445 -0.7887
  586TMC3    H1 8692   1.178   1.153   0.214  0.6086  0.6910 -0.2102
  586TMC3    H2 8693   1.462   0.910  17.698  0.1185  0.1448 -0.0056
  586TMC3    C7 8694   1.222   1.037  17.667 -0.2061 -0.2579  0.1672
  586TMC3    C8 8695   1.609   0.851   0.190 -0.3498 -0.3797 -0.1066
  586TMC3    O1 8696   1.103   1.052  17.672  0.7174 -0.6959  0.2531
  586TMC3    O2 8697   1.657   0.876   0.082  0.0998 -0.5529 -0.4566
  587TMC3    C1 8698   3.959   4.539  16.208 -0.0532 -0.1081 -0.2819
  587TMC3    C2 8699   3.931   4.670  16.187  0.7274 -0.5633 -0.5529
  587TMC3    C3 8700   3.970   4.716  16.069 -0.7699  0.4307 -0.5852
  587TMC3    C4 8701   4.037   4.462  16.128  0.0099 -0.0318 -0.7031
  587TMC3    C5 8702   4.082   4.519  16.009  0.1968 -0.4401 -0.3018
  587TMC3    C6 8703   4.052   4.645  15.972  0.3263  0.3756 -0.2677
  587TMC3     C 8704   3.892   4.463  16.305  0.3222  0.3161  0.1383
  587TMC3     O 8705   3.902   4.345  16.291  0.1537  0.6330  0.5240
  587TMC3     H 8706   3.869   4.717  16.263  2.2414 -1.1515  1.0589
  587TMC3    H1 8707   4.070   4.360  16.140 -0.0199 -0.0155 -0.4909
  587TMC3    H2 8708   4.096   4.701  15.890 -1.5166  0.7486 -1.0138
  587TMC3    C7 8709   4.172   4.459  15.915 -0.7073  0.3899  0.2132
  587TMC3    C8 8710   3.954   0.133  16.031 -0.5565  0.0976 -0.6620
  587TMC3    O1 8711   4.244   4.534  15.845  0.2149 -0.0804  0.2929
  587TMC3    O2 8712   4.008   0.171  15.929 -0.0499  0.8680  0.0402
  588TMC3    C1 8713   1.457   3.012  10.204 -0.1161 -0.6211  0.0391
  588TMC3    C2 8714   1.474   2.881  10.178 -0.9635  0.7155 -0.7442
  588TMC3    C3 8715   1.600   2.823  10.198  0.1205 -0.0038 -0.3569
  588TMC3    C4 8716   1.567   3.088  10.238 -0.3425 -0.6006  0.1431
  588TMC3    C5 8717   1.690   3.032  10.247  0.1107 -0.0321  0.8322
  588TMC3    C6 8718   1.714   2.893  10.232  0.2346  0.4136 -0.1894
  588TMC3     C 8719   1.348   3.087  10.151  0.3276 -0.2072  1.2476
  588TMC3     O 8720   1.286   3.034  10.061 -0.4652 -0.4098  0.2926
  588TMC3     H 8721   1.393   2.827  10.130 -1.2942  0.0463  0.5765
  588TMC3    H1 8722   1.564   3.195  10.226  0.4520 -0.5938  0.0553
  588TMC3    H2 8723   1.811   2.847  10.223  1.0672  1.5835  2.6878
  588TMC3    C7 8724   1.809   3.116  10.244 -0.1686  0.4628  0.1825
  588TMC3    C8 8725   1.606   2.678  10.171  0.9576  0.3188  0.7721
  588TMC3    O1 8726   1.915   3.082  10.192 -0.5485 -0.6025 -0.3731
  588TMC3    O2 8727   1.525   2.626  10.093  0.2804 -0.3145 -0.3502
  589TMC3    C1 8728   0.314   0.230   1.134 -1.4172  0.0023  0.0331
  589TMC3    C2 8729   0.383   0.253   1.252 -0.1290 -0.7663 -0.3751
  589TMC3    C3 8730   0.476   0.155   1.278 -0.9273 -0.1413 -0.1814
  589TMC3    C4 8731   0.332   0.116   1.060  0.6042 -0.3822  0.4302
  589TMC3    C5 8732   0.405   0.017   1.111  0.0728  0.6919  0.0018
  589TMC3    C6 8733   0.495   0.039   1.208 -0.0800 -0.7848 -0.0516
  589TMC3     C 8734   0.228   0.339   1.091  0.2326 -0.4324  0.1725
  589TMC3     O 8735   0.242   0.355   0.969 -0.0240  0.6349 -0.1197
  589TMC3     H 8736   0.387   0.351   1.298  1.8902 -1.2177  0.4119
  589TMC3    H1 8737   0.279   0.112   0.966  0.7107 -1.8010  0.4242
  589TMC3    H2 8738   0.547   4.678   1.251 -2.3420 -0.2888  3.7242
  589TMC3    C7 8739   0.407   4.604   1.055 -0.8074 -0.2221 -0.3332
  589TMC3    C8 8740   0.579   0.183   1.375  0.0534  0.1817 -0.1124
  589TMC3    O1 8741   0.481   4.521   1.110 -0.2222 -0.0820  0.0567
  589TMC3    O2 8742   0.540   0.234   1.477  0.2386  0.5108  0.0669
  590MPD2     C 8743   0.160   3.071  16.816  0.7285 -0.1536  0.3050
  590MPD2    C1 8744   0.092   3.143  16.723 -0.0236 -0.3711 -0.5125
  590MPD2    C2 8745   0.157   3.236  16.648  0.1194  1.0508  0.6574
  590MPD2    C3 8746   0.289   3.265  16.670 -0.0091  0.3807 -0.0393
  590MPD2    C4 8747   0.362   3.194  16.766  0.2772 -0.7023  0.4429
  590MPD2    C5 8748   0.296   3.100  16.840 -0.0965 -0.5536  0.9036
  590MPD2     H 8749   0.103   3.280  16.565 -1.1793 -0.1305  0.8722
  590MPD2    H1 8750   0.469   3.195  16.783  0.2906  0.4444  0.2721
  590MPD2    H2 8751   0.111   2.991  16.871  0.7059  0.0163  0.5301
  590MPD2    H3 8752   0.350   3.030  16.903  1.0776  1.7753  2.4812
  590MPD2     N 8753   0.345   3.356  16.578 -0.5797  1.0740 -0.1809
  590MPD2    H5 8754   0.280   3.400  16.514 -1.7410 -0.7245 -0.2351
  590MPD2    N1 8755   4.686   3.105  16.700  0.0145  0.4486 -0.6277
  590MPD2    H7 8756   4.655   3.043  16.773 -2.5805  1.1415 -1.1295
  591TMC3    C1 8757   0.486   3.490  16.460  0.7670  0.1474  0.3943
  591TMC3    C2 8758   0.582   3.466  16.356  0.0246 -0.2909  0.5233
  591TMC3    C3 8759   0.564   3.534  16.233  0.0716 -0.3587 -0.3081
  591TMC3    C4 8760   0.374   3.570  16.445  1.0529  0.2759  0.1419
  591TMC3    C5 8761   0.370   3.640  16.332  0.6072  0.0601  0.2325
  591TMC3    C6 8762   0.455   3.622  16.222  0.1558 -0.5631  0.8177
  591TMC3     C 8763   0.478   3.387  16.563  0.2207  0.0410  0.9629
  591TMC3     O 8764   0.583   3.357  16.619  0.0415 -0.8036 -0.6100
  591TMC3     H 8765   0.650   3.382  16.353  1.7710  1.0554  2.6932
  591TMC3    H1 8766   0.304   3.594  16.524  0.5362  0.2249 -0.3020
  591TMC3    H2 8767   0.431   3.669  16.127  0.8055  0.6125  1.2377
  591TMC3    C7 8768   0.246   3.718  16.312 -0.2699 -0.2704  0.4208
  591TMC3    C8 8769   0.612   3.470  16.111 -0.6033  1.1662 -0.2675
  591TMC3    O1 8770   0.146   3.666  16.358 -0.6089  0.0917  0.3229
  591TMC3    O2 8771   0.663   3.354  16.118 -0.5128  0.0507  0.3467
  592MPD2     C 8772   0.622   0.744  11.442 -0.1829 -0.3362  0.4000
  592MPD2    C1 8773   0.597   0.847  11.531  0.2939 -0.9382  0.6526
  592MPD2    C2 8774   0.539   0.814  11.647 -0.0940  0.4574 -0.5215
  592MPD2    C3 8775   0.496   0.685  11.682  0.3730 -0.0330 -0.7857
  592MPD2    C4 8776   0.519   0.580  11.587 -0.3279 -0.1085  0.1484
  592MPD2    C5 8777   0.584   0.615  11.469 -0.4358 -0.2503  0.8631
  592MPD2     H 8778   0.547   0.883  11.730 -0.9945 -1.0594  0.8436
  592MPD2    H1 8779   0.491   0.476  11.600 -0.7205  0.2977  2.7481
  592MPD2    H2 8780   0.670   0.762  11.347 -0.9807 -0.3784 -0.0081
  592MPD2    H3 8781   0.607   0.539  11.394 -0.5496 -1.5469  2.1344
  592MPD2     N 8782   0.445   0.667  11.812  0.2878 -0.7253  0.8712
  592MPD2    H5 8783   0.444   0.745  11.877 -0.5090 -0.2627  0.2912
  592MPD2    N1 8784   0.654   0.979  11.510  0.1874 -0.6523 -0.4572
  592MPD2    H7 8785   0.708   1.000  11.427 -0.1243 -1.1811 -0.7926
  593TMC3    C1 8786   0.699   1.214  11.550  0.1890 -0.4809 -0.0230
  593TMC3    C2 8787   0.682   1.324  11.627 -0.4306  0.2916 -0.0032
  593TMC3    C3 8788   0.785   1.406  11.646 -0.6509 -0.0979 -0.5917
  593TMC3    C4 8789   0.812   1.204  11.469 -0.2134 -0.0287 -0.1313
  593TMC3    C5 8790   0.917   1.292  11.493 -0.3051 -0.5856 -0.2653
  593TMC3    C6 8791   0.906   1.389  11.585 -0.2849  0.3150 -0.4656
  593TMC3     C 8792   0.635   1.091  11.592  0.3597 -1.2522 -0.8219
  593TMC3     O 8793   0.571   1.101  11.695  0.1831 -0.0536  0.4889
  593TMC3     H 8794   0.603   1.325  11.701  0.2779  0.4738  0.7514
  593TMC3    H1 8795   0.838   1.122  11.403  1.2821  1.4759 -1.4158
  593TMC3    H2 8796   0.993   1.452  11.599 -0.5816  0.6527 -0.1412
  593TMC3    C7 8797   1.005   1.323  11.378 -0.0609  0.0288  0.4645
  593TMC3    C8 8798   0.778   1.476  11.775 -0.3992 -0.0922  0.8037
  593TMC3    O1 8799   1.121   1.338  11.399 -0.5207 -0.4604  0.3307
  593TMC3    O2 8800   0.667   1.500  11.818  0.4861  0.6190 -0.0826
  594MPD2     C 8801   3.701   4.470  13.799  0.4700 -0.2066  0.6495
  594MPD2    C1 8802   3.670   4.443  13.933 -0.0406 -0.4928 -0.1248
  594MPD2    C2 8803   3.750   4.489  14.040 -0.4686  0.7703  0.3970
  594MPD2    C3 8804   3.865   4.566  14.007  0.0485 -0.6564  0.0671
  594MPD2    C4 8805   3.890   4.596  13.875 -0.0664 -0.0446 -0.1223
  594MPD2    C5 8806   3.813   4.538  13.776 -0.4221  0.4772 -0.3082
  594MPD2     H 8807   3.729   4.465  14.144  0.2821  0.1392  0.4019
  594MPD2    H1 8808   3.983   4.639  13.840  0.1527 -1.6191 -1.5012
  594MPD2    H2 8809   3.641   4.433  13.717  1.3559  1.2669 -0.6681
  594MPD2    H3 8810   3.848   4.550  13.674  2.8669 -1.2750  0.5854
  594MPD2     N 8811   3.947   4.615  14.114 -0.7380  0.3015  0.1263
  594MPD2    H5 8812   3.912   4.610  14.210  2.4138  1.9472  1.3448
  594MPD2    N1 8813   3.558   4.367  13.961 -0.0085 -0.6238  0.9062
  594MPD2    H7 8814   3.494   4.353  13.883  1.2323  0.0563 -0.2256
  595TMC3    C1 8815   4.297   0.050  14.359 -0.0977 -0.1544  0.0171
  595TMC3    C2 8816   4.257   0.009  14.231 -0.0494  0.4725 -0.3244
  595TMC3    C3 8817   4.120   0.010  14.221  0.2181  0.1249  0.1897
  595TMC3    C4 8818   4.216   0.100  14.456 -0.2505 -0.3754 -0.4185
  595TMC3    C5 8819   4.081   0.092  14.440  0.3850 -0.3719  0.1219
  595TMC3    C6 8820   4.031   0.044  14.327  0.4479  0.0394 -1.3796
  595TMC3     C 8821   4.438   0.042  14.392 -0.2830 -0.0917  0.4494
  595TMC3     O 8822   4.473   0.092  14.495  0.1052 -0.1247  0.0238
  595TMC3     H 8823   4.319   4.702  14.147  1.2647 -0.5434  1.0122
  595TMC3    H1 8824   4.254   0.152  14.543 -2.7948  1.2776 -0.2861
  595TMC3    H2 8825   3.926   0.054  14.301  0.3712  0.9630 -0.7091
  595TMC3    C7 8826   3.998   0.079  14.563  0.0292 -0.1612 -0.2985
  595TMC3    C8 8827   4.063   4.689  14.097 -0.1173 -0.4074 -0.9488
  595TMC3    O1 8828   3.879   0.086  14.545  0.8493  0.1012  0.0979
  595TMC3    O2 8829   4.130   4.690  13.995 -0.1354  0.0378  0.2333
  596MPD2     C 8830   3.072   2.222  16.773  0.2529  0.5764 -0.6116
  596MPD2    C1 8831   3.072   2.341  16.704 -0.7593  0.6241 -0.8332
  596MPD2    C2 8832   3.059   2.341  16.565 -0.0900  0.3454 -0.0896
  596MPD2    C3 8833   3.047   2.225  16.496 -0.3354  0.5952 -0.0654
  596MPD2    C4 8834   3.045   2.110  16.567 -1.0807  0.4077 -0.2586
  596MPD2    C5 8835   3.064   2.113  16.700 -0.2250 -0.0766 -0.0229
  596MPD2     H 8836   3.051   2.435  16.512  0.1442 -0.2780 -1.2260
  596MPD2    H1 8837   3.025   2.012  16.526 -0.2987 -1.5154  3.9066
  596MPD2    H2 8838   3.097   2.213  16.878 -1.2440  0.7308 -0.2452
  596MPD2    H3 8839   3.071   2.017  16.749 -1.3038 -0.4578 -0.6277
  596MPD2     N 8840   3.033   2.207  16.353  0.2778 -0.0572 -0.5895
  596MPD2    H5 8841   3.023   2.115  16.312 -0.5265 -1.6612  3.2539
  596MPD2    N1 8842   3.098   2.462  16.766 -0.1293  0.0229 -0.5871
  596MPD2    H7 8843   3.125   2.543  16.710 -1.8687  0.9270 -0.1249
  597TMC3    C1 8844   3.055   2.637  16.920 -0.5996  0.0868 -0.5733
  597TMC3    C2 8845   3.114   2.732  16.839  0.4383  0.1824 -0.0128
  597TMC3    C3 8846   3.087   2.867  16.869 -0.1224 -0.2370  0.4394
  597TMC3    C4 8847   2.974   2.670  17.025 -0.4176  0.6634 -0.3403
  597TMC3    C5 8848   2.949   2.804  17.047 -0.1262 -0.0546 -0.0223
  597TMC3    C6 8849   3.004   2.900  16.971  0.2028 -0.5478  0.0463
  597TMC3     C 8850   3.053   2.494  16.887  0.1315 -0.2549  0.3217
  597TMC3     O 8851   3.008   2.416  16.966  0.4018 -0.7982  0.0225
  597TMC3     H 8852   3.194   2.707  16.770 -0.8444 -3.1532 -0.2983
  597TMC3    H1 8853   2.923   2.599  17.090 -0.6232 -0.5451 -1.8097
  597TMC3    H2 8854   3.000   3.000  17.013 -0.4225 -0.3296 -0.5318
  597TMC3    C7 8855   2.835   2.825  17.135 -0.4182 -0.1817  0.4441
  597TMC3    C8 8856   3.184   2.961  16.832  0.1851 -0.1493  0.3719
  597TMC3    O1 8857   2.812   2.750  17.225 -0.6529 -0.7466  0.2616
  597TMC3    O2 8858   3.293   2.912  16.806  0.3118 -0.3406 -0.3324
  598TMC3    C1 8859   1.235   4.091  15.293  0.2336 -0.0174  0.0254
  598TMC3    C2 8860   1.123   4.010  15.286 -0.1434 -0.1714 -0.3531
  598TMC3    C3 8861   1.046   4.014  15.175  0.7941  0.1456  0.4695
  598TMC3    C4 8862   1.260   4.174  15.188  0.1708 -0.0107  0.0981
  598TMC3    C5 8863   1.170   4.183  15.084 -0.1018  0.3633 -0.0418
  598TMC3    C6 8864   1.063   4.102  15.071  0.5968 -0.2200 -0.6161
  598TMC3     C 8865   1.349   4.067  15.376  0.4049 -0.5024 -0.6059
  598TMC3     O 8866   1.434   4.157  15.395  0.2197  0.1191 -0.2929
  598TMC3     H 8867   1.096   3.945  15.368 -0.9413 -0.6406 -0.9912
  598TMC3    H1 8868   1.352   4.232  15.188  1.0484 -1.4212 -0.1118
  598TMC3    H2 8869   0.995   4.102  14.987  1.6177  1.2779 -1.4295
  598TMC3    C7 8870   1.171   4.299  14.994 -0.0073  1.0732 -0.0980
  598TMC3    C8 8871   0.931   3.931  15.158 -0.5352  0.7971 -0.2407
  598TMC3    O1 8872   1.084   4.295  14.909  0.3514 -0.4100 -0.3555
  598TMC3    O2 8873   0.848   3.967  15.076 -0.0763  0.2600 -0.0081
  599MPD2     C 8874   0.957   1.595  15.736 -0.1961  0.3990  0.3423
  599MPD2    C1 8875   0.995   1.524  15.845  0.3234  0.8940 -0.3294
  599MPD2    C2 8876   0.910   1.500  15.952 -0.3638 -0.4455  0.2675
  599MPD2    C3 8877   0.773   1.531  15.934  0.1862  0.2745  0.1763
  599MPD2    C4 8878   0.736   1.606  15.826 -0.6976 -0.1943 -0.0299
  599MPD2    C5 8879   0.826   1.641  15.729  0.2342 -0.5373  0.4083
  599MPD2     H 8880   0.950   1.442  16.034  0.7979  2.0616  1.4643
  599MPD2    H1 8881   0.632   1.633  15.811 -0.4018 -1.6728 -4.9008
  599MPD2    H2 8882   1.031   1.612  15.658  0.7089  0.7877  1.2767
  599MPD2    H3 8883   0.793   1.698  15.643  0.8169 -0.0446  0.5153
  599MPD2     N 8884   0.678   1.499  16.034 -0.0967 -0.2217  0.3734
  599MPD2    H5 8885   0.584   1.534  16.022 -0.5756 -1.1056  1.5017
  599MPD2    N1 8886   1.131   1.491  15.850  0.1344  1.0076 -0.0680
  599MPD2    H7 8887   1.191   1.522  15.774  2.9582 -1.0676  1.3273
  600TMC3    C1 8888   0.597   1.447  16.261  0.1261 -0.8089 -0.3761
  600TMC3    C2 8889   0.580   1.341  16.347 -0.4968 -0.8198  0.1336
  600TMC3    C3 8890   0.497   1.362  16.454 -0.5966 -0.6004 -0.2540
  600TMC3    C4 8891   0.558   1.576  16.290  0.3853 -0.0298 -0.3627
  600TMC3    C5 8892   0.490   1.594  16.406  0.4819 -0.6032 -0.1940
  600TMC3    C6 8893   0.456   1.492  16.488 -0.4370  0.8158  0.8780
  600TMC3     C 8894   0.707   1.444  16.157 -0.8729  0.2179 -0.5039
  600TMC3     O 8895   0.811   1.392  16.194 -0.2749 -0.0790 -0.3096
  600TMC3     H 8896   0.614   1.241  16.323  1.9585  0.5459 -2.0613
  600TMC3    H1 8897   0.582   1.654  16.218  0.0387 -0.0385 -0.4856
  600TMC3    H2 8898   0.380   1.513  16.562 -1.8735 -1.7886  0.1347
  600TMC3    C7 8899   0.458   1.733  16.443  0.8690  0.0305  0.3787
  600TMC3    C8 8900   0.439   1.243  16.511 -0.0062  0.5350 -0.2782
  600TMC3    O1 8901   0.367   1.749  16.524 -0.1227 -0.0273 -0.1444
  600TMC3    O2 8902   0.506   1.146  16.540  1.0136 -0.2409  0.6666
  601MPD2     C 8903   2.660   4.188   0.374 -0.7369 -0.1568 -0.8027
  601MPD2    C1 8904   2.584   4.169   0.264 -0.0545  0.1538 -0.2404
  601MPD2    C2 8905   2.480   4.081   0.267 -0.3352  0.1797  0.3111
  601MPD2    C3 8906   2.445   4.013   0.387 -0.4188 -0.2479  0.2688
  601MPD2    C4 8907   2.520   4.039   0.498 -0.1769 -0.0459 -0.7790
  601MPD2    C5 8908   2.631   4.127   0.499  0.6839  0.4408 -0.3888
  601MPD2     H 8909   2.420   4.068   0.177 -0.2994 -2.0560  0.6029
  601MPD2    H1 8910   2.496   3.995   0.595 -1.6473  0.3553 -0.9553
  601MPD2    H2 8911   2.738   4.263   0.379 -1.5799  0.6402  0.4413
  601MPD2    H3 8912   2.684   4.147   0.591 -2.2631 -0.1708  1.4456
  601MPD2     N 8913   2.334   3.920   0.398 -0.2092  0.2013 -0.2311
  601MPD2    H5 8914   2.324   3.875   0.488  2.1613  1.0075  0.4285
  601MPD2    N1 8915   2.612   4.223   0.135  0.0536  0.3729 -0.2513
  601MPD2    H7 8916   2.566   4.184   0.054  2.4270 -0.6991 -1.0448
  602TMC3    C1 8917   2.734   4.347  17.676 -0.6332  0.2564 -0.2982
  602TMC3    C2 8918   2.863   4.378  17.634  0.1056  0.8300 -0.0820
  602TMC3    C3 8919   2.879   4.452  17.520  0.5348 -0.3723 -0.1238
  602TMC3    C4 8920   2.622   4.388  17.603 -0.2713  0.3243 -0.8406
  602TMC3    C5 8921   2.645   4.437  17.476 -0.4370  0.4428  0.6090
  602TMC3    C6 8922   2.774   4.472  17.439 -0.2019  0.1048 -0.0539
  602TMC3     C 8923   2.716   4.315   0.119  0.8186  0.7323  0.8540
  602TMC3     O 8924   2.808   4.347   0.197 -0.3870  0.1457  0.0747
  602TMC3     H 8925   2.946   4.371   0.005 -1.4095 -1.9401  1.4784
  602TMC3    H1 8926   2.518   4.383  17.632  0.2385 -1.7479  0.5628
  602TMC3    H2 8927   2.793   4.497  17.335 -0.3276 -1.2219 -0.4021
  602TMC3    C7 8928   2.540   4.496  17.400 -0.2394 -0.1818 -0.5821
  602TMC3    C8 8929   3.004   4.529  17.507 -0.6801 -0.2949 -0.0191
  602TMC3    O1 8930   2.431   4.442  17.407 -0.2175  0.2265 -0.6083
  602TMC3    O2 8931   3.096   4.516  17.590 -0.1230  0.8040 -0.9411
  603TMC3    C1 8932   1.571   0.289  10.839 -0.0852  0.7793 -0.7399
  603TMC3    C2 8933   1.598   0.244  10.966  0.3364 -0.0343  0.0451
  603TMC3    C3 8934   1.694   0.304  11.036 -0.1662  0.5803  0.2745
  603TMC3    C4 8935   1.616   0.407  10.791 -0.6348  0.7409  0.3709
  603TMC3    C5 8936   1.707   0.469  10.867 -0.3077 -0.0721 -0.4634
  603TMC3    C6 8937   1.758   0.417  10.980  0.0384  0.5074  0.5874
  603TMC3     C 8938   1.444   0.235  10.781 -0.6284 -0.6701 -0.0374
  603TMC3     O 8939   1.407   0.127  10.824 -0.3914 -0.1222  0.4004
  603TMC3     H 8940   1.551   0.154  11.003  0.8252  1.5824  4.6712
  603TMC3    H1 8941   1.621   0.416  10.683 -0.9718 -1.8824  0.1186
  603TMC3    H2 8942   1.823   0.484  11.036  0.4409  0.4001  0.2481
  603TMC3    C7 8943   1.770   0.590  10.812  0.5116 -0.5179  0.8762
  603TMC3    C8 8944   1.719   0.274  11.174 -0.4935  0.4311  0.8859
  603TMC3    O1 8945   1.880   0.609  10.863 -0.2900 -0.4229  0.3768
  603TMC3    O2 8946   1.689   0.165  11.223  0.6776  0.7966  0.1380
  604MPD2     C 8947   1.918   3.162  16.373 -0.0702  0.5189 -0.4104
  604MPD2    C1 8948   1.976   3.286  16.375 -1.1959 -0.1801 -0.0100
  604MPD2    C2 8949   2.035   3.329  16.258 -0.4264 -0.5515  0.3525
  604MPD2    C3 8950   2.038   3.250  16.148  0.5932  0.3146  0.4966
  604MPD2    C4 8951   1.976   3.124  16.148  0.5910 -0.2718 -0.2702
  604MPD2    C5 8952   1.928   3.079  16.266 -0.3135  0.5709 -0.2352
  604MPD2     H 8953   2.095   3.420  16.253 -0.7214 -0.4982 -2.3791
  604MPD2    H1 8954   1.970   3.054  16.066 -1.6426  0.3964 -0.6818
  604MPD2    H2 8955   1.870   3.117  16.460  1.1760  0.0134  0.0158
  604MPD2    H3 8956   1.877   2.984  16.262 -0.3951  0.7123 -2.4996
  604MPD2     N 8957   2.101   3.303  16.029 -0.2029 -0.5421  0.5308
  604MPD2    H5 8958   2.141   3.396  16.032 -2.7134  0.5914 -1.3251
  604MPD2    N1 8959   1.964   3.378  16.482  0.1591 -0.4051 -0.0384
  604MPD2    H7 8960   1.998   3.473  16.471 -0.5113 -0.2665 -0.9474
  605TMC3    C1 8961   1.871   3.491  16.665  0.7440  0.3633  0.2206
  605TMC3    C2 8962   1.978   3.575  16.661 -0.0190  0.1342 -0.2451
  605TMC3    C3 8963   1.962   3.707  16.672  0.3956 -0.7232 -0.2339
  605TMC3    C4 8964   1.742   3.543  16.673 -0.0914 -0.1643  0.4992
  605TMC3    C5 8965   1.730   3.673  16.676  0.1273 -0.6536  0.5086
  605TMC3    C6 8966   1.836   3.757  16.680  0.2084  0.1644  0.5256
  605TMC3     C 8967   1.889   3.361  16.596  0.6630  0.0552  0.4782
  605TMC3     O 8968   1.810   3.268  16.622  0.4413 -0.2112  0.3995
  605TMC3     H 8969   2.075   3.528  16.648 -1.1274 -1.8347 -1.4989
  605TMC3    H1 8970   1.660   3.475  16.692 -1.5459  1.2936 -0.5439
  605TMC3    H2 8971   1.826   3.865  16.681  0.4115  0.1795  1.3887
  605TMC3    C7 8972   1.607   3.737  16.627  0.3274  0.1930  0.4290
  605TMC3    C8 8973   2.077   3.781  16.721 -0.4626  0.2385  0.2736
  605TMC3    O1 8974   1.592   3.854  16.658  0.0599  0.1193  0.3033
  605TMC3    O2 8975   2.175   3.713  16.753 -0.0524  0.5957 -0.3050
  606TMC3    C1 8976   3.544   2.150  17.484  0.1133 -0.1957 -0.5716
  606TMC3    C2 8977   3.652   2.123  17.565 -0.1757  0.4183 -0.2953
  606TMC3    C3 8978   3.729   2.020  17.520  0.1324 -0.0671 -0.2412
  606TMC3    C4 8979   3.514   2.086  17.362  0.5823 -0.7089  0.4443
  606TMC3    C5 8980   3.594   1.984  17.330 -0.2397  0.7969  0.7186
  606TMC3    C6 8981   3.710   1.950  17.402 -0.2353  0.4001 -0.0965
  606TMC3     C 8982   3.472   2.276  17.512  0.2189  0.6379 -0.6398
  606TMC3     O 8983   3.535   2.360  17.574  0.6664 -0.0865 -0.0451
  606TMC3     H 8984   3.657   2.175  17.660 -0.9294 -1.8597  1.0003
  606TMC3    H1 8985   3.421   2.100  17.308  0.2854  0.2892  1.1975
  606TMC3    H2 8986   3.783   1.876  17.371 -1.2444 -1.5955  2.3553
  606TMC3    C7 8987   3.535   1.875  17.252 -0.4988 -1.0988  0.1344
  606TMC3    C8 8988   3.846   1.984  17.601 -0.4486 -0.3450 -0.0775
  606TMC3    O1 8989   3.621   1.790  17.222  0.0257  0.5395 -0.0320
  606TMC3    O2 8990   3.931   1.911  17.552 -0.2503 -0.0904  0.1003
  607MPD2     C 8991   0.816   0.664  11.809  0.2961  0.1170  0.1732
  607MPD2    C1 8992   0.798   0.748  11.917 -0.0337  0.4437 -0.2255
  607MPD2    C2 8993   0.747   0.697  12.039 -0.4721 -0.4089  0.3645
  607MPD2    C3 8994   0.733   0.558  12.047  0.3179  0.8016 -0.4457
  607MPD2    C4 8995   0.749   0.478  11.933  0.6149  0.0324 -0.0908
  607MPD2    C5 8996   0.789   0.534  11.816  0.5029  0.5194 -0.2895
  607MPD2     H 8997   0.725   0.765  12.120  1.8787 -0.7620  1.2988
  607MPD2    H1 8998   0.735   0.370  11.936 -1.6616  0.3450  0.9037
  607MPD2    H2 8999   0.851   0.698  11.712  1.2521  0.9852  0.8320
  607MPD2    H3 9000   0.814   0.483  11.724  1.3885  0.5846 -0.0830
  607MPD2     N 9001   0.731   0.506  12.173  0.1872  0.0965 -0.6208
  607MPD2    H5 9002   0.733   0.579  12.243  0.8696  0.5953 -1.1678
  607MPD2    N1 9003   0.828   0.884  11.919  0.3544  0.4417 -0.0857
  607MPD2    H7 9004   0.807   0.936  12.004  2.3981 -0.0575  0.7298
  608TMC3    C1 9005   0.962   1.057  11.876 -0.0956 -0.8138  0.2232
  608TMC3    C2 9006   0.989   1.048  12.010  0.2168  0.6478 -0.2631
  608TMC3    C3 9007   1.095   1.118  12.064  0.1022 -0.2224  0.2971
  608TMC3    C4 9008   1.042   1.137  11.792  0.3076  0.9729  0.0253
  608TMC3    C5 9009   1.137   1.207  11.853  0.3173  0.2763  0.8109
  608TMC3    C6 9010   1.170   1.201  11.987 -0.5350  0.9446  0.0173
  608TMC3     C 9011   0.893   0.950  11.819  0.3942  0.0370  1.1573
  608TMC3     O 9012   0.935   0.914  11.711  0.1876  0.2116 -0.5711
  608TMC3     H 9013   0.925   1.000  12.084 -1.6834  0.0656 -2.2895
  608TMC3    H1 9014   1.040   1.131  11.683 -0.3768 -0.7280  0.1181
  608TMC3    H2 9015   1.261   1.245  12.027 -0.7122  1.3329 -0.0096
  608TMC3    C7 9016   1.242   1.250  11.757 -0.2559  0.4380  0.4846
  608TMC3    C8 9017   1.137   1.101  12.205 -0.0357  0.3542 -0.0960
  608TMC3    O1 9018   1.221   1.224  11.638 -0.0308 -0.0930 -0.4756
  608TMC3    O2 9019   1.198   1.195  12.257  0.2483  0.0775  0.1629
  609TMC3    C1 9020   4.649   4.527   9.443  0.2378  0.3944 -0.6427
  609TMC3    C2 9021   4.597   4.400   9.434  0.6494  0.4242 -0.5006
  609TMC3    C3 9022   4.692   4.302   9.420 -0.4546  0.3244 -0.5129
  609TMC3    C4 9023   0.060   4.554   9.435 -0.5994  0.3343  0.0835
  609TMC3    C5 9024   0.144   4.448   9.446  0.3826 -0.5634 -0.2118
  609TMC3    C6 9025   0.104   4.322   9.437 -0.2633  0.7487 -0.1360
  609TMC3     C 9026   4.582   4.600   9.546 -0.7436 -0.4376  0.1198
  609TMC3     O 9027   4.462   4.578   9.568 -1.0601 -0.6725 -0.0358
  609TMC3     H 9028   4.491   4.379   9.442  0.5248  0.4974 -1.9160
  609TMC3    H1 9029   0.107   4.651   9.429  1.4168 -0.7592 -1.5131
  609TMC3    H2 9030   0.186   4.255   9.414  0.8351  2.5057 -1.2851
  609TMC3    C7 9031   0.248   4.478   9.539  0.2056  0.4270 -0.0299
  609TMC3    C8 9032   4.650   4.172   9.360  0.1644 -0.5586  0.2648
  609TMC3    O1 9033   0.301   4.587   9.525 -1.4171 -0.5466  0.0966
  609TMC3    O2 9034   4.530   4.168   9.327 -0.0712  0.3350 -0.1084
  610TMC3    C1 9035   1.720   0.818  12.688 -0.3533  0.7727  0.3606
  610TMC3    C2 9036   1.614   0.812  12.604  1.6252  0.7371  0.4093
  610TMC3    C3 9037   1.536   0.699  12.608  0.2693  0.1073 -0.0626
  610TMC3    C4 9038   1.741   0.715  12.780  0.3503  0.8741  1.2239
  610TMC3    C5 9039   1.666   0.607  12.769 -1.1697 -0.2064  0.3384
  610TMC3    C6 9040   1.559   0.589  12.683 -0.5587  0.4158 -0.1231
  610TMC3     C 9041   1.823   0.908  12.654  0.4269 -0.0850  0.0366
  610TMC3     O 9042   1.805   0.962  12.542 -0.0316 -0.5692 -0.1007
  610TMC3     H 9043   1.596   0.895  12.537 -0.4206  1.2542  1.5866
  610TMC3    H1 9044   1.833   0.700  12.836 -0.1093 -2.5470  1.1143
  610TMC3    H2 9045   1.508   0.497  12.657  1.1051 -1.2113  2.3147
  610TMC3    C7 9046   1.707   0.482  12.838 -0.0756 -0.6220  0.2955
  610TMC3    C8 9047   1.467   0.667  12.481  0.2097 -0.0046  0.2546
  610TMC3    O1 9048   1.825   0.465  12.873  0.6963  0.3200  0.5913
  610TMC3    O2 9049   1.377   0.583  12.493 -0.2526  0.5027 -0.1245
  611MPD2     C 9050   0.796   1.137   9.851  0.3601 -0.3164  0.1834
  611MPD2    C1 9051   0.818   1.071   9.968 -0.3319 -0.1286  0.3081
  611MPD2    C2 9052   0.931   1.092  10.040 -0.4043  0.2568  0.3994
  611MPD2    C3 9053   1.035   1.176   9.981  0.2988 -0.5187  0.4576
  611MPD2    C4 9054   1.011   1.239   9.863 -0.7160 -0.1057  0.0660
  611MPD2    C5 9055   0.889   1.230   9.802  0.0200  0.3247  0.2341
  611MPD2     H 9056   0.953   1.056  10.140 -1.2308 -0.6587  0.2420
  611MPD2    H1 9057   1.079   1.314   9.825 -0.8078 -1.0838 -2.0171
  611MPD2    H2 9058   0.716   1.110   9.783 -0.4017  1.9518  0.2063
  611MPD2    H3 9059   0.870   1.274   9.705  1.8624 -0.6316 -0.5652
  611MPD2     N 9060   1.158   1.204  10.039  0.5880 -0.3421 -0.0491
  611MPD2    H5 9061   1.224   1.273  10.003 -0.6055  1.5479  1.3443
  611MPD2    N1 9062   0.709   0.987  10.014  0.5163  0.4225  0.6276
  611MPD2    H7 9063   0.617   0.990   9.970  1.3962 -3.0197 -1.4348
  612TMC3    C1 9064   1.312   1.226  10.208 -0.3192  0.3605  0.2284
  612TMC3    C2 9065   1.414   1.152  10.255  0.4677  0.1275  0.2213
  612TMC3    C3 9066   1.534   1.210  10.275  0.1421  0.1957 -0.2754
  612TMC3    C4 9067   1.329   1.352  10.164 -0.3461  0.7006 -0.2552
  612TMC3    C5 9068   1.456   1.402  10.185  0.0052 -0.1392  1.0192
  612TMC3    C6 9069   1.565   1.335  10.229  0.7023  0.1812 -0.3800
  612TMC3     C 9070   1.195   1.158  10.162  0.1566 -0.4251  0.3379
  612TMC3     O 9071   1.166   1.055  10.216  0.3697 -0.7494 -0.0745
  612TMC3     H 9072   1.396   1.046  10.270  1.4798  0.0235  0.6790
  612TMC3    H1 9073   1.243   1.411  10.134 -0.5444  0.8761  0.6710
  612TMC3    H2 9074   1.656   1.389  10.251 -0.5808  2.6499 -1.0844
  612TMC3    C7 9075   1.481   1.541  10.178 -0.0512 -0.1428 -0.3626
  612TMC3    C8 9076   1.646   1.138  10.335  0.1482  0.0556 -0.5269
  612TMC3    O1 9077   1.570   1.587  10.253 -0.3853 -0.6964 -0.1261
  612TMC3    O2 9078   1.754   1.193  10.327 -0.5945  0.0833  0.3141
  613MPD2     C 9079   3.698   2.730  16.915  0.1104 -0.2808  0.0046
  613MPD2    C1 9080   3.735   2.596  16.903  0.6903  0.5435 -0.8722
  613MPD2    C2 9081   3.648   2.516  16.832 -0.7656 -0.9156 -0.0373
  613MPD2    C3 9082   3.546   2.570  16.766 -0.5906  0.0411  0.6374
  613MPD2    C4 9083   3.520   2.707  16.766 -0.4372  0.0303 -0.2912
  613MPD2    C5 9084   3.598   2.789  16.841 -0.4365  0.2647  0.3686
  613MPD2     H 9085   3.671   2.411  16.831 -0.0350 -0.7527  0.0712
  613MPD2    H1 9086   3.428   2.746  16.723  0.0239  2.1965  0.7109
  613MPD2    H2 9087   3.766   2.799  16.964 -2.0370  0.2264  2.2943
  613MPD2    H3 9088   3.579   2.896  16.847  2.1272  0.7336  0.2745
  613MPD2     N 9089   3.481   2.481  16.688 -0.2876 -0.9166 -0.1450
  613MPD2    H5 9090   3.506   2.387  16.716 -0.4851 -1.1998 -0.9080
  613MPD2    N1 9091   3.860   2.534  16.954 -0.1360 -0.2494  0.3564
  613MPD2    H7 9092   3.878   2.438  16.928  0.4304 -0.6284  2.2135
  614TMC3    C1 9093   4.090   2.526  16.998 -0.1919  0.3220  0.4576
  614TMC3    C2 9094   4.063   2.386  17.009 -0.0534  0.5915 -0.1985
  614TMC3    C3 9095   4.129   2.309  16.918  0.0150 -0.3900 -0.1355
  614TMC3    C4 9096   4.178   2.577  16.909 -0.1983 -0.3225 -0.0465
  614TMC3    C5 9097   4.218   2.487  16.812 -0.3558 -0.0727 -0.1201
  614TMC3    C6 9098   4.205   2.354  16.814 -0.0423  0.2834  0.3770
  614TMC3     C 9099   3.963   2.600  17.015  0.0134 -0.4303 -0.1815
  614TMC3     O 9100   3.975   2.715  17.051  0.1352  0.0563  0.1964
  614TMC3     H 9101   3.986   2.347  17.074  0.2041 -1.1225 -0.9216
  614TMC3    H1 9102   4.183   2.684  16.892 -0.5119 -0.5469 -1.5809
  614TMC3    H2 9103   4.243   2.287  16.738 -0.7775  0.3120 -0.0163
  614TMC3    C7 9104   4.292   2.546  16.713  0.7577  0.1521 -0.2293
  614TMC3    C8 9105   4.024   2.224  16.866 -0.7949  0.5375  0.2854
  614TMC3    O1 9106   4.384   2.618  16.750 -0.4434  0.2180  0.1578
  614TMC3    O2 9107   3.917   2.284  16.876 -0.8116  0.0069 -0.3319
  615MPD2     C 9108   3.535   3.075  16.499  0.3580  0.0497  0.2606
  615MPD2    C1 9109   3.600   3.152  16.409 -0.7536  0.9010 -0.1683
  615MPD2    C2 9110   3.546   3.170  16.285 -0.2216 -0.4235 -0.0765
  615MPD2    C3 9111   3.424   3.125  16.256  0.4945  0.0903  0.2119
  615MPD2    C4 9112   3.358   3.049  16.355  0.7030  0.5700 -0.2917
  615MPD2    C5 9113   3.412   3.014  16.472  0.0403  1.1279  0.5833
  615MPD2     H 9114   3.601   3.228  16.212 -2.9334  0.8920 -1.0526
  615MPD2    H1 9115   3.253   3.023  16.351  0.7316 -0.1612  4.0016
  615MPD2    H2 9116   3.578   3.054  16.596 -2.6246 -0.4664  1.4714
  615MPD2    H3 9117   3.356   2.964  16.550  0.9403 -2.2046 -0.9001
  615MPD2     N 9118   3.359   3.167  16.134 -0.4762  0.2819  0.8897
  615MPD2    H5 9119   3.407   3.229  16.070  0.4831  2.4364  3.7093
  615MPD2    N1 9120   3.737   3.208  16.430  0.3256 -0.1207  0.2944
  615MPD2    H7 9121   3.769   3.267  16.354  2.1254 -1.8355 -0.2987
  616TMC3    C1 9122   3.946   3.261  16.538 -0.0175  0.8198  0.5685
  616TMC3    C2 9123   3.989   3.326  16.424  0.2830 -0.5366 -0.0234
  616TMC3    C3 9124   4.109   3.389  16.431  0.7974  0.4606 -0.1759
  616TMC3    C4 9125   4.017   3.278  16.653  0.1010 -0.5036 -0.2422
  616TMC3    C5 9126   4.132   3.349  16.649  0.3408  0.2095  0.1819
  616TMC3    C6 9127   4.189   3.397  16.539 -0.4108  0.3007  0.1595
  616TMC3     C 9128   3.813   3.197  16.547  0.1755  1.7805  0.5521
  616TMC3     O 9129   3.792   3.136  16.651  0.0394 -0.0066  0.3309
  616TMC3     H 9130   3.933   3.330  16.331 -1.2444  0.9077  0.9676
  616TMC3    H1 9131   3.975   3.243  16.747 -0.7480 -2.4593 -1.3395
  616TMC3    H2 9132   4.292   3.429  16.539  0.6777 -3.2421 -1.3265
  616TMC3    C7 9133   4.204   3.364  16.772  0.8481  0.2745  0.1867
  616TMC3    C8 9134   4.124   3.500  16.336 -0.0519 -0.5170 -0.4769
  616TMC3    O1 9135   4.323   3.390  16.771 -0.8575 -0.0732 -0.8752
  616TMC3    O2 9136   4.048   3.497  16.239 -0.1543  0.7363 -0.4308
  617MPD2     C 9137   2.009   2.098  13.492  0.0358  0.1106  0.0545
  617MPD2    C1 9138   1.992   2.151  13.617  0.8099  0.6847 -0.1302
  617MPD2    C2 9139   1.873   2.131  13.683 -0.5960 -0.7436  0.6396
  617MPD2    C3 9140   1.768   2.051  13.636  0.0622  0.5540 -0.2514
  617MPD2    C4 9141   1.792   1.996  13.508  0.6778 -0.4285 -0.4454
  617MPD2    C5 9142   1.905   2.030  13.434  0.3659 -0.6434  0.1226
  617MPD2     H 9143   1.861   2.173  13.782  0.1179  2.6320 -0.6916
  617MPD2    H1 9144   1.722   1.924  13.467  0.9688  0.7041 -2.9236
  617MPD2    H2 9145   2.102   2.107  13.438 -0.4229  1.2182 -0.5568
  617MPD2    H3 9146   1.920   1.978  13.339 -0.7034 -1.9377  0.6699
  617MPD2     N 9147   1.644   2.018  13.701  0.2469 -0.0704  0.7103
  617MPD2    H5 9148   1.583   1.953  13.652  2.6165 -0.3217 -1.9531
  617MPD2    N1 9149   2.096   2.233  13.667 -0.8733 -0.1084 -0.0031
  617MPD2    H7 9150   2.158   2.255  13.590 -0.0054 -1.2573  0.3756
  618TMC3    C1 9151   2.217   2.387  13.791  0.2301 -0.1909 -0.3128
  618TMC3    C2 9152   2.305   2.376  13.893 -0.6639 -0.2494 -0.3309
  618TMC3    C3 9153   2.442   2.380  13.851  0.2259 -1.0911  0.1048
  618TMC3    C4 9154   2.256   2.427  13.665 -0.3430  0.3606  0.3696
  618TMC3    C5 9155   2.386   2.409  13.629 -0.0116 -0.1705 -0.2280
  618TMC3    C6 9156   2.485   2.387  13.722  0.1634 -0.4853  0.3028
  618TMC3     C 9157   2.113   2.284  13.791  0.0771 -0.6312  0.0705
  618TMC3     O 9158   2.067   2.256  13.901  0.2568  0.4617  0.6021
  618TMC3     H 9159   2.276   2.353  13.995 -1.4391  0.4966 -0.3869
  618TMC3    H1 9160   2.181   2.438  13.588  0.2673  0.8439 -0.1536
  618TMC3    H2 9161   2.586   2.406  13.690 -0.3252 -0.2576 -1.0862
  618TMC3    C7 9162   2.391   2.335  13.504  0.7239  0.0604 -0.2315
  618TMC3    C8 9163   2.545   2.356  13.949 -0.2850 -0.4388 -0.3313
  618TMC3    O1 9164   2.292   2.281  13.460  0.1891  0.3787  0.1789
  618TMC3    O2 9165   2.510   2.389  14.062  0.3267 -0.2903 -0.4367
  619MPD2     C 9166   3.561   3.092  13.399 -0.8023 -0.2302 -0.0980
  619MPD2    C1 9167   3.483   3.173  13.322 -0.0220  0.3031 -0.2124
  619MPD2    C2 9168   3.351   3.195  13.347 -0.0915  0.3355  0.0276
  619MPD2    C3 9169   3.285   3.118  13.445 -0.2699  0.0659  0.2837
  619MPD2    C4 9170   3.362   3.024  13.515 -0.4872 -0.0306 -0.0594
  619MPD2    C5 9171   3.494   3.021  13.503  0.3062 -0.2556 -0.6340
  619MPD2     H 9172   3.303   3.251  13.268  0.6268 -0.4159 -0.9537
  619MPD2    H1 9173   3.317   2.946  13.576  0.6396  0.5401  1.5041
  619MPD2    H2 9174   3.669   3.087  13.397 -0.7328  0.8151  0.8611
  619MPD2    H3 9175   3.550   2.936  13.542 -1.7279  0.0242  2.8960
  619MPD2     N 9176   3.146   3.116  13.461  0.5791  0.3655 -0.0005
  619MPD2    H5 9177   3.107   3.044  13.520  0.7341 -0.8267 -1.3611
  619MPD2    N1 9178   3.525   3.237  13.198  0.3476 -0.5230 -0.1266
  619MPD2    H7 9179   3.460   3.298  13.149  0.0485 -1.3155 -0.7053
  620TMC3    C1 9180   3.669   3.322  13.038  0.0432 -0.5882  0.4468
  620TMC3    C2 9181   3.557   3.341  12.957  0.4180 -0.1013 -0.8840
  620TMC3    C3 9182   3.543   3.456  12.887  0.0323  0.5539  0.3048
  620TMC3    C4 9183   3.764   3.419  13.055 -0.2892 -0.2707  0.1141
  620TMC3    C5 9184   3.740   3.537  12.992  0.1104 -0.3653  0.2038
  620TMC3    C6 9185   3.631   3.559  12.900 -0.2231 -0.3623  0.0778
  620TMC3     C 9186   3.656   3.233  13.154  0.0348 -0.3620 -0.2364
  620TMC3     O 9187   3.762   3.216  13.215 -0.3285  0.6563  0.1482
  620TMC3     H 9188   3.495   3.253  12.938  1.2111 -0.8298 -0.1139
  620TMC3    H1 9189   3.827   3.424  13.143 -0.0413  0.2200 -0.0897
  620TMC3    H2 9190   3.628   3.649  12.840  2.4145 -1.7539 -2.1486
  620TMC3    C7 9191   3.806   3.645  13.054 -0.7124  0.0305  0.3990
  620TMC3    C8 9192   3.406   3.495  12.864 -0.5964  0.3727  0.4878
  620TMC3    O1 9193   3.911   3.629  13.118  0.2420 -0.0676 -0.3145
  620TMC3    O2 9194   3.314   3.426  12.905 -0.1529  0.2949 -0.3403
  621MPD2     C 9195   3.834   3.704  10.059  0.5416 -0.5249 -0.8524
  621MPD2    C1 9196   3.915   3.657  10.160 -0.0777 -0.2857  0.0827
  621MPD2    C2 9197   4.046   3.696  10.174 -0.2318  0.6653  0.1434
  621MPD2    C3 9198   4.105   3.774  10.080  0.3999  0.0670 -0.2516
  621MPD2    C4 9199   4.034   3.798   9.962  0.4037 -0.4172 -0.8151
  621MPD2    C5 9200   3.901   3.772   9.960 -0.1017 -0.6817  0.2445
  621MPD2     H 9201   4.095   3.675  10.269  0.7439  0.9250 -0.2980
  621MPD2    H1 9202   4.076   3.856   9.881  2.5229 -0.5537  0.1751
  621MPD2    H2 9203   3.727   3.694  10.054  0.2279  1.5175  1.6926
  621MPD2    H3 9204   3.843   3.813   9.878 -0.5109  0.4848  1.1303
  621MPD2     N 9205   4.231   3.824  10.119  0.1348 -0.1282 -0.3678
  621MPD2    H5 9206   4.261   3.794  10.211  0.5412  2.5188  0.3710
  621MPD2    N1 9207   3.867   3.579  10.269  0.0801 -0.1446  0.1656
  621MPD2    H7 9208   3.926   3.555  10.349 -1.5560 -1.8849  0.8690
  622TMC3    C1 9209   3.730   3.434  10.384 -0.7273  0.2436 -0.0225
  622TMC3    C2 9210   3.665   3.507  10.485  0.1111 -0.3714 -0.0227
  622TMC3    C3 9211   3.541   3.470  10.529 -0.2981  0.4552  0.2755
  622TMC3    C4 9212   3.667   3.319  10.342 -0.1346  0.3518  0.4749
  622TMC3    C5 9213   3.547   3.279  10.392 -0.3520  0.3300  0.3649
  622TMC3    C6 9214   3.475   3.354  10.484  0.0211  0.3590  0.1166
  622TMC3     C 9215   3.756   3.505  10.263  0.4191 -0.3286  0.5933
  622TMC3     O 9216   3.683   3.474  10.169 -0.4277 -0.3158  0.4691
  622TMC3     H 9217   3.710   3.595  10.531 -1.8361  2.0529 -2.7381
  622TMC3    H1 9218   3.713   3.248  10.274  0.3524 -0.7663  1.9772
  622TMC3    H2 9219   3.382   3.309  10.516  0.9755 -0.9507  1.0608
  622TMC3    C7 9220   3.462   3.221  10.297 -0.6483 -0.3928 -0.3475
  622TMC3    C8 9221   3.484   3.518  10.651 -0.3339 -0.7224 -0.6713
  622TMC3    O1 9222   3.365   3.154  10.337  0.7864  0.3522 -0.0175
  622TMC3    O2 9223   3.393   3.453  10.697  0.4219  0.3739  0.2687
  623MPD2     C 9224   2.622   4.295  16.109  0.4626  0.3215  0.5140
  623MPD2    C1 9225   2.525   4.233  16.182 -1.0938 -0.2383 -0.4275
  623MPD2    C2 9226   2.564   4.187  16.309  0.7059 -0.2260  0.0020
  623MPD2    C3 9227   2.697   4.197  16.351  0.4683 -0.6646 -0.1808
  623MPD2    C4 9228   2.791   4.259  16.269 -0.0563  0.1017 -0.1650
  623MPD2    C5 9229   2.753   4.305  16.148 -0.3235 -0.0360  0.2333
  623MPD2     H 9230   2.493   4.141  16.377 -1.4919  2.9571 -0.1336
  623MPD2    H1 9231   2.894   4.279  16.297 -0.1028 -0.0810  0.1332
  623MPD2    H2 9232   2.595   4.331  16.010  2.2228  2.1549  0.6917
  623MPD2    H3 9233   2.823   4.358  16.085  1.8236 -1.6465  1.2768
  623MPD2     N 9234   2.723   4.157  16.477 -0.5221 -0.1958  0.7648
  623MPD2    H5 9235   2.650   4.104  16.524 -2.0114  1.7505  0.6187
  623MPD2    N1 9236   2.391   4.222  16.133 -0.3160 -0.3424  0.6313
  623MPD2    H7 9237   2.360   4.273  16.050  0.5209 -0.5559  0.1916
  624TMC3    C1 9238   2.943   3.973  16.837  0.0311 -0.6337  0.1631
  624TMC3    C2 9239   2.823   3.941  16.896  0.0380  0.1103  0.3239
  624TMC3    C3 9240   2.714   4.011  16.849 -0.5088  0.0957  0.4740
  624TMC3    C4 9241   2.949   4.063  16.735 -0.4063  0.6865 -0.2562
  624TMC3    C5 9242   2.837   4.120  16.686  0.7591 -0.3532  0.0052
  624TMC3    C6 9243   2.718   4.095  16.741 -0.2767  0.2639 -0.0035
  624TMC3     C 9244   3.059   3.897  16.882 -0.4616  0.0741  0.2789
  624TMC3     O 9245   3.041   3.811  16.966 -0.7149 -0.1789 -0.0056
  624TMC3     H 9246   2.817   3.872  16.980  0.5046 -1.5907 -1.0308
  624TMC3    H1 9247   3.044   4.082  16.685 -1.2944  1.4608 -1.6629
  624TMC3    H2 9248   2.628   4.137  16.697  0.0958 -0.9007 -1.8752
  624TMC3    C7 9249   2.846   4.162  16.542 -0.5425  0.2550  0.6609
  624TMC3    C8 9250   2.580   3.956  16.879 -0.3404 -0.6059 -0.5140
  624TMC3    O1 9251   2.958   4.188  16.503 -0.6218  0.0653 -0.1781
  624TMC3    O2 9252   2.559   3.837  16.858  0.4091  1.2025  0.0357
  625MPD2     C 9253   2.801   0.068   0.218  0.5604 -0.5925  0.1784
  625MPD2    C1 9254   2.879   0.174   0.254 -1.4350  0.0464  0.1695
  625MPD2    C2 9255   3.008   0.161   0.305  0.6992 -0.0717 -0.5358
  625MPD2    C3 9256   3.069   0.038   0.319 -0.5926 -0.0282  0.5801
  625MPD2    C4 9257   3.000   4.650   0.267 -0.2392  0.0496 -0.7510
  625MPD2    C5 9258   2.869   4.675   0.223 -0.3609 -0.6491 -0.1753
  625MPD2     H 9259   3.063   0.246   0.345  0.9605 -0.4350 -0.1319
  625MPD2    H1 9260   3.041   4.550   0.277  1.2045  0.4246 -2.7849
  625MPD2    H2 9261   2.694   0.068   0.206  0.3184 -0.4217  2.3682
  625MPD2    H3 9262   2.802   4.596   0.194  0.6393 -2.4110  2.3322
  625MPD2     N 9263   3.194   0.037   0.374  0.1720 -0.0174  0.1212
  625MPD2    H5 9264   3.231   0.123   0.411 -0.6760 -0.2204  1.4564
  625MPD2    N1 9265   2.835   0.306   0.220  0.8635  0.5208 -0.5085
  625MPD2    H7 9266   2.912   0.372   0.210 -0.1747  1.6076 -1.2994
  626TMC3    C1 9267   2.724   0.494   0.190  0.2857 -0.0888 -0.0850
  626TMC3    C2 9268   2.628   0.558   0.118  0.2572 -0.5557 -0.5771
  626TMC3    C3 9269   2.608   0.691   0.127 -0.0492  0.0389  0.1860
  626TMC3    C4 9270   2.804   0.563   0.281 -0.1551 -0.4667 -0.0319
  626TMC3    C5 9271   2.788   0.698   0.287 -0.0442 -0.0557 -0.6302
  626TMC3    C6 9272   2.693   0.767   0.210  0.0520  0.0999 -0.3353
  626TMC3     C 9273   2.709   0.355   0.204 -0.3076  0.4521 -0.2950
  626TMC3     O 9274   2.600   0.302   0.194 -0.0322 -0.3607 -0.2806
  626TMC3     H 9275   2.570   0.499   0.048  0.9191 -1.6620 -0.2089
  626TMC3    H1 9276   2.879   0.512   0.341 -2.6093 -1.8184  1.8676
  626TMC3    H2 9277   2.704   0.871   0.182  0.4783  0.2377  0.3448
  626TMC3    C7 9278   2.871   0.778   0.376 -0.1983  0.0395 -0.5980
  626TMC3    C8 9279   2.543   0.755   0.018 -0.9684 -0.3589 -0.7604
  626TMC3    O1 9280   2.975   0.723   0.409  0.5554 -0.6903 -0.0972
  626TMC3    O2 9281   2.515   0.691  17.614 -0.3250  0.2408  0.5704
  627MPD2     C 9282   0.701   1.228  14.376 -0.5784  0.2155 -0.7080
  627MPD2    C1 9283   0.746   1.197  14.506  0.1042 -0.3428  0.6004
  627MPD2    C2 9284   0.726   1.067  14.554  0.2041  0.1586  0.9661
  627MPD2    C3 9285   0.661   0.967  14.479 -0.6554 -0.0814 -0.7817
  627MPD2    C4 9286   0.604   0.997  14.361  0.2478  0.8094 -0.1726
  627MPD2    C5 9287   0.634   1.127  14.310  0.5601 -0.0246 -0.3363
  627MPD2     H 9288   0.763   1.043  14.653  0.0074 -2.8358  0.3117
  627MPD2    H1 9289   0.551   0.929  14.295 -2.2963  0.5607  2.1354
  627MPD2    H2 9290   0.716   1.323  14.326 -1.2488  0.0462 -1.2278
  627MPD2    H3 9291   0.600   1.158  14.212 -1.9206 -1.2202  0.1476
  627MPD2     N 9292   0.650   0.837  14.539  0.2864 -0.0275 -1.5412
  627MPD2    H5 9293   0.698   0.829  14.629 -1.2151 -1.3633 -0.8414
  627MPD2    N1 9294   0.822   1.282  14.597  0.2752  0.2039  0.5830
  627MPD2    H7 9295   0.855   1.245  14.685 -1.6306 -0.2755  1.0933
  628TMC3    C1 9296   0.918   1.489  14.670  0.3604  0.7701 -0.5135
  628TMC3    C2 9297   1.011   1.421  14.753 -0.6312 -0.0414  0.6751
  628TMC3    C3 9298   1.111   1.495  14.816  0.3537  0.3729 -0.2731
  628TMC3    C4 9299   0.938   1.622  14.636 -0.3094 -0.3371  0.0777
  628TMC3    C5 9300   1.038   1.689  14.696  0.0940 -0.8668  0.0659
  628TMC3    C6 9301   1.127   1.628  14.788  0.3861  0.4168  0.1700
  628TMC3     C 9302   0.835   1.416  14.573  0.5780  0.2603  0.3050
  628TMC3     O 9303   0.780   1.485  14.485 -0.1104 -0.0922  0.1551
  628TMC3     H 9304   0.982   1.324  14.791  1.1275 -2.2856 -3.6934
  628TMC3    H1 9305   0.868   1.668  14.568 -1.6305 -0.0745  1.6023
  628TMC3    H2 9306   1.228   1.667  14.795  0.5465 -0.2925  1.6465
  628TMC3    C7 9307   1.072   1.812  14.623  0.0417  0.9500  0.1051
  628TMC3    C8 9308   1.199   1.418  14.908 -0.1172 -0.5202 -0.1286
  628TMC3    O1 9309   0.999   1.857  14.538  0.2977  0.0107  0.2365
  628TMC3    O2 9310   1.193   1.297  14.891  0.0204  0.1053  0.1997
  629MPD2     C 9311   4.281   3.963  16.189  0.2588 -0.2192  0.6417
  629MPD2    C1 9312   4.357   3.928  16.300  1.1680 -0.1248  0.3120
  629MPD2    C2 9313   4.330   3.811  16.352  0.0402 -0.5563  0.4057
  629MPD2    C3 9314   4.245   3.723  16.292  0.7512 -0.4408  0.0603
  629MPD2    C4 9315   4.173   3.755  16.179 -0.0721 -0.2936  0.4798
  629MPD2    C5 9316   4.191   3.875  16.129 -0.1677 -0.6908 -0.1053
  629MPD2     H 9317   4.378   3.769  16.440 -0.7481  1.4344  1.7968
  629MPD2    H1 9318   4.108   3.684  16.128  1.8366 -1.9724  0.3654
  629MPD2    H2 9319   4.307   4.054  16.137 -0.2913  0.0026  0.7620
  629MPD2    H3 9320   4.150   3.889  16.029  1.3594  0.4968 -0.5639
  629MPD2     N 9321   4.219   3.595  16.358 -0.3445  0.4413  0.3158
  629MPD2    H5 9322   4.289   3.583  16.431 -1.3163  0.3515  1.2275
  629MPD2    N1 9323   4.456   4.021  16.351 -0.7344 -0.1026 -0.6230
  629MPD2    H7 9324   4.465   4.115  16.314 -0.1816 -0.3234 -1.0435
  630TMC3    C1 9325   4.665   4.073  16.458 -1.1103 -0.4324 -0.3543
  630TMC3    C2 9326   4.658   4.198  16.409 -0.0694 -0.1644  0.3259
  630TMC3    C3 9327   0.020   4.286  16.469  0.6596  0.1312  0.1894
  630TMC3    C4 9328   0.001   4.031  16.571 -0.0080  0.2868  0.4171
  630TMC3    C5 9329   0.094   4.115  16.615  0.4456 -0.5141 -0.8941
  630TMC3    C6 9330   0.105   4.245  16.572 -0.2221 -0.4578 -0.1116
  630TMC3     C 9331   4.559   3.981  16.428 -0.3354 -0.2593 -0.0306
  630TMC3     O 9332   4.575   3.874  16.482 -0.0795 -0.0239  0.1749
  630TMC3     H 9333   4.609   4.231  16.318  1.4539 -0.2199 -0.5197
  630TMC3    H1 9334   0.016   3.930  16.607  0.4561  0.0204 -0.5130
  630TMC3    H2 9335   0.149   4.321  16.635  1.8839 -2.4197  0.8061
  630TMC3    C7 9336   0.212   4.073  16.687 -0.1360 -0.5381  0.6484
  630TMC3    C8 9337   0.100   4.372  16.384 -0.5755  0.3007  0.0377
  630TMC3    O1 9338   0.218   3.972  16.754 -0.0689  0.2561 -0.4395
  630TMC3    O2 9339   0.221   4.357  16.400  0.1358 -0.1153  0.0408
  631MPD2     C 9340   2.513   3.630  15.787  0.1499  1.2206  0.1847
  631MPD2    C1 9341   2.609   3.646  15.690 -0.0223 -0.7587  0.2419
  631MPD2    C2 9342   2.712   3.551  15.669  0.1319 -0.2741  0.2890
  631MPD2    C3 9343   2.721   3.432  15.739  0.6688 -0.0400 -0.8211
  631MPD2    C4 9344   2.609   3.412  15.817  0.4372 -0.5398  0.3052
  631MPD2    C5 9345   2.508   3.504  15.837  0.0224 -0.1301 -0.7708
  631MPD2     H 9346   2.798   3.580  15.609 -1.0627  1.7799 -0.4108
  631MPD2    H1 9347   2.588   3.323  15.875  0.0726 -0.8254 -0.2762
  631MPD2    H2 9348   2.444   3.711  15.811 -0.7417  0.1425  1.2150
  631MPD2    H3 9349   2.426   3.467  15.898  1.2721 -0.0823  0.9499
  631MPD2     N 9350   2.841   3.354  15.754  0.4698  0.2673 -0.3810
  631MPD2    H5 9351   2.918   3.391  15.699 -0.8646 -0.5168 -2.7689
  631MPD2    N1 9352   2.600   3.763  15.618  0.2922  0.2728 -0.1900
  631MPD2    H7 9353   2.531   3.830  15.653  1.2390  1.0331  0.2366
  632TMC3    C1 9354   2.622   3.907  15.432 -1.0067 -0.2821  0.4996
  632TMC3    C2 9355   2.604   4.011  15.521 -0.2085 -0.1623  0.2794
  632TMC3    C3 9356   2.632   4.139  15.474 -0.3562  0.6948 -0.4659
  632TMC3    C4 9357   2.664   3.917  15.301 -0.4456  0.0414 -0.2586
  632TMC3    C5 9358   2.678   4.048  15.265  0.0506 -0.0383 -0.3996
  632TMC3    C6 9359   2.666   4.159  15.341  0.7809  0.2977 -0.1887
  632TMC3     C 9360   2.658   3.780  15.490  0.8083  0.2409 -0.0479
  632TMC3     O 9361   2.722   3.699  15.423 -0.0792  0.1173  0.2876
  632TMC3     H 9362   2.571   3.993  15.623 -2.6571  0.2062 -0.4396
  632TMC3    H1 9363   2.664   3.829  15.238 -0.8555  0.8411 -1.3540
  632TMC3    H2 9364   2.689   4.254  15.294 -2.4521  0.7431 -0.8927
  632TMC3    C7 9365   2.721   4.077  15.127  0.5822 -0.2925  0.7818
  632TMC3    C8 9366   2.639   4.241  15.570  0.2058  0.3435  0.6426
  632TMC3    O1 9367   2.659   4.171  15.076  0.1733  0.4118  0.2925
  632TMC3    O2 9368   2.557   4.249  15.659  0.9169 -0.3232 -0.1122
  633MPD2     C 9369   2.482   2.376  17.525  0.0144  0.2622 -0.0596
  633MPD2    C1 9370   2.526   2.308  17.414  0.4386 -0.2630 -0.6382
  633MPD2    C2 9371   2.562   2.175  17.413 -0.4088 -0.0964 -0.2758
  633MPD2    C3 9372   2.543   2.101  17.528  0.1666  1.0110 -0.0159
  633MPD2    C4 9373   2.478   2.160  17.639 -0.0215  0.0843 -0.1386
  633MPD2    C5 9374   2.454   2.297  17.631 -0.0068  0.6641 -0.5306
  633MPD2     H 9375   2.608   2.131  17.325  0.8054  3.0348 -1.2036
  633MPD2    H1 9376   2.447   2.105   0.029  0.6949 -0.1257 -0.0227
  633MPD2    H2 9377   2.448   2.479  17.524  3.1873  1.3433  3.7370
  633MPD2    H3 9378   2.398   2.338   0.016  0.9963 -0.9675  0.9360
  633MPD2     N 9379   2.572   1.964  17.530 -0.2558 -1.1493  0.1974
  633MPD2    H5 9380   2.522   1.902  17.592 -2.3845  0.6980  0.3294
  633MPD2    N1 9381   2.541   2.363  17.284  0.0443  0.3337 -0.0621
  633MPD2    H7 9382   2.575   2.307  17.207 -0.4673 -0.9670  0.6591
  634TMC3    C1 9383   2.529   2.537  17.112  0.1860 -0.3785 -0.5048
  634TMC3    C2 9384   2.640   2.483  17.050 -0.2009  0.3305  1.3551
  634TMC3    C3 9385   2.681   2.540  16.932 -0.4050  0.5638 -0.7403
  634TMC3    C4 9386   2.469   2.650  17.063 -0.1840 -0.2393 -0.1618
  634TMC3    C5 9387   2.519   2.701  16.946 -0.3331 -0.0262  0.3791
  634TMC3    C6 9388   2.626   2.651  16.879  0.3647 -0.5531  0.8750
  634TMC3     C 9389   2.492   2.490  17.250  0.2469  0.6884  0.3209
  634TMC3     O 9390   2.422   2.570  17.316  0.5044 -0.1471 -0.4915
  634TMC3     H 9391   2.681   2.393  17.092  1.9641  0.6135 -0.1673
  634TMC3    H1 9392   2.385   2.687  17.121 -0.7545  0.1886 -1.2794
  634TMC3    H2 9393   2.656   2.693  16.784  0.6361  0.2086  1.3057
  634TMC3    C7 9394   2.445   2.799  16.869  0.3873 -0.9869 -0.2596
  634TMC3    C8 9395   2.692   2.433  16.836  1.0053 -0.7166  0.4833
  634TMC3    O1 9396   2.465   2.783  16.747 -0.1605  0.0111 -0.0659
  634TMC3    O2 9397   2.644   2.325  16.873  0.0297  0.8033 -0.3273
  635TMC3    C1 9398   2.436   2.991   0.516 -0.4388  0.2707  0.7319
  635TMC3    C2 9399   2.556   2.941   0.466  0.7407 -0.0054  0.2124
  635TMC3    C3 9400   2.603   2.839   0.538  0.1609  0.4434 -0.4551
  635TMC3    C4 9401   2.360   2.943   0.615 -0.0797 -0.7276 -0.0548
  635TMC3    C5 9402   2.412   2.834   0.675  0.3677 -0.5041 -0.2298
  635TMC3    C6 9403   2.535   2.776   0.648 -0.2975 -0.6702 -0.1421
  635TMC3     C 9404   2.372   3.091   0.441  0.9157 -0.0495  0.2990
  635TMC3     O 9405   2.278   3.143   0.506 -0.0285 -0.1309  0.3570
  635TMC3     H 9406   2.605   2.992   0.385 -1.7686  1.8082 -0.1678
  635TMC3    H1 9407   2.264   2.986   0.640 -0.4200 -1.8305  0.5260
  635TMC3    H2 9408   2.575   2.698   0.713 -0.5804 -1.0637 -0.4418
  635TMC3    C7 9409   2.316   2.738   0.731 -0.0733 -0.3564  0.1871
  635TMC3    C8 9410   2.734   2.789   0.493  0.5075 -0.7127 -0.6259
  635TMC3    O1 9411   2.347   2.621   0.738 -0.0058 -0.5638  0.1220
  635TMC3    O2 9412   2.799   2.867   0.427  0.2711  0.2835  0.2405
  636MPD2     C 9413   3.889   2.685  16.001  0.6075  0.2178 -0.6508
  636MPD2    C1 9414   3.768   2.670  15.947 -0.6617  0.2314  0.9702
  636MPD2    C2 9415   3.675   2.592  16.010  0.0079  0.3416  0.4974
  636MPD2    C3 9416   3.708   2.526  16.123  0.7535 -0.1419 -0.2207
  636MPD2    C4 9417   3.830   2.548  16.186  0.3248  0.8318 -0.3968
  636MPD2    C5 9418   3.914   2.629  16.125 -0.5075  0.2290  0.1545
  636MPD2     H 9419   3.574   2.595  15.969  0.3831  2.1445 -0.2936
  636MPD2    H1 9420   3.848   2.512  16.286 -0.8255  2.9253  0.5629
  636MPD2    H2 9421   3.963   2.757  15.967  0.8754 -0.7373 -2.0817
  636MPD2    H3 9422   4.008   2.656  16.173 -0.1536 -0.0896 -0.3635
  636MPD2     N 9423   3.601   2.444  16.180  0.1996  0.1984 -0.0799
  636MPD2    H5 9424   3.517   2.454  16.123 -0.2635  0.2427  0.5981
  636MPD2    N1 9425   3.737   2.755  15.829 -0.7037  0.4552  0.5067
  636MPD2    H7 9426   3.641   2.760  15.800 -0.2205  2.0603 -0.8173
  637TMC3    C1 9427   3.490   2.296  16.330  0.6724  0.4917 -0.4460
  637TMC3    C2 9428   3.419   2.397  16.387 -0.2265  0.2420 -0.1615
  637TMC3    C3 9429   3.366   2.383  16.517  0.0758 -0.3106  0.0714
  637TMC3    C4 9430   3.495   2.174  16.394  0.2881 -0.6629 -0.6512
  637TMC3    C5 9431   3.449   2.165  16.524 -0.5001  0.4538 -0.1134
  637TMC3    C6 9432   3.382   2.265  16.581 -0.0599 -0.4753  0.2963
  637TMC3     C 9433   3.618   2.340  16.272  0.4530  0.3241  0.8393
  637TMC3     O 9434   3.723   2.291  16.316 -0.4036  0.1157  0.5432
  637TMC3     H 9435   3.425   2.499  16.352  2.3084  0.9787  2.4094
  637TMC3    H1 9436   3.534   2.088  16.341 -2.1366 -1.8910 -0.4699
  637TMC3    H2 9437   3.354   2.257  16.685 -1.0283  1.8703  0.2254
  637TMC3    C7 9438   3.567   2.139  16.607  1.2827 -0.6397  0.0280
  637TMC3    C8 9439   3.393   2.509  16.586  0.0961 -0.0921  0.4561
  637TMC3    O1 9440   3.578   2.213  16.704 -0.4495 -0.4937  0.2718
  637TMC3    O2 9441   3.345   2.613  16.550 -0.1356 -0.2206  0.5067
  638MPD2     C 9442   3.625   1.107  15.258 -0.0151 -0.3191 -0.2951
  638MPD2    C1 9443   3.545   1.037  15.175  0.0171 -0.2671  0.3147
  638MPD2    C2 9444   3.449   0.954  15.234 -0.5022  0.2753  0.5131
  638MPD2    C3 9445   3.426   0.962  15.370  0.4494 -0.2533  0.6192
  638MPD2    C4 9446   3.514   1.030  15.450  0.4814  0.7087 -0.3271
  638MPD2    C5 9447   3.617   1.097  15.394 -0.1020  0.5103  0.1836
  638MPD2     H 9448   3.386   0.893  15.170  1.3418 -0.6260 -0.4376
  638MPD2    H1 9449   3.505   1.024  15.558 -1.0275  4.0187 -0.2780
  638MPD2    H2 9450   3.710   1.159  15.214  1.5268 -1.5026  1.2484
  638MPD2    H3 9451   3.694   1.144  15.455  0.7382 -0.3178 -0.2426
  638MPD2     N 9452   3.327   0.878  15.434 -0.4795  0.6675 -0.3364
  638MPD2    H5 9453   3.318   0.874  15.535  1.2308  1.4345 -0.1606
  638MPD2    N1 9454   3.572   1.040  15.034 -0.0799 -0.2266  0.2835
  638MPD2    H7 9455   3.634   1.117  15.011  0.9286 -1.1899 -0.2379
  639TMC3    C1 9456   3.147   0.725  15.449  0.1399 -0.8636  0.4659
  639TMC3    C2 9457   3.021   0.686  15.413  0.2840  0.6820 -0.6162
  639TMC3    C3 9458   2.980   0.553  15.435  0.7696  0.3047 -0.3274
  639TMC3    C4 9459   3.229   0.643  15.523 -0.1955  0.9396 -0.2140
  639TMC3    C5 9460   3.186   0.519  15.550  0.7590  0.6755  0.3615
  639TMC3    C6 9461   3.068   0.472  15.499 -0.0536  0.2550  0.9892
  639TMC3     C 9462   3.209   0.838  15.376  0.5989 -0.6596  0.4230
  639TMC3     O 9463   3.174   0.843  15.261 -0.4659  0.4185 -0.3924
  639TMC3     H 9464   2.973   0.749  15.339 -1.1436 -0.2513 -0.4986
  639TMC3    H1 9465   3.333   0.667  15.542  0.3558 -0.1017 -1.9175
  639TMC3    H2 9466   3.066   0.364  15.504  0.5330  0.3207  2.4755
  639TMC3    C7 9467   3.289   0.420  15.555  0.7155  0.1948 -0.5023
  639TMC3    C8 9468   2.961   0.469  15.320  1.0174  0.5122 -0.1690
  639TMC3    O1 9469   3.358   0.418  15.658  0.8149 -0.6722  0.3418
  639TMC3    O2 9470   3.039   0.468  15.223 -0.4178 -0.3221  0.5404
  640MPD2     C 9471   3.933   0.100   9.356 -0.5120  0.1179 -0.2652
  640MPD2    C1 9472   4.018   0.157   9.448 -0.4580  0.7461  0.3720
  640MPD2    C2 9473   3.966   0.210   9.564  0.7037 -0.0129 -0.2648
  640MPD2    C3 9474   3.830   0.232   9.576  0.1067 -0.7100  0.4349
  640MPD2    C4 9475   3.745   0.176   9.483  0.3501 -0.3336 -0.3802
  640MPD2    C5 9476   3.798   0.105   9.379 -0.0936 -0.0314 -0.3505
  640MPD2     H 9477   4.032   0.251   9.640 -2.1999  0.5656  1.9795
  640MPD2    H1 9478   3.640   0.200   9.484  0.9707  2.5322 -4.0108
  640MPD2    H2 9479   3.970   0.043   9.272 -0.4672 -2.5768  1.5876
  640MPD2    H3 9480   3.736   0.057   9.305  0.0537  0.8733 -1.0544
  640MPD2     N 9481   3.762   0.302   9.684  0.1090  0.0190  0.2162
  640MPD2    H5 9482   3.661   0.306   9.678  0.1217 -1.9346 -1.5473
  640MPD2    N1 9483   4.156   0.137   9.415  0.2894 -0.2627 -0.8935
  640MPD2    H7 9484   4.170   0.102   9.320 -0.4736 -1.4346 -0.5707
  641TMC3    C1 9485   4.396   0.172   9.446  0.1051  0.0414 -0.2696
  641TMC3    C2 9486   4.492   0.257   9.501 -0.0054  0.5438 -0.2693
  641TMC3    C3 9487   4.612   0.257   9.443  0.0410 -0.5331 -0.0782
  641TMC3    C4 9488   4.413   0.106   9.331 -0.0402 -0.4052 -0.5961
  641TMC3    C5 9489   4.541   0.102   9.279 -0.0149  0.6256 -0.2011
  641TMC3    C6 9490   4.635   0.186   9.331 -0.1209  0.3492 -0.0472
  641TMC3     C 9491   4.262   0.183   9.497 -0.1410 -0.0530 -0.5799
  641TMC3     O 9492   4.259   0.225   9.612  0.1324 -0.1874 -0.1814
  641TMC3     H 9493   4.475   0.321   9.588  0.2578  0.4224 -0.1290
  641TMC3    H1 9494   4.341   0.031   9.299 -0.6571 -0.2782  0.4665
  641TMC3    H2 9495   0.015   0.180   9.300 -0.4753  0.6701 -1.3318
  641TMC3    C7 9496   4.584   0.009   9.167 -0.4390 -0.4623 -0.7640
  641TMC3    C8 9497   0.006   0.287   9.522 -0.5121 -0.0049  0.5730
  641TMC3    O1 9498   4.705   4.716   9.146 -0.1828 -0.2409 -0.3021
  641TMC3    O2 9499   0.095   0.206   9.526 -0.2779  0.3090  0.3455
  642TMC3    C1 9500   0.750   1.477  12.668 -0.2543  0.5099 -0.0523
  642TMC3    C2 9501   0.713   1.492  12.797  0.3911 -0.0674 -0.7553
  642TMC3    C3 9502   0.715   1.379  12.869  0.2240 -0.5489 -0.5351
  642TMC3    C4 9503   0.756   1.360  12.604 -0.4763 -0.4035 -0.5403
  642TMC3    C5 9504   0.739   1.243  12.676 -0.1291  0.8853 -0.1163
  642TMC3    C6 9505   0.727   1.252  12.815 -1.1010  0.2668 -0.4783
  642TMC3     C 9506   0.749   1.595  12.595 -0.4571 -0.0996  0.4927
  642TMC3     O 9507   0.836   1.630  12.514 -0.1883  0.4801  0.0517
  642TMC3     H 9508   0.702   1.587  12.848  1.8787  1.4058 -3.2013
  642TMC3    H1 9509   0.775   1.360  12.498 -2.4021  1.7829 -0.8963
  642TMC3    H2 9510   0.727   1.176  12.892  1.9936 -1.1011 -1.8290
  642TMC3    C7 9511   0.682   1.129  12.603  0.0437  0.6014 -0.7345
  642TMC3    C8 9512   0.699   1.387  13.015 -0.6215  0.0743  0.1668
  642TMC3    O1 9513   0.706   1.124  12.483  0.1511 -0.6397 -0.7369
  642TMC3    O2 9514   0.650   1.290  13.077 -0.0257  0.2139  0.3722
  643TMC3    C1 9515   4.197   0.546   0.519  0.1803 -0.4647 -1.0213
  643TMC3    C2 9516   4.126   0.650   0.569  0.2126 -0.9024  0.0974
  643TMC3    C3 9517   4.108   0.753   0.479  0.6479 -0.6313  0.6736
  643TMC3    C4 9518   4.242   0.530   0.391  0.5777 -0.2375  0.9987
  643TMC3    C5 9519   4.202   0.625   0.304  0.2234  0.4734 -0.3114
  643TMC3    C6 9520   4.129   0.739   0.345  0.3228 -0.8122 -0.2000
  643TMC3     C 9521   4.258   0.450   0.604  0.0996  0.5179 -0.0451
  643TMC3     O 9522   4.194   0.415   0.704 -0.5013 -0.8019  0.2803
  643TMC3     H 9523   4.097   0.648   0.673 -2.5099 -0.2304 -0.6522
  643TMC3    H1 9524   4.299   0.442   0.366 -1.1874 -0.9900 -0.3641
  643TMC3    H2 9525   4.084   0.806   0.273 -0.6104  0.8039  1.9018
  643TMC3    C7 9526   4.258   0.631   0.164 -0.4775 -0.0493 -0.3516
  643TMC3    C8 9527   4.056   0.879   0.534  0.0522  0.2034  0.2169
  643TMC3    O1 9528   4.277   0.733   0.104 -0.5228 -0.1594  0.2399
  643TMC3    O2 9529   4.014   0.874   0.653  0.2046  0.7683  0.0751
  644MPD2     C 9530   0.559   1.097   9.506  0.2817  0.1948  0.1642
  644MPD2    C1 9531   0.435   1.040   9.483 -0.5612 -0.4792  0.6035
  644MPD2    C2 9532   0.319   1.113   9.528 -0.1164  0.2331 -1.0445
  644MPD2    C3 9533   0.332   1.237   9.591 -0.4755  0.2670 -0.3541
  644MPD2    C4 9534   0.461   1.282   9.616  0.2590  0.5469 -0.2782
  644MPD2    C5 9535   0.570   1.215   9.572 -0.2248  0.1578  0.4984
  644MPD2     H 9536   0.218   1.075   9.515 -0.3485  1.7532 -3.6789
  644MPD2    H1 9537   0.476   1.374   9.672 -3.4996  1.4415 -0.7310
  644MPD2    H2 9538   0.646   1.040   9.473 -0.1711 -0.5381  0.2286
  644MPD2    H3 9539   0.665   1.263   9.594  0.6132 -0.4156 -1.8195
  644MPD2     N 9540   0.214   1.294   9.645  0.7356 -0.3282  0.7091
  644MPD2    H5 9541   0.129   1.240   9.625  2.2974 -2.1958 -0.9642
  644MPD2    N1 9542   0.437   0.906   9.451  0.0004 -0.0765  0.2057
  644MPD2    H7 9543   0.530   0.865   9.454  0.1066  0.1629  0.1513
  645TMC3    C1 9544   0.070   1.432   9.766 -0.1604 -0.5115  0.9726
  645TMC3    C2 9545   4.681   1.362   9.729 -0.2513  0.2883  0.0496
  645TMC3    C3 9546   4.562   1.411   9.782 -0.4848  0.1025 -0.8352
  645TMC3    C4 9547   0.053   1.549   9.837  0.2138  0.1463  0.4189
  645TMC3    C5 9548   4.658   1.586   9.887  0.2989 -0.2497 -0.2309
  645TMC3    C6 9549   4.545   1.518   9.862 -0.5246  0.2405  1.0591
  645TMC3     C 9550   0.202   1.405   9.723 -0.4293 -1.1866 -0.3786
  645TMC3     O 9551   0.289   1.487   9.747  0.4827 -0.2267  0.3504
  645TMC3     H 9552   4.674   1.281   9.657  0.7758 -0.9250  1.3017
  645TMC3    H1 9553   0.138   1.615   9.841 -1.6084  2.3383  2.9695
  645TMC3    H2 9554   4.450   1.550   9.902 -0.4560 -0.0393  1.4430
  645TMC3    C7 9555   4.642   1.695   9.988 -0.2890 -0.1694 -0.1100
  645TMC3    C8 9556   4.445   1.346   9.735  0.0863 -0.7470 -0.1343
  645TMC3    O1 9557   4.565   1.663  10.079 -0.2893  0.1126 -0.0521
  645TMC3    O2 9558   4.451   1.231   9.694 -0.1699 -0.0434 -0.3686
  646MPD2     C 9559   3.571   4.593  14.705 -0.6818 -0.1311  0.2867
  646MPD2    C1 9560   3.480   4.540  14.791 -0.7482 -0.2671  0.2214
  646MPD2    C2 9561   3.353   4.580  14.774 -0.1719 -0.1246 -0.4931
  646MPD2    C3 9562   3.308   4.667  14.678 -0.0644  0.4219  0.7345
  646MPD2    C4 9563   3.414   0.012  14.610  0.0413  0.0238  0.7372
  646MPD2    C5 9564   3.541   4.690  14.619 -0.5570 -0.7461 -0.4694
  646MPD2     H 9565   3.272   4.541  14.836  0.0802 -0.2346 -0.2348
  646MPD2    H1 9566   3.396   0.081  14.529  1.2129 -0.6558 -0.0957
  646MPD2    H2 9567   3.674   4.561  14.693 -0.6392  0.4769 -1.0627
  646MPD2    H3 9568   3.621   0.005  14.557  0.1230 -1.5113 -0.0723
  646MPD2     N 9569   3.168   4.691  14.665  0.1657  0.0521  0.0794
  646MPD2    H5 9570   3.102   4.642  14.724  0.9416  2.2184  2.7404
  646MPD2    N1 9571   3.526   4.453  14.892 -0.4234  0.4078  0.4637
  646MPD2    H7 9572   3.621   4.416  14.888 -0.5208 -0.3601  5.7907
  647TMC3    C1 9573   3.530   4.336  15.095 -0.6356  0.2219  0.9229
  647TMC3    C2 9574   3.473   4.262  15.194  0.0540 -0.0663  0.2002
  647TMC3    C3 9575   3.546   4.195  15.290 -0.3127  0.0687 -0.1492
  647TMC3    C4 9576   3.668   4.340  15.097  0.7786 -0.4813  0.7657
  647TMC3    C5 9577   3.743   4.262  15.179  0.0203 -0.3374 -0.1549
  647TMC3    C6 9578   3.680   4.186  15.279 -0.7640 -0.4608 -0.6293
  647TMC3     C 9579   3.453   4.409  14.999 -0.2290 -0.4641 -0.2914
  647TMC3     O 9580   3.343   4.442  15.033  0.3860  0.0117 -0.0428
  647TMC3     H 9581   3.365   4.268  15.200  0.0007 -2.1300  1.3546
  647TMC3    H1 9582   3.714   4.393  15.014 -1.6408  1.2919  0.5132
  647TMC3    H2 9583   3.734   4.145  15.363 -0.8962  1.9494  0.6337
  647TMC3    C7 9584   3.883   4.238  15.159  0.4871  0.2066 -0.0187
  647TMC3    C8 9585   3.491   4.080  15.363  0.0406  0.3842 -0.0913
  647TMC3    O1 9586   3.939   4.181  15.256 -0.4248  0.1922 -0.7119
  647TMC3    O2 9587   3.531   4.062  15.478  0.5854 -0.2449  0.1799
  648TMC3    C1 9588   3.006   2.280  16.123 -0.4328  0.7403 -0.3226
  648TMC3    C2 9589   3.019   2.150  16.086  0.0495  1.3109  0.6561
  648TMC3    C3 9590   2.937   2.097  15.992 -0.1232  0.3709  0.4079
  648TMC3    C4 9591   2.924   2.360  16.040 -0.2433 -0.2327  0.0844
  648TMC3    C5 9592   2.850   2.308  15.939  0.7060  0.1483  1.4125
  648TMC3    C6 9593   2.845   2.171  15.917  0.1937 -0.3445  0.1900
  648TMC3     C 9594   3.032   2.315  16.266  0.1649  0.5255  0.3791
  648TMC3     O 9595   3.047   2.429  16.295 -0.1334  0.0672  0.6469
  648TMC3     H 9596   3.066   2.074  16.148 -0.0229 -0.2133 -1.1556
  648TMC3    H1 9597   2.939   2.466  16.055  0.4456 -0.2078 -0.7794
  648TMC3    H2 9598   2.785   2.133  15.835 -3.5537  0.5750  2.4957
  648TMC3    C7 9599   2.760   2.390  15.866 -0.2966 -0.3259  0.8367
  648TMC3    C8 9600   2.932   1.950  15.965 -0.5110  0.0992  0.1971
  648TMC3    O1 9601   2.729   2.365  15.751 -0.3605  0.5536  0.4083
  648TMC3    O2 9602   2.819   1.900  15.942  0.0652 -0.4724  0.2939
  649TMC3    C1 9603   2.343   3.665  12.810 -0.0516 -1.0864  0.1192
  649TMC3    C2 9604   2.468   3.682  12.765 -0.4426 -0.4211  0.3568
  649TMC3    C3 9605   2.574   3.641  12.837  0.6798  0.0513  0.0761
  649TMC3    C4 9606   2.316   3.586  12.919  0.0462  0.2399  0.3439
  649TMC3    C5 9607   2.423   3.524  12.981  0.2178 -0.3481 -0.5419
  649TMC3    C6 9608   2.553   3.557  12.946 -0.4562 -0.2430 -0.7502
  649TMC3     C 9609   2.226   3.720  12.744  0.3295  0.2988 -0.9966
  649TMC3     O 9610   2.127   3.753  12.807 -0.5777  0.6420 -0.2827
  649TMC3     H 9611   2.474   3.748  12.679  0.6162 -1.1291 -0.1015
  649TMC3    H1 9612   2.213   3.569  12.950  0.9028 -0.9731  2.5271
  649TMC3    H2 9613   2.627   3.512  13.012  0.1301 -0.5664 -1.6276
  649TMC3    C7 9614   2.384   3.435  13.081 -0.2108  0.6391  0.3833
  649TMC3    C8 9615   2.707   3.650  12.784 -0.0912 -0.1824 -0.9227
  649TMC3    O1 9616   2.287   3.470  13.144  0.5538  0.0144  0.4581
  649TMC3    O2 9617   2.785   3.585  12.846 -0.8519  0.2966  0.6381
  650TMC3    C1 9618   4.706   0.750  12.903  0.7993  0.4210 -0.1872
  650TMC3    C2 9619   4.640   0.870  12.926 -0.2831 -0.9777  0.2130
  650TMC3    C3 9620   4.681   0.979  12.849  0.2899  0.2688 -0.1910
  650TMC3    C4 9621   0.070   0.735  12.800 -0.2853 -0.2236 -0.1615
  650TMC3    C5 9622   0.096   0.842  12.715  0.2857  0.0412 -0.0631
  650TMC3    C6 9623   0.049   0.965  12.749 -0.2771 -0.6958 -1.3508
  650TMC3     C 9624   4.671   0.638  12.989 -0.0970  0.0758 -0.0825
  650TMC3     O 9625   4.590   0.657  13.082  0.3429 -0.3179 -0.7481
  650TMC3     H 9626   4.571   0.884  13.009 -0.3327 -1.9320  0.3258
  650TMC3    H1 9627   0.103   0.638  12.763 -2.1713 -1.7631  2.2300
  650TMC3    H2 9628   0.065   1.051  12.685  1.0624 -0.2802 -0.4562
  650TMC3    C7 9629   0.120   0.813  12.582 -0.7215  0.4342 -0.1581
  650TMC3    C8 9630   4.630   1.113  12.866 -0.0603  0.8388 -0.0323
  650TMC3    O1 9631   0.048   0.729  12.527  0.0319 -0.1822 -0.4013
  650TMC3    O2 9632   4.719   1.199  12.855 -0.4595  0.5228 -0.2121
  651MPD2     C 9633   3.988   2.078  11.253 -0.4990  0.1140 -1.1556
  651MPD2    C1 9634   3.945   2.129  11.135 -0.0125  0.2342  0.0061
  651MPD2    C2 9635   4.031   2.202  11.052 -0.1645  0.1900 -0.0670
  651MPD2    C3 9636   4.158   2.223  11.097 -0.5688  0.4277 -0.1131
  651MPD2    C4 9637   4.201   2.174  11.218  0.2119 -0.0110  0.8447
  651MPD2    C5 9638   4.113   2.096  11.292 -0.3220  0.3205  0.4548
  651MPD2     H 9639   3.984   2.245  10.964 -0.9000 -0.5724 -0.0530
  651MPD2    H1 9640   4.307   2.175  11.244  0.4040 -0.8361  0.1155
  651MPD2    H2 9641   3.924   2.020  11.318 -0.5125  1.9102  0.4415
  651MPD2    H3 9642   4.149   2.035  11.375 -0.3284 -0.6170 -0.2332
  651MPD2     N 9643   4.241   2.314  11.015  0.3326  0.1652  0.2899
  651MPD2    H5 9644   4.200   2.339  10.925 -1.3316 -1.9814  0.4364
  651MPD2    N1 9645   3.812   2.123  11.094  0.0707 -0.0064 -0.0835
  651MPD2    H7 9646   3.788   2.165  11.004 -3.7290 -3.5545 -0.7427
  652TMC3    C1 9647   4.573   2.595  10.870 -0.1570 -0.1082 -0.3989
  652TMC3    C2 9648   4.538   2.503  10.959 -0.0562 -0.4840  0.5924
  652TMC3    C3 9649   4.421   2.444  10.933 -0.2072 -0.5012 -0.0236
  652TMC3    C4 9650   4.503   2.631  10.759 -0.3884 -0.1244 -0.2371
  652TMC3    C5 9651   4.388   2.561  10.736  0.2390  0.1948 -0.9354
  652TMC3    C6 9652   4.343   2.462  10.824 -0.4026  0.1816 -1.0654
  652TMC3     C 9653   4.714   2.625  10.876  0.2361  0.6525 -0.2321
  652TMC3     O 9654   0.063   2.540  10.926 -0.0561  0.3377  0.3271
  652TMC3     H 9655   4.599   2.480  11.046  1.2428 -0.4395 -0.2916
  652TMC3    H1 9656   4.537   2.702  10.686 -1.3428 -1.3141 -1.8545
  652TMC3    H2 9657   4.249   2.414  10.799 -0.1367  0.1995 -2.0805
  652TMC3    C7 9658   4.288   2.642  10.682  0.6408 -0.0529 -0.2409
  652TMC3    C8 9659   4.374   2.347  11.033 -0.2355 -0.2254  0.6747
  652TMC3    O1 9660   4.198   2.575  10.643  0.1389  0.2660 -0.5445
  652TMC3    O2 9661   4.458   2.305  11.117 -0.1450 -0.0853 -0.4680
  653MPD2     C 9662   2.118   2.201  17.576  0.6684  0.5306 -0.8300
  653MPD2    C1 9663   2.047   2.296  17.504  0.4014 -0.6331  0.3489
  653MPD2    C2 9664   1.964   2.268  17.394  0.1867  0.2225  0.6886
  653MPD2    C3 9665   1.942   2.138  17.374 -0.2441 -0.6235  0.8509
  653MPD2    C4 9666   2.006   2.041  17.449 -0.6504 -0.9747  0.3803
  653MPD2    C5 9667   2.094   2.070  17.548 -0.0891  0.6912  0.3631
  653MPD2     H 9668   1.906   2.342  17.341 -0.6103 -1.7403 -1.1887
  653MPD2    H1 9669   1.984   1.935  17.446  0.0800 -1.0356 -2.4418
  653MPD2    H2 9670   2.186   2.226  17.657 -3.1456  1.8293  1.9361
  653MPD2    H3 9671   2.130   1.983  17.601 -1.6979  0.9029  1.8160
  653MPD2     N 9672   1.861   2.097  17.261  0.0266 -0.4544  0.3291
  653MPD2    H5 9673   1.839   2.174  17.200 -0.8949 -1.5768 -0.7588
  653MPD2    N1 9674   2.058   2.435  17.539 -0.4890 -0.0580 -0.7895
  653MPD2    H7 9675   2.011   2.497  17.474 -0.8403 -0.2510 -0.7241
  654TMC3    C1 9676   1.765   1.963  17.091 -0.4737  0.1201  0.5101
  654TMC3    C2 9677   1.651   2.029  17.083  0.2954 -0.4811  0.0487
  654TMC3    C3 9678   1.589   2.016  16.954 -0.4744 -0.1330 -0.0124
  654TMC3    C4 9679   1.832   1.881  17.003 -0.7671  0.0732  0.5764
  654TMC3    C5 9680   1.766   1.886  16.877 -0.9695 -0.1255  0.2450
  654TMC3    C6 9681   1.649   1.957  16.852 -0.3095 -0.1752  0.5969
  654TMC3     C 9682   1.838   1.966  17.218  0.3919  0.0248  0.1572
  654TMC3     O 9683   1.870   1.866  17.280 -0.6575  0.1156 -0.3781
  654TMC3     H 9684   1.608   2.073  17.172  1.0083 -0.9025  0.5988
  654TMC3    H1 9685   1.928   1.832  17.015 -0.6404  0.8407  2.7056
  654TMC3    H2 9686   1.602   1.966  16.755  0.5348 -0.2508  0.1796
  654TMC3    C7 9687   1.827   1.819  16.762 -0.3985 -0.0452  0.5857
  654TMC3    C8 9688   1.463   2.078  16.934 -0.1303  0.4764  0.3275
  654TMC3    O1 9689   1.777   1.833  16.656  0.5680 -0.3067  0.8979
  654TMC3    O2 9690   1.399   2.056  16.832  0.0721  0.2417 -0.5357
  655MPD2     C 9691   3.513   2.334  15.842  0.0552  0.1097 -0.5264
  655MPD2    C1 9692   3.420   2.395  15.754  0.0747 -0.3947  0.4461
  655MPD2    C2 9693   3.429   2.367  15.622  0.2032 -0.1427 -0.3059
  655MPD2    C3 9694   3.525   2.279  15.577  0.1993 -0.2614 -0.3541
  655MPD2    C4 9695   3.603   2.204  15.664 -0.1268 -0.4810  0.5388
  655MPD2    C5 9696   3.599   2.238  15.797 -0.5243  0.1797  0.0158
  655MPD2     H 9697   3.364   2.415  15.550 -1.0373 -1.7365 -0.2490
  655MPD2    H1 9698   3.672   2.127  15.632  2.2341  1.2137  1.5597
  655MPD2    H2 9699   3.511   2.342  15.951 -1.0863  0.6854 -0.5950
  655MPD2    H3 9700   3.667   2.192  15.868 -1.1272  1.6743  1.5838
  655MPD2     N 9701   3.528   2.252  15.439  0.2947 -0.2711 -0.2675
  655MPD2    H5 9702   3.463   2.307  15.385 -1.3871 -1.0744  0.9195
  655MPD2    N1 9703   3.328   2.491  15.798 -0.6413  0.1122 -0.5056
  655MPD2    H7 9704   3.266   2.521  15.723 -1.1223  1.2007  0.3273
  656TMC3    C1 9705   3.213   2.647  15.938  0.5923 -0.1992  0.1653
  656TMC3    C2 9706   3.140   2.672  16.055  1.2450  0.4446  0.0254
  656TMC3    C3 9707   3.050   2.779  16.057  0.0270 -0.1841 -0.4202
  656TMC3    C4 9708   3.185   2.726  15.829  0.0667  0.0462 -1.2520
  656TMC3    C5 9709   3.098   2.829  15.833 -0.1219  0.6356 -0.2738
  656TMC3    C6 9710   3.019   2.847  15.947  0.1836  0.2224 -0.2184
  656TMC3     C 9711   3.304   2.533  15.928  0.0283 -0.0348 -0.1428
  656TMC3     O 9712   3.346   2.492  16.038  0.0443  0.3596  0.4626
  656TMC3     H 9713   3.144   2.607  16.142 -0.3340 -0.3133 -0.4575
  656TMC3    H1 9714   3.250   2.710  15.743  1.3470  2.3107 -0.6992
  656TMC3    H2 9715   2.954   2.931  15.969 -0.6901 -0.2597 -1.0006
  656TMC3    C7 9716   3.032   2.864  15.711 -0.0794 -0.2968 -0.0966
  656TMC3    C8 9717   2.944   2.768  16.161  0.1889 -0.5522  0.2893
  656TMC3    O1 9718   3.094   2.836  15.613  0.2488 -1.2755  0.5436
  656TMC3    O2 9719   2.876   2.667  16.157 -0.1287 -0.0074 -0.5721
  657TMC3    C1 9720   1.994   1.372  15.021  0.3275  0.3342 -0.4841
  657TMC3    C2 9721   2.025   1.431  15.138 -0.8504 -0.1922  0.4868
  657TMC3    C3 9722   1.965   1.548  15.166 -0.4613 -0.0567 -0.4610
  657TMC3    C4 9723   1.904   1.428  14.935 -0.0619  0.7207 -0.6670
  657TMC3    C5 9724   1.849   1.548  14.969  0.4884  0.1382  0.1145
  657TMC3    C6 9725   1.893   1.614  15.079 -0.1582  0.8224 -0.5747
  657TMC3     C 9726   2.010   1.225  15.004  0.5190 -0.3712 -0.4152
  657TMC3     O 9727   1.938   1.176  14.924 -0.0230  0.3623  0.6166
  657TMC3     H 9728   2.071   1.379  15.221 -1.2104 -0.7952  0.3050
  657TMC3    H1 9729   1.860   1.365  14.859  0.2715 -0.0790 -0.2004
  657TMC3    H2 9730   1.853   1.710  15.108 -1.5667 -0.0068  0.2357
  657TMC3    C7 9731   1.792   1.628  14.867  0.0131 -0.1954 -0.6935
  657TMC3    C8 9732   2.007   1.611  15.288 -0.7546 -0.4549  0.2082
  657TMC3    O1 9733   1.808   1.749  14.877  0.6692  0.3244  0.4794
  657TMC3    O2 9734   1.928   1.703  15.319  0.1580 -0.2580  0.2831
  658MPD2     C 9735   3.970   2.598  14.984 -0.6362 -0.0291 -0.5010
  658MPD2    C1 9736   3.885   2.524  14.910 -0.0570 -0.3413  0.5511
  658MPD2    C2 9737   3.864   2.558  14.784  0.1130  0.4664  0.1772
  658MPD2    C3 9738   3.919   2.672  14.723 -0.0251 -0.3851 -0.1306
  658MPD2    C4 9739   3.993   2.756  14.807  0.4379 -0.4453 -0.6213
  658MPD2    C5 9740   4.024   2.716  14.933  0.6250  0.1216  0.0754
  658MPD2     H 9741   3.810   2.490  14.720  0.2508  1.0287 -0.5434
  658MPD2    H1 9742   4.031   2.853  14.777 -1.6636  0.7673  0.6457
  658MPD2    H2 9743   4.004   2.586  15.086 -1.6046 -0.7672 -0.2684
  658MPD2    H3 9744   4.068   2.792  14.997  1.7882  0.2508 -0.8876
  658MPD2     N 9745   3.880   2.701  14.591  0.0675  0.3788  0.2637
  658MPD2    H5 9746   3.815   2.632  14.553  1.6053 -1.2106  0.5269
  658MPD2    N1 9747   3.819   2.415  14.971 -0.1561  0.2910  1.1025
  658MPD2    H7 9748   3.864   2.382  15.056 -1.4094 -1.6927  0.9958
  659TMC3    C1 9749   3.646   2.273  15.020 -0.7105 -0.1387 -0.3614
  659TMC3    C2 9750   3.674   2.269  15.150  0.0259  1.0928  0.5526
  659TMC3    C3 9751   3.587   2.201  15.232  0.2624  0.3938  0.2426
  659TMC3    C4 9752   3.515   2.241  14.980  0.1971 -0.0332 -0.1650
  659TMC3    C5 9753   3.427   2.184  15.063  0.9043 -0.2582  0.9326
  659TMC3    C6 9754   3.461   2.168  15.190 -0.2218 -0.1663 -0.0954
  659TMC3     C 9755   3.707   2.369  14.927 -0.5508  0.2117  0.5666
  659TMC3     O 9756   3.638   2.410  14.833 -0.0176  1.0311  0.3924
  659TMC3     H 9757   3.768   2.302  15.194  1.2081  0.5431 -1.5541
  659TMC3    H1 9758   3.501   2.237  14.873  1.7577  0.3405 -0.3899
  659TMC3    H2 9759   3.382   2.142  15.260 -0.7092 -1.6357 -1.2027
  659TMC3    C7 9760   3.313   2.103  15.019  0.2172  0.1389 -0.2395
  659TMC3    C8 9761   3.620   2.182  15.369  0.1116  0.1868  0.2220
  659TMC3    O1 9762   3.277   2.017  15.096  0.1304 -0.2995  0.0474
  659TMC3    O2 9763   3.732   2.143  15.399  0.2173  0.1059 -0.5451
  660MPD2     C 9764   1.639   1.139  12.827 -0.0706  0.8736  0.1457
  660MPD2    C1 9765   1.518   1.179  12.771  0.5058  0.2115  0.2653
  660MPD2    C2 9766   1.401   1.134  12.831  0.0188  0.1045  0.9609
  660MPD2    C3 9767   1.405   1.037  12.933 -0.5307  0.3788  0.7546
  660MPD2    C4 9768   1.525   1.013  12.994  0.2577  0.3756  0.1946
  660MPD2    C5 9769   1.638   1.050  12.930  0.2053  0.0575  0.4850
  660MPD2     H 9770   1.307   1.167  12.786 -1.0557 -2.6499  1.1694
  660MPD2    H1 9771   1.538   0.940  13.072  0.7040  0.3586  0.1031
  660MPD2    H2 9772   1.732   1.183  12.792 -0.4110 -0.5198 -2.5129
  660MPD2    H3 9773   1.736   1.017  12.964  0.6265  0.0232 -0.7963
  660MPD2     N 9774   1.289   0.983  13.001  0.0838  0.0862  0.3745
  660MPD2    H5 9775   1.316   0.918  13.074 -0.0691  1.0864  1.3025
  660MPD2    N1 9776   1.522   1.278  12.665 -0.0132  1.0590 -0.1329
  660MPD2    H7 9777   1.612   1.303  12.625 -0.2084  2.2238  0.1581
  661TMC3    C1 9778   1.458   1.418  12.489  0.9911 -0.2646  0.0625
  661TMC3    C2 9779   1.590   1.426  12.459  0.0265 -0.5905 -0.4341
  661TMC3    C3 9780   1.621   1.439  12.324  0.1437  0.4130 -0.2970
  661TMC3    C4 9781   1.357   1.434  12.402 -0.6748  0.3732 -0.6367
  661TMC3    C5 9782   1.392   1.441  12.269  0.4767  0.3356  0.4828
  661TMC3    C6 9783   1.530   1.450  12.227  0.1778 -0.1429 -0.1467
  661TMC3     C 9784   1.422   1.351  12.616  0.1247 -0.1178 -0.0122
  661TMC3     O 9785   1.304   1.350  12.650 -0.1044  0.4587 -0.0935
  661TMC3     H 9786   1.669   1.421  12.533 -2.0574 -0.4080  1.7736
  661TMC3    H1 9787   1.254   1.417  12.429 -0.0193 -0.2065  1.5375
  661TMC3    H2 9788   1.557   1.465  12.123  1.6930  0.2872  0.3239
  661TMC3    C7 9789   1.288   1.480  12.177  0.6179  0.1140  0.4348
  661TMC3    C8 9790   1.745   1.509  12.286 -0.4771  0.0497  0.2647
  661TMC3    O1 9791   1.319   1.455  12.064  0.5891 -0.2033 -0.1234
  661TMC3    O2 9792   1.820   1.439  12.218  0.4831 -0.9804  0.1659
  662MPD2     C 9793   1.889   0.424   0.205 -0.2391  0.1300  0.0571
  662MPD2    C1 9794   1.863   0.514   0.105  0.4850  0.4481 -0.6152
  662MPD2    C2 9795   1.802   0.631   0.125  0.0111  0.7404 -0.5757
  662MPD2    C3 9796   1.754   0.658   0.255 -0.2624 -0.1712 -0.0551
  662MPD2    C4 9797   1.788   0.570   0.367  0.1971 -0.0894  0.5724
  662MPD2    C5 9798   1.863   0.459   0.333 -0.6138  0.4755  0.8128
  662MPD2     H 9799   1.762   0.690   0.043  0.9292 -0.8641 -2.1704
  662MPD2    H1 9800   1.749   0.583   0.467  1.1608 -1.5427  1.1367
  662MPD2    H2 9801   1.930   0.328   0.177 -1.3692  0.0704 -1.4375
  662MPD2    H3 9802   1.889   0.395   0.416  0.5515 -0.8101 -0.5388
  662MPD2     N 9803   1.656   0.759   0.279 -0.1161 -0.2717 -0.1339
  662MPD2    H5 9804   1.610   0.759   0.370 -1.0941 -1.9302 -0.6243
  662MPD2    N1 9805   1.900   0.492  17.670 -0.0025 -0.8366 -0.2414
  662MPD2    H7 9806   1.878   0.568  17.607 -1.1032 -2.2305 -1.5351
  663TMC3    C1 9807   1.940   0.368  17.471 -0.1813  0.1329 -0.7909
  663TMC3    C2 9808   1.906   0.475  17.394 -0.8559  0.1139  0.0951
  663TMC3    C3 9809   1.880   0.479  17.262 -0.7382 -0.2079 -0.3477
  663TMC3    C4 9810   1.928   0.243  17.413  0.5954 -0.0364  0.2424
  663TMC3    C5 9811   1.892   0.237  17.284  0.4894  0.2298 -0.2060
  663TMC3    C6 9812   1.870   0.350  17.207  0.7217 -0.7203 -0.3686
  663TMC3     C 9813   1.944   0.376  17.615 -0.0790  0.5066  0.0966
  663TMC3     O 9814   1.992   0.275  17.669  0.1804  0.5594 -0.3038
  663TMC3     H 9815   1.935   0.574  17.428  1.0919 -0.4152 -0.0450
  663TMC3    H1 9816   1.958   0.151  17.462  0.9832 -0.7274 -1.3101
  663TMC3    H2 9817   1.836   0.336  17.105 -1.3260 -1.2815  0.3975
  663TMC3    C7 9818   1.902   0.117  17.207  0.3428 -0.2049  0.1830
  663TMC3    C8 9819   1.752   0.539  17.236  0.9883  0.1596  0.5627
  663TMC3    O1 9820   1.943   0.123  17.094 -0.5026 -0.0700 -0.5280
  663TMC3    O2 9821   1.728   0.580  17.119  0.5188 -0.0772  0.7428
  664MPD2     C 9822   4.662   3.860  17.573 -0.4038  0.1977 -0.0368
  664MPD2    C1 9823   0.018   3.944  17.645  0.4801  0.4826  0.2067
  664MPD2    C2 9824   4.715   3.960   0.078 -0.7102 -0.0574  0.7285
  664MPD2    C3 9825   4.607   3.903   0.148  0.0439  0.0314 -0.2555
  664MPD2    C4 9826   4.524   3.827   0.074 -0.6830  0.0091  0.2932
  664MPD2    C5 9827   4.552   3.810  17.639  0.3767 -0.1970  0.1514
  664MPD2     H 9828   0.068   4.007   0.137 -0.0375  1.2396 -1.2040
  664MPD2    H1 9829   4.429   3.785   0.105 -1.1911  1.7460  1.0913
  664MPD2    H2 9830   4.682   3.847  17.467  2.0955 -1.6419  0.6626
  664MPD2    H3 9831   4.479   3.746  17.590  0.6461 -0.6766  0.3698
  664MPD2     N 9832   4.597   3.918   0.289  0.4334  0.3513  0.0325
  664MPD2    H5 9833   4.670   3.977   0.329  0.3318 -1.2756  2.5401
  664MPD2    N1 9834   0.128   4.011  17.587  0.6267  0.3290 -0.3439
  664MPD2    H7 9835   0.177   4.086  17.635  0.7961  0.3086 -0.4843
  665TMC3    C1 9836   4.544   3.875   0.509  0.5165  0.0397 -0.0271
  665TMC3    C2 9837   4.506   3.787   0.598  0.5264  0.1607 -0.5521
  665TMC3    C3 9838   4.503   3.832   0.729  0.2152  0.3211 -1.2467
  665TMC3    C4 9839   4.604   3.995   0.538 -0.1394 -0.3321  0.8770
  665TMC3    C5 9840   4.613   4.028   0.672 -0.2683 -0.8024  0.2730
  665TMC3    C6 9841   4.557   3.949   0.766 -0.7707  0.0015 -0.3703
  665TMC3     C 9842   4.511   3.847   0.373 -0.9675  0.4323  0.7464
  665TMC3     O 9843   4.412   3.786   0.341 -0.0403 -0.2056 -0.0548
  665TMC3     H 9844   4.461   3.700   0.552  0.4674  0.0463 -0.2786
  665TMC3    H1 9845   4.628   4.069   0.463 -1.0770  1.3978  2.2684
  665TMC3    H2 9846   4.528   3.992   0.862  0.5967 -1.3933  0.6609
  665TMC3    C7 9847   4.638   4.170   0.687 -0.7677 -0.0512 -0.2333
  665TMC3    C8 9848   4.417   3.765   0.832 -0.0069 -0.2640  0.3161
  665TMC3    O1 9849   4.633   4.243   0.587  0.1364 -0.2415  0.4019
  665TMC3    O2 9850   4.405   3.832   0.938 -0.2304 -0.1377  0.2766
  666TMC3    C1 9851   4.439   3.941  10.094  0.6312 -0.4088  0.1227
  666TMC3    C2 9852   4.513   3.850  10.159  0.2497  0.1059 -0.6962
  666TMC3    C3 9853   4.637   3.888  10.197 -0.5551 -0.4920  0.2918
  666TMC3    C4 9854   4.471   4.072  10.074  0.5051  0.8396 -0.7229
  666TMC3    C5 9855   4.604   4.103  10.113  0.1560 -0.2649 -0.3869
  666TMC3    C6 9856   4.687   4.015  10.178  0.4995 -0.2913 -0.3187
  666TMC3     C 9857   4.302   3.910  10.041  0.3906  0.3053 -0.6171
  666TMC3     O 9858   4.266   3.974   9.941  0.5679  0.2966  0.2357
  666TMC3     H 9859   4.479   3.747  10.150  0.5665 -0.0884  0.4179
  666TMC3    H1 9860   4.400   4.142  10.032 -2.0132 -0.4209  1.4633
  666TMC3    H2 9861   0.050   4.046  10.234 -1.4666  2.3366  1.2741
  666TMC3    C7 9862   4.625   4.249  10.157  0.3974  0.1132 -0.3209
  666TMC3    C8 9863   4.705   3.804  10.295 -0.5499  0.2222 -0.9718
  666TMC3    O1 9864   4.523   4.304  10.201 -0.5984  0.0635 -0.0450
  666TMC3    O2 9865   0.102   3.803  10.288 -0.2064 -0.0522 -0.2562
  667MPD2     C 9866   0.558   3.860  14.851  0.1587 -0.0925  0.2908
  667MPD2    C1 9867   0.502   3.978  14.904 -0.2597  0.0894 -0.2230
  667MPD2    C2 9868   0.367   3.997  14.887 -0.7774  0.3714  0.4440
  667MPD2    C3 9869   0.297   3.903  14.816 -0.0654 -0.4009 -0.6324
  667MPD2    C4 9870   0.355   3.792  14.771  0.2814 -0.1776  0.0721
  667MPD2    C5 9871   0.489   3.771  14.785 -0.0273  0.2717 -0.8100
  667MPD2     H 9872   0.312   4.081  14.929 -0.9847 -0.1645  1.2532
  667MPD2    H1 9873   0.300   3.717  14.716  0.5456 -0.3673  0.0611
  667MPD2    H2 9874   0.665   3.844  14.863  0.0225  0.5956  2.5871
  667MPD2    H3 9875   0.525   3.675  14.749  1.7116  0.8643 -0.6704
  667MPD2     N 9876   0.152   3.917  14.800  0.2300 -0.1668  0.6503
  667MPD2    H5 9877   0.109   3.847  14.741  3.1805 -0.8161 -0.7738
  667MPD2    N1 9878   0.585   4.067  14.983 -0.0329 -0.6520  0.1874
  667MPD2    H7 9879   0.676   4.025  14.995  0.0919 -0.5225 -0.3213
  668TMC3    C1 9880   0.623   4.203  15.158  0.0437  0.1861 -0.0466
  668TMC3    C2 9881   0.732   4.276  15.141  0.0685  0.3524  0.1352
  668TMC3    C3 9882   0.830   4.272  15.233 -0.5138 -0.5640 -0.4884
  668TMC3    C4 9883   0.594   4.140  15.279  0.3345  0.3059  0.4363
  668TMC3    C5 9884   0.684   4.155  15.384 -0.4640  0.8410 -0.2419
  668TMC3    C6 9885   0.810   4.208  15.352  0.3739  0.1369  0.4283
  668TMC3     C 9886   0.537   4.176  15.049 -0.3365 -0.0540 -0.0088
  668TMC3     O 9887   0.431   4.236  15.037  0.1832  0.1259 -0.5371
  668TMC3     H 9888   0.755   4.305  15.039  0.2521 -1.4070 -0.3306
  668TMC3    H1 9889   0.489   4.111  15.286 -0.4252  3.2197  0.7678
  668TMC3    H2 9890   0.887   4.221  15.428  2.1513 -1.1150 -1.1395
  668TMC3    C7 9891   0.649   4.126  15.524  0.1202 -0.3443 -0.1905
  668TMC3    C8 9892   0.930   4.379  15.237  0.2808 -0.3332 -0.1531
  668TMC3    O1 9893   0.725   4.160  15.614 -0.5103  0.2324  0.1268
  668TMC3    O2 9894   1.008   4.371  15.330  0.6740  0.3038 -0.2254
  669TMC3    C1 9895   3.281   4.046  14.158  0.7335  0.3636 -0.2902
  669TMC3    C2 9896   3.174   4.078  14.083 -0.3591 -0.0131  0.0053
  669TMC3    C3 9897   3.181   4.192  14.009 -0.1367  0.3392  0.1139
  669TMC3    C4 9898   3.395   4.124  14.163 -1.0461  1.1222  0.2418
  669TMC3    C5 9899   3.400   4.240  14.087  0.0767  0.0854 -0.8214
  669TMC3    C6 9900   3.291   4.275  14.004 -0.4460 -0.3949  0.9665
  669TMC3     C 9901   3.255   3.939  14.256 -0.0935 -0.0827  0.1064
  669TMC3     O 9902   3.155   3.869  14.240  0.5355 -0.0055  0.3133
  669TMC3     H 9903   3.089   4.011  14.079 -1.4567  1.4158 -0.8654
  669TMC3    H1 9904   3.482   4.091  14.220 -1.2597  0.7744  0.3672
  669TMC3    H2 9905   3.295   4.365  13.943 -2.3839 -1.3370 -0.5375
  669TMC3    C7 9906   3.526   4.309  14.083  0.1778 -0.4687  0.2099
  669TMC3    C8 9907   3.072   4.211  13.911  0.5261 -1.0163 -0.1684
  669TMC3    O1 9908   3.601   4.296  14.182 -0.7678  0.1421  0.1948
  669TMC3    O2 9909   2.979   4.129  13.910  0.5138 -0.1046 -0.1906
  670MPD2     C 9910   1.679   1.631  13.394  0.0350 -0.3553 -0.4378
  670MPD2    C1 9911   1.796   1.627  13.469 -0.2288  0.4074 -0.6228
  670MPD2    C2 9912   1.783   1.634  13.612  0.3117  0.1096  0.7644
  670MPD2    C3 9913   1.655   1.646  13.675  0.5031 -0.0234 -0.0209
  670MPD2    C4 9914   1.550   1.656  13.595  0.1588 -0.1025 -0.0512
  670MPD2    C5 9915   1.563   1.641  13.458  0.2545  0.1388  0.2749
  670MPD2     H 9916   1.872   1.644  13.673 -0.3499  0.4689  1.6797
  670MPD2    H1 9917   1.449   1.674  13.629  0.5877  2.9583 -0.4504
  670MPD2    H2 9918   1.659   1.619  13.288 -0.9468 -1.4342 -0.1292
  670MPD2    H3 9919   1.471   1.631  13.402  0.1204 -0.0747  0.5329
  670MPD2     N 9920   1.644   1.653  13.818 -0.3857  0.4821  0.2430
  670MPD2    H5 9921   1.730   1.626  13.865 -0.9234 -0.9139  0.4402
  670MPD2    N1 9922   1.921   1.628  13.407 -0.1169 -0.8975 -0.0320
  670MPD2    H7 9923   1.998   1.658  13.466 -0.5902  0.4669 -0.0899
  671TMC3    C1 9924   1.540   1.641  14.033  0.4780  0.0020  0.4455
  671TMC3    C2 9925   1.665   1.658  14.093 -0.0771 -0.5082  0.0129
  671TMC3    C3 9926   1.683   1.598  14.214 -0.8832 -0.2060 -0.6176
  671TMC3    C4 9927   1.435   1.586  14.096  0.2391  0.5872 -0.5823
  671TMC3    C5 9928   1.452   1.529  14.220 -0.9275 -0.1285  0.6427
  671TMC3    C6 9929   1.578   1.528  14.275 -0.1534  0.5199  0.5368
  671TMC3     C 9930   1.517   1.650  13.892 -0.2810  0.9552  0.1782
  671TMC3     O 9931   1.401   1.651  13.850  0.2123 -0.1544 -0.1447
  671TMC3     H 9932   1.750   1.699  14.041 -0.5495  1.0245  0.4387
  671TMC3    H1 9933   1.340   1.574  14.046 -0.2612  0.3014  0.4278
  671TMC3    H2 9934   1.596   1.477  14.369  1.0166  3.4731  1.9108
  671TMC3    C7 9935   1.376   1.414  14.253 -0.0225 -0.5763 -0.1612
  671TMC3    C8 9936   1.811   1.532  14.235 -0.1754  0.2937 -0.0222
  671TMC3    O1 9937   1.440   1.314  14.281  0.0137 -0.0613  0.0138
  671TMC3    O2 9938   1.898   1.540  14.150  0.1324 -0.4127 -0.6374
  672MPD2     C 9939   1.819   2.328   1.674 -0.5249  0.0805  0.1018
  672MPD2    C1 9940   1.806   2.367   1.538 -0.4749  0.0571  0.2585
  672MPD2    C2 9941   1.915   2.432   1.474  0.0086 -0.3837 -0.1604
  672MPD2    C3 9942   2.038   2.442   1.540  0.2613  0.5157 -0.0114
  672MPD2    C4 9943   2.052   2.391   1.666 -0.4491 -0.1787 -0.1723
  672MPD2    C5 9944   1.943   2.336   1.727 -0.2128 -0.9914 -0.1311
  672MPD2     H 9945   1.901   2.477   1.376 -0.4184 -0.0892  0.0355
  672MPD2    H1 9946   2.145   2.397   1.723 -0.3605  0.0104 -0.3391
  672MPD2    H2 9947   1.730   2.285   1.718 -0.7422 -1.9359 -2.2877
  672MPD2    H3 9948   1.952   2.318   1.834  0.2968  0.2631  0.0294
  672MPD2     N 9949   2.146   2.499   1.467 -0.2716 -0.0764 -0.3681
  672MPD2    H5 9950   2.126   2.529   1.372 -0.2411 -1.2376 -0.7351
  672MPD2    N1 9951   1.689   2.335   1.458 -0.6294  0.1109  1.0339
  672MPD2    H7 9952   1.699   2.346   1.358 -0.2441 -0.9772  0.9551
  673TMC3    C1 9953   1.512   2.181   1.391  0.0601 -0.2008 -0.5576
  673TMC3    C2 9954   1.498   2.051   1.430  0.6050 -0.1248  0.2616
  673TMC3    C3 9955   1.536   1.954   1.343  0.3815  0.4413  0.1730
  673TMC3    C4 9956   1.542   2.215   1.263  0.2241  0.6473 -0.8888
  673TMC3    C5 9957   1.552   2.117   1.170 -0.5208 -0.4708  0.5118
  673TMC3    C6 9958   1.554   1.987   1.210  0.4628  0.1061 -0.1850
  673TMC3     C 9959   1.576   2.267   1.499 -0.3298 -0.2673 -0.5309
  673TMC3     O 9960   1.545   2.247   1.614 -0.1537  0.3207  0.0435
  673TMC3     H 9961   1.487   2.028   1.535  2.9567 -2.1262  0.0545
  673TMC3    H1 9962   1.558   2.317   1.229 -0.9861  1.0915 -0.1346
  673TMC3    H2 9963   1.558   1.914   1.129 -2.2705  1.3282 -1.4048
  673TMC3    C7 9964   1.632   2.156   1.059 -0.2734 -0.2326  0.0679
  673TMC3    C8 9965   1.593   1.829   1.406 -0.2716 -0.3801 -0.3331
  673TMC3    O1 9966   1.735   2.091   1.035  0.3543  0.6214  0.0769
  673TMC3    O2 9967   1.539   1.794   1.510 -0.5832 -0.1367  0.1016
  674MPD2     C 9968   1.857   2.295   0.118  1.0404 -0.0414  0.1758
  674MPD2    C1 9969   1.917   2.267   0.236  0.0803  0.8220  0.1688
  674MPD2    C2 9970   1.855   2.187   0.326 -0.3077 -0.1268 -0.2564
  674MPD2    C3 9971   1.734   2.131   0.292 -0.3296  0.3155  0.2179
  674MPD2    C4 9972   1.674   2.161   0.171  0.3985 -0.4669  0.0531
  674MPD2    C5 9973   1.740   2.244   0.086  0.4077 -0.8062 -0.0306
  674MPD2     H 9974   1.902   2.157   0.419 -0.6002  3.1419  0.9496
  674MPD2    H1 9975   1.588   2.116   0.125  0.3732  0.0159 -0.3716
  674MPD2    H2 9976   1.900   2.361   0.044  0.2716  1.0293  0.6824
  674MPD2    H3 9977   1.718   2.265  17.680  0.7998 -1.3334 -0.2172
  674MPD2     N 9978   1.672   2.042   0.387 -1.1384 -0.5995  0.7788
  674MPD2    H5 9979   1.724   2.008   0.467  0.2959 -0.0977  0.0606
  674MPD2    N1 9980   2.033   2.347   0.273 -0.1804  0.4573 -0.0397
  674MPD2    H7 9981   2.083   2.393   0.198  2.7845 -2.1826  0.2721
  675TMC3    C1 9982   2.206   2.415   0.427 -0.2699  0.2958 -0.2240
  675TMC3    C2 9983   2.300   2.354   0.505 -0.1076  0.1600 -0.9873
  675TMC3    C3 9984   2.421   2.406   0.508  0.1455  0.0546  0.3758
  675TMC3    C4 9985   2.236   2.521   0.341 -0.8759 -0.3691  0.1295
  675TMC3    C5 9986   2.366   2.560   0.343 -0.0017  0.5856  0.7294
  675TMC3    C6 9987   2.460   2.503   0.423  0.2459 -0.3876  0.5467
  675TMC3     C 9988   2.081   2.345   0.407 -0.5555  0.2439  0.4247
  675TMC3     O 9989   2.059   2.271   0.503  0.8723  0.5949 -0.0678
  675TMC3     H 9990   2.271   2.279   0.578 -0.7542  0.8115 -0.5769
  675TMC3    H1 9991   2.156   2.573   0.290 -0.2299 -0.3755 -0.8872
  675TMC3    H2 9992   2.562   2.540   0.423 -0.3129  1.1481  0.4023
  675TMC3    C7 9993   2.392   2.668   0.266  0.1303 -0.0879  0.4813
  675TMC3    C8 9994   2.510   2.376   0.619  0.3736 -0.0391 -0.5304
  675TMC3    O1 9995   2.300   2.745   0.249  0.0407  0.6153  0.1711
  675TMC3    O2 9996   2.602   2.454   0.645  0.7370  0.7057  0.1450
  676MPD2     C 9997   0.032   0.736  10.961  0.2806 -0.3714  0.5717
  676MPD2    C1 9998   4.703   0.651  11.054  1.2725  0.0695  0.1219
  676MPD2    C2 9999   4.708   0.516  11.032  0.2294  0.0826 -0.0180
  676MPD2    C310000   0.050   0.472  10.919  0.7031 -0.2996  1.1501
  676MPD2    C410001   0.111   0.563  10.836 -0.4431 -0.0699 -0.2320
  676MPD2    C510002   0.106   0.695  10.855 -1.0201 -0.2400 -0.1002
  676MPD2     H10003   4.671   0.444  11.103  0.4278 -0.0542 -0.0536
  676MPD2    H110004   0.167   0.536  10.747  0.3153  1.8274 -0.3446
  676MPD2    H210005   0.020   0.843  10.971  1.4534 -0.0136 -1.8853
  676MPD2    H310006   0.144   0.769  10.786 -0.9549  0.1962  0.4097
  676MPD2     N10007   0.058   0.342  10.873 -0.4894 -0.2177 -0.1044
  676MPD2    H510008   0.106   0.321  10.787  2.7693  1.3970  1.3425
  676MPD2    N110009   4.640   0.686  11.180  0.4483 -0.0697  0.4915
  676MPD2    H710010   4.604   0.617  11.244 -3.2669 -0.1782 -1.7738
  677TMC3    C110011   4.542   0.863  11.328  0.0181 -0.3403  0.6089
  677TMC3    C210012   4.517   0.776  11.431  0.5717  0.4633 -0.3169
  677TMC3    C310013   4.441   0.820  11.540  0.5985  0.1226  0.5188
  677TMC3    C410014   4.490   0.986  11.325  0.1238 -0.2039  0.4457
  677TMC3    C510015   4.415   1.026  11.431  0.4971  0.2420  0.2820
  677TMC3    C610016   4.391   0.945  11.537  0.2591 -0.0760 -0.3131
  677TMC3     C10017   4.633   0.822  11.220  0.5968 -0.0225 -0.0341
  677TMC3     O10018   4.706   0.913  11.182  0.0043  0.1131 -0.0687
  677TMC3     H10019   4.564   0.678  11.432 -1.2281 -0.4290 -1.9279
  677TMC3    H110020   4.507   1.047  11.237 -1.9529 -0.9832 -0.5135
  677TMC3    H210021   4.321   0.972  11.615  0.6205 -0.2266  0.0647
  677TMC3    C710022   4.440   1.163  11.469 -0.2696  0.0080 -0.5707
  677TMC3    C810023   4.436   0.748  11.664  0.4114 -0.0496 -0.0980
  677TMC3    O110024   4.368   1.204  11.560 -0.3586  0.5171  0.0412
  677TMC3    O210025   4.514   0.651  11.665 -0.3140 -0.3762  0.0330
  678MPD2     C10026   1.069   0.244   1.507 -0.3594  0.4823  0.6448
  678MPD2    C110027   1.060   0.154   1.400  0.1982 -0.1197  0.4590
  678MPD2    C210028   0.941   0.118   1.348  0.1244  0.1381  0.2085
  678MPD2    C310029   0.824   0.170   1.402  0.2185  0.0901 -0.1791
  678MPD2    C410030   0.828   0.248   1.516 -0.2082  0.1515 -0.1291
  678MPD2    C510031   0.955   0.276   1.566 -0.0419 -0.1954 -0.6540
  678MPD2     H10032   0.938   0.055   1.260  0.6885  0.1273  0.1971
  678MPD2    H110033   0.739   0.286   1.566 -0.8349 -0.3985 -0.8394
  678MPD2    H210034   1.166   0.276   1.542 -0.0747 -0.3786  0.6480
  678MPD2    H310035   0.964   0.348   1.647  1.4058 -2.2699  1.0293
  678MPD2     N10036   0.702   0.144   1.331  0.1690 -0.2500 -0.0556
  678MPD2    H510037   0.709   0.103   1.239  0.0465  0.8991 -0.5662
  678MPD2    N110038   1.171   0.083   1.341 -0.1857 -0.8654  0.1208
  678MPD2    H710039   1.158   0.015   1.267 -1.1789 -0.3732 -0.1589
  679TMC3    C110040   1.502   4.604   1.206 -0.3850  0.6449  0.0313
  679TMC3    C210041   1.408   4.644   1.288  0.3469 -0.0200  0.0075
  679TMC3    C310042   1.390   0.061   1.284  1.6488  0.1519 -0.1775
  679TMC3    C410043   1.543   4.682   1.101 -0.3014  0.2990  0.4996
  679TMC3    C510044   1.528   0.092   1.105 -0.1134  0.6548 -0.6025
  679TMC3    C610045   1.448   0.147   1.202 -0.1254 -0.4451  0.2120
  679TMC3     C10046   1.553   4.467   1.214 -0.8381 -0.4632  0.0821
  679TMC3     O10047   1.596   4.418   1.112  1.1477  0.2587  0.3476
  679TMC3     H10048   1.350   4.583   1.357 -1.1756  0.5610 -0.7396
  679TMC3    H110049   1.605   4.638   1.025 -2.6447  0.0105 -1.2624
  679TMC3    H210050   1.430   0.254   1.210 -1.1109 -0.6449  0.6968
  679TMC3    C710051   1.570   0.180   0.993  0.3252  0.5401 -0.8820
  679TMC3    C810052   1.298   0.118   1.377  0.7018  0.4563 -0.2472
  679TMC3    O110053   1.519   0.292   0.985 -0.2711  0.3217 -0.2146
  679TMC3    O210054   1.342   0.216   1.436  0.3322  0.0923 -0.4056
  680MPD2     C10055   2.488   3.710  13.727  0.1189 -0.0149  0.4503
  680MPD2    C110056   2.383   3.661  13.799  0.4254 -0.2281  0.7355
  680MPD2    C210057   2.314   3.748  13.878  0.0828 -0.1074  0.5935
  680MPD2    C310058   2.345   3.887  13.874 -0.5995 -0.0309 -0.8162
  680MPD2    C410059   2.440   3.936  13.791 -0.4990  0.5850 -0.3561
  680MPD2    C510060   2.513   3.844  13.719  0.1006  0.3734  0.1676
  680MPD2     H10061   2.237   3.720  13.949  1.5521 -1.0882  1.7790
  680MPD2    H110062   2.476   4.038  13.796 -0.5133  0.5438  0.5647
  680MPD2    H210063   2.550   3.647  13.664  1.0558  1.1611  0.2027
  680MPD2    H310064   2.600   3.875  13.663  1.7896 -3.4428  0.6882
  680MPD2     N10065   2.271   3.978  13.956 -0.3197  0.1702  0.9262
  680MPD2    H510066   2.264   4.075  13.928  0.3599  0.3138  1.2595
  680MPD2    N110067   2.350   3.528  13.809 -0.2780 -0.1977  0.6261
  680MPD2    H710068   2.281   3.502  13.879 -2.3461  1.5934 -0.7417
  681TMC3    C110069   2.353   3.292  13.787  0.1301  0.1258 -0.2533
  681TMC3    C210070   2.248   3.286  13.879  0.0256  0.3252 -0.5439
  681TMC3    C310071   2.161   3.172  13.873 -1.2565 -0.2393  0.1119
  681TMC3    C410072   2.372   3.192  13.696 -0.2304  1.2460  0.2641
  681TMC3    C510073   2.277   3.089  13.690 -0.4002 -0.1825 -0.1211
  681TMC3    C610074   2.178   3.068  13.779  1.3506 -0.1156 -0.1465
  681TMC3     C10075   2.412   3.418  13.748  0.5150  0.1204  0.4332
  681TMC3     O10076   2.497   3.416  13.664  0.0899  0.3072 -0.0710
  681TMC3     H10077   2.233   3.365  13.952  1.8332  1.8670 -1.8237
  681TMC3    H110078   2.448   3.196  13.619  0.2431 -1.1641  0.5817
  681TMC3    H210079   2.108   2.986  13.778  0.1086  0.9270  1.3414
  681TMC3    C710080   2.259   3.020  13.563 -0.0596  0.5028  0.0325
  681TMC3    C810081   2.041   3.180  13.954  0.2311 -0.1544  0.6688
  681TMC3    O110082   2.222   2.902  13.586 -0.0596 -0.5938 -0.2598
  681TMC3    O210083   1.945   3.133  13.901  0.2145 -0.0388 -0.2729
  682MPD2     C10084   4.200   0.690  10.507  0.8027  0.5345 -0.5829
  682MPD2    C110085   4.161   0.580  10.585  0.2002  0.8327 -0.0423
  682MPD2    C210086   4.062   0.602  10.678 -0.1272  0.2693 -0.6986
  682MPD2    C310087   4.007   0.728  10.704  0.2314  0.9854  0.4897
  682MPD2    C410088   4.051   0.831  10.627  0.0872  0.6231 -0.0802
  682MPD2    C510089   4.138   0.813  10.528 -0.1792 -0.1882  0.1879
  682MPD2     H10090   4.042   0.508  10.728 -0.5664  1.1655  0.8452
  682MPD2    H110091   4.012   0.933  10.632  2.2826  1.4092  1.0730
  682MPD2    H210092   4.284   0.690  10.438  1.4925  0.0214  0.2547
  682MPD2    H310093   4.164   0.905  10.475  0.9315  0.9331  2.7000
  682MPD2     N10094   3.895   0.751  10.786  0.5865  0.2169 -0.0319
  682MPD2    H510095   3.878   0.848  10.809 -0.5987 -0.9828  4.3006
  682MPD2    N110096   4.224   0.449  10.574 -0.3684  0.2124  0.0402
  682MPD2    H710097   4.196   0.376  10.639  0.5844 -0.6042 -0.4720
  683TMC3    C110098   3.685   0.747  11.140 -0.3793 -0.3476  0.1973
  683TMC3    C210099   3.608   0.639  11.152 -0.2733 -0.2213 -0.2860
  683TMC3    C310100   3.560   0.570  11.048  0.0886  0.3104 -0.1561
  683TMC3    C410101   3.736   0.783  11.017  0.8200 -0.3795 -0.4166
  683TMC3    C510102   3.699   0.704  10.913  0.4128  0.2719 -0.7893
  683TMC3    C610103   3.613   0.598  10.932 -0.0014  0.4547 -0.1860
  683TMC3     C10104   3.737   0.808  11.257 -0.5618 -0.5887 -0.2022
  683TMC3     O10105   3.720   0.746  11.357  0.1621  0.6181 -0.3759
  683TMC3     H10106   3.570   0.609  11.250 -1.1599 -1.8954 -1.1371
  683TMC3    H110107   3.813   0.859  11.007 -0.0363  0.5746  0.2411
  683TMC3    H210108   3.578   0.556  10.838 -1.2485  2.0593 -0.4395
  683TMC3    C710109   3.808   0.653  10.831 -0.1215  1.0541 -0.4036
  683TMC3    C810110   3.542   0.427  11.065 -0.4856 -0.0903  0.1796
  683TMC3    O110111   3.803   0.536  10.812 -0.1172 -0.5320  0.2985
  683TMC3    O210112   3.432   0.378  11.027 -1.0811 -0.2982 -0.3728
  684MPD2     C10113   1.838   4.535  16.635  0.6574 -0.2845  0.2269
  684MPD2    C110114   1.865   4.592  16.514 -0.2443  0.1806  0.3850
  684MPD2    C210115   1.852   0.003  16.498 -0.8106 -0.2495  0.0079
  684MPD2    C310116   1.834   0.080  16.611 -0.4782  0.3529 -0.9012
  684MPD2    C410117   1.832   0.017  16.733  0.0295  0.8384  0.0276
  684MPD2    C510118   1.829   4.609  16.743 -0.1802 -0.2694 -0.0788
  684MPD2     H10119   1.885   0.037  16.401 -0.6773 -0.5583 -0.0568
  684MPD2    H110120   1.847   0.078  16.821  1.9112  0.1128  0.2105
  684MPD2    H210121   1.834   4.430  16.657  1.2050  0.0182  1.7585
  684MPD2    H310122   1.829   4.558  16.838  1.0702 -1.9466 -0.9738
  684MPD2     N10123   1.822   0.224  16.606  0.6133 -0.5445 -0.5189
  684MPD2    H510124   1.803   0.265  16.697  0.0982 -0.7313 -0.5414
  684MPD2    N110125   1.918   4.515  16.408 -0.1870  0.2240 -0.8396
  684MPD2    H710126   1.929   4.559  16.318  1.1319  1.0022 -0.3015
  685TMC3    C110127   1.993   4.325  16.285 -0.1537 -0.0583  0.0287
  685TMC3    C210128   1.946   4.372  16.169 -0.0210 -0.0981 -0.3472
  685TMC3    C310129   2.007   4.343  16.055  0.1274 -0.5262  0.8913
  685TMC3    C410130   2.103   4.234  16.289 -0.2420 -0.6986  0.0470
  685TMC3    C510131   2.155   4.200  16.169 -0.0464  0.2268 -0.3218
  685TMC3    C610132   2.110   4.250  16.052  0.2841  0.7106  0.4011
  685TMC3     C10133   1.949   4.381  16.412  0.2302  0.1865  0.0218
  685TMC3     O10134   1.979   4.309  16.504 -0.6148  0.0898  0.3027
  685TMC3     H10135   1.867   4.446  16.169  4.0250  4.2289  2.9418
  685TMC3    H110136   2.132   4.191  16.384  0.0452 -0.9929 -0.1740
  685TMC3    H210137   2.164   4.218  15.964 -0.2126 -0.2224  0.4385
  685TMC3    C710138   2.289   4.148  16.192  0.3704  0.1814  0.2554
  685TMC3    C810139   1.930   4.352  15.930  0.3270  0.2156 -0.8169
  685TMC3    O110140   2.299   4.065  16.281 -0.3276  0.7541 -0.4074
  685TMC3    O210141   1.993   4.332  15.825  0.0819 -0.0935  0.1964
  686MPD2     C10142   3.013   3.400  15.292 -0.5599  0.8573  0.0006
  686MPD2    C110143   3.070   3.430  15.416 -0.2730 -0.1053  0.1140
  686MPD2    C210144   3.143   3.334  15.484  0.5347 -0.1424  0.4020
  686MPD2    C310145   3.146   3.201  15.440  0.5779 -0.1263 -0.0080
  686MPD2    C410146   3.075   3.167  15.324 -0.3329  0.4928  0.4678
  686MPD2    C510147   3.023   3.267  15.244  0.2495  0.8908  0.0816
  686MPD2     H10148   3.204   3.367  15.568  0.4592  2.3781 -0.5316
  686MPD2    H110149   3.086   3.070  15.278 -1.7643 -0.0357  1.2308
  686MPD2    H210150   2.967   3.476  15.231  0.5636  1.4579 -0.1116
  686MPD2    H310151   2.980   3.241  15.148 -0.7298 -0.5933  0.9204
  686MPD2     N10152   3.218   3.100  15.506 -0.1370  0.0541  0.0317
  686MPD2    H510153   3.213   3.004  15.473  0.5775  0.1397 -0.3153
  686MPD2    N110154   3.048   3.555  15.466  0.3588  0.3822  0.9044
  686MPD2    H710155   3.004   3.625  15.407  0.2042 -1.2506 -0.9216
  687TMC3    C110156   3.211   3.162  15.742 -0.3926  0.1471 -0.4212
  687TMC3    C210157   3.077   3.200  15.738 -0.0325 -0.9149 -0.6595
  687TMC3    C310158   3.009   3.231  15.854 -0.1814  0.1350  0.8101
  687TMC3    C410159   3.278   3.162  15.863  0.3677 -0.6643  0.0324
  687TMC3    C510160   3.202   3.179  15.974 -0.0600  0.4269  0.4894
  687TMC3    C610161   3.070   3.218  15.972  0.1990 -0.7293  0.9857
  687TMC3     C10162   3.287   3.123  15.618  0.3653  0.8128 -0.1513
  687TMC3     O10163   3.384   3.061  15.660 -0.1064 -0.3030 -0.1017
  687TMC3     H10164   3.021   3.207  15.645 -1.1738  0.9351  0.1696
  687TMC3    H110165   3.383   3.143  15.882  1.0341  1.5164 -1.4876
  687TMC3    H210166   3.021   3.229  16.068  0.0066 -0.0188  0.8084
  687TMC3    C710167   3.233   3.133  16.105 -0.3361  0.4334  0.6771
  687TMC3    C810168   2.867   3.270  15.853 -0.7576 -0.3554  0.1956
  687TMC3    O110169   3.151   3.055  16.153 -0.1934 -0.2663  0.6801
  687TMC3    O210170   2.804   3.249  15.952 -0.2389 -0.0406  0.7775
  688MPD2     C10171   2.397   3.060  17.215 -0.3654 -0.4886 -0.1057
  688MPD2    C110172   2.438   2.943  17.268  0.3182 -0.5355  0.6390
  688MPD2    C210173   2.562   2.904  17.234  0.1775 -0.0405  0.0837
  688MPD2    C310174   2.641   2.977  17.141  0.4810  0.2950  0.2045
  688MPD2    C410175   2.594   3.094  17.086 -1.4069 -0.8691  0.6431
  688MPD2    C510176   2.476   3.138  17.129 -1.0710  0.0906  0.2044
  688MPD2     H10177   2.593   2.812  17.283  0.8238 -0.6956 -1.5809
  688MPD2    H110178   2.643   3.157  17.012 -1.4177 -0.2351  1.1807
  688MPD2    H210179   2.306   3.112  17.245 -1.0987 -0.9104 -1.5969
  688MPD2    H310180   2.441   3.234  17.093  0.7541  0.5783 -0.2769
  688MPD2     N10181   2.764   2.933  17.091 -0.1390 -0.0542 -0.3784
  688MPD2    H510182   2.805   2.986  17.014  0.8093  0.3347  0.3903
  688MPD2    N110183   2.352   2.865  17.353 -0.2308 -0.4031 -0.4955
  688MPD2    H710184   2.386   2.775  17.386 -0.8971 -0.4665  0.0419
  689TMC3    C110185   2.153   2.815  17.477 -0.7129 -0.2240 -0.6863
  689TMC3    C210186   2.083   2.891  17.567  0.5306  0.2632 -0.6873
  689TMC3    C310187   2.057   2.844  17.693  0.2888  0.0167 -0.5171
  689TMC3    C410188   2.177   2.686  17.503 -0.0544  0.2588  0.2025
  689TMC3    C510189   2.137   2.635  17.626 -0.5887  0.5301 -0.1177
  689TMC3    C610190   2.083   2.710   0.029 -0.6220  0.1571 -0.0207
  689TMC3     C10191   2.218   2.893  17.373 -0.4553 -0.5636 -0.6179
  689TMC3     O10192   2.144   2.974  17.317 -0.0243 -0.2289  0.2926
  689TMC3     H10193   2.051   2.992  17.545  1.0558  0.6747  0.4084
  689TMC3    H110194   2.224   2.621  17.430  1.4418  0.8089  0.6726
  689TMC3    H210195   2.038   2.664   0.116 -0.6438 -1.6405 -0.9944
  689TMC3    C710196   2.130   2.489  17.640 -0.1908  0.0259  0.1328
  689TMC3    C810197   2.006   2.922   0.106 -0.6319 -0.0196  0.2600
  689TMC3    O110198   2.181   2.442   0.044 -0.2243  0.4568 -0.4147
  689TMC3    O210199   2.000   2.858   0.209  0.9370  0.0377 -0.0873
  690MPD2     C10200   4.455   0.035  15.802 -0.0386  0.5432 -0.5876
  690MPD2    C110201   4.429   0.009  15.663 -0.4034 -0.2937 -1.0491
  690MPD2    C210202   4.500   0.088  15.573  0.9929  0.7154  0.2147
  690MPD2    C310203   4.611   0.160  15.611 -0.7189 -0.1572  0.2946
  690MPD2    C410204   4.639   0.181  15.748  0.6500 -0.6133  0.1120
  690MPD2    C510205   4.558   0.115  15.837 -0.4357 -0.4877 -0.0602
  690MPD2     H10206   4.485   0.073  15.467 -0.5554 -0.3168  0.5815
  690MPD2    H110207   4.712   0.251  15.787 -1.8492  1.5705  0.8704
  690MPD2    H210208   4.392   4.721  15.881  1.2389 -0.0195  0.1682
  690MPD2    H310209   4.574   0.118  15.944 -0.2573 -0.3136 -0.0917
  690MPD2     N10210   4.686   0.228  15.509 -0.3579  0.0942 -0.7887
  690MPD2    H510211   4.667   0.198  15.413  1.0271  0.4976 -1.1812
  690MPD2    N110212   4.320   4.651  15.630 -0.0031  0.1764  0.4236
  690MPD2    H710213   4.266   4.609  15.705  2.6104 -1.2090  1.5595
  691TMC3    C110214   4.208   4.490  15.508  0.2562 -0.2563  0.0396
  691TMC3    C210215   4.096   4.499  15.583 -0.0935  0.0503 -0.3932
  691TMC3    C310216   4.016   4.390  15.602  0.4838  0.1369 -0.5540
  691TMC3    C410217   4.223   4.381  15.441 -0.2379  0.0003  0.2864
  691TMC3    C510218   4.143   4.273  15.455  0.0867  0.3316 -0.4987
  691TMC3    C610219   4.029   4.277  15.530  0.6935  0.4198  0.1596
  691TMC3     C10220   4.305   4.594  15.504 -0.4824  0.2698  0.7653
  691TMC3     O10221   4.369   4.608  15.401 -0.0778 -0.0945 -0.5786
  691TMC3     H10222   4.079   4.594  15.632  1.8262  0.6060 -0.8022
  691TMC3    H110223   4.301   4.383  15.365  0.5589  0.8373  1.1237
  691TMC3    H210224   3.968   4.190  15.554  0.4123 -0.0230 -2.1755
  691TMC3    C710225   4.211   4.142  15.433 -0.5313  0.1225 -0.2627
  691TMC3    C810226   3.906   4.382  15.694  0.5826 -0.1189 -0.7645
  691TMC3    O110227   4.327   4.139  15.389 -0.0067 -0.0608 -0.4248
  691TMC3    O210228   3.864   4.274  15.730  0.0058  0.7812 -0.3646
  692TMC3    C110229   1.337   1.415  15.926  0.2414  0.1388 -0.9267
  692TMC3    C210230   1.396   1.531  15.897  0.0059  0.3228  0.2185
  692TMC3    C310231   1.533   1.539  15.888  0.3420 -0.3402  0.0652
  692TMC3    C410232   1.407   1.304  15.972 -0.0027  0.0104 -0.1174
  692TMC3    C510233   1.547   1.313  15.942 -0.1230 -0.2127  0.2559
  692TMC3    C610234   1.614   1.426  15.908 -0.3764  0.0896  0.5630
  692TMC3     C10235   1.195   1.421  15.947 -0.4228 -0.4825  0.6318
  692TMC3     O10236   1.151   1.337  16.026  0.1706 -0.0320 -0.4140
  692TMC3     H10237   1.345   1.611  15.844 -0.3949  0.4862  0.8616
  692TMC3    H110238   1.354   1.212  15.991 -2.5712  1.4507 -0.3455
  692TMC3    H210239   1.720   1.425  15.887 -0.9791 -1.2518 -2.4027
  692TMC3    C710240   1.607   1.192  15.889 -0.0269 -0.2309  0.1141
  692TMC3    C810241   1.581   1.647  15.971 -0.3578  0.2461  0.8461
  692TMC3    O110242   1.607   1.187  15.770 -0.6470 -0.5026  0.2917
  692TMC3    O210243   1.701   1.654  15.988 -0.4816  0.0680  0.7372
  693MPD2     C10244   1.085   4.273  11.013 -0.6126  0.5177  0.4689
  693MPD2    C110245   1.075   4.130  11.017  0.8428  0.0864  0.0661
  693MPD2    C210246   1.188   4.061  11.016 -0.2567  0.2304  0.3878
  693MPD2    C310247   1.309   4.124  11.003  0.6359 -0.4319  0.5788
  693MPD2    C410248   1.321   4.259  11.014  1.1802 -0.4469  0.0510
  693MPD2    C510249   1.207   4.336  11.020 -0.7414  0.3736 -0.3342
  693MPD2     H10250   1.191   3.954  11.032  1.3453  0.5031  1.8443
  693MPD2    H110251   1.416   4.309  11.023  1.1944 -0.2629 -1.0791
  693MPD2    H210252   0.995   4.333  11.025 -0.5395  0.5009  1.0648
  693MPD2    H310253   1.213   4.444  11.010 -0.2806  0.4059  0.3533
  693MPD2     N10254   1.432   4.057  10.999  0.1597 -0.5039  0.7020
  693MPD2    H510255   1.518   4.108  11.015  0.3406 -0.0840 -1.5729
  693MPD2    N110256   0.953   4.055  11.045 -0.3211  0.5701  0.5015
  693MPD2    H710257   0.960   3.956  11.066 -2.9409  0.2616 -0.1442
  694TMC3    C110258   0.729   4.017  11.098  0.0350 -0.0566 -0.2820
  694TMC3    C210259   0.649   3.948  11.009 -0.9898  0.6409  0.7704
  694TMC3    C310260   0.591   3.832  11.054 -0.1974 -0.4731 -0.6947
  694TMC3    C410261   0.758   3.961  11.216 -0.0987 -0.4568  0.1484
  694TMC3    C510262   0.688   3.859  11.260 -0.2736 -0.0466  0.3470
  694TMC3    C610263   0.593   3.787  11.181 -0.8014 -0.7989  0.1133
  694TMC3     C10264   0.826   4.108  11.042  0.0465  0.3683 -0.1375
  694TMC3     O10265   0.782   4.201  10.971  0.6692 -0.0155  0.3914
  694TMC3     H10266   0.624   3.998  10.916  2.5126 -2.8010 -2.0117
  694TMC3    H110267   0.841   3.991  11.279  0.0384  0.4238 -0.4415
  694TMC3    H210268   0.539   3.699  11.212  0.1728 -1.3449  0.2675
  694TMC3    C710269   0.698   3.825  11.399  0.1486  0.2378  0.1084
  694TMC3    C810270   0.538   3.745  10.961  0.5620  0.2717 -0.7419
  694TMC3    O110271   0.762   3.900  11.464  0.2559  0.3622  0.0530
  694TMC3    O210272   0.474   3.650  11.000 -0.2431  0.2285  0.5436
  695MPD2     C10273   2.025   0.832  13.530 -0.5060  0.0567 -0.5982
  695MPD2    C110274   1.979   0.902  13.637  0.0143  0.3367  0.2138
  695MPD2    C210275   1.853   0.944  13.644  0.3342 -0.1037  0.0703
  695MPD2    C310276   1.770   0.923  13.537  0.3479  0.0029 -0.0804
  695MPD2    C410277   1.817   0.860  13.426  0.6850  0.0473 -0.0780
  695MPD2    C510278   1.946   0.813  13.422  0.4203 -0.3170  0.2559
  695MPD2     H10279   1.810   1.005  13.722 -2.1516  0.5767 -1.8071
  695MPD2    H110280   1.754   0.841  13.340  1.0957  0.1976 -0.4118
  695MPD2    H210281   2.132   0.814  13.520 -0.4510  0.1215 -0.1123
  695MPD2    H310282   1.977   0.764  13.331  0.9510  1.4836 -0.5325
  695MPD2     N10283   1.637   0.959  13.558 -0.1862 -0.8005 -0.2470
  695MPD2    H510284   1.620   1.005  13.647 -0.1075 -0.0157 -0.6369
  695MPD2    N110285   2.061   0.932  13.752 -0.2345  0.4578  0.3370
  695MPD2    H710286   2.016   0.991  13.822  0.2706 -0.2030  1.2092
  696TMC3    C110287   1.410   1.003  13.536  0.1268  0.6498 -0.4318
  696TMC3    C210288   1.385   1.001  13.672 -1.0420 -0.3926  0.7610
  696TMC3    C310289   1.272   1.057  13.721  0.5197  0.7191  0.5284
  696TMC3    C410290   1.321   1.050  13.448  0.4971  0.1971 -0.6171
  696TMC3    C510291   1.214   1.121  13.504 -0.9396 -0.0590  0.2713
  696TMC3    C610292   1.187   1.134  13.639 -0.7537 -0.3444  0.3711
  696TMC3     C10293   1.531   0.950  13.478  0.3112 -0.3188  0.1039
  696TMC3     O10294   1.528   0.925  13.358 -0.2515  0.2056 -0.0625
  696TMC3     H10295   1.466   0.971  13.738  1.4344  0.9549 -1.6713
  696TMC3    H110296   1.351   1.069  13.346 -1.3738  3.0205 -0.6244
  696TMC3    H210297   1.097   1.188  13.668 -1.4836 -0.9259 -0.7795
  696TMC3    C710298   1.168   1.231  13.418 -0.2749  0.6315 -0.1053
  696TMC3    C810299   1.272   1.082  13.864 -0.3875 -0.7618 -0.5870
  696TMC3    O110300   1.182   1.219  13.296  0.2621 -0.0254 -0.1189
  696TMC3    O210301   1.376   1.070  13.929 -0.0065  0.4080 -0.0340
  697MPD2     C10302   1.425   2.591  16.012  0.1310 -0.4948  0.3410
  697MPD2    C110303   1.367   2.637  15.894 -0.9179 -0.1551 -0.9560
  697MPD2    C210304   1.415   2.761  15.844 -0.2871 -0.5697  0.0060
  697MPD2    C310305   1.519   2.835  15.901  0.0605 -0.5131 -0.0478
  697MPD2    C410306   1.575   2.780  16.014  0.0590 -0.0359 -0.0156
  697MPD2    C510307   1.524   2.664  16.061  0.3238 -0.6708 -0.9719
  697MPD2     H10308   1.379   2.786  15.744  1.3914 -1.8435 -0.9104
  697MPD2    H110309   1.656   2.830  16.067 -0.9030 -0.3518  1.7282
  697MPD2    H210310   1.391   2.505  16.068 -1.4315 -0.8830 -1.2332
  697MPD2    H310311   1.577   2.625  16.147 -0.9141 -0.6639 -0.2237
  697MPD2     N10312   1.554   2.955  15.836 -0.6314 -0.8171 -0.0900
  697MPD2    H510313   1.496   2.978  15.757  2.2444 -0.4204 -2.0966
  697MPD2    N110314   1.261   2.564  15.827 -0.3840  0.4011  0.0658
  697MPD2    H710315   1.234   2.600  15.736 -1.2813 -1.2909 -0.3486
  698TMC3    C110316   1.668   3.162  15.792 -0.0098 -0.0440 -0.6578
  698TMC3    C210317   1.725   3.262  15.863 -0.0235  0.2944  0.3518
  698TMC3    C310318   1.715   3.385  15.810 -0.0240 -0.0228 -0.1813
  698TMC3    C410319   1.606   3.178  15.671 -0.1882  0.3750 -0.3246
  698TMC3    C510320   1.590   3.303  15.626  1.2666  0.4815 -0.5288
  698TMC3    C610321   1.645   3.405  15.691 -0.7636 -0.4743  0.2588
  698TMC3     C10322   1.655   3.039  15.871  0.4041  0.1301  0.5876
  698TMC3     O10323   1.714   3.030  15.978  0.0756 -0.2279 -0.3636
  698TMC3     H10324   1.787   3.241  15.950  0.9304 -0.2601 -0.4666
  698TMC3    H110325   1.569   3.096  15.610 -0.3629  0.6963 -0.6481
  698TMC3    H210326   1.626   3.506  15.655  0.6556 -0.6978 -1.1280
  698TMC3    C710327   1.535   3.318  15.493 -0.2243 -0.0523 -0.3844
  698TMC3    C810328   1.792   3.488  15.869  0.5798 -0.3891  0.1010
  698TMC3    O110329   1.460   3.228  15.460 -0.5661  0.0364  0.3366
  698TMC3    O210330   1.821   3.481  15.985  0.7746 -0.2467 -0.1013
  699TMC3    C110331   1.072   0.925  13.056  0.5073 -0.4159  0.2761
  699TMC3    C210332   1.126   0.857  13.161  0.0242  0.1324  0.5812
  699TMC3    C310333   1.042   0.761  13.218  0.9210 -0.1532  0.2672
  699TMC3    C410334   0.945   0.905  13.002  0.4310 -0.6166  0.4221
  699TMC3    C510335   0.874   0.804  13.061  0.2504 -0.5874  0.0378
  699TMC3    C610336   0.920   0.738  13.177  0.4763  0.4930 -0.4624
  699TMC3     C10337   1.158   1.015  12.979  0.0334  0.3192 -0.0597
  699TMC3     O10338   1.103   1.095  12.904  0.1526 -0.1667  0.3263
  699TMC3     H10339   1.206   0.891  13.226  0.2796  2.4702 -0.9611
  699TMC3    H110340   0.912   0.955  12.912  1.0782 -2.4730 -0.8311
  699TMC3    H210341   0.862   0.668  13.236  0.7734 -0.6328 -1.5076
  699TMC3    C710342   0.736   0.829  13.055 -0.3462 -0.1004  0.2431
  699TMC3    C810343   1.066   0.723  13.360 -0.6898  0.3957 -0.2541
  699TMC3    O110344   0.707   0.940  13.023 -0.1744  0.3665 -0.1266
  699TMC3    O210345   0.971   0.679  13.421  0.2416 -0.4350  0.4703
  700TMC3    C110346   0.005   3.138  17.205  0.0669  0.6771  0.5660
  700TMC3    C210347   0.028   3.005  17.194 -0.6126  0.6085  0.0928
  700TMC3    C310348   0.112   2.942  17.289 -0.0627 -0.6055 -0.3375
  700TMC3    C410349   0.061   3.209  17.308  0.1782  1.0037  0.0889
  700TMC3    C510350   0.142   3.142  17.397 -0.2101  0.6389 -0.3281
  700TMC3    C610351   0.171   3.007  17.390 -0.0444  0.1605  0.2534
  700TMC3     C10352   4.680   3.209  17.086 -0.3032  0.2005  0.0377
  700TMC3     O10353   4.574   3.176  17.037  0.3706  0.0534 -0.2244
  700TMC3     H10354   4.705   2.944  17.117 -2.2335 -1.1698  2.5085
  700TMC3    H110355   0.051   3.316  17.316 -1.1804  1.0988 -2.8489
  700TMC3    H210356   0.239   2.958  17.459 -2.3431 -2.8169  0.4127
  700TMC3    C710357   0.207   3.214  17.503 -0.1365 -0.2372 -0.0671
  700TMC3    C810358   0.180   2.820  17.245 -0.1743  0.6770  0.6982
  700TMC3    O110359   0.313   3.164  17.541 -0.4775 -0.3154  0.5386
  700TMC3    O210360   0.305   2.821  17.257 -0.0020  0.1403 -0.0092
  701TMC3    C110361   0.183   2.095  15.691 -0.4027 -0.4982 -0.2643
  701TMC3    C210362   0.195   2.024  15.567 -0.5800 -0.7376 -0.4546
  701TMC3    C310363   0.311   2.054  15.493 -0.3997  0.2990  0.2483
  701TMC3    C410364   0.270   2.186  15.731 -0.3655 -0.4130 -0.2000
  701TMC3    C510365   0.376   2.215  15.648 -0.3721 -0.2136  0.4876
  701TMC3    C610366   0.396   2.148  15.527 -0.0588 -0.0545  0.0891
  701TMC3     C10367   0.074   2.072  15.781  0.6455  0.1962  0.2425
  701TMC3     O10368   0.044   1.953  15.777  0.5343  0.2945  0.3571
  701TMC3     H10369   0.123   1.951  15.533 -1.0778 -0.9618  1.1071
  701TMC3    H110370   0.274   2.237  15.827  2.0543 -0.7322 -0.1290
  701TMC3    H210371   0.485   2.170  15.470 -0.5334  0.1619 -0.5715
  701TMC3    C710372   0.468   2.323  15.678 -0.5532  0.0401  0.7142
  701TMC3    C810373   0.346   1.961  15.383 -0.0357 -1.3338 -0.2324
  701TMC3    O110374   0.531   2.365  15.584 -0.0438 -0.3993 -0.6227
  701TMC3    O210375   0.463   1.972  15.347 -0.2457 -0.0758  0.3768
  702MPD2     C10376   0.534   0.050  10.423 -0.3928 -0.4536 -0.1680
  702MPD2    C110377   0.434   0.141  10.460 -0.3945 -0.4010  0.4271
  702MPD2    C210378   0.442   0.263  10.412  0.7790 -0.1063 -0.8837
  702MPD2    C310379   0.546   0.310  10.339  0.4733  0.9776  0.4210
  702MPD2    C410380   0.655   0.231  10.318  0.4189 -0.6396  0.0462
  702MPD2    C510381   0.649   0.094  10.361 -0.2689 -0.2337  0.2411
  702MPD2     H10382   0.374   0.334  10.459  0.1090 -2.0847  1.1152
  702MPD2    H110383   0.737   0.258  10.253 -0.7516  1.5548 -0.5160
  702MPD2    H210384   0.540   4.675  10.468 -0.1311 -1.5734 -2.6695
  702MPD2    H310385   0.734   0.028  10.349  1.4217  1.2951  3.5965
  702MPD2     N10386   0.555   0.445  10.294 -0.1610 -0.8109  0.3486
  702MPD2    H510387   0.652   0.474  10.282 -0.1408 -0.3070  1.8164
  702MPD2    N110388   0.319   0.113  10.544  0.6311 -0.2715 -0.2214
  702MPD2    H710389   0.248   0.184  10.558 -0.5189 -1.6491  0.9052
  703TMC3    C110390   0.466   0.666  10.272 -0.5341 -0.0002 -0.2047
  703TMC3    C210391   0.362   0.753  10.289  0.7929  0.4595  1.0254
  703TMC3    C310392   0.372   0.883  10.240  0.0432  0.1070  0.4788
  703TMC3    C410393   0.580   0.714  10.203  0.6265  0.5007 -0.0264
  703TMC3    C510394   0.586   0.844  10.149 -0.2321 -0.2465 -0.8349
  703TMC3    C610395   0.479   0.930  10.166 -0.2470 -0.2542 -0.2134
  703TMC3     C10396   0.440   0.525  10.291 -0.1154  0.1290  0.2855
  703TMC3     O10397   0.321   0.497  10.288 -0.0394 -0.5003  0.9677
  703TMC3     H10398   0.286   0.718  10.357 -0.6232 -1.4351 -1.5207
  703TMC3    H110399   0.657   0.642  10.178  2.5596  2.4478  0.3654
  703TMC3    H210400   0.489   1.034  10.138 -1.7701 -0.6154 -2.1336
  703TMC3    C710401   0.708   0.905  10.120 -0.0180 -0.2705  0.3230
  703TMC3    C810402   0.331   0.982  10.337  0.0718  1.5882 -0.0675
  703TMC3    O110403   0.810   0.856  10.170  0.4260  0.1762 -0.6894
  703TMC3    O210404   0.390   1.083  10.338 -0.2673  0.0724  0.1002
  704TMC3    C110405   2.378   2.546  12.443 -0.1085 -0.0124  0.5579
  704TMC3    C210406   2.509   2.587  12.440  0.7221  0.0355  0.5900
  704TMC3    C310407   2.581   2.589  12.554 -0.8126  0.4175  0.4080
  704TMC3    C410408   2.321   2.500  12.559 -0.2033  0.6602 -0.1440
  704TMC3    C510409   2.401   2.483  12.669  0.7480  0.1164 -0.1870
  704TMC3    C610410   2.530   2.528  12.666 -0.4134 -0.2138 -0.1546
  704TMC3     C10411   2.312   2.515  12.316 -0.1480  0.6260  0.2255
  704TMC3     O10412   2.188   2.530  12.315  0.1405  0.3310 -0.2362
  704TMC3     H10413   2.544   2.628  12.346  2.5626  0.3775  1.4272
  704TMC3    H110414   2.216   2.473  12.563  0.2840 -0.9224  1.9211
  704TMC3    H210415   2.596   2.519  12.752 -0.1825  0.6597 -0.2411
  704TMC3    C710416   2.399   2.346  12.716  0.5119 -0.6237 -0.1612
  704TMC3    C810417   2.728   2.593  12.542 -0.0449  0.1419 -0.0082
  704TMC3    O110418   2.512   2.298  12.720 -0.3108  0.4998  0.1166
  704TMC3    O210419   2.785   2.584  12.434 -0.0150  0.4834 -0.9655
  705MPD2     C10420   2.046   1.077  16.768 -0.2773 -0.3847  0.2881
  705MPD2    C110421   1.965   1.142  16.679 -0.1662  0.3525 -0.5113
  705MPD2    C210422   1.856   1.204  16.735 -0.3710  0.0638  0.0839
  705MPD2    C310423   1.827   1.199  16.867  0.1503 -0.1075 -0.1460
  705MPD2    C410424   1.912   1.132  16.957  0.3082 -0.0659 -0.0437
  705MPD2    C510425   2.025   1.078  16.905 -0.9148 -0.0224 -0.0058
  705MPD2     H10426   1.783   1.250  16.669  1.7042  2.6895 -0.3456
  705MPD2    H110427   1.879   1.106  17.057 -0.0935 -1.8018 -0.6324
  705MPD2    H210428   2.132   1.016  16.742 -1.3301 -1.6789 -0.1728
  705MPD2    H310429   2.082   1.008  16.965 -0.4892  1.1370  0.9363
  705MPD2     N10430   1.710   1.261  16.911  0.2660 -0.2621 -0.2668
  705MPD2    H510431   1.650   1.306  16.842 -0.3183 -1.6309 -0.6498
  705MPD2    N110432   1.982   1.157  16.537 -0.1468 -0.5234 -0.1740
  705MPD2    H710433   1.930   1.230  16.489  0.4383 -1.5530 -2.3324
  706TMC3    C110434   2.076   1.013  16.100  0.1282 -0.0468 -0.1135
  706TMC3    C210435   2.061   1.136  16.040  0.5471 -0.2773 -0.5970
  706TMC3    C310436   2.046   1.241  16.128  0.6725 -0.6703 -0.7216
  706TMC3    C410437   2.063   0.994  16.240 -0.1782 -0.3339  0.9019
  706TMC3    C510438   2.046   1.103  16.316  0.0330  0.1327  0.1668
  706TMC3    C610439   2.045   1.231  16.267 -0.2943  0.3973  0.1555
  706TMC3     C10440   2.093   0.897  16.019 -0.4044 -0.6224 -0.1598
  706TMC3     O10441   2.129   0.795  16.076 -0.1991  0.3035 -0.0781
  706TMC3     H10442   2.070   1.155  15.934  0.4250  1.4411 -0.3108
  706TMC3    H110443   2.093   0.896  16.276  1.0444 -1.1334 -2.2177
  706TMC3    H210444   2.050   1.322  16.326 -1.8872  1.7837 -1.8555
  706TMC3    C710445   2.058   1.081  16.460 -0.4320 -0.1824 -0.4816
  706TMC3    C810446   2.029   1.365  16.071 -0.5548 -0.3622 -1.1163
  706TMC3    O110447   2.126   0.988  16.494  0.3185 -0.0356 -0.2004
  706TMC3    O210448   1.954   1.371  15.979 -0.2229 -0.2049 -0.2004
  707TMC3    C110449   3.912   0.199   1.544 -0.0502 -0.3289  0.1066
  707TMC3    C210450   3.873   0.092   1.621 -0.6094 -0.5288 -0.3969
  707TMC3    C310451   3.759   0.109   1.682  0.3395 -0.4463 -0.3498
  707TMC3    C410452   3.851   0.321   1.543  0.0004  0.4365  0.0038
  707TMC3    C510453   3.733   0.337   1.611  0.6144 -0.4672 -0.2947
  707TMC3    C610454   3.701   0.228   1.692 -0.0341 -0.1890 -0.0821
  707TMC3     C10455   4.024   0.170   1.457 -0.0243  0.2537  0.4067
  707TMC3     O10456   4.106   0.093   1.505 -0.2123  0.1908 -0.3450
  707TMC3     H10457   3.932   0.001   1.614  1.3289  0.6101  1.2387
  707TMC3    H110458   3.886   0.397   1.474  0.7538 -0.4305 -0.5668
  707TMC3    H210459   3.613   0.235   1.755 -2.6165 -3.0426 -3.3759
  707TMC3    C710460   3.642   0.448   1.587  0.4158 -0.6755 -1.0570
  707TMC3    C810461   3.696   4.724   1.747  0.4405 -1.0081 -0.4178
  707TMC3    O110462   3.552   0.464   1.666  0.4177  0.2702  0.0242
  707TMC3    O210463   3.612   0.025   1.828 -0.0981  0.6410  0.1524
  708MPD2     C10464   0.072   4.395  13.937  0.5314  0.1374 -0.1867
  708MPD2    C110465   0.021   4.276  13.979  0.6084  0.1744  0.3761
  708MPD2    C210466   0.110   4.173  14.018  0.5374  0.4591  0.8767
  708MPD2    C310467   0.245   4.201  14.035 -0.7835 -0.0894  0.0233
  708MPD2    C410468   0.286   4.331  14.016 -0.1501 -0.2763 -0.2233
  708MPD2    C510469   0.196   4.428  13.978  0.1519 -0.9222  0.5634
  708MPD2     H10470   0.075   4.072  14.037 -2.1527  1.5443  1.7068
  708MPD2    H110471   0.390   4.359  14.025 -0.0140 -0.4228 -1.2775
  708MPD2    H210472   0.016   4.481  13.904  0.8086  1.2311  2.1397
  708MPD2    H310473   0.241   4.525  13.963  1.2946 -1.2751  1.7616
  708MPD2     N10474   0.327   4.101  14.078 -0.3503 -0.1504 -0.5407
  708MPD2    H510475   0.425   4.116  14.099 -0.5749 -2.2076  1.9283
  708MPD2    N110476   4.616   4.234  13.943  0.4796  0.0028  0.2705
  708MPD2    H710477   4.592   4.137  13.961  0.4559  0.0036  0.2434
  709TMC3    C110478   4.446   4.197  13.789  0.2567  0.1003 -0.0913
  709TMC3    C210479   4.491   4.169  13.661 -0.1349  0.4938 -0.1859
  709TMC3    C310480   4.509   4.034  13.643 -0.1300  0.8710  0.1336
  709TMC3    C410481   4.406   4.106  13.882  0.8867 -0.3460 -0.2912
  709TMC3    C510482   4.416   3.974  13.848  0.0149  0.1330  0.0068
  709TMC3    C610483   4.463   3.938  13.726 -0.4726 -0.7732  0.6567
  709TMC3     C10484   4.536   4.295  13.852  0.6897  0.0271 -0.0902
  709TMC3     O10485   4.558   4.389  13.780  0.5870  0.0803 -0.0434
  709TMC3     H10486   4.514   4.247  13.590  1.4402  1.2237  1.1132
  709TMC3    H110487   4.388   4.142  13.983 -0.7973 -0.6355 -0.4989
  709TMC3    H210488   4.478   3.834  13.700 -0.9098 -0.6316 -0.1604
  709TMC3    C710489   4.473   3.906  13.959 -0.0295  0.0480  0.1200
  709TMC3    C810490   4.570   3.990  13.519  0.9334  0.4162  0.3131
  709TMC3    O110491   4.548   3.972  14.034  0.4118 -0.0190 -0.4285
  709TMC3    O210492   4.553   3.880  13.480  0.9020 -0.2521 -0.2195
  710TMC3    C110493   1.129   0.514   0.331 -0.1717  0.4408  0.6452
  710TMC3    C210494   1.189   0.540   0.208  0.5069 -0.0797 -0.2313
  710TMC3    C310495   1.327   0.552   0.210 -0.3396  0.1316 -0.2368
  710TMC3    C410496   1.199   0.473   0.440  0.5594 -1.2775  0.4024
  710TMC3    C510497   1.333   0.473   0.436  0.1497 -1.2208 -0.0343
  710TMC3    C610498   1.399   0.521   0.329  0.3781  0.1354 -0.1848
  710TMC3     C10499   0.986   0.544   0.350  0.6095  0.2450  0.0654
  710TMC3     O10500   0.913   0.544   0.251 -0.0288 -0.1174 -0.2601
  710TMC3     H10501   1.127   0.559   0.121 -0.5499  1.6156  0.9051
  710TMC3    H110502   1.152   0.423   0.524  1.2166 -0.1343  1.4489
  710TMC3    H210503   1.507   0.520   0.323  0.2954  0.4628 -2.0180
  710TMC3    C710504   1.402   0.396   0.535 -0.2587 -0.0964  0.3004
  710TMC3    C810505   1.403   0.560   0.083 -0.1602  0.7135 -0.6711
  710TMC3    O110506   1.349   0.364   0.638  0.5616 -0.2650 -0.1714
  710TMC3    O210507   1.514   0.513   0.091 -0.2016  0.0174  0.0508
  711TMC3    C110508   0.895   2.010  15.040  0.1528  0.0167 -0.1201
  711TMC3    C210509   0.846   2.046  15.166 -0.2864 -0.3784  0.9450
  711TMC3    C310510   0.903   2.153  15.220 -0.3092  0.9240 -0.7886
  711TMC3    C410511   1.004   2.074  14.983  0.4889  0.4841  0.3417
  711TMC3    C510512   1.066   2.176  15.044  0.7628 -0.1232  0.0569
  711TMC3    C610513   1.005   2.223  15.158  0.0433  0.2456 -0.8670
  711TMC3     C10514   0.866   1.867  15.000  0.1414 -0.7503 -0.0739
  711TMC3     O10515   0.794   1.855  14.901 -0.0692 -0.5642  0.5815
  711TMC3     H10516   0.759   2.001  15.212  0.2119 -1.9682  0.3211
  711TMC3    H110517   1.043   2.036  14.890  0.2984  0.6694  0.1866
  711TMC3    H210518   1.030   2.323  15.191  3.2310 -0.4733 -1.0808
  711TMC3    C710519   1.213   2.165  15.045  0.8306 -0.9656 -0.2833
  711TMC3    C810520   0.934   2.119  15.356  0.3292  0.7531 -0.1571
  711TMC3    O110521   1.257   2.066  14.994  0.1535 -0.8213  0.1825
  711TMC3    O210522   0.842   2.067  15.424 -0.5722  0.2325 -0.1813
  712MPD2     C10523   2.576   2.737  13.937  0.0172 -0.1252 -0.6306
  712MPD2    C110524   2.488   2.781  13.839  0.0143 -0.2297 -0.6968
  712MPD2    C210525   2.541   2.826  13.727 -0.4699  0.3323  0.8590
  712MPD2    C310526   2.675   2.838  13.706  0.3898 -0.0271 -0.3246
  712MPD2    C410527   2.765   2.786  13.800 -0.0149  0.3492  0.0855
  712MPD2    C510528   2.711   2.732  13.917 -0.2503 -0.4984  0.3883
  712MPD2     H10529   2.471   2.881  13.664  1.6163 -0.1678 -1.8898
  712MPD2    H110530   2.873   2.777  13.787  0.0072 -0.2275  0.6520
  712MPD2    H210531   2.530   2.707  14.031  2.1645 -0.4338  0.3107
  712MPD2    H310532   2.777   2.700  13.996 -1.0070  0.6402  1.4658
  712MPD2     N10533   2.734   2.910  13.592 -0.2454 -0.1977 -0.1770
  712MPD2    H510534   2.835   2.910  13.590 -0.2223 -1.1770  1.0105
  712MPD2    N110535   2.344   2.791  13.849 -0.3476 -0.4984  0.1994
  712MPD2    H710536   2.295   2.809  13.762  2.4460  1.8222 -0.8729
  713TMC3    C110537   2.732   3.080  13.427  0.3447  0.5933 -0.0751
  713TMC3    C210538   2.868   3.091  13.447 -0.0871 -0.2118  0.1519
  713TMC3    C310539   2.924   3.209  13.439 -0.4520  0.6546 -0.0984
  713TMC3    C410540   2.655   3.192  13.409 -0.3771 -0.1643 -0.0430
  713TMC3    C510541   2.720   3.310  13.401  1.1696 -0.6237 -0.5991
  713TMC3    C610542   2.855   3.317  13.409 -0.0741  0.1941 -0.4905
  713TMC3     C10543   2.663   2.971  13.490 -0.3020  0.5796  0.3972
  713TMC3     O10544   2.542   2.958  13.474  0.1955 -0.1890 -0.0009
  713TMC3     H10545   2.926   3.000  13.437 -0.0637 -0.0936 -0.7701
  713TMC3    H110546   2.551   3.185  13.381 -0.1238 -0.3215 -0.9346
  713TMC3    H210547   2.904   3.412  13.389  2.7504 -1.7548 -2.8749
  713TMC3    C710548   2.659   3.424  13.333  0.1108 -0.1694  0.2012
  713TMC3    C810549   3.073   3.224  13.421  0.1322 -0.2742  0.2132
  713TMC3    O110550   2.706   3.442  13.223 -0.1362 -0.2606 -0.2397
  713TMC3    O210551   3.107   3.321  13.353  0.5527 -0.2909 -0.0894
  714MPD2     C10552   4.484   1.273   1.687  0.3694  0.2734  0.4284
  714MPD2    C110553   4.544   1.231   1.577 -0.0289 -0.0688  0.4648
  714MPD2    C210554   4.488   1.272   1.454 -0.1085  0.1961  0.3680
  714MPD2    C310555   4.367   1.342   1.449  0.6833 -0.0585 -0.7739
  714MPD2    C410556   4.299   1.364   1.561 -0.2009 -0.6772  0.1485
  714MPD2    C510557   4.360   1.331   1.685  0.4620 -0.3281  0.5402
  714MPD2     H10558   4.533   1.244   1.360 -0.6323 -0.7222  0.3912
  714MPD2    H110559   4.215   1.432   1.560  0.1316 -0.2711 -0.8701
  714MPD2    H210560   4.522   1.266   1.789  2.3240 -0.6681 -0.3672
  714MPD2    H310561   4.318   1.356   1.782 -0.7363 -1.8519  0.4060
  714MPD2     N10562   4.335   1.386   1.322 -0.4985 -0.2248 -0.3661
  714MPD2    H510563   4.408   1.366   1.254  0.5026 -1.1497  0.9982
  714MPD2    N110564   4.662   1.146   1.578 -0.3705 -0.3900 -0.2555
  714MPD2    H710565   4.702   1.134   1.670 -0.4031 -5.2689 -0.9022
  715TMC3    C110566   0.115   1.004   1.498  0.0814 -1.1332 -0.0853
  715TMC3    C210567   0.165   0.930   1.396 -0.0382 -0.6191  0.7741
  715TMC3    C310568   0.292   0.885   1.412 -0.4638  0.5615  0.0827
  715TMC3    C410569   0.180   1.037   1.618  0.0141 -0.0528  0.3738
  715TMC3    C510570   0.314   0.997   1.622 -0.2553 -0.2308  0.1456
  715TMC3    C610571   0.368   0.920   1.523 -0.2080 -0.4738  0.1767
  715TMC3     C10572   4.718   1.078   1.466  0.0199  0.0866  0.3625
  715TMC3     O10573   4.679   1.073   1.349  0.3813  0.6402 -0.5393
  715TMC3     H10574   0.116   0.912   1.301 -1.0703 -1.8363  1.5345
  715TMC3    H110575   0.133   1.093   1.697  0.5832 -0.3906  0.9475
  715TMC3    H210576   0.472   0.890   1.533 -0.0104 -0.5527 -2.1941
  715TMC3    C710577   0.405   1.048   1.723  0.5719  0.0336 -0.7199
  715TMC3    C810578   0.344   0.789   1.316  0.6610 -0.2684 -0.5187
  715TMC3    O110579   0.527   1.041   1.704 -0.0391 -0.2407 -0.4469
  715TMC3    O210580   0.290   0.776   1.210 -0.2251 -0.2980 -0.4191
  716MPD2     C10581   0.113   0.617   9.650 -0.0099  0.6947  0.4329
  716MPD2    C110582   0.110   0.482   9.639 -0.7814  0.2040  0.1774
  716MPD2    C210583   0.206   0.407   9.715  0.4627 -0.4060 -0.1516
  716MPD2    C310584   0.297   0.475   9.797  0.2740 -0.6506 -0.4207
  716MPD2    C410585   0.302   0.613   9.793 -0.2810 -0.3597  0.3439
  716MPD2    C510586   0.204   0.677   9.725 -0.8075 -0.4874 -0.0991
  716MPD2     H10587   0.205   0.299   9.711  0.1619 -0.3266 -2.3109
  716MPD2    H110588   0.374   0.682   9.837 -1.6485  0.9506  0.5056
  716MPD2    H210589   0.043   0.677   9.593 -0.0353  1.5928  1.4093
  716MPD2    H310590   0.205   0.785   9.718 -2.8128 -0.3711  1.2867
  716MPD2     N10591   0.407   0.401   9.850  0.3393  0.3505 -0.1613
  716MPD2    H510592   0.405   0.300   9.854 -3.1514  0.4093 -0.4527
  716MPD2    N110593   0.011   0.423   9.558  0.0907  0.0978  0.3802
  716MPD2    H710594   4.669   0.487   9.516  0.9977 -0.3197 -1.7067
  717TMC3    C110595   0.596   0.344   9.984  0.4981 -0.0367 -0.2867
  717TMC3    C210596   0.522   0.231   9.994  0.5986 -0.2817 -0.0924
  717TMC3    C310597   0.587   0.119   9.999 -0.4685 -0.5838 -0.3073
  717TMC3    C410598   0.730   0.353   9.969  0.1360 -0.2227 -0.7861
  717TMC3    C510599   0.789   0.233   9.981 -0.6285  0.4310 -0.7698
  717TMC3    C610600   0.725   0.110  10.003  0.1788 -0.9158  0.2467
  717TMC3     C10601   0.514   0.446   9.919 -0.5308 -0.2676  0.1799
  717TMC3     O10602   0.550   0.563   9.932 -0.1551 -0.5385  0.4731
  717TMC3     H10603   0.414   0.231  10.003  0.6731 -1.0247  0.7702
  717TMC3    H110604   0.774   0.452   9.964  0.7275 -0.3802  1.4131
  717TMC3    H210605   0.773   0.013   9.987  0.2228 -1.0372  1.0938
  717TMC3    C710606   0.935   0.222  10.004  0.0976  0.1226  0.8399
  717TMC3    C810607   0.509   0.021   9.929 -0.1046 -0.5104  0.3830
  717TMC3    O110608   0.969   0.128  10.077 -0.1595  0.1517  0.0500
  717TMC3    O210609   0.439   0.071   9.844  0.0202  0.0248  0.0288
  718MPD2     C10610   4.101   2.635  13.255  0.2671 -0.8948 -0.0527
  718MPD2    C110611   4.100   2.634  13.117  0.5038 -0.1913 -0.4749
  718MPD2    C210612   3.984   2.610  13.049 -0.2355  0.1000  0.4204
  718MPD2    C310613   3.871   2.576  13.113  0.0110  0.6547  0.6196
  718MPD2    C410614   3.871   2.573  13.251  0.0269  0.3812  0.3228
  718MPD2    C510615   3.984   2.603  13.323 -0.0655 -0.4815 -0.0433
  718MPD2     H10616   3.986   2.602  12.941 -1.2144  0.1449  0.3993
  718MPD2    H110617   3.783   2.543  13.308 -0.4272  1.8757  0.4072
  718MPD2    H210618   4.186   2.660  13.317 -0.9098 -1.4427  1.7542
  718MPD2    H310619   3.985   2.590  13.431  0.1355 -2.0266 -0.2384
  718MPD2     N10620   3.776   2.530  13.032 -0.1622 -0.6649 -0.6006
  718MPD2    H510621   3.787   2.553  12.933  0.4492  0.0225 -0.3699
  718MPD2    N110622   4.214   2.662  13.036  0.8045 -0.4105  0.5520
  718MPD2    H710623   4.194   2.680  12.938 -0.6551  0.7623  1.0848
  719TMC3    C110624   4.415   2.678  12.939  0.9061 -0.0527 -0.0628
  719TMC3    C210625   4.441   2.555  12.890 -0.3023  0.1549  0.6739
  719TMC3    C310626   4.444   2.536  12.754 -0.0455 -0.2232 -0.4432
  719TMC3    C410627   4.397   2.791  12.862  0.5249 -0.4505 -0.4460
  719TMC3    C510628   4.427   2.770  12.729 -0.4577 -0.4859 -0.0469
  719TMC3    C610629   4.445   2.649  12.670  0.7405 -1.0612  0.0464
  719TMC3     C10630   4.350   2.674  13.069 -0.0342  0.3599  0.6118
  719TMC3     O10631   4.418   2.645  13.167 -0.6339 -0.2239  0.4593
  719TMC3     H10632   4.448   2.471  12.958  1.3349  0.3064  0.6907
  719TMC3    H110633   4.395   2.889  12.908  1.2427  0.9148 -3.3303
  719TMC3    H210634   4.468   2.642  12.565  2.1645  1.7841  0.1677
  719TMC3    C710635   4.456   2.881  12.651  0.0234 -0.5398  0.0571
  719TMC3    C810636   4.347   2.436  12.723  0.1679  0.2253  0.3175
  719TMC3    O110637   4.530   2.869  12.551  0.0874  0.3647  0.2364
  719TMC3    O210638   4.304   2.368  12.815  0.1298 -0.1273 -0.6510
  720MPD2     C10639   2.132   4.696  14.022  0.2018  0.0550 -0.4771
  720MPD2    C110640   2.218   4.643  13.933  0.2985 -1.0563  0.2787
  720MPD2    C210641   2.314   4.552  13.983  0.4230  0.2917 -0.7218
  720MPD2    C310642   2.313   4.516  14.116  0.2857  0.0627  0.2488
  720MPD2    C410643   2.214   4.562  14.202 -0.8920 -0.3205  0.1413
  720MPD2    C510644   2.138   4.657  14.155 -0.7812 -0.1447 -0.4363
  720MPD2     H10645   2.397   4.524  13.920 -1.3936 -0.9984 -2.5144
  720MPD2    H110646   2.197   4.530  14.304 -0.4437 -0.4679  0.1696
  720MPD2    H210647   2.055   0.043  13.994 -1.7215 -1.7541  0.3186
  720MPD2    H310648   2.067   4.697  14.226 -1.1988  0.5907 -1.2688
  720MPD2     N10649   2.427   4.445  14.163  0.1019 -0.2272  0.5499
  720MPD2    H510650   2.494   4.415  14.093  0.7580  1.1390  0.5926
  720MPD2    N110651   2.225   4.682  13.796 -0.0480  0.5034 -0.1840
  720MPD2    H710652   2.301   4.646  13.738 -0.4990  0.2256 -0.6104
  721TMC3    C110653   2.569   4.315  14.293 -0.5414  0.0695  0.2042
  721TMC3    C210654   2.580   4.230  14.398  0.4030 -0.8823 -0.5303
  721TMC3    C310655   2.696   4.166  14.430 -0.6561  0.0282 -0.2992
  721TMC3    C410656   2.679   4.360  14.229 -0.1616  0.1662  0.3316
  721TMC3    C510657   2.802   4.306  14.276 -0.5832 -0.0676 -0.2397
  721TMC3    C610658   2.809   4.201  14.366  0.5689  0.9302 -0.0932
  721TMC3     C10659   2.455   4.407  14.297 -0.2689  0.2703 -0.5672
  721TMC3     O10660   2.382   4.416  14.394 -0.2555 -0.1046 -0.0736
  721TMC3     H10661   2.488   4.215  14.453  0.3966 -0.2412 -0.3705
  721TMC3    H110662   2.683   4.427  14.144 -1.5913 -1.0430 -0.7048
  721TMC3    H210663   2.903   4.151  14.386 -0.4793 -0.9049  0.2485
  721TMC3    C710664   2.930   4.371  14.234  0.2641  0.8305  0.5149
  721TMC3    C810665   2.708   4.109  14.565 -0.0465 -0.7155 -0.0146
  721TMC3    O110666   2.921   4.477  14.178  0.4636  0.4484 -0.7395
  721TMC3    O210667   2.615   4.141  14.634 -0.4063 -0.0248  0.2022
  722MPD2     C10668   1.710   3.621  13.892 -0.0682  1.2367  0.2372
  722MPD2    C110669   1.688   3.708  13.783 -0.1901 -0.0717  0.4222
  722MPD2    C210670   1.569   3.688  13.709  0.0491 -0.3921 -0.5444
  722MPD2    C310671   1.471   3.604  13.755 -1.2282  0.2912 -0.2415
  722MPD2    C410672   1.493   3.529  13.864  0.4855 -0.0644  0.1224
  722MPD2    C510673   1.607   3.543  13.936  0.1815 -0.4354  0.5916
  722MPD2     H10674   1.549   3.749  13.621 -2.8265  0.6117  0.7797
  722MPD2    H110675   1.426   3.450  13.895  0.3645  0.5216  1.3188
  722MPD2    H210676   1.802   3.623  13.948 -0.8330 -0.1929  1.5416
  722MPD2    H310677   1.635   3.475  14.015 -1.0911 -0.6180  0.8863
  722MPD2     N10678   1.352   3.606  13.679  0.2727 -0.1812  0.0073
  722MPD2    H510679   1.348   3.666  13.597 -0.2649  0.6213  0.6271
  722MPD2    N110680   1.776   3.810  13.739  0.4220 -0.1645 -0.1095
  722MPD2    H710681   1.753   3.861  13.654 -2.1442 -0.0810  0.6385
  723TMC3    C110682   1.146   3.536  13.597  0.3702 -0.4771  0.3593
  723TMC3    C210683   1.092   3.418  13.561  0.0710  0.3579 -0.4786
  723TMC3    C310684   1.051   3.409  13.430  0.1557 -0.2584  0.1193
  723TMC3    C410685   1.156   3.651  13.515  0.3158  0.4334 -0.5404
  723TMC3    C510686   1.109   3.638  13.390 -0.5630  0.9272 -0.2100
  723TMC3    C610687   1.058   3.517  13.346 -0.2399 -0.0932 -0.0407
  723TMC3     C10688   1.243   3.535  13.707  0.4928 -0.4138  0.3744
  723TMC3     O10689   1.223   3.443  13.792 -0.0519  0.0678  0.3289
  723TMC3     H10690   1.115   3.334  13.625 -2.2568  2.0774  2.5675
  723TMC3    H110691   1.184   3.748  13.554  0.4706 -0.3506  1.2894
  723TMC3    H210692   1.018   3.510  13.245 -1.2757 -0.2276  0.3766
  723TMC3    C710693   1.131   3.739  13.291 -0.0556  0.8797 -0.0769
  723TMC3    C810694   0.971   3.297  13.394  0.4742  0.7824  0.2343
  723TMC3    O110695   1.129   3.709  13.171 -0.6170 -0.6355 -0.0996
  723TMC3    O210696   0.927   3.303  13.278 -0.0660 -0.1035  0.7132
  724TMC3    C110697   2.895   2.047  10.020  0.2081  0.5152  0.0204
  724TMC3    C210698   2.768   2.049  10.063  0.3446 -0.6561 -0.7480
  724TMC3    C310699   2.670   2.056   9.970  0.5964 -0.3616 -0.2059
  724TMC3    C410700   2.933   2.066   9.885  0.7183 -0.3995  0.3644
  724TMC3    C510701   2.828   2.060   9.794  0.0689  0.4399 -0.0243
  724TMC3    C610702   2.689   2.048   9.832 -0.2341  0.4740 -0.3686
  724TMC3     C10703   2.999   2.039  10.113  0.5078  0.6657 -0.6040
  724TMC3     O10704   2.977   2.008  10.227  0.3548  0.1106  0.2076
  724TMC3     H10705   2.743   2.021  10.164  1.4964  3.6358  0.7273
  724TMC3    H110706   3.033   2.053   9.845  0.2351  0.5151 -1.1518
  724TMC3    H210707   2.618   2.058   9.751 -2.5684 -1.8282  1.3898
  724TMC3    C710708   2.855   2.034   9.654  0.5571  0.3252  0.4394
  724TMC3    C810709   2.534   2.093  10.014 -0.4207  0.4649 -0.3130
  724TMC3    O110710   2.781   1.953   9.603 -0.6280  0.0305  0.4830
  724TMC3    O210711   2.456   2.086   9.920  0.4714  0.3374 -0.0869
  725TMC3    C110712   2.986   0.273  12.988 -0.1711 -0.0336 -0.1500
  725TMC3    C210713   2.888   0.202  12.931 -0.3640  0.1576  0.0277
  725TMC3    C310714   2.917   0.116  12.821  0.2346 -0.6098  0.1031
  725TMC3    C410715   3.116   0.265  12.934  0.6397 -0.2883 -0.3452
  725TMC3    C510716   3.143   0.173  12.834 -0.4469 -0.0964 -0.0670
  725TMC3    C610717   3.042   0.105  12.768 -0.0061  0.4026  1.0911
  725TMC3     C10718   2.957   0.350  13.112 -0.0559 -0.1219 -0.3569
  725TMC3     O10719   2.891   0.288  13.197 -0.4741  0.3457 -0.5632
  725TMC3     H10720   2.795   0.207  12.988 -1.4536  0.0705 -1.7421
  725TMC3    H110721   3.195   0.324  12.979  1.6303 -0.6902 -1.5369
  725TMC3    H210722   3.066   0.043  12.682 -0.9127  1.8443 -0.2053
  725TMC3    C710723   3.250   0.203  12.745 -0.3705 -0.3855 -0.1199
  725TMC3    C810724   2.805   0.092  12.732  0.6124  0.0058 -1.5910
  725TMC3    O110725   3.234   0.208  12.626  0.2245 -0.0440  0.0749
  725TMC3    O210726   2.696   0.078  12.784 -0.0166  0.3753 -0.1069
  726MPD2     C10727   1.692   1.940  10.576  0.3752  0.2814  0.1489
  726MPD2    C110728   1.607   2.035  10.525 -0.0068  0.4632  0.0589
  726MPD2    C210729   1.480   1.996  10.484 -0.3781 -0.2246  0.0515
  726MPD2    C310730   1.453   1.859  10.473  0.2872  0.4280  0.6474
  726MPD2    C410731   1.548   1.765  10.502 -0.3063 -0.3562 -0.0570
  726MPD2    C510732   1.670   1.808  10.554  0.0168  0.3860 -0.1501
  726MPD2     H10733   1.405   2.072  10.467 -1.4918 -1.5908 -1.1396
  726MPD2    H110734   1.525   1.659  10.494 -4.0230  0.4403  0.0678
  726MPD2    H210735   1.786   1.972  10.619 -0.6605  0.2100  2.4643
  726MPD2    H310736   1.751   1.739  10.574 -0.0319  0.1761 -0.6824
  726MPD2     N10737   1.322   1.809  10.437  0.1905  0.1850 -0.2761
  726MPD2    H510738   1.313   1.709  10.448  1.2174  0.1547  0.3410
  726MPD2    N110739   1.633   2.171  10.525 -0.0661  0.0948 -0.7694
  726MPD2    H710740   1.575   2.223  10.459  0.1177  2.5437  0.9868
  727TMC3    C110741   1.700   2.384  10.612  0.5276  0.0874  0.1121
  727TMC3    C210742   1.770   2.447  10.706 -0.5015 -0.3884 -0.6419
  727TMC3    C310743   1.757   2.577  10.712  0.1076  0.0191  0.5716
  727TMC3    C410744   1.599   2.449  10.539  0.0496  0.4545 -0.1499
  727TMC3    C510745   1.588   2.585  10.554  1.1588 -0.0683 -0.0869
  727TMC3    C610746   1.674   2.653  10.636 -0.9198 -0.1100 -0.9003
  727TMC3     C10747   1.716   2.241  10.617  0.7135  1.1685  0.4508
  727TMC3     O10748   1.784   2.194  10.704  0.4446 -0.1900  0.0183
  727TMC3     H10749   1.849   2.410  10.770  0.2679  2.4649  0.0582
  727TMC3    H110750   1.530   2.387  10.484  1.1804 -1.7885  0.9667
  727TMC3    H210751   1.676   2.761  10.638  1.8491 -0.1448 -0.7831
  727TMC3    C710752   1.475   2.655  10.497 -0.0972  0.5926  0.2128
  727TMC3    C810753   1.818   2.638  10.825 -0.6144  0.1800 -0.3372
  727TMC3    O110754   1.470   2.774  10.522 -0.4770  0.2296 -0.7921
  727TMC3    O210755   1.924   2.603  10.867  0.0263 -0.1560  0.5019
  728TMC3    C110756   0.173   0.322  15.431  0.0277 -0.1187 -0.0398
  728TMC3    C210757   0.286   0.387  15.479  0.0186 -0.5585  0.7960
  728TMC3    C310758   0.368   0.431  15.382 -0.1583 -0.6875  0.1711
  728TMC3    C410759   0.137   0.316  15.296  0.1651  0.3619  0.0765
  728TMC3    C510760   0.231   0.358  15.210 -0.3429 -0.1267 -0.0127
  728TMC3    C610761   0.349   0.405  15.252  0.4836 -0.3676 -0.4618
  728TMC3     C10762   0.075   0.306  15.535 -0.2984  0.0819 -1.0501
  728TMC3     O10763   0.099   0.377  15.632  0.1963 -0.4725 -0.4105
  728TMC3     H10764   0.316   0.372  15.582  0.9000 -0.9588  0.4830
  728TMC3    H110765   0.045   0.269  15.263  0.1987 -0.7614  1.5679
  728TMC3    H210766   0.428   0.432  15.183  1.8333  1.5945  1.8374
  728TMC3    C710767   0.188   0.396  15.075  0.1721  0.2054 -0.3647
  728TMC3    C810768   0.495   0.477  15.424  0.5857 -0.6460  0.1503
  728TMC3    O110769   0.108   0.326  15.018  0.6788 -0.3858  0.4211
  728TMC3    O210770   0.586   0.479  15.342 -0.7967 -0.4428  0.2600
  729MPD2     C10771   2.198   1.971  16.921  0.2160 -0.3318  0.5195
  729MPD2    C110772   2.263   1.850  16.881 -0.1054 -0.0556 -0.0567
  729MPD2    C210773   2.304   1.763  16.979 -0.4789  0.3127  0.2730
  729MPD2    C310774   2.301   1.799  17.113  0.6147 -1.2257 -0.0513
  729MPD2    C410775   2.247   1.918  17.150 -0.0853 -0.6144 -0.5072
  729MPD2    C510776   2.192   1.996  17.058  0.2778 -0.5140  0.5631
  729MPD2     H10777   2.348   1.666  16.957 -2.4285  0.0558 -2.3806
  729MPD2    H110778   2.255   1.958  17.251  2.1539  1.8406 -1.6815
  729MPD2    H210779   2.153   2.037  16.848 -1.0124 -1.5952  0.1343
  729MPD2    H310780   2.135   2.082  17.091 -0.2883 -0.6280 -0.1139
  729MPD2     N10781   2.367   1.724  17.213 -0.2087 -0.4923  0.3991
  729MPD2    H510782   2.346   1.751  17.309  0.2501  0.1459  0.3237
  729MPD2    N110783   2.281   1.821  16.742  1.0033  0.2780  0.1220
  729MPD2    H710784   2.243   1.896  16.686 -0.3943 -0.5393 -0.0288
  730TMC3    C110785   2.536   1.610  17.312 -0.2370  0.6217 -0.6841
  730TMC3    C210786   2.647   1.544  17.276  0.5897 -0.8308  0.5505
  730TMC3    C310787   2.763   1.605  17.305 -0.1521 -0.1479 -0.2488
  730TMC3    C410788   2.535   1.711  17.403  0.0134 -0.0360  0.1006
  730TMC3    C510789   2.655   1.752  17.453  0.1700 -0.1008 -0.3940
  730TMC3    C610790   2.770   1.701  17.403 -0.1112 -0.0724  0.3880
  730TMC3     C10791   2.459   1.628  17.191  0.0330  0.4633  0.5485
  730TMC3     O10792   2.518   1.584  17.094 -0.4863 -0.0111 -0.3592
  730TMC3     H10793   2.653   1.457  17.211 -1.1013 -3.0794  3.4213
  730TMC3    H110794   2.442   1.748  17.444 -0.1936 -0.5954  0.1332
  730TMC3    H210795   2.860   1.751  17.437 -1.1487  1.3550  1.0360
  730TMC3    C710796   2.663   1.900  17.448 -0.4488 -0.0775 -0.5200
  730TMC3    C810797   2.881   1.573  17.222  0.9077 -0.1715  0.4845
  730TMC3    O110798   2.755   1.955  17.390  0.4787  0.6100 -0.2957
  730TMC3    O210799   2.870   1.495  17.130  0.0889 -0.4631  0.7273
  731MPD2     C10800   2.433   0.072  11.932  0.2843  0.1280 -0.1203
  731MPD2    C110801   2.555   0.008  11.918 -0.0264  0.4241  0.2628
  731MPD2    C210802   2.605   4.661  12.029 -0.0805  0.1155  1.1081
  731MPD2    C310803   2.524   4.645  12.143  0.0979  0.1013 -0.4095
  731MPD2    C410804   2.399   4.710  12.143 -0.1779  0.2201  0.5528
  731MPD2    C510805   2.356   0.075  12.048 -0.3262  0.5966  0.1894
  731MPD2     H10806   2.703   4.614  12.030 -0.0521  0.1837  1.7561
  731MPD2    H110807   2.336   4.716  12.231  2.4738  0.6877  2.3877
  731MPD2    H210808   2.396   0.134  11.851  0.6697  0.5867  0.0493
  731MPD2    H310809   2.265   0.132  12.057 -0.6215  0.2307 -0.5120
  731MPD2     N10810   2.561   4.548  12.246 -0.2307 -0.3798 -0.4208
  731MPD2    H510811   2.653   4.507  12.236 -0.0711  0.2024 -1.4244
  731MPD2    N110812   2.625   0.014  11.796 -0.1027  0.5381 -0.0051
  731MPD2    H710813   2.585   0.071  11.722  0.4935  0.3995 -0.4335
  732TMC3    C110814   2.792   4.690  11.629  1.0588  0.4307  0.1781
  732TMC3    C210815   2.703   4.617  11.552  0.3340 -0.0720 -0.4782
  732TMC3    C310816   2.760   4.530  11.460  0.0897  0.2731  0.7292
  732TMC3    C410817   2.922   4.679  11.607  0.2244 -0.2731 -0.5967
  732TMC3    C510818   2.973   4.595  11.513 -0.2774  0.8534  0.2771
  732TMC3    C610819   2.893   4.519  11.439  0.4372  0.4322  0.9605
  732TMC3     C10820   2.757   4.712  11.772 -1.0666 -0.6911  0.3915
  732TMC3     O10821   2.845   4.690  11.860 -0.3811 -0.2482 -0.2624
  732TMC3     H10822   2.598   4.619  11.579  0.2900 -1.8747 -0.5767
  732TMC3    H110823   2.973   0.024  11.673 -0.0085  0.2177 -0.9311
  732TMC3    H210824   2.939   4.461  11.360 -0.7317 -1.8568  1.9511
  732TMC3    C710825   3.116   4.591  11.476 -0.1156  0.0040  0.1382
  732TMC3    C810826   2.683   4.408  11.423  0.2941 -0.8079 -0.2542
  732TMC3    O110827   3.160   4.519  11.390  0.3097 -0.3546 -0.0609
  732TMC3    O210828   2.737   4.322  11.357  0.1065  0.7085 -0.1123
  733TMC3    C110829   3.414   2.306  12.837 -0.2344  0.2505  0.2417
  733TMC3    C210830   3.466   2.383  12.940  0.2741  0.2596 -0.2229
  733TMC3    C310831   3.599   2.420  12.940 -0.1890 -0.1841 -0.5585
  733TMC3    C410832   3.494   2.264  12.737 -0.5779 -0.0360  0.6049
  733TMC3    C510833   3.631   2.299  12.743 -0.5613  0.3091 -0.2868
  733TMC3    C610834   3.685   2.380  12.840  0.0072  0.1946 -1.2381
  733TMC3     C10835   3.274   2.304  12.831 -0.0843  0.6285  0.2675
  733TMC3     O10836   3.215   2.312  12.935  0.0088 -0.5056  0.1319
  733TMC3     H10837   3.396   2.424  13.012  1.4357  0.4239  0.8238
  733TMC3    H110838   3.460   2.213  12.648 -3.3959  0.0059  1.6305
  733TMC3    H210839   3.791   2.403  12.834 -0.0619  0.7282 -0.4192
  733TMC3    C710840   3.715   2.259  12.636  0.0914 -0.6463 -0.1435
  733TMC3    C810841   3.651   2.476  13.060 -0.4650  0.2707 -0.0138
  733TMC3    O110842   3.649   2.214  12.540  0.1544  0.5948 -0.0402
  733TMC3    O210843   3.599   2.455  13.169  0.4109  0.1343  0.1146
  734MPD2     C10844   1.063   0.866  12.655 -0.2594  0.2120  0.1537
  734MPD2    C110845   1.001   0.798  12.552 -0.3885 -0.1496 -0.4024
  734MPD2    C210846   1.024   0.844  12.428  0.4854  0.1287  0.0416
  734MPD2    C310847   1.099   0.955  12.396  0.1252 -0.0623  0.6640
  734MPD2    C410848   1.161   1.023  12.498 -0.2815  0.7503 -0.5739
  734MPD2    C510849   1.144   0.973  12.625 -0.8582  0.0562  0.2057
  734MPD2     H10850   0.982   0.785  12.347  1.3142 -1.0739  0.4874
  734MPD2    H110851   1.233   1.101  12.477  1.1150 -0.4178 -0.1235
  734MPD2    H210852   1.043   0.816  12.749  1.3954  0.0581  0.4331
  734MPD2    H310853   1.200   1.021  12.704 -1.8921 -0.7437  1.4267
  734MPD2     N10854   1.093   0.984  12.262  0.1151 -0.3662  0.1838
  734MPD2    H510855   1.060   0.905  12.209 -1.5066  0.3127  0.1862
  734MPD2    N110856   0.929   0.680  12.582  0.3130  0.1279  0.0499
  734MPD2    H710857   0.935   0.638  12.674 -1.4505  2.5652  1.2851
  735TMC3    C110858   0.794   0.493  12.511 -0.0683  0.5847 -0.1350
  735TMC3    C210859   0.695   0.461  12.419 -0.0076  0.4718 -0.2208
  735TMC3    C310860   0.702   0.346  12.344  0.5033  0.3064  0.4195
  735TMC3    C410861   0.884   0.395  12.546 -0.5957  0.2210  0.1740
  735TMC3    C510862   0.875   0.277  12.486 -0.2011 -0.6943  0.4991
  735TMC3    C610863   0.790   0.248  12.379 -0.3058  0.0253  0.2088
  735TMC3     C10864   0.842   0.624  12.487  0.2229  0.2434 -0.5142
  735TMC3     O10865   0.790   0.674  12.387 -0.1954  0.4056  0.0689
  735TMC3     H10866   0.618   0.537  12.409  0.7476  1.3325  0.4546
  735TMC3    H110867   0.966   0.416  12.614  0.3340 -0.6066 -0.6913
  735TMC3    H210868   0.802   0.158  12.318  0.0384 -0.3978  0.9003
  735TMC3    C710869   0.973   0.177  12.530  0.1662 -0.4523  0.1859
  735TMC3    C810870   0.701   0.374  12.202 -0.2686 -0.1254 -0.6068
  735TMC3    O110871   0.990   0.159  12.648  0.3600 -0.2540  0.0693
  735TMC3    O210872   0.679   0.280  12.129  0.7500  0.1454 -0.0217
  736MPD2     C10873   1.189   4.682  12.530 -0.2123  0.4602  0.5918
  736MPD2    C110874   1.153   0.030  12.421  0.0007  0.2928 -0.1135
  736MPD2    C210875   1.235   0.027  12.306 -0.1966  0.3186 -0.4026
  736MPD2    C310876   1.329   4.651  12.289 -0.4869  0.6699 -0.0449
  736MPD2    C410877   1.344   4.559  12.392  0.0940 -0.8063  0.0165
  736MPD2    C510878   1.274   4.578  12.511 -0.1169  0.5291  0.7051
  736MPD2     H10879   1.215   0.099  12.227 -1.2659 -1.1016 -1.4253
  736MPD2    H110880   1.396   4.465  12.380  0.5241 -0.5518 -0.0959
  736MPD2    H210881   1.123   4.686  12.616 -0.4690  0.7820  0.3804
  736MPD2    H310882   1.294   4.510  12.593  1.3956 -0.5092 -0.5305
  736MPD2     N10883   1.414   4.640  12.172  0.4384 -0.0964  0.7388
  736MPD2    H510884   1.479   4.563  12.163 -1.7837 -1.8543 -0.1092
  736MPD2    N110885   1.042   0.121  12.421 -0.4329  0.3052  0.1771
  736MPD2    H710886   1.027   0.159  12.328 -1.7241  2.1221  1.1466
  737TMC3    C110887   1.542   4.711  12.000  0.9832 -0.3854 -0.0339
  737TMC3    C210888   1.620   0.091  11.956  0.0344  0.0365 -0.0561
  737TMC3    C310889   1.724   0.076  11.872  0.2857  0.3353  0.0997
  737TMC3    C410890   1.579   4.584  11.962  0.3075 -0.2091  0.3131
  737TMC3    C510891   1.687   4.568  11.873 -1.4337 -0.2792  0.2190
  737TMC3    C610892   1.761   4.679  11.819 -0.0365  0.0607  0.3463
  737TMC3     C10893   1.428   0.017  12.080 -0.6893 -0.3812 -0.2315
  737TMC3     O10894   1.376   0.124  12.069  0.8207  0.4084 -0.3420
  737TMC3     H10895   1.589   0.193  11.976  2.2911  1.0028 -1.5866
  737TMC3    H110896   1.526   4.495  11.995 -2.0895  1.1679  0.1891
  737TMC3    H210897   1.859   4.670  11.773  0.0981  0.8428  0.4787
  737TMC3    C710898   1.711   4.434  11.824  0.6066  0.6447 -0.0809
  737TMC3    C810899   1.775   0.199  11.816  0.7420 -0.7107  0.1564
  737TMC3    O110900   1.651   4.341  11.877  0.1343 -0.7530 -0.1038
  737TMC3    O210901   1.820   0.288  11.892  0.2948  0.3740  0.4383
  738MPD2     C10902   1.870   3.770  15.949  0.0378 -0.7737 -0.8290
  738MPD2    C110903   1.849   3.729  15.819 -0.4639  0.0270 -0.3991
  738MPD2    C210904   1.867   3.823  15.721  0.2299  0.2708 -0.1866
  738MPD2    C310905   1.911   3.948  15.749  0.4209 -0.5283 -0.5241
  738MPD2    C410906   1.924   3.987  15.885 -0.4475 -0.7318  0.1335
  738MPD2    C510907   1.910   3.893  15.983 -0.3987 -0.2238  1.0092
  738MPD2     H10908   1.842   3.791  15.621  1.6527 -0.4103 -0.3199
  738MPD2    H110909   1.950   4.089  15.912 -0.5624 -0.6694  0.0100
  738MPD2    H210910   1.847   3.708  16.035 -1.6543 -1.2989 -1.6724
  738MPD2    H310911   1.924   3.922  16.086  0.0822 -1.4522  1.2816
  738MPD2     N10912   1.929   4.054  15.647  0.1397  0.3917  0.4386
  738MPD2    H510913   1.936   4.144  15.693  1.6933 -0.9179  2.7897
  738MPD2    N110914   1.812   3.597  15.783  0.2693  0.4122 -0.3036
  738MPD2    H710915   1.793   3.588  15.683 -2.5670 -1.4395  0.4188
  739TMC3    C110916   1.953   4.144  15.428  0.0134  0.1676 -0.4429
  739TMC3    C210917   1.970   4.110  15.300  0.6868 -0.5953  0.0250
  739TMC3    C310918   2.024   4.196  15.213  0.7781 -0.0141  0.2916
  739TMC3    C410919   1.971   4.270  15.474  0.1844  0.2562  0.0138
  739TMC3    C510920   2.014   4.365  15.378  0.2706  0.4371 -0.0711
  739TMC3    C610921   2.031   4.330  15.245  0.1774  0.7900  0.0700
  739TMC3     C10922   1.918   4.034  15.513 -0.0619 -0.5699 -0.1300
  739TMC3     O10923   1.892   3.934  15.450  0.1599  0.3935  0.3186
  739TMC3     H10924   1.951   4.011  15.259 -2.6421 -0.3195  0.9310
  739TMC3    H110925   1.952   4.301  15.576 -0.0300 -1.4337  0.4816
  739TMC3    H210926   2.056   4.403  15.168 -0.9752 -0.3670 -1.4014
  739TMC3    C710927   2.093   4.478  15.432  0.1013 -0.1606  0.1842
  739TMC3    C810928   2.017   4.179  15.066 -0.9634 -1.1103 -0.1286
  739TMC3    O110929   2.063   4.523  15.542 -0.8398  0.2203  0.5336
  739TMC3    O210930   2.006   4.275  14.993 -0.4216 -0.3123 -0.3961
  740TMC3    C110931   2.384   0.195  14.330 -0.3178  0.8735 -0.0712
  740TMC3    C210932   2.433   0.115  14.429 -0.6108  0.0194  0.0123
  740TMC3    C310933   2.525   0.014  14.396  0.1017  0.3439 -0.6809
  740TMC3    C410934   2.413   0.178  14.201 -0.0170  0.8716  0.2034
  740TMC3    C510935   2.508   0.080  14.173 -0.1373 -0.9591 -0.2716
  740TMC3    C610936   2.569   4.724  14.271  0.0495  0.3742  0.1268
  740TMC3     C10937   2.321   0.323  14.370 -0.3939  0.6719 -0.3639
  740TMC3     O10938   2.326   0.421  14.300  0.1996  0.7693 -0.0217
  740TMC3     H10939   2.426   0.143  14.533  0.5460 -2.7222  0.8272
  740TMC3    H110940   2.351   0.225  14.126  0.9648  0.0313 -1.1542
  740TMC3    H210941   2.655   4.661  14.251  0.3819  0.8644  0.0023
  740TMC3    C710942   2.548   0.048  14.040  0.0556 -0.4730  0.3939
  740TMC3    C810943   2.579   4.646  14.491  0.8639  0.0280 -0.5283
  740TMC3    O110944   2.620   4.673  14.028  0.5793 -0.1336  0.3756
  740TMC3    O210945   2.677   4.580  14.454  0.5882 -0.4486 -0.3466
  741TMC3    C110946   1.667   0.159  14.492 -0.3686  0.2443 -0.2831
  741TMC3    C210947   1.591   0.052  14.449 -0.6260 -0.3365  0.0216
  741TMC3    C310948   1.599   4.666  14.527  0.2146 -0.3617  0.7811
  741TMC3    C410949   1.748   0.141  14.602  0.2115  0.1312 -0.3284
  741TMC3    C510950   1.763   0.028  14.674 -0.3578 -0.3686 -0.3877
  741TMC3    C610951   1.686   4.650  14.632  0.3004 -0.7121  0.2637
  741TMC3     C10952   1.703   0.269  14.397 -0.4508  0.1053  0.9259
  741TMC3     O10953   1.765   0.363  14.447  0.3869 -0.0580  0.0096
  741TMC3     H10954   1.522   0.058  14.366 -0.2038 -0.9381 -0.3731
  741TMC3    H110955   1.790   0.236  14.631 -0.3044  0.5459 -0.9157
  741TMC3    H210956   1.706   4.558  14.685 -2.9578 -1.9247 -0.6244
  741TMC3    C710957   1.792   0.032  14.819  0.2922 -0.5133 -0.4177
  741TMC3    C810958   1.520   4.551  14.484  0.8786  0.1376  0.0224
  741TMC3    O110959   1.873   0.117  14.855  0.1258 -0.2456 -0.9135
  741TMC3    O210960   1.418   4.578  14.421 -0.2801 -0.6744  0.0782
  742TMC3    C110961   2.322   2.356  15.361  0.6260  0.2008  0.2003
  742TMC3    C210962   2.190   2.399  15.349  0.2357 -0.0016 -0.0996
  742TMC3    C310963   2.088   2.310  15.346  0.5125 -0.2396  0.2333
  742TMC3    C410964   2.355   2.223  15.375 -0.8818  0.5343 -0.3133
  742TMC3    C510965   2.251   2.135  15.358 -0.4590 -0.1853  0.2495
  742TMC3    C610966   2.122   2.175  15.336  0.3416 -0.1828  0.4267
  742TMC3     C10967   2.429   2.449  15.384  1.0250 -0.7689  0.5949
  742TMC3     O10968   2.535   2.414  15.425  0.1553  0.1048 -0.2194
  742TMC3     H10969   2.165   2.501  15.376 -2.7018 -0.8411  0.3053
  742TMC3    H110970   2.457   2.186  15.375 -0.3395  2.0240 -1.8564
  742TMC3    H210971   2.041   2.104  15.336 -1.2416  1.6279  2.2561
  742TMC3    C710972   2.290   2.005  15.310 -0.6022  0.1097  0.7000
  742TMC3    C810973   1.964   2.338  15.272  0.6674 -0.4004 -1.0091
  742TMC3    O110974   2.404   1.970  15.333 -0.1213  0.4686  0.5647
  742TMC3    O210975   1.898   2.243  15.229  0.5525 -0.7050 -0.1390
  743MPD2     C10976   3.877   3.295   1.563  0.1875  0.1135 -0.9514
  743MPD2    C110977   3.961   3.395   1.602  0.1971  0.2768 -1.0160
  743MPD2    C210978   4.086   3.372   1.651  0.6852  0.5414 -0.0978
  743MPD2    C310979   4.127   3.242   1.663  0.4152 -0.3373 -0.1976
  743MPD2    C410980   4.045   3.140   1.613 -0.2803 -0.1237  0.2651
  743MPD2    C510981   3.917   3.163   1.579  0.2004  0.2366  0.0648
  743MPD2     H10982   4.149   3.456   1.681  3.3907 -1.4876 -0.1533
  743MPD2    H110983   4.083   3.038   1.621 -0.0428 -0.0880 -0.4231
  743MPD2    H210984   3.776   3.319   1.531 -0.1577 -0.3146 -0.1727
  743MPD2    H310985   3.851   3.080   1.556 -0.1809  0.4157  0.4995
  743MPD2     N10986   4.264   3.219   1.694 -0.0191  0.1110 -0.5556
  743MPD2    H510987   4.323   3.302   1.698  1.9391 -1.2256 -2.0095
  743MPD2    N110988   3.918   3.524   1.561  0.0648 -0.0337 -0.2311
  743MPD2    H710989   3.834   3.532   1.505  0.2605  1.2354 -0.3239
  744TMC3    C110990   3.916   3.742   1.503  0.4406 -0.1502  0.1937
  744TMC3    C210991   3.897   3.867   1.559 -0.0034  1.1514  0.1954
  744TMC3    C310992   3.904   3.979   1.479 -0.0520  0.0079  0.2185
  744TMC3    C410993   3.934   3.727   1.364 -0.3340  0.7597 -0.7781
  744TMC3    C510994   3.944   3.839   1.292 -0.2853  0.7693  0.2690
  744TMC3    C610995   3.932   3.968   1.339  0.6550  0.2213  0.5174
  744TMC3     C10996   3.978   3.637   1.584  0.1753 -0.0918 -0.0569
  744TMC3     O10997   4.059   3.678   1.665  0.2112  0.5184 -0.7075
  744TMC3     H10998   3.897   3.885   1.666 -2.2763 -0.5042  0.4661
  744TMC3    H110999   3.978   3.635   1.326 -1.8258 -0.4995  0.5475
  744TMC3    H211000   3.956   4.056   1.281  0.6559  0.1341  0.3860
  744TMC3    C711001   3.995   3.837   1.159 -0.9399 -0.2843  0.2578
  744TMC3    C811002   3.877   4.115   1.525  0.1141  0.2325  1.0447
  744TMC3    O111003   4.077   3.918   1.127 -0.2484  0.1072  0.1623
  744TMC3    O211004   3.938   4.205   1.464 -0.3403 -0.0114  0.8480
  745TMC3    C111005   2.124   2.759  13.930 -0.1111 -0.0966 -0.1518
  745TMC3    C211006   2.032   2.786  14.027  0.4450  0.2807 -0.1807
  745TMC3    C311007   1.901   2.771  13.991 -0.0079 -0.5615 -0.0637
  745TMC3    C411008   2.081   2.721  13.810  0.6224 -0.4904 -0.3238
  745TMC3    C511009   1.950   2.709  13.777 -0.3493 -0.3313 -0.2934
  745TMC3    C611010   1.858   2.739  13.869 -0.0791 -0.2528  0.1990
  745TMC3     C11011   2.268   2.757  13.954 -0.2339  0.1286  0.2549
  745TMC3     O11012   2.311   2.731  14.068  0.2598  0.7016 -0.3383
  745TMC3     H11013   2.070   2.816  14.124 -3.0892  1.1465  0.9650
  745TMC3    H111014   2.157   2.705  13.734  2.9476 -0.4428  2.0160
  745TMC3    H211015   1.757   2.718  13.836  0.0699  0.7463 -0.9228
  745TMC3    C711016   1.921   2.613  13.674  0.2820 -0.3048  0.5157
  745TMC3    C811017   1.802   2.787  14.096 -0.8957 -0.4137 -0.2431
  745TMC3    O111018   1.842   2.521  13.699  0.7163  0.3123 -0.1188
  745TMC3    O211019   1.683   2.826  14.069  0.4022 -0.2778  0.3357
  746TMC3    C111020   0.046   0.109  10.845  0.0271  0.0797 -0.4263
  746TMC3    C211021   0.147   0.120  10.753  0.5634 -0.0143 -0.0100
  746TMC3    C311022   0.178   0.006  10.687 -0.5810  1.0120  0.4938
  746TMC3    C411023   4.706   4.715  10.877 -0.3618  0.5321  0.3446
  746TMC3    C511024   0.036   4.602  10.821 -0.0218  0.8515  1.2545
  746TMC3    C611025   0.119   4.613  10.717  0.5292  0.1574 -0.6259
  746TMC3     C11026   0.006   0.224  10.930  0.1564  0.6675 -0.8073
  746TMC3     O11027   4.649   0.211  11.019  0.4647 -0.4464 -0.2718
  746TMC3     H11028   0.208   0.210  10.747 -0.5910  0.5965 -2.4842
  746TMC3    H111029   4.635   4.711  10.959 -1.2735  0.1914 -0.4616
  746TMC3    H211030   0.136   4.530  10.649 -0.6724  0.9986 -1.9615
  746TMC3    C711031   4.678   4.486  10.819  0.0085  0.8842  0.1701
  746TMC3    C811032   0.303   4.720  10.617 -0.2007  0.5218 -0.6751
  746TMC3    O111033   4.638   4.433  10.717 -0.1033  0.2400 -0.0311
  746TMC3    O211034   0.344   4.609  10.593  0.1636 -0.0206  0.2110
  747TMC3    C111035   2.331   4.353  11.007 -0.4981 -0.2509 -0.3515
  747TMC3    C211036   2.293   4.256  11.095  0.7887 -0.0334 -0.4049
  747TMC3    C311037   2.280   4.297  11.230  0.1486 -0.0377  0.2265
  747TMC3    C411038   2.354   4.483  11.045  0.0442  0.5842  0.3498
  747TMC3    C511039   2.338   4.518  11.176 -0.0070  0.0913 -0.1094
  747TMC3    C611040   2.295   4.425  11.266  0.3736 -0.2956  0.2394
  747TMC3     C11041   2.320   4.326  10.861  0.2081  0.5871  0.0070
  747TMC3     O11042   2.307   4.422  10.788  0.6367  0.6565  0.8463
  747TMC3     H11043   2.288   4.149  11.077 -2.5479  0.0573 -0.0290
  747TMC3    H111044   2.367   4.562  10.972  1.3506  0.1888  0.1554
  747TMC3    H211045   2.282   4.455  11.369  1.2799  1.8764 -0.2657
  747TMC3    C711046   2.445   4.611  11.213  0.6789  0.6160 -0.4554
  747TMC3    C811047   2.193   4.212  11.315 -0.1490 -0.2351  0.8438
  747TMC3    O111048   2.439   4.668  11.319  0.2608  0.2672  0.6682
  747TMC3    O211049   2.215   4.099  11.327 -0.1648  0.6377 -0.0004
  748MPD2     C11050   3.608   0.327   2.134  0.2437 -0.3639  0.2499
  748MPD2    C111051   3.709   0.240   2.108  0.3144  0.0621  0.3034
  748MPD2    C211052   3.821   0.274   2.039 -0.1519 -0.1581 -0.6067
  748MPD2    C311053   3.827   0.404   1.987  0.3689  0.0436 -0.3862
  748MPD2    C411054   3.729   0.492   2.017  0.0631  0.0866 -0.4724
  748MPD2    C511055   3.622   0.453   2.098  0.2694  0.3490  0.1540
  748MPD2     H11056   3.902   0.205   2.018 -0.0285  0.0549 -0.8282
  748MPD2    H111057   3.728   0.598   1.993 -0.2504 -0.0019 -0.8527
  748MPD2    H211058   3.518   0.300   2.187 -1.0031  2.7055 -0.3338
  748MPD2    H311059   3.542   0.520   2.128  1.3193  1.0096  1.5017
  748MPD2     N11060   3.948   0.453   1.927 -0.0895  0.3837 -0.0276
  748MPD2    H511061   4.018   0.379   1.921 -2.2595 -1.6015 -0.7922
  748MPD2    N111062   3.692   0.119   2.167  0.0915 -0.1247 -0.2808
  748MPD2    H711063   3.601   0.102   2.208  1.2727 -1.9810  1.5691
  749TMC3    C111064   4.085   0.586   1.792 -0.6681  0.2566 -0.3915
  749TMC3    C211065   4.200   0.543   1.853  0.0347 -0.0462  0.0604
  749TMC3    C311066   4.308   0.507   1.774  0.7170  0.5646  0.4412
  749TMC3    C411067   4.077   0.603   1.655 -0.3640 -0.8841  0.2959
  749TMC3    C511068   4.173   0.537   1.583 -0.4789  0.1731  0.0090
  749TMC3    C611069   4.289   0.489   1.644 -1.3931 -0.2722  0.1394
  749TMC3     C11070   3.961   0.572   1.862 -0.4301 -0.4042 -0.0828
  749TMC3     O11071   3.875   0.655   1.835 -0.1207 -0.1917  0.3945
  749TMC3     H11072   4.197   0.511   1.956 -0.4143 -0.3857 -0.0631
  749TMC3    H111073   3.982   0.633   1.612  0.1413  0.7184  0.3130
  749TMC3    H211074   4.375   0.459   1.585 -2.0183  2.3689 -2.1256
  749TMC3    C711075   4.160   0.550   1.442 -0.4238 -0.3501  0.5228
  749TMC3    C811076   4.429   0.484   1.842  0.1649 -0.4005  0.2479
  749TMC3    O111077   4.078   0.635   1.403 -0.0457  0.1010 -0.1282
  749TMC3    O211078   4.440   0.526   1.953  0.1652 -0.6901 -0.0136
  750MPD2     C11079   0.586   1.958  11.141  0.2617 -0.3345  0.7036
  750MPD2    C111080   0.465   1.935  11.213 -0.0560  0.1952  0.3299
  750MPD2    C211081   0.394   1.819  11.182  0.4140  0.0245  0.0118
  750MPD2    C311082   0.424   1.736  11.079 -0.0757 -0.9781 -0.4060
  750MPD2    C411083   0.543   1.760  11.016  0.1942  0.9113  0.2586
  750MPD2    C511084   0.629   1.861  11.057 -0.3364  0.0567  0.4337
  750MPD2     H11085   0.309   1.795  11.243 -0.0537  0.9194 -0.2795
  750MPD2    H111086   0.586   1.704  10.933  1.2048  3.1157 -0.7201
  750MPD2    H211087   0.656   2.041  11.146  0.5395 -0.5072 -0.2709
  750MPD2    H311088   0.728   1.863  11.014 -0.0534  0.9775  1.1355
  750MPD2     N11089   0.343   1.636  11.033 -0.2610 -0.0018  0.1838
  750MPD2    H511090   0.374   1.578  10.956  0.1577  1.0723 -0.4484
  750MPD2    N111091   0.438   2.029  11.315  0.0934 -0.1647  0.0940
  750MPD2    H711092   0.508   2.100  11.335  0.1549 -0.9633  2.6439
  751TMC3    C111093   0.187   1.460  11.079  0.0214  0.8409 -0.5061
  751TMC3    C211094   0.057   1.432  11.099 -0.2922 -0.3627  0.0528
  751TMC3    C311095   0.020   1.299  11.109 -0.5635  0.0981 -0.3324
  751TMC3    C411096   0.285   1.364  11.075  0.1344 -0.1316  0.1378
  751TMC3    C511097   0.248   1.235  11.076 -0.4640  0.3461 -0.8318
  751TMC3    C611098   0.115   1.201  11.083  0.0766 -0.2788 -0.0767
  751TMC3     C11099   0.222   1.608  11.091 -0.4105  0.6865 -0.0769
  751TMC3     O11100   0.144   1.674  11.160 -0.7148  0.0184  0.1769
  751TMC3     H11101   4.707   1.512  11.102  0.0348 -0.1176  1.8078
  751TMC3    H111102   0.386   1.386  11.043 -0.9600  1.6074 -2.1434
  751TMC3    H211103   0.084   1.097  11.075  1.1509 -0.5766 -0.3009
  751TMC3    C711104   0.346   1.129  11.059 -0.0862  0.1545  0.8222
  751TMC3    C811105   4.605   1.273  11.071 -0.1482  0.7001 -0.5302
  751TMC3    O111106   0.445   1.165  11.000 -0.0454 -0.4786 -0.3413
  751TMC3    O211107   4.582   1.206  10.969 -0.1863 -0.3203  0.5472
  752TMC3    C111108   3.130   1.151  16.843  0.5363  0.0090  0.5692
  752TMC3    C211109   3.040   1.181  16.935  0.5963 -0.2410 -0.0524
  752TMC3    C311110   3.081   1.190  17.063  0.0303 -0.1510  0.4217
  752TMC3    C411111   3.263   1.128  16.870  1.0012  0.9672 -0.5249
  752TMC3    C511112   3.298   1.130  16.997  0.1597 -0.4875 -0.1183
  752TMC3    C611113   3.211   1.162  17.098 -0.3770  0.2887  0.6625
  752TMC3     C11114   3.087   1.168  16.698  0.6806 -0.4825  0.1542
  752TMC3     O11115   3.173   1.148  16.612 -0.4175  0.4301 -0.3766
  752TMC3     H11116   2.934   1.169  16.915  0.5452  1.3586 -0.7186
  752TMC3    H111117   3.337   1.119  16.791 -1.9451  2.3374 -3.4246
  752TMC3    H211118   3.240   1.144  17.201 -0.8766  1.6634  1.0350
  752TMC3    C711119   3.434   1.092  17.029  0.6722 -0.4243  0.0437
  752TMC3    C811120   2.978   1.201  17.164 -0.2630 -0.4806 -0.1845
  752TMC3    O111121   3.479   1.003  16.957 -0.0344 -0.2637  0.3450
  752TMC3    O211122   2.861   1.184  17.138  0.1776  0.2822  0.3976
  753TMC3    C111123   0.540   2.658  14.412  0.0577  0.4049 -0.5831
  753TMC3    C211124   0.624   2.656  14.518 -0.5284 -0.7243 -0.5571
  753TMC3    C311125   0.629   2.549  14.600 -0.1916  0.4193  0.4678
  753TMC3    C411126   0.462   2.550  14.385 -0.5965  0.1864 -0.5881
  753TMC3    C511127   0.466   2.444  14.477  1.2055 -0.3423 -0.6195
  753TMC3    C611128   0.553   2.434  14.583 -0.1719 -0.6067  0.2290
  753TMC3     C11129   0.534   2.770  14.316  0.2608  0.5999  0.4923
  753TMC3     O11130   0.473   2.758  14.210 -0.2693  0.1440 -0.2711
  753TMC3     H11131   0.702   2.732  14.520 -1.6562  0.4749 -2.3705
  753TMC3    H111132   0.395   2.550  14.300 -0.4233  1.2325 -0.7242
  753TMC3    H211133   0.559   2.360  14.662  1.4372 -1.0097 -0.2630
  753TMC3    C711134   0.355   2.345  14.467 -0.3179  0.0439 -0.0555
  753TMC3    C811135   0.720   2.558  14.710 -0.4670 -0.4645  0.1455
  753TMC3    O111136   0.340   2.262  14.557 -0.3115 -0.2280  0.0352
  753TMC3    O211137   0.750   2.461  14.777 -0.0657  0.5319 -0.6199
  754MPD2     C11138   4.338   0.915  13.155 -0.7641  0.0292 -0.2143
  754MPD2    C111139   4.243   0.823  13.112  0.5735 -0.3013  0.0260
  754MPD2    C211140   4.128   0.866  13.060  0.2109 -0.2353 -0.1030
  754MPD2    C311141   4.088   0.992  13.096 -0.6383  0.6089  0.2262
  754MPD2    C411142   4.177   1.083  13.142 -0.4422  0.5068  0.0033
  754MPD2    C511143   4.304   1.045  13.175  0.1682  0.9675 -0.3518
  754MPD2     H11144   4.059   0.795  13.017 -1.5726  0.8567  0.9702
  754MPD2    H111145   4.137   1.181  13.167 -0.1737  0.6903 -0.2883
  754MPD2    H211146   4.430   0.885  13.204  0.0315  0.9586 -1.1496
  754MPD2    H311147   4.382   1.111  13.212 -0.6783  2.4850 -1.2624
  754MPD2     N11148   3.950   1.031  13.084  0.0030 -0.0472  0.3580
  754MPD2    H511149   3.930   1.129  13.099  0.1005 -0.3804  2.7621
  754MPD2    N111150   4.289   0.688  13.105 -0.0187  0.6672  0.4534
  754MPD2    H711151   4.387   0.676  13.083 -0.1592  1.6498 -0.7380
  755MPD2     C11152   3.486   1.759  13.310 -0.6099  0.2970  0.0842
  755MPD2    C111153   3.469   1.676  13.416 -0.6967  0.0861 -0.0900
  755MPD2    C211154   3.503   1.538  13.400  0.4023 -0.5834  0.5850
  755MPD2    C311155   3.543   1.489  13.272 -0.2298 -0.0310  0.2104
  755MPD2    C411156   3.563   1.584  13.168 -0.4813  0.2736  0.2594
  755MPD2    C511157   3.536   1.713  13.191 -0.3498  0.4490  0.4983
  755MPD2     H11158   3.491   1.474  13.487 -0.9053 -1.2061 -0.0629
  755MPD2    H111159   3.593   1.563  13.067 -0.3549  1.2501  0.0991
  755MPD2    H211160   3.457   1.862  13.323 -0.1619  0.2071  1.8119
  755MPD2    H311161   3.548   1.784  13.110 -2.3161 -0.4886 -0.6076
  755MPD2     N11162   3.583   1.354  13.249 -0.2390  0.1872 -0.2598
  755MPD2    H511163   3.622   1.333  13.158  1.5867  0.4750  0.4395
  755MPD2    N111164   3.411   1.726  13.532  0.1917  0.4341  0.3969
  755MPD2    H711165   3.404   1.827  13.526 -1.2724  0.4771  3.1266
  756MPD2     C11166   4.285   2.689   9.581  0.0562 -0.1302  0.2470
  756MPD2    C111167   4.283   2.633   9.707 -0.3612 -0.8479 -0.2381
  756MPD2    C211168   4.195   2.528   9.732 -0.1327  0.0511 -0.5025
  756MPD2    C311169   4.112   2.481   9.631 -0.5101 -0.1372  0.0472
  756MPD2    C411170   4.126   2.528   9.505 -0.2215  0.7784  0.6152
  756MPD2    C511171   4.214   2.631   9.482 -0.2151 -0.4877 -0.1884
  756MPD2     H11172   4.190   2.481   9.830 -0.9579  0.6421 -0.2616
  756MPD2    H111173   4.066   2.502   9.419  1.7088 -2.4751  0.2513
  756MPD2    H211174   4.341   2.779   9.558 -0.0354 -0.1820 -0.1747
  756MPD2    H311175   4.214   2.687   9.389 -0.5544 -0.6490 -0.2832
  756MPD2     N11176   4.028   2.369   9.659 -0.5306 -0.4011  0.1752
  756MPD2    H511177   4.025   2.334   9.754  0.9842  1.5425  0.9416
  756MPD2    N111178   4.350   2.686   9.819  0.5132  0.4316  0.5313
  756MPD2    H711179   4.333   2.638   9.907  1.0151 -1.7015 -0.5166
  757MPD2     C11180   4.225   1.489  10.049 -0.0377 -0.3788  0.4652
  757MPD2    C111181   4.140   1.452   9.951 -0.2990  0.0907 -0.2302
  757MPD2    C211182   4.075   1.545   9.872  0.6490  0.4658  0.8753
  757MPD2    C311183   4.090   1.682   9.897 -0.5552 -0.4629 -0.6853
  757MPD2    C411184   4.166   1.721  10.002 -0.4742  0.0376  0.1477
  757MPD2    C511185   4.231   1.627  10.082  0.3886 -0.7103  0.2697
  757MPD2     H11186   4.016   1.512   9.788  1.9125  0.4595 -0.0124
  757MPD2    H111187   4.172   1.819  10.048  0.9840  0.2557 -0.5091
  757MPD2    H211188   4.284   1.419  10.107  0.7848 -0.1840 -0.1378
  757MPD2    H311189   4.305   1.662  10.153 -3.2101  2.3080  2.5060
  757MPD2     N11190   4.004   1.776   9.829  0.4913 -0.0061  0.0366
  757MPD2    H511191   3.945   1.744   9.753  0.3656  0.7945 -0.2106
  757MPD2    N111192   4.144   1.313   9.920 -0.4633  0.0542 -0.5772
  757MPD2    H711193   4.215   1.256   9.965 -1.2326  0.1039  0.7220
  758MPD2     C11194   4.423   1.097  15.579  0.9522  0.4622 -0.3310
  758MPD2    C111195   4.506   1.012  15.650  0.6942  0.2522  0.4145
  758MPD2    C211196   4.450   0.950  15.761 -0.6095  0.1907 -0.6235
  758MPD2    C311197   4.313   0.971  15.793 -0.3623 -0.2527  0.2144
  758MPD2    C411198   4.230   1.049  15.713 -0.4400 -0.5474  0.5313
  758MPD2    C511199   4.293   1.125  15.615  1.0228 -0.8628  0.0836
  758MPD2     H11200   4.519   0.885  15.814 -1.4096 -1.2062 -1.3041
  758MPD2    H111201   4.125   1.053  15.742 -0.4579  0.1519  0.3755
  758MPD2    H211202   4.454   1.142  15.485 -0.6295 -0.7563 -1.4232
  758MPD2    H311203   4.235   1.202  15.564  4.3367  0.5336 -1.5964
  758MPD2     N11204   4.251   0.906  15.908 -0.5788  0.6281  0.7644
  758MPD2    H511205   4.150   0.912  15.902 -0.7038 -0.5977  1.6206
  758MPD2    N111206   4.635   0.983  15.600  0.4648 -0.0834  0.0740
  758MPD2    H711207   4.678   1.047  15.535 -0.0277  0.1004 -0.0753
  759MPD2     C11208   3.608   0.115  10.740 -0.1095  0.1811 -0.1337
  759MPD2    C111209   3.587   0.000  10.665 -0.9314 -0.5884  0.0804
  759MPD2    C211210   3.665   4.693  10.561  0.0072 -0.0606 -0.2315
  759MPD2    C311211   3.779   0.046  10.540 -0.6955  0.5403 -0.3467
  759MPD2    C411212   3.805   0.162  10.613  0.9054 -0.2288  0.5047
  759MPD2    C511213   3.712   0.199  10.712 -0.1969  0.2207  0.0601
  759MPD2     H11214   3.637   4.606  10.502 -2.1866  0.8319 -0.4906
  759MPD2    H111215   3.891   0.228  10.602  0.4005  0.1499 -1.1851
  759MPD2    H211216   3.549   0.137  10.828 -0.2883 -0.3685 -0.1149
  759MPD2    H311217   3.726   0.289  10.770  3.6605  0.2745 -0.9133
  759MPD2     N11218   3.857   0.013  10.426  0.7024  0.7928 -0.1450
  759MPD2    H511219   3.817   4.661  10.372  2.6469 -1.3232  1.4446
  759MPD2    N111220   3.486   4.624  10.690 -0.9244  0.3656  0.3473
  759MPD2    H711221   3.502   4.540  10.635 -0.9129 -0.0061  0.9277
  760MPD2     C11222   2.648   1.496  12.087 -1.3636 -0.5103 -0.6351
  760MPD2    C111223   2.731   1.435  11.993  0.2115  0.1037 -1.1066
  760MPD2    C211224   2.745   1.302  11.985  0.5848  0.8665  0.0458
  760MPD2    C311225   2.668   1.220  12.066  0.2047 -0.3959 -0.5064
  760MPD2    C411226   2.575   1.274  12.154 -0.4914 -0.1631  0.0328
  760MPD2    C511227   2.572   1.411  12.171 -0.3029 -0.2646  0.1679
  760MPD2     H11228   2.812   1.254  11.915 -0.9743  0.7641 -1.3913
  760MPD2    H111229   2.519   1.213  12.225  0.8050 -2.0718 -0.5626
  760MPD2    H211230   2.633   1.602  12.101  1.5487  0.0451 -1.8737
  760MPD2    H311231   2.503   1.458  12.240  0.5017 -1.9286  2.1262
  760MPD2     N11232   2.693   1.084  12.059 -0.8571  1.2589 -0.1873
  760MPD2    H511233   2.771   1.057  11.999 -0.2171  0.9571  0.7808
  760MPD2    N111234   2.824   1.503  11.916 -0.0360  0.0671 -0.3161
  760MPD2    H711235   2.882   1.440  11.861  3.9159  1.8675  1.7760
  761MPD2     C11236   4.103   1.378  11.108 -0.3075  0.0146 -0.1219
  761MPD2    C111237   4.178   1.318  11.000  0.0111 -0.9044 -0.0234
  761MPD2    C211238   4.317   1.328  11.004 -0.3483  0.4896 -0.2183
  761MPD2    C311239   4.384   1.377  11.117  0.1179  0.3694 -0.2078
  761MPD2    C411240   4.306   1.434  11.219 -0.4017  0.2222  0.1657
  761MPD2    C511241   4.170   1.435  11.208 -0.5562  0.0069  0.1671
  761MPD2     H11242   4.375   1.268  10.933 -0.7648 -1.0921  0.7833
  761MPD2    H111243   4.355   1.470  11.308  0.9986  1.4536 -1.1112
  761MPD2    H211244   3.995   1.390  11.113 -0.3289  0.3581 -1.3278
  761MPD2    H311245   4.109   1.468  11.292 -0.4065 -3.1204  1.5001
  761MPD2     N11246   4.520   1.347  11.146 -0.3470 -0.7647  0.5636
  761MPD2    H511247   4.563   1.395  11.225 -2.2423 -0.2840  1.2902
  761MPD2    N111248   4.103   1.258  10.899  0.1210  0.1300  0.3157
  761MPD2    H711249   4.004   1.280  10.889  0.3044 -0.6033 -3.1785
  762MPD2     C11250   0.087   1.155  10.747  0.1961  0.2871  1.2750
  762MPD2    C111251   0.026   1.039  10.699 -0.1208  0.3213  0.0361
  762MPD2    C211252   0.085   0.961  10.601  0.0773  0.7872 -0.3996
  762MPD2    C311253   0.194   1.008  10.544 -0.4466  0.1417 -0.5096
  762MPD2    C411254   0.268   1.117  10.601  0.3279 -0.4717 -0.4237
  762MPD2    C511255   0.215   1.186  10.704  0.2815 -0.2160 -0.3163
  762MPD2     H11256   0.027   0.882  10.555  0.0404  0.1379  0.7910
  762MPD2    H111257   0.360   1.146  10.549 -0.7194  1.5093 -1.1906
  762MPD2    H211258   0.038   1.222  10.817 -0.9248  0.4735  0.3227
  762MPD2    H311259   0.272   1.267  10.748 -1.6458  0.7767  0.3676
  762MPD2     N11260   0.240   0.936  10.425 -0.4968  0.3525 -0.0359
  762MPD2    H511261   0.184   0.856  10.396  0.1438  0.1503 -0.7180
  762MPD2    N111262   4.627   1.003  10.763 -0.0427 -0.4405 -0.5954
  762MPD2    H711263   4.583   1.069  10.825 -0.2216  0.6220 -1.8563
  763MPD2     C11264   1.518   0.999  16.480  0.2457 -0.1913  0.7325
  763MPD2    C111265   1.406   1.039  16.403  0.6783  0.3113  0.1269
  763MPD2    C211266   1.348   1.161  16.433 -0.2172 -0.4266 -0.2389
  763MPD2    C311267   1.403   1.250  16.526 -0.0596  0.0240 -0.6066
  763MPD2    C411268   1.506   1.205  16.597 -0.1362 -0.2139  0.1542
  763MPD2    C511269   1.569   1.084  16.578  0.2601 -0.2070  0.5008
  763MPD2     H11270   1.263   1.194  16.374 -1.5954 -1.2335  1.3217
  763MPD2    H111271   1.567   1.275  16.652 -0.3838 -1.1333  1.6071
  763MPD2    H211272   1.573   0.911  16.452 -0.4596 -0.7716  1.1745
  763MPD2    H311273   1.658   1.058  16.634 -0.5015  1.3926  2.4592
  763MPD2     N11274   1.353   1.373  16.572  0.2893  0.3586  0.4326
  763MPD2    H511275   1.419   1.427  16.626  0.7835  0.6450 -0.4573
  763MPD2    N111276   1.347   0.961  16.308  0.1081 -0.3387 -0.1362
  763MPD2    H711277   1.287   1.014  16.246 -0.3674 -0.3666  0.3051
  764MPD2     C11278   4.267   2.788  17.682 -0.0071  0.0233  0.4671
  764MPD2    C111279   4.205   2.678  17.620 -0.6182 -0.3747 -0.2795
  764MPD2    C211280   4.263   2.551  17.643 -0.6457  0.1529 -0.2952
  764MPD2    C311281   4.378   2.530   0.015 -0.8127  0.4178 -0.4660
  764MPD2    C411282   4.446   2.644   0.057  0.2195 -0.0713 -0.4050
  764MPD2    C511283   4.393   2.765   0.041  1.2058  0.3568  0.0614
  764MPD2     H11284   4.211   2.460  17.615  0.0419 -0.7381  1.2952
  764MPD2    H111285   4.543   2.628   0.103  0.5879  0.7187 -0.8908
  764MPD2    H211286   4.232   2.890  17.676 -0.7224 -0.2503  0.0690
  764MPD2    H311287   4.448   2.853   0.072  1.1076  0.1216  0.8968
  764MPD2     N11288   4.424   2.392   0.037 -0.0141  0.4161  0.0980
  764MPD2    H511289   4.373   2.317  17.689 -1.6038  1.3154  0.3779
  764MPD2    N111290   4.077   2.687  17.555 -0.2172  0.2871 -0.3434
  764MPD2    H711291   4.041   2.596  17.528  2.2694 -0.7795 -0.0193
  765MPD2     C11292   3.593   4.549  16.059 -0.2723  0.8260 -0.9487
  765MPD2    C111293   3.616   4.653  15.977  0.2887 -0.4752 -0.3808
  765MPD2    C211294   3.701   4.638  15.868  0.6587 -0.3179 -0.0489
  765MPD2    C311295   3.768   4.516  15.848  0.2779 -0.1364 -0.1176
  765MPD2    C411296   3.751   4.409  15.940 -0.2700  0.1775  1.3694
  765MPD2    C511297   3.662   4.427  16.042  0.5204  0.3155  0.4323
  765MPD2     H11298   3.714   4.716  15.794 -1.6081 -0.3894 -0.5003
  765MPD2    H111299   3.807   4.317  15.934  0.8160  0.8981  0.2607
  765MPD2    H211300   3.534   4.554  16.149 -1.3617  0.3498 -1.6395
  765MPD2    H311301   3.631   4.345  16.106 -1.4502 -0.0557 -1.0033
  765MPD2     N11302   3.860   4.507  15.748 -0.3112 -0.1247  0.2815
  765MPD2    H511303   3.883   4.587  15.690 -1.4102  0.7567  1.0673
  765MPD2    N111304   3.543   0.048  16.003  0.4381 -0.5967  0.3143
  765MPD2    H711305   3.478   0.036  16.079 -0.1175  2.9848  0.4070
  766MPD2     C11306   2.942   0.197  15.710 -0.1217 -0.1949 -0.1209
  766MPD2    C111307   3.081   0.175  15.708  0.5183 -0.4143  0.0860
  766MPD2    C211308   3.128   0.108  15.594 -0.3231  0.5881  0.1936
  766MPD2    C311309   3.047   0.076  15.485 -0.9856 -0.7803 -0.0678
  766MPD2    C411310   2.909   0.106  15.487 -0.3931  0.4031  0.1365
  766MPD2    C511311   2.861   0.162  15.600  0.4381 -0.6109 -0.2450
  766MPD2     H11312   3.236   0.108  15.593 -0.3071  0.4092  1.4151
  766MPD2    H111313   2.835   0.085  15.411 -0.4281  1.0854 -0.0097
  766MPD2    H211314   2.895   0.231  15.802  0.7912  0.1727  0.2110
  766MPD2    H311315   2.756   0.187  15.604  0.7254  0.3830  1.1602
  766MPD2     N11316   3.099   0.030  15.368  1.3601 -0.4262 -0.3598
  766MPD2    H511317   3.039   0.028  15.286  3.1442 -3.1366 -1.6210
  766MPD2    N111318   3.170   0.225  15.807  0.3496 -0.4933  0.9998
  766MPD2    H711319   3.269   0.210  15.791  0.3607  1.9215 -1.1303
  767MPD2     C11320   2.656   0.273  15.235  0.6272  0.1518  0.2156
  767MPD2    C111321   2.775   0.339  15.213 -0.4214 -0.2050 -0.2370
  767MPD2    C211322   2.832   0.322  15.091  0.3902  0.1687 -0.1367
  767MPD2    C311323   2.757   0.257  14.990  0.5976  0.4022  0.0126
  767MPD2    C411324   2.642   0.197  15.019  0.0497 -0.2752  0.3668
  767MPD2    C511325   2.589   0.205  15.145 -0.2566 -0.4098 -0.7284
  767MPD2     H11326   2.935   0.345  15.065  0.1168 -0.2222 -1.5851
  767MPD2    H111327   2.594   0.127  14.952  0.3800 -0.2041  0.0620
  767MPD2    H211328   2.622   0.273  15.338  0.0867  1.0555  0.0390
  767MPD2    H311329   2.494   0.159  15.170  0.2199 -2.2205 -2.1808
  767MPD2     N11330   2.810   0.224  14.864  0.0275  0.1640 -0.2615
  767MPD2    H511331   2.910   0.227  14.850  0.4280 -3.4482  1.8482
  767MPD2    N111332   2.838   0.403  15.322 -0.0757  0.6229  0.4933
  767MPD2    H711333   2.780   0.406  15.404 -0.2423 -0.1777  0.4031
  768MPD2     C11334   4.644   4.108  10.532 -0.0757 -0.5147 -0.2642
  768MPD2    C111335   4.580   4.034  10.625 -0.0172 -0.4625  0.4352
  768MPD2    C211336   4.645   4.013  10.741 -0.2471  0.4025  0.0618
  768MPD2    C311337   0.036   4.082  10.778  0.6505 -0.5199  0.7035
  768MPD2    C411338   0.086   4.167  10.689  0.7406 -0.8605  0.1769
  768MPD2    C511339   0.031   4.180  10.558 -0.2710  0.3213 -0.5005
  768MPD2     H11340   4.601   3.946  10.814  3.5855 -3.4594 -1.1780
  768MPD2    H111341   0.167   4.236  10.707 -1.1220  1.2605  0.5125
  768MPD2    H211342   4.600   4.122  10.433  1.7615 -1.0840 -1.1648
  768MPD2    H311343   0.074   4.243  10.481 -1.9707  2.4945  0.3088
  768MPD2     N11344   0.117   4.070  10.897 -0.4615  0.2009 -0.0440
  768MPD2    H511345   0.196   4.133  10.912 -0.2005 -0.2331  0.4024
  768MPD2    N111346   4.455   3.968  10.621 -0.5932 -0.2443  0.1498
  768MPD2    H711347   4.430   3.922  10.709  0.4670 -1.4604 -0.1816
  769MPD2     C11348   0.290   1.577  15.048 -0.4113 -0.1334 -0.9286
  769MPD2    C111349   0.169   1.610  15.102  0.4502  0.4021 -0.8289
  769MPD2    C211350   0.152   1.711  15.193 -0.5865  0.3105  0.5567
  769MPD2    C311351   0.265   1.781  15.239 -0.6445  0.0120 -0.4654
  769MPD2    C411352   0.390   1.747  15.184  0.1094 -0.0139 -0.0847
  769MPD2    C511353   0.400   1.649  15.088 -0.4631 -0.7498 -0.0676
  769MPD2     H11354   0.051   1.730  15.230 -1.9794 -1.1167 -2.5241
  769MPD2    H111355   0.481   1.798  15.212  0.5190  0.0523 -1.5424
  769MPD2    H211356   0.302   1.503  14.970  2.6309 -2.0120  1.3200
  769MPD2    H311357   0.494   1.628  15.039  0.5269 -0.8837  1.9184
  769MPD2     N11358   0.248   1.888  15.335 -0.1632  0.2027 -0.0182
  769MPD2    H511359   0.157   1.906  15.375 -0.0420  1.7872 -0.4440
  769MPD2    N111360   0.053   1.538  15.059  0.3408 -0.3211  0.3416
  769MPD2    H711361   4.687   1.578  15.082  0.5959  1.2916 -1.5103
  770MPD2     C11362   3.985   0.919  15.249  0.4662 -0.2566 -0.3593
  770MPD2    C111363   4.024   0.898  15.119 -0.0253 -0.1701  0.2298
  770MPD2    C211364   4.107   0.984  15.056  0.1292 -0.8558 -0.0060
  770MPD2    C311365   4.163   1.090  15.120 -0.3030 -0.0094  0.7307
  770MPD2    C411366   4.148   1.111  15.254  0.0892  0.0615 -0.5972
  770MPD2    C511367   4.051   1.028  15.314  0.6848  0.4921  0.1457
  770MPD2     H11368   4.156   0.957  14.963 -0.5412 -1.1808 -0.2677
  770MPD2    H111369   4.176   1.196  15.316 -1.2584  0.8686 -1.0905
  770MPD2    H211370   3.905   0.859  15.291 -0.1591 -0.6841 -2.1658
  770MPD2    H311371   4.035   1.037  15.421  2.9539 -3.0465  0.7883
  770MPD2     N11372   4.255   1.165  15.046 -0.5611 -0.6902  0.4533
  770MPD2    H511373   4.272   1.139  14.949  1.7397  0.1894  0.6359
  770MPD2    N111374   3.992   0.774  15.063 -0.5598  0.1239 -0.1140
  770MPD2    H711375   3.954   0.709  15.132 -1.2609 -0.3021 -0.9026
  771MPD2     C11376   0.876   0.183  14.076  0.1277 -0.5381 -0.2273
  771MPD2    C111377   0.960   0.273  14.024  0.0065  0.1257 -0.7720
  771MPD2    C211378   1.018   0.238  13.904  0.8308 -0.5714  0.4046
  771MPD2    C311379   0.988   0.117  13.834  0.7450  0.0334 -0.3971
  771MPD2    C411380   0.899   0.028  13.894 -0.2935 -0.1850  0.8111
  771MPD2    C511381   0.850   0.062  14.017 -0.4544 -0.4366 -0.1207
  771MPD2     H11382   1.079   0.312  13.854  1.2069 -1.1580 -0.0006
  771MPD2    H111383   0.862   4.658  13.856 -0.6446  1.4961 -2.9574
  771MPD2    H211384   0.832   0.200  14.173 -0.3518 -0.5799 -0.4368
  771MPD2    H311385   0.794   4.712  14.072  0.7369 -0.6808  0.7657
  771MPD2     N11386   1.040   0.093  13.707  0.1051 -0.3888 -0.1944
  771MPD2    H511387   1.097   0.169  13.670  2.9982 -2.3319  0.2800
  771MPD2    N111388   0.987   0.399  14.089 -0.1958 -0.4787  0.6575
  771MPD2    H711389   1.053   0.462  14.045  1.2119 -2.7699 -0.5148
  772MPD2     C11390   0.499   0.815  13.857  0.6712  0.8202  0.1893
  772MPD2    C111391   0.490   0.791  13.993 -0.0504 -0.9180 -0.0322
  772MPD2    C211392   0.380   0.740  14.050  0.3365  0.8435 -0.1004
  772MPD2    C311393   0.275   0.704  13.970 -0.3744 -0.3373  0.1225
  772MPD2    C411394   0.278   0.737  13.832  0.0964  0.5291 -0.1795
  772MPD2    C511395   0.387   0.789  13.783  0.7813  0.1283 -0.0288
  772MPD2     H11396   0.374   0.723  14.157  0.8913  2.3973  0.1672
  772MPD2    H111397   0.190   0.726  13.771 -0.9584 -0.2363  1.4820
  772MPD2    H211398   0.582   0.864  13.808  0.6658  0.9340  0.2922
  772MPD2    H311399   0.380   0.815  13.678  1.3879 -3.1252 -0.8676
  772MPD2     N11400   0.152   0.637  14.009  0.3612  0.0076 -0.4178
  772MPD2    H511401   0.087   0.608  13.937  0.5601  2.5376 -1.6289
  772MPD2    N111402   0.605   0.799  14.075  0.1304 -0.2593 -0.3577
  772MPD2    H711403   0.603   0.746  14.161  2.0939 -1.4787 -1.0424
  773MPD2     C11404   4.401   1.164   0.452 -0.6740 -0.7898  0.2174
  773MPD2    C111405   4.472   1.173   0.331 -0.1134 -0.3739 -0.7430
  773MPD2    C211406   4.518   1.060   0.270  0.0916 -0.9142  0.6095
  773MPD2    C311407   4.498   0.932   0.330  0.4363 -0.5955  0.1822
  773MPD2    C411408   4.436   0.931   0.450  0.0333 -0.2077 -0.9008
  773MPD2    C511409   4.390   1.044   0.511  0.2909  0.0419  0.0021
  773MPD2     H11410   4.564   1.070   0.172  0.6958 -4.0549  0.5726
  773MPD2    H111411   4.425   0.837   0.504  0.6479  0.1740 -0.1179
  773MPD2    H211412   4.369   1.250   0.510  1.5398  1.3316 -1.7262
  773MPD2    H311413   4.320   1.041   0.594 -0.1278 -2.7992 -0.4538
  773MPD2     N11414   4.549   0.821   0.261  0.2981 -0.0516 -0.0851
  773MPD2    H511415   4.587   0.842   0.170  0.5240  0.5408  0.1458
  773MPD2    N111416   4.495   1.296   0.266  0.4977 -0.0533  0.1059
  773MPD2    H711417   4.509   1.279   0.167  0.8879 -1.1290  0.3437
  774MPD2     C11418   3.619   4.691  13.459  0.1399 -0.3765 -0.3627
  774MPD2    C111419   3.580   0.094  13.501 -0.5551  0.4727 -0.1062
  774MPD2    C211420   3.610   0.201  13.422  0.2522  0.2181 -0.4470
  774MPD2    C311421   3.683   0.186  13.307  0.8589 -0.3845  0.5887
  774MPD2    C411422   3.724   0.066  13.261  0.3467 -0.2643 -0.3525
  774MPD2    C511423   3.688   4.684  13.336  0.7458 -0.6038 -0.6980
  774MPD2     H11424   3.572   0.300  13.443  0.1310 -0.0030  0.3685
  774MPD2    H111425   3.790   0.047  13.176  0.6438  1.2262 -0.4659
  774MPD2    H211426   3.603   4.607  13.525 -0.9276 -0.4963 -0.7644
  774MPD2    H311427   3.719   4.586  13.303  1.2353 -1.1968  1.5057
  774MPD2     N11428   3.726   0.305  13.246  0.1262  0.1866 -0.2813
  774MPD2    H511429   3.687   0.393  13.278 -0.5321 -0.6469  1.1532
  774MPD2    N111430   3.538   0.126  13.631  0.6864  0.1154  0.2351
  774MPD2    H711431   3.549   0.224  13.653 -0.3846 -0.2921  2.6511
  775MPD2     C11432   0.445   1.830  15.768 -0.2816 -0.0121 -0.0815
  775MPD2    C111433   0.466   1.922  15.863 -0.5736 -0.1231 -0.7296
  775MPD2    C211434   0.573   2.007  15.851  0.1315  0.2195  0.0250
  775MPD2    C311435   0.651   2.002  15.743  0.0915 -0.2807 -0.4801
  775MPD2    C411436   0.610   1.924  15.637  0.4963  0.1774  0.2720
  775MPD2    C511437   0.514   1.832  15.648 -0.1703 -0.0318  0.3982
  775MPD2     H11438   0.592   2.077  15.931 -0.9531  0.2577  0.2544
  775MPD2    H111439   0.667   1.930  15.545  0.9313 -1.6452  0.4250
  775MPD2    H211440   0.373   1.752  15.788  0.0918  0.1040  1.7104
  775MPD2    H311441   0.498   1.769  15.562 -0.9550  2.0982 -1.0191
  775MPD2     N11442   0.764   2.081  15.728  0.4791 -0.1772 -0.1947
  775MPD2    H511443   0.808   2.082  15.636 -0.5215  1.3071 -0.6513
  775MPD2    N111444   0.385   1.927  15.978  0.2480 -0.0370 -0.2873
  775MPD2    H711445   0.323   1.850  15.999 -2.0927  1.6839 -0.9470
  776MPD2     C11446   0.288   2.634  11.301  0.3811  0.7466 -0.4988
  776MPD2    C111447   0.392   2.611  11.395  0.0979  0.7248  0.4381
  776MPD2    C211448   0.467   2.718  11.445  0.3847  0.1868  0.2544
  776MPD2    C311449   0.453   2.836  11.376  0.2089 -0.8969 -0.3692
  776MPD2    C411450   0.341   2.860  11.297 -0.2506  0.6533  0.0448
  776MPD2    C511451   0.261   2.754  11.260 -0.6148 -0.4720  0.0002
  776MPD2     H11452   0.543   2.694  11.518  0.2519 -3.1146 -0.7047
  776MPD2    H111453   0.307   2.954  11.255 -2.1623  1.0409  2.4290
  776MPD2    H211454   0.228   2.546  11.279 -0.8273  0.7539  2.7103
  776MPD2    H311455   0.181   2.764  11.188  1.4666  1.2415 -2.0514
  776MPD2     N11456   0.528   2.949  11.405 -0.1584 -0.3542 -0.2325
  776MPD2    H511457   0.503   3.033  11.354  1.2366  0.0144 -0.3124
  776MPD2    N111458   0.396   2.482  11.455  0.4094 -0.3707  0.2424
  776MPD2    H711459   0.330   2.413  11.420  1.5348 -0.1292 -2.3705
  777MPD2     C11460   4.622   4.590   0.983  0.7138  0.4328 -0.0998
  777MPD2    C111461   4.694   4.495   1.047 -0.1756 -0.0960  0.0443
  777MPD2    C211462   4.691   4.370   0.996 -0.0587  0.3033  0.0181
  777MPD2    C311463   4.635   4.345   0.869  0.0971  0.3062 -0.2056
  777MPD2    C411464   4.559   4.440   0.812 -0.2850  0.3913 -0.3785
  777MPD2    C511465   4.561   4.563   0.866 -0.0493 -0.2852  0.1747
  777MPD2     H11466   0.008   4.279   1.037  1.2084  1.0992  0.4933
  777MPD2    H111467   4.512   4.419   0.716  0.8703 -1.3865 -0.5554
  777MPD2    H211468   4.625   4.693   1.016 -0.7452  0.8992 -1.4521
  777MPD2    H311469   4.526   4.653   0.817  2.8865 -0.7327 -2.7014
  777MPD2     N11470   4.644   4.212   0.819  0.3273  0.8154  0.4565
  777MPD2    H511471   4.675   4.140   0.883 -2.8347  1.6213  2.9149
  777MPD2    N111472   0.025   4.523   1.172  0.0084  0.0952 -0.0427
  777MPD2    H711473   0.000   4.612   1.215 -2.4869 -0.9395  0.6424
  778MPD2     C11474   1.026   4.662  15.246  0.0690 -0.4923  0.2552
  778MPD2    C111475   0.960   4.606  15.140 -0.4988 -0.9050 -0.8933
  778MPD2    C211476   0.949   4.686  15.037  0.7839 -0.4225  0.4311
  778MPD2    C311477   1.002   0.086  15.018 -0.3101  0.4233  0.2658
  778MPD2    C411478   1.068   0.145  15.127 -0.0522  0.2888  0.7001
  778MPD2    C511479   1.081   0.064  15.240 -0.2117 -0.1308 -0.3351
  778MPD2     H11480   0.888   4.655  14.953  1.2079 -0.5283  0.1621
  778MPD2    H111481   1.115   0.242  15.127  0.8133 -0.1253  1.9237
  778MPD2    H211482   1.044   4.617  15.343  2.2338 -1.2459 -0.4929
  778MPD2    H311483   1.146   0.113  15.312 -0.2723 -0.6040  0.0376
  778MPD2     N11484   0.978   0.158  14.899 -0.2589 -0.3670 -0.5231
  778MPD2    H511485   0.949   0.099  14.822  0.5607  2.5419 -3.0887
  778MPD2    N111486   0.903   4.476  15.138  0.4620  0.5924 -0.2071
  778MPD2    H711487   0.837   4.460  15.063  0.5034  1.4034 -0.4199
  779MPD2     C11488   0.605   3.553  14.513 -1.3135 -0.3769  0.2363
  779MPD2    C111489   0.722   3.602  14.578 -0.0852 -0.3718  0.7042
  779MPD2    C211490   0.799   3.695  14.514  0.2083 -0.0812 -0.0622
  779MPD2    C311491   0.761   3.751  14.390 -0.1166  0.3956 -0.6088
  779MPD2    C411492   0.652   3.694  14.327 -0.5774 -0.0486  0.3876
  779MPD2    C511493   0.582   3.586  14.379 -0.1238 -0.4656 -0.5651
  779MPD2     H11494   0.871   3.749  14.574 -0.7225  1.2690 -0.1469
  779MPD2    H111495   0.633   3.718  14.223  0.5179 -1.9707 -0.2511
  779MPD2    H211496   0.549   3.472  14.559 -0.1591 -3.7240 -4.2233
  779MPD2    H311497   0.510   3.527  14.323  0.3311 -1.5955  0.0514
  779MPD2     N11498   0.832   3.866  14.344 -0.2024  0.0367 -0.7502
  779MPD2    H511499   0.899   3.901  14.413  0.2490  1.0559 -1.6944
  779MPD2    N111500   0.772   3.560  14.699  0.4895  0.1531  0.0213
  779MPD2    H711501   0.873   3.571  14.706  0.3829  0.5546  0.8199
  780MPD2     C11502   0.642   3.419   1.103  0.6771 -0.0652  0.3212
  780MPD2    C111503   0.519   3.373   1.069 -0.1801  0.2387  0.1339
  780MPD2    C211504   0.458   3.428   0.958 -0.1739 -0.4596 -0.1490
  780MPD2    C311505   0.517   3.516   0.873 -0.4739  0.0768  0.5075
  780MPD2    C411506   0.652   3.553   0.906  0.1053 -0.2526 -0.4498
  780MPD2    C511507   0.702   3.519   1.028 -0.5795  0.1392 -0.1454
  780MPD2     H11508   0.358   3.396   0.934 -1.1420  1.1501  1.7238
  780MPD2    H111509   0.716   3.613   0.843 -0.0910 -0.3366 -0.7270
  780MPD2    H211510   0.690   3.388   1.195  0.0992 -0.9258  0.3312
  780MPD2    H311511   0.804   3.551   1.046 -0.7025  0.2302  0.3781
  780MPD2     N11512   0.453   3.543   0.752 -0.2732  0.3820  0.8437
  780MPD2    H511513   0.364   3.497   0.737  0.1581 -0.0468 -0.4057
  780MPD2    N111514   0.460   3.288   1.159  0.5313  0.2767 -0.2960
  780MPD2    H711515   0.518   3.256   1.236  0.6652  1.5005  0.1073
  781MPD2     C11516   2.219   0.536  11.798 -0.2927  0.8139  0.2201
  781MPD2    C111517   2.308   0.496  11.891  0.0827 -0.2362  0.6964
  781MPD2    C211518   2.430   0.465  11.840  0.2749 -0.0498  0.1000
  781MPD2    C311519   2.476   0.487  11.715  0.3197 -0.0225  0.2291
  781MPD2    C411520   2.380   0.534  11.621 -0.1980 -0.0179  0.2609
  781MPD2    C511521   2.258   0.562  11.673 -0.1714 -0.1856  0.5301
  781MPD2     H11522   2.500   0.417  11.907 -0.3389 -0.1711  0.6522
  781MPD2    H111523   2.390   0.554  11.515 -0.3930 -0.5449  0.1457
  781MPD2    H211524   2.121   0.556  11.839 -0.2829  1.0523  0.1217
  781MPD2    H311525   2.181   0.600  11.607  0.1976 -1.4371 -0.6214
  781MPD2     N11526   2.599   0.442  11.669  0.5462  0.3650 -0.0545
  781MPD2    H511527   2.618   0.462  11.571  3.4288  4.0031  1.2860
  781MPD2    N111528   2.280   0.465  12.029  0.2613  0.1137  0.2115
  781MPD2    H711529   2.359   0.458  12.092  0.2147 -2.9761 -0.0725
  782MPD2     C11530   1.260   0.976  10.627 -0.3546  0.5060  0.4747
  782MPD2    C111531   1.125   0.975  10.594  0.9314  0.0325  0.1807
  782MPD2    C211532   1.078   1.098  10.554 -0.4779  0.5795 -0.5457
  782MPD2    C311533   1.154   1.217  10.546 -0.2693 -0.1708  0.2392
  782MPD2    C411534   1.287   1.207  10.585 -0.1973 -0.1840 -0.5249
  782MPD2    C511535   1.340   1.087  10.617  0.1005  0.8991  0.4050
  782MPD2     H11536   0.973   1.110  10.530 -0.8934 -1.4576  0.2198
  782MPD2    H111537   1.346   1.298  10.597  0.6518 -0.5932 -1.5459
  782MPD2    H211538   1.301   0.883  10.667 -0.2223  0.0671 -0.6815
  782MPD2    H311539   1.435   1.084  10.669  0.2658 -0.0620  0.0375
  782MPD2     N11540   1.085   1.333  10.503 -0.2248 -0.3524 -0.9790
  782MPD2    H511541   0.984   1.325  10.494 -0.2865 -0.3261 -0.3255
  782MPD2    N111542   1.061   0.852  10.602 -0.2131 -0.5879  0.4397
  782MPD2    H711543   1.121   0.774  10.624 -0.8603 -1.0333  0.6075
  783MPD2     C11544   0.309   0.783  11.154  0.6359 -0.1291  0.1848
  783MPD2    C111545   0.364   0.889  11.090 -0.4646  0.1255 -0.1827
  783MPD2    C211546   0.489   0.876  11.027  0.6724 -0.3638 -0.2491
  783MPD2    C311547   0.557   0.758  11.031 -0.6145 -0.0642 -0.2512
  783MPD2    C411548   0.508   0.654  11.110 -0.3918  0.1328 -0.4540
  783MPD2    C511549   0.392   0.678  11.175 -0.1540  0.2024 -0.3213
  783MPD2     H11550   0.524   0.956  10.963  0.4764 -2.4207 -2.9005
  783MPD2    H111551   0.554   0.555  11.107 -1.3347 -0.2923 -1.0795
  783MPD2    H211552   0.215   0.788  11.207  1.5771 -0.4790  1.8880
  783MPD2    H311553   0.353   0.603  11.243  1.6121 -1.2429 -0.9282
  783MPD2     N11554   0.673   0.744  10.945  0.5380 -0.3620 -0.3564
  783MPD2    H511555   0.691   0.818  10.878  2.9926 -0.8111 -0.1917
  783MPD2    N111556   0.297   1.010  11.098 -0.2203 -0.1004  0.0516
  783MPD2    H711557   0.202   1.011  11.135  1.3894 -1.1114  4.2097
  784MPD2     C11558   1.982   1.505   1.510 -0.0754  0.6551  0.3658
  784MPD2    C111559   2.021   1.592   1.413 -0.1973 -0.1115 -0.2904
  784MPD2    C211560   1.926   1.675   1.356  0.3120  1.1292 -0.1359
  784MPD2    C311561   1.798   1.681   1.406  0.1525 -0.5526  0.1822
  784MPD2    C411562   1.752   1.591   1.497 -0.0584  0.1008  0.5863
  784MPD2    C511563   1.848   1.501   1.539  0.2731  0.0512 -0.1655
  784MPD2     H11564   1.948   1.730   1.265  2.8661  1.0389  0.4268
  784MPD2    H111565   1.647   1.585   1.523 -0.0485 -1.0093  0.3650
  784MPD2    H211566   2.047   1.436   1.564 -1.5659 -1.6500 -0.7722
  784MPD2    H311567   1.813   1.434   1.616  1.9636  0.6661  1.1360
  784MPD2     N11568   1.712   1.781   1.351 -0.1833  0.1535 -0.6308
  784MPD2    H511569   1.746   1.832   1.270  1.5509  0.7294  0.4711
  784MPD2    N111570   2.152   1.596   1.365  0.4704 -0.3124  0.3428
  784MPD2    H711571   2.172   1.663   1.292  0.6831 -1.9487 -1.0850
  785MPD2     C11572   2.925   0.131  10.815 -0.5902 -0.0125  0.4972
  785MPD2    C111573   2.820   0.212  10.854 -0.2470  0.0798 -0.2866
  785MPD2    C211574   2.694   0.171  10.822  0.1860  0.2997  0.5625
  785MPD2    C311575   2.678   0.052  10.755  0.5973  0.0100  1.0397
  785MPD2    C411576   2.778   4.701  10.705  0.8209  0.0962  0.3575
  785MPD2    C511577   2.906   0.014  10.740 -0.5259 -0.4328 -0.3211
  785MPD2     H11578   2.606   0.229  10.847 -1.4687 -0.8062 -2.7086
  785MPD2    H111579   2.761   4.613  10.644  0.4924 -0.9633  1.9637
  785MPD2    H211580   3.026   0.147  10.850 -0.8998 -0.2896  1.5056
  785MPD2    H311581   2.987   4.673  10.709 -0.1339  1.8826 -4.1550
  785MPD2     N11582   2.543   0.026  10.724 -0.1608 -0.2742  0.7232
  785MPD2    H511583   2.472   0.091  10.758  0.3812  1.0565 -0.6690
  785MPD2    N111584   2.859   0.327  10.933 -0.0532 -0.7131  0.1475
  785MPD2    H711585   2.957   0.354  10.930 -0.9733  2.7797  1.3439
  786MPD2     C11586   1.655   2.694  15.071 -1.1665 -0.0089  0.5651
  786MPD2    C111587   1.671   2.556  15.034 -0.3255 -0.1821 -0.2779
  786MPD2    C211588   1.760   2.477  15.101  0.6148  0.2616  0.0603
  786MPD2    C311589   1.823   2.534  15.211  0.1467  0.0540 -0.3139
  786MPD2    C411590   1.805   2.666  15.247  0.3252  0.3281  0.6385
  786MPD2    C511591   1.724   2.752  15.172  0.2030 -0.3278  0.3547
  786MPD2     H11592   1.787   2.377  15.067 -0.7112  0.2751 -1.0476
  786MPD2    H111593   1.862   2.717  15.324  2.9266  1.3772 -2.0069
  786MPD2    H211594   1.602   2.759  15.002  1.4075  1.3696 -0.1303
  786MPD2    H311595   1.727   2.858  15.195 -1.9372  0.0977 -1.3999
  786MPD2     N11596   1.928   2.470  15.277 -0.1668 -0.3156  0.1628
  786MPD2    H511597   1.989   2.522  15.340 -0.4771 -0.6859  0.7717
  786MPD2    N111598   1.614   2.498  14.923  0.1312  0.6218 -0.0134
  786MPD2    H711599   1.621   2.398  14.906  0.1546  0.2808  1.9961
  787MPD2     C11600   1.844   1.997  14.419 -0.2945 -0.5609 -0.2367
  787MPD2    C111601   1.836   2.113  14.340  0.1617  0.6890 -0.2266
  787MPD2    C211602   1.875   2.109  14.209 -0.4055 -0.0024 -0.2840
  787MPD2    C311603   1.933   1.998  14.149 -0.4301  0.3189 -0.0760
  787MPD2    C411604   1.931   1.884  14.223  0.4916 -0.6090  0.4109
  787MPD2    C511605   1.890   1.883  14.358  0.1290 -0.3948 -0.5475
  787MPD2     H11606   1.858   2.203  14.158  1.0294  0.4025  0.0106
  787MPD2    H111607   1.968   1.789  14.188 -1.9910 -1.2849 -0.4086
  787MPD2    H211608   1.825   1.994  14.525 -1.1769  0.3852 -0.3672
  787MPD2    H311609   1.896   1.789  14.411  2.6897 -0.3154 -0.6971
  787MPD2     N11610   2.006   2.007  14.025  0.1193  0.5454 -0.0485
  787MPD2    H511611   2.010   2.094  13.973 -0.8402  1.1231  0.8419
  787MPD2    N111612   1.778   2.235  14.388 -0.4680 -0.5158  0.2186
  787MPD2    H711613   1.751   2.308  14.323  1.4299 -0.3850 -0.4100
  788MPD2     C11614   3.842   0.378   0.774 -0.1429  0.2706  0.5188
  788MPD2    C111615   3.729   0.389   0.695 -0.1766  0.4472 -0.5935
  788MPD2    C211616   3.677   0.512   0.661  0.2585 -0.3377 -0.0031
  788MPD2    C311617   3.734   0.634   0.705  0.1258 -0.0404  0.1043
  788MPD2    C411618   3.844   0.619   0.788 -0.3353 -0.2951 -0.4612
  788MPD2    C511619   3.901   0.492   0.811  0.7062  0.2134  0.5510
  788MPD2     H11620   3.597   0.515   0.587  1.5791  1.0592 -1.3726
  788MPD2    H111621   3.896   0.708   0.823 -0.6483 -0.8743  1.4642
  788MPD2    H211622   3.887   0.281   0.788 -1.5550 -0.7578 -2.0088
  788MPD2    H311623   3.993   0.482   0.868 -0.1867 -0.1701  1.9365
  788MPD2     N11624   3.699   0.760   0.647 -0.1978  0.3747 -0.4234
  788MPD2    H511625   3.741   0.839   0.695  1.3995 -1.0239  0.4962
  788MPD2    N111626   3.671   0.271   0.657 -0.8743 -0.0761  0.1964
  788MPD2    H711627   3.721   0.187   0.683 -1.4153 -1.1662 -2.3464
  789MPD2     C11628   3.910   0.437  16.021  0.5759  0.2923 -0.7128
  789MPD2    C111629   3.832   0.346  16.098  0.1001 -0.2584 -0.4134
  789MPD2    C211630   3.732   0.393  16.183  0.1380 -0.2749  0.0559
  789MPD2    C311631   3.712   0.541  16.182  0.2700  0.7947  0.2468
  789MPD2    C411632   3.772   0.624  16.090 -0.8739 -0.7829 -0.3839
  789MPD2    C511633   3.872   0.568  16.014  0.1424  0.3258 -0.1473
  789MPD2     H11634   3.683   0.324  16.251  2.5101 -0.0131  2.0373
  789MPD2    H111635   3.754   0.731  16.095  0.3961 -0.6193  0.7436
  789MPD2    H211636   3.992   0.403  15.958  0.5785 -0.4851 -0.2954
  789MPD2    H311637   3.917   0.635  15.942  0.8741  0.4042  0.3871
  789MPD2     N11638   3.618   0.615  16.263  0.0957 -0.3070 -0.3654
  789MPD2    H511639   3.600   0.712  16.239 -1.9474 -0.4408  0.5876
  789MPD2    N111640   3.860   0.203  16.112 -0.3887 -0.4650  0.7682
  789MPD2    H711641   3.792   0.157  16.172 -1.0422 -0.9735 -0.3588
  790MPD2     C11642   0.253   2.101  13.723  0.1759  0.9387 -0.0423
  790MPD2    C111643   0.137   2.023  13.712 -0.1674  0.2516 -0.4218
  790MPD2    C211644   0.058   2.028  13.597 -0.3103  0.2426 -0.9601
  790MPD2    C311645   0.097   2.105  13.492 -0.3729 -0.7460 -0.4522
  790MPD2    C411646   0.209   2.191  13.502 -0.3298 -0.0553 -0.5901
  790MPD2    C511647   0.288   2.187  13.616 -0.6303  0.2673 -0.3365
  790MPD2     H11648   4.697   1.962  13.583 -1.0715  0.7266  1.4215
  790MPD2    H111649   0.240   2.252  13.417  0.4014  0.9180  0.3804
  790MPD2    H211650   0.320   2.090  13.808 -0.1492 -5.0687 -0.5696
  790MPD2    H311651   0.380   2.245  13.614 -1.0203  0.8371 -1.6736
  790MPD2     N11652   0.029   2.113  13.373  0.1153 -0.2738 -0.4151
  790MPD2    H511653   0.059   2.188  13.312  1.6970 -1.0024 -0.5268
  790MPD2    N111654   0.089   1.957  13.830  0.9240 -0.0569 -0.3249
  790MPD2    H711655   0.152   1.975  13.907 -0.3391  4.0696 -0.2583
  791MPD2     C11656   4.214   2.074  12.634  0.3640  0.0808  0.2115
  791MPD2    C111657   4.214   2.006  12.752 -0.2819  0.6445  0.1209
  791MPD2    C211658   4.147   1.883  12.770  0.4654  0.3115 -0.1173
  791MPD2    C311659   4.063   1.843  12.671  0.5613  0.2570  0.4898
  791MPD2    C411660   4.086   1.897  12.541 -0.1700  0.2254  0.2398
  791MPD2    C511661   4.156   2.020  12.525 -0.2484 -1.0990  0.4127
  791MPD2     H11662   4.140   1.827  12.862  2.2435 -0.3948 -0.4059
  791MPD2    H111663   4.027   1.868  12.454 -0.2723  1.2713 -0.0350
  791MPD2    H211664   4.271   2.164  12.621  0.2480  0.3083  1.3169
  791MPD2    H311665   4.176   2.066  12.429  1.0439 -2.8362 -0.1483
  791MPD2     N11666   3.972   1.735  12.693 -0.8151 -0.3928  0.7192
  791MPD2    H511667   3.961   1.694  12.785 -0.2406  0.9909  1.4084
  791MPD2    N111668   4.294   2.059  12.856 -0.5021  0.2412 -0.1179
  791MPD2    H711669   4.307   2.159  12.844  1.4937 -0.1553 -1.1521
  792MPD2     C11670   0.929   2.211  10.937  0.4073  0.0751  0.3121
  792MPD2    C111671   0.808   2.241  10.994 -0.2807  0.1934 -0.1013
  792MPD2    C211672   0.697   2.181  10.931  0.0372 -0.1782 -0.7934
  792MPD2    C311673   0.703   2.113  10.812 -0.5258 -0.0997  0.2661
  792MPD2    C411674   0.825   2.094  10.749  0.3278  0.4239  0.1209
  792MPD2    C511675   0.935   2.138  10.821 -0.4767 -0.1022  0.0290
  792MPD2     H11676   0.601   2.178  10.982  1.0682  3.6308  1.3344
  792MPD2    H111677   0.831   2.042  10.655 -2.4195 -1.1921  0.8443
  792MPD2    H211678   1.021   2.235  10.989  0.6979 -0.8210  0.2132
  792MPD2    H311679   1.032   2.113  10.780  0.3128 -0.3593  2.0533
  792MPD2     N11680   0.589   2.049  10.755 -0.2792 -0.0599  0.2039
  792MPD2    H511681   0.601   1.986  10.676  1.1062  1.1663 -0.5712
  792MPD2    N111682   0.813   2.332  11.105 -0.2571  0.2580 -0.8204
  792MPD2    H711683   0.899   2.383  11.124  0.6306 -0.8907 -1.7817
  793MPD2     C11684   4.398   2.356  10.466 -0.2151  0.1585 -0.1373
  793MPD2    C111685   4.525   2.389  10.420  0.1647  0.3194  0.6249
  793MPD2    C211686   4.626   2.318  10.476  0.3880 -0.1215 -0.1299
  793MPD2    C311687   4.611   2.214  10.561 -0.3601 -0.1846  0.2947
  793MPD2    C411688   4.484   2.189  10.608  0.5408 -0.2878  0.1249
  793MPD2    C511689   4.384   2.260  10.560 -0.4017 -0.6689 -0.0180
  793MPD2     H11690   0.005   2.332  10.445  0.7192 -2.2624 -0.0101
  793MPD2    H111691   4.457   2.118  10.685  1.2152 -0.2674  0.3808
  793MPD2    H211692   4.309   2.414  10.443 -0.2136 -0.0501 -0.6609
  793MPD2    H311693   4.282   2.244  10.591 -0.1352  0.8018  1.6388
  793MPD2     N11694   0.003   2.139  10.597  1.1483 -0.8774 -0.3187
  793MPD2    H511695   0.086   2.171  10.549  0.6576 -0.9856 -1.2360
  793MPD2    N111696   4.557   2.490  10.329 -0.0457 -0.0722  0.2611
  793MPD2    H711697   4.656   2.493  10.310 -0.6838  2.9125 -2.6596
  794MPD2     C11698   4.297   1.278  17.327 -0.3305 -0.2760  0.9548
  794MPD2    C111699   4.251   1.392  17.387 -0.1658 -0.8453 -0.3380
  794MPD2    C211700   4.172   1.479  17.315 -0.3616 -0.8147  0.1914
  794MPD2    C311701   4.152   1.459  17.183  0.3610  0.8038 -1.3717
  794MPD2    C411702   4.206   1.348  17.119 -0.0915  0.5752  0.5808
  794MPD2    C511703   4.274   1.260  17.197  0.0431  0.1191  0.4193
  794MPD2     H11704   4.131   1.565  17.368 -3.1373 -1.7275 -0.4392
  794MPD2    H111705   4.196   1.331  17.013  2.4990 -1.6900  0.6935
  794MPD2    H211706   4.341   1.198  17.385 -2.0372 -0.5967  1.8014
  794MPD2    H311707   4.310   1.169  17.150  1.7714  0.4466  1.1182
  794MPD2     N11708   4.068   1.540  17.105  0.7253  0.5594 -0.6102
  794MPD2    H511709   4.052   1.507  17.010  1.1177  0.5232 -0.6638
  794MPD2    N111710   4.262   1.439  17.514  0.0243  0.3516 -0.1031
  794MPD2    H711711   4.222   1.531  17.529  0.3866  0.5892 -0.6258
  795MPD2     C11712   2.404   3.864  13.295  0.6131  0.2426 -0.4623
  795MPD2    C111713   2.351   3.793  13.400  0.7410 -0.2036  0.4382
  795MPD2    C211714   2.384   3.660  13.432 -0.4387 -0.0374 -0.9844
  795MPD2    C311715   2.495   3.613  13.357 -0.4667  0.2175 -0.5416
  795MPD2    C411716   2.552   3.686  13.254 -0.3283 -0.5717  0.3724
  795MPD2    C511717   2.502   3.809  13.227 -0.2764  0.5853  0.1726
  795MPD2     H11718   2.338   3.601  13.510  2.2420 -0.9878 -0.0984
  795MPD2    H111719   2.642   3.661  13.199  0.7386 -0.6990  2.1918
  795MPD2    H211720   2.380   3.968  13.276  0.2375  0.2548  0.0788
  795MPD2    H311721   2.540   3.867  13.144 -1.8345  0.3308 -0.7152
  795MPD2     N11722   2.558   3.494  13.398  0.4769 -0.0366  0.2362
  795MPD2    H511723   2.537   3.462  13.493  1.3306 -1.5959 -0.0981
  795MPD2    N111724   2.252   3.843  13.478 -0.2416  0.0653  0.6039
  795MPD2    H711725   2.205   3.783  13.546 -0.2727  0.1283  0.6382
  796MPD2     C11726   1.710   0.699  15.970  0.7132 -0.3272  0.1371
  796MPD2    C111727   1.726   0.765  16.090 -0.3663  0.1628  0.8371
  796MPD2    C211728   1.706   0.899  16.089 -0.7134  0.4914 -0.5996
  796MPD2    C311729   1.662   0.969  15.982 -0.7469 -0.5855 -0.6579
  796MPD2    C411730   1.643   0.900  15.862 -0.2929  0.6209 -0.3500
  796MPD2    C511731   1.654   0.763  15.861 -0.7570  1.4746 -0.0825
  796MPD2     H11732   1.712   0.943  16.188  0.2449 -1.3184  0.1401
  796MPD2    H111733   1.614   0.952  15.772 -0.9605  2.0181  0.6559
  796MPD2    H211734   1.737   0.595  15.963 -0.8764 -0.6734 -0.9496
  796MPD2    H311735   1.649   0.699  15.774  0.4413  1.6498 -0.2812
  796MPD2     N11736   1.639   1.107  15.995 -0.2555 -0.1736 -0.4108
  796MPD2    H511737   1.642   1.145  16.089 -1.0476  3.4216 -1.8493
  796MPD2    N111738   1.768   0.691  16.196 -0.0091 -0.9848  0.2437
  796MPD2    H711739   1.787   0.593  16.181 -0.7288 -0.8431 -1.5117
  797MPD2     C11740   2.383   4.683  17.232 -0.4598 -0.0380 -0.0332
  797MPD2    C111741   2.507   4.706  17.273 -0.6232  0.2187  0.5329
  797MPD2    C211742   2.569   0.103  17.258 -0.0120  0.8014  0.5333
  797MPD2    C311743   2.496   0.204  17.194 -0.1514  0.2788 -0.0605
  797MPD2    C411744   2.373   0.180  17.147 -0.3158 -0.0503 -1.0888
  797MPD2    C511745   2.318   0.061  17.171 -0.7765 -0.0722  0.3654
  797MPD2     H11746   2.671   0.119  17.290  0.3747 -0.8654  0.1184
  797MPD2    H111747   2.310   0.252  17.097 -1.3643 -0.0317  0.2583
  797MPD2    H211748   2.329   4.591  17.249  1.5731 -1.1111  0.6524
  797MPD2    H311749   2.216   0.045  17.138 -1.3558 -0.5436  2.3794
  797MPD2     N11750   2.554   0.328  17.152  0.0686  0.0116  0.0067
  797MPD2    H511751   2.510   0.386  17.082  1.1108  2.3797  1.3129
  797MPD2    N111752   2.579   4.616  17.352 -0.0405  0.3408 -0.0923
  797MPD2    H711753   2.673   4.646  17.372 -0.6187  1.8503  0.3196
  798MPD2     C11754   3.239   0.187  17.241  0.3546  0.4421  0.0700
  798MPD2    C111755   3.104   0.212  17.251  0.2735 -0.3864  0.4984
  798MPD2    C211756   3.025   0.121  17.315  0.2411 -0.6365 -0.3856
  798MPD2    C311757   3.076   0.007  17.379  0.0851  0.3353  0.1622
  798MPD2    C411758   3.213   4.710  17.381 -0.6644 -0.1687 -0.3896
  798MPD2    C511759   3.290   0.079  17.302 -0.0284  0.3451 -0.4429
  798MPD2     H11760   2.917   0.133  17.308 -0.0763 -2.7473  0.7507
  798MPD2    H111761   3.262   4.624  17.423  0.7951  0.0058 -1.7116
  798MPD2    H211762   3.310   0.255  17.194  1.9931 -2.2187 -1.2927
  798MPD2    H311763   3.397   0.063  17.300 -0.3521 -1.7968 -0.4755
  798MPD2     N11764   2.978   4.638  17.426  0.1368 -0.3284  0.1638
  798MPD2    H511765   2.882   4.652  17.398  0.5783  1.2431 -0.5604
  798MPD2    N111766   3.034   0.327  17.201 -0.0701 -0.8504 -0.5594
  798MPD2    H711767   2.937   0.336  17.228 -0.8521 -0.0672 -3.6073
  799MPD2     C11768   1.367   2.031  14.655 -0.4577  0.0304  0.2748
  799MPD2    C111769   1.257   1.980  14.593  0.7643 -0.0106  0.2594
  799MPD2    C211770   1.238   2.008  14.456 -0.3407 -0.3827  1.0255
  799MPD2    C311771   1.326   2.088  14.385 -0.2233 -0.1308 -0.2337
  799MPD2    C411772   1.431   2.132  14.451 -0.1950 -0.4209  0.2354
  799MPD2    C511773   1.444   2.112  14.585  0.8447 -0.3516  0.3061
  799MPD2     H11774   1.155   1.966  14.401  0.2620  0.7001 -0.7091
  799MPD2    H111775   1.507   2.188  14.399 -0.0871  0.3895  1.2675
  799MPD2    H211776   1.377   2.033  14.763 -0.1827 -1.6089  0.2815
  799MPD2    H311777   1.525   2.156  14.642 -0.4048  2.3664 -0.0576
  799MPD2     N11778   1.318   2.096  14.237 -0.0708 -0.2071 -0.1727
  799MPD2    H511779   1.391   2.151  14.192 -0.5827  1.4193  0.9561
  799MPD2    N111780   1.188   1.876  14.667  0.7309  0.2510 -0.3651
  799MPD2    H711781   1.226   1.854  14.758  0.3537  1.8276  0.1670
  800MPD2     C11782   1.750   2.810  14.594  0.4122 -0.3395  0.2933
  800MPD2    C111783   1.843   2.711  14.570  0.0954  0.1868 -0.2281
  800MPD2    C211784   1.861   2.672  14.438  0.9523 -0.6474 -0.5578
  800MPD2    C311785   1.792   2.736  14.335 -0.2292  0.3603 -0.3398
  800MPD2    C411786   1.705   2.840  14.363 -0.2774  0.1662  0.3090
  800MPD2    C511787   1.677   2.867  14.496  0.0736  0.2763  0.9030
  800MPD2     H11788   1.933   2.601  14.400  0.2725  0.3273 -3.6798
  800MPD2    H111789   1.649   2.887  14.284 -0.4744  3.4797  2.4483
  800MPD2    H211790   1.733   2.844  14.696  0.5036 -0.0591  0.2143
  800MPD2    H311791   1.599   2.938  14.522 -2.7640 -2.1359 -0.9451
  800MPD2     N11792   1.840   2.711  14.203 -0.5342 -0.0016  0.0767
  800MPD2    H511793   1.912   2.640  14.187 -1.9201 -1.4124  0.1119
  800MPD2    N111794   1.916   2.672  14.679  0.0712 -0.1024 -0.2836
  800MPD2    H711795   1.897   2.718  14.767 -1.2246  1.5655 -1.4318
  801MPD2     C11796   2.134   2.958  15.297 -0.2863 -0.0404  0.6505
  801MPD2    C111797   2.088   2.950  15.167  0.2976  0.0571 -0.4134
  801MPD2    C211798   2.085   3.066  15.092  0.2855 -0.2772 -0.2418
  801MPD2    C311799   2.137   3.186  15.143 -0.0571  0.2532  0.0621
  801MPD2    C411800   2.178   3.195  15.273  0.5764  0.5235 -1.1145
  801MPD2    C511801   2.182   3.078  15.354 -0.1363  1.0922  0.2253
  801MPD2     H11802   2.049   3.066  14.990  2.3468 -1.5199 -0.9746
  801MPD2    H111803   2.219   3.281  15.325  1.0923 -1.0632  1.1433
  801MPD2    H211804   2.131   2.868  15.358 -0.0782  0.1040  0.8797
  801MPD2    H311805   2.211   3.075  15.458  0.4370  1.9776  0.0847
  801MPD2     N11806   2.126   3.304  15.070 -0.7732 -0.0343  0.1201
  801MPD2    H511807   2.132   3.396  15.113  1.4713  1.1356 -2.6287
  801MPD2    N111808   2.068   2.834  15.088 -0.9298  0.1446  0.0711
  801MPD2    H711809   2.031   2.848  14.995 -0.7095  1.6500  0.2129
  802MPD2     C11810   1.003   3.931  17.566  0.5953  0.1871  0.0125
  802MPD2    C111811   1.045   3.925  17.693  0.1887  1.3087 -0.1913
  802MPD2    C211812   1.084   3.804   0.043  0.4855  0.9481 -0.1160
  802MPD2    C311813   1.086   3.691  17.661 -0.2025  0.6736 -0.3378
  802MPD2    C411814   1.037   3.696  17.527  0.0397 -0.3541 -0.4141
  802MPD2    C511815   0.996   3.819  17.480 -0.0334 -0.1332  0.0725
  802MPD2     H11816   1.118   3.785   0.144 -0.3804  0.2758  0.0551
  802MPD2    H111817   1.057   3.608  17.466 -0.3308 -1.7792  1.5235
  802MPD2    H211818   0.960   4.014  17.510 -1.6958 -1.4388 -0.6571
  802MPD2    H311819   0.964   3.837  17.377 -0.4203 -1.6903 -0.0731
  802MPD2     N11820   1.123   3.562   0.024  0.6340  0.3845 -0.3770
  802MPD2    H511821   1.178   3.563   0.109 -0.0472  1.0790  0.0535
  802MPD2    N111822   1.062   4.049   0.062 -0.3073  0.1669 -0.3942
  802MPD2    H711823   1.103   4.052   0.155 -0.5778 -0.5728 -0.2529
  803MPD2     C11824   3.177   2.298  12.036  0.2565 -0.3904 -0.6380
  803MPD2    C111825   3.224   2.224  12.140  0.2178 -0.5824 -0.5406
  803MPD2    C211826   3.144   2.118  12.186  0.3531  1.4534 -0.1030
  803MPD2    C311827   3.019   2.087  12.132 -0.1728  0.5747 -0.6529
  803MPD2    C411828   2.970   2.169  12.028 -0.1053  0.6955  0.7609
  803MPD2    C511829   3.051   2.273  11.981 -0.0074 -0.8923  0.0753
  803MPD2     H11830   3.191   2.053  12.259 -2.4748  0.8361  1.1604
  803MPD2    H111831   2.869   2.161  11.990 -1.0384  1.8850  2.9669
  803MPD2    H211832   3.237   2.377  11.993 -0.3687  0.3460 -0.1667
  803MPD2    H311833   3.009   2.335  11.903  0.6350 -1.8067 -0.9931
  803MPD2     N11834   2.937   1.983  12.178 -0.3297 -0.1379  0.4652
  803MPD2    H511835   2.841   1.989  12.145 -0.5638  1.6399  1.4706
  803MPD2    N111836   3.341   2.248  12.210 -0.3142  0.4161  0.5527
  803MPD2    H711837   3.356   2.204  12.300 -3.3779  0.1989  0.9460
  804MPD2     C11838   1.888   3.386  17.042  0.3307 -0.3232 -0.1533
  804MPD2    C111839   1.948   3.304  17.140  0.4007 -0.4256  0.8130
  804MPD2    C211840   2.061   3.347  17.195 -0.3594 -0.2006  0.5574
  804MPD2    C311841   2.131   3.457  17.154  0.1854 -0.6647 -1.0387
  804MPD2    C411842   2.065   3.546  17.062 -0.6319 -0.0915 -0.4510
  804MPD2    C511843   1.944   3.504  17.011  0.1059  0.5485  0.7084
  804MPD2     H11844   2.114   3.275  17.257  1.7562  2.0777  1.3828
  804MPD2    H111845   2.101   3.643  17.029  1.7430 -0.6288  0.5628
  804MPD2    H211846   1.796   3.355  16.992 -1.3104  1.8714  1.4888
  804MPD2    H311847   1.895   3.573  16.944  0.9426  1.2459  0.8088
  804MPD2     N11848   2.257   3.501  17.203 -0.0386  0.0584  0.1635
  804MPD2    H511849   2.291   3.586  17.158 -2.6037  1.8254  1.5430
  804MPD2    N111850   1.896   3.176  17.174  0.3793  0.0875  0.1766
  804MPD2    H711851   1.936   3.130  17.256 -1.6420 -1.3406  0.3467
  805MPD2     C11852   1.058   1.989  15.592 -0.3129  0.2677 -0.0815
  805MPD2    C111853   1.125   2.076  15.505 -0.7235  0.6310 -0.5659
  805MPD2    C211854   1.253   2.109  15.534 -0.0811 -0.3452  0.3344
  805MPD2    C311855   1.321   2.041  15.636  0.4511  0.1098  0.1952
  805MPD2    C411856   1.252   1.950  15.715  0.5225  0.1563 -0.0929
  805MPD2    C511857   1.121   1.929  15.695 -0.0785  0.1846  0.4123
  805MPD2     H11858   1.311   2.170  15.464 -0.4073 -1.8904 -1.2838
  805MPD2    H111859   1.299   1.886  15.788 -0.7041 -3.3374 -2.3580
  805MPD2    H211860   0.952   1.969  15.581 -0.3116  0.6770 -0.9045
  805MPD2    H311861   1.066   1.857  15.755  0.6734  1.3510  2.4892
  805MPD2     N11862   1.458   2.067  15.661 -0.0384 -0.0167  0.3071
  805MPD2    H511863   1.503   2.144  15.612  2.1273 -1.4383  0.0443
  805MPD2    N111864   1.066   2.136  15.392  0.2113 -0.3627  0.0542
  805MPD2    H711865   1.120   2.192  15.327 -1.1027  0.7222 -0.0927
  806MPD2     C11866   2.782   2.013   0.875 -0.1361 -0.1794 -0.6640
  806MPD2    C111867   2.666   1.961   0.826  0.4810 -0.1658 -0.0532
  806MPD2    C211868   2.574   2.043   0.760  0.0356  0.9897  0.4694
  806MPD2    C311869   2.602   2.172   0.735  0.1217 -0.9670 -0.1657
  806MPD2    C411870   2.716   2.230   0.793 -0.2512 -0.0441 -0.3457
  806MPD2    C511871   2.810   2.150   0.856  0.5312  0.0736 -0.9796
  806MPD2     H11872   2.488   1.996   0.713  0.4076 -1.1342  1.8981
  806MPD2    H111873   2.742   2.335   0.785  0.2474 -0.0766  0.8423
  806MPD2    H211874   2.861   1.956   0.923  0.6130  1.1530 -0.3152
  806MPD2    H311875   2.895   2.189   0.910  0.9076 -0.3469 -1.2703
  806MPD2     N11876   2.509   2.242   0.649  0.6443  0.1515 -0.4652
  806MPD2    H511877   2.441   2.188   0.597 -0.0192 -0.6674  1.2615
  806MPD2    N111878   2.644   1.826   0.852 -0.1949  0.0134  0.7128
  806MPD2    H711879   2.718   1.763   0.882 -0.8961  0.1642  2.7802
  807MPD2     C11880   2.097   1.238   1.174 -0.1768 -0.3732 -0.0458
  807MPD2    C111881   2.196   1.178   1.104 -0.2997  0.2969  0.1246
  807MPD2    C211882   2.212   1.039   1.110 -0.6563  0.7019  0.6750
  807MPD2    C311883   2.110   0.959   1.161 -0.9051  0.1823  0.2244
  807MPD2    C411884   2.002   1.023   1.219  0.2919  0.2981  0.1246
  807MPD2    C511885   2.008   1.161   1.241  0.2148 -0.5809 -0.2788
  807MPD2     H11886   2.293   0.998   1.051 -1.4705 -0.2967  0.2663
  807MPD2    H111887   1.912   0.982   1.263  1.2647  0.4633  2.2294
  807MPD2    H211888   2.089   1.346   1.186 -0.8744 -0.5174  0.7930
  807MPD2    H311889   1.922   1.200   1.295  0.8098  1.3578 -0.7373
  807MPD2     N11890   2.113   0.821   1.136 -0.3108 -0.0906 -0.2990
  807MPD2    H511891   2.187   0.777   1.082  0.7166 -0.3162  1.2697
  807MPD2    N111892   2.291   1.249   1.024 -0.2390 -0.4386 -0.0145
  807MPD2    H711893   2.341   1.194   0.955  0.5831 -0.6137  0.7243
  808MPD2     C11894   2.972   3.111  10.586 -0.3153 -0.7114  0.3018
  808MPD2    C111895   2.841   3.150  10.601 -0.0592 -0.3234  0.1485
  808MPD2    C211896   2.804   3.277  10.554 -0.4868 -0.2218  0.1001
  808MPD2    C311897   2.899   3.366  10.503  0.2554 -0.1487  0.9265
  808MPD2    C411898   3.029   3.326  10.485 -0.7974 -0.4058 -0.2221
  808MPD2    C511899   3.062   3.199  10.525  0.0814  0.5241  0.7818
  808MPD2     H11900   2.700   3.309  10.558 -0.8188 -1.1405 -1.2049
  808MPD2    H111901   3.103   3.390  10.438  0.6640 -2.9372 -1.3777
  808MPD2    H211902   3.009   3.017  10.624 -1.9254 -0.4733  2.4195
  808MPD2    H311903   3.170   3.184  10.522  0.2904  1.9161  1.2660
  808MPD2     N11904   2.872   3.491  10.455  0.5182 -0.2012 -0.8126
  808MPD2    H511905   2.946   3.536  10.403 -0.0175  0.6348 -0.8385
  808MPD2    N111906   2.732   3.067  10.634  0.2109  0.7338  0.0103
  808MPD2    H711907   2.638   3.100  10.614  0.2249  1.6389  1.4425
  809MPD2     C11908   3.039   4.082   9.685  0.2190 -0.1478  0.1555
  809MPD2    C111909   3.076   3.958   9.742 -0.1165 -0.4019 -0.2200
  809MPD2    C211910   3.034   3.928   9.871 -0.1501 -0.0230 -0.1366
  809MPD2    C311911   2.946   4.011   9.949 -0.1441  0.0117  0.0516
  809MPD2    C411912   2.909   4.126   9.884 -0.0046 -0.3888  0.1073
  809MPD2    C511913   2.956   4.164   9.759 -0.1346 -0.2855  0.0249
  809MPD2     H11914   3.067   3.831   9.906  2.0164  0.3514 -1.1165
  809MPD2    H111915   2.832   4.188   9.930 -0.2755 -0.1025 -0.7294
  809MPD2    H211916   3.062   4.114   9.584 -2.6206  0.4076 -0.3216
  809MPD2    H311917   2.915   4.254   9.715  0.4521 -0.2259 -0.4118
  809MPD2     N11918   2.892   3.977  10.076  0.4809  0.5936  1.2337
  809MPD2    H511919   2.833   4.046  10.122  0.4166  0.1693  1.7799
  809MPD2    N111920   3.163   3.874   9.667 -0.2376  0.3047 -0.3705
  809MPD2    H711921   3.183   3.784   9.709 -0.2147  0.7062  0.4750
  810MPD2     C11922   2.637   2.494  10.799  0.4701 -0.2020 -0.1705
  810MPD2    C111923   2.513   2.463  10.846 -0.1233  0.3301  0.3784
  810MPD2    C211924   2.460   2.533  10.951  0.0160 -0.2549  0.1998
  810MPD2    C311925   2.525   2.645  10.996 -0.7111 -0.2736 -0.2513
  810MPD2    C411926   2.645   2.676  10.939  0.5903  0.8070  0.9307
  810MPD2    C511927   2.704   2.596  10.848 -0.0796  0.2825 -0.0873
  810MPD2     H11928   2.362   2.510  10.992  1.0352  1.0012  3.3104
  810MPD2    H111929   2.691   2.771  10.965 -0.5713  1.7544 -0.5425
  810MPD2    H211930   2.691   2.447  10.719  1.5878 -0.8436  0.9677
  810MPD2    H311931   2.802   2.617  10.807 -0.1738  1.2335  0.1652
  810MPD2     N11932   2.471   2.742  11.081 -0.4930  0.3881  0.1016
  810MPD2    H511933   2.537   2.811  11.116 -0.3167 -0.3421  1.2027
  810MPD2    N111934   2.444   2.356  10.786 -0.1897 -0.5791  0.4811
  810MPD2    H711935   2.486   2.314  10.703 -1.5571  1.8656 -1.4602
  811MPD2     C11936   1.809   2.217  10.228  0.2666  0.2138 -0.0028
  811MPD2    C111937   1.880   2.300  10.313  0.5446 -0.5617 -0.1002
  811MPD2    C211938   1.851   2.437  10.303 -0.3001 -0.3772  0.3377
  811MPD2    C311939   1.760   2.484  10.217 -0.0204 -0.7423 -0.0052
  811MPD2    C411940   1.702   2.398  10.124 -0.6149  0.2943 -0.5414
  811MPD2    C511941   1.729   2.264  10.130 -0.8889 -0.4793 -0.0669
  811MPD2     H11942   1.897   2.493  10.384 -1.1345  1.4297 -0.4462
  811MPD2    H111943   1.641   2.439  10.045  1.8845  1.1063 -2.0591
  811MPD2    H211944   1.829   2.111  10.219 -0.2204  0.0700  0.5937
  811MPD2    H311945   1.690   2.198  10.053  1.4719  0.6249 -2.1955
  811MPD2     N11946   1.721   2.621  10.224  0.1291 -0.6739  0.0217
  811MPD2    H511947   1.772   2.679  10.290 -1.7939 -1.7063  2.4577
  811MPD2    N111948   1.972   2.232  10.400  0.0775 -0.3650 -0.5899
  811MPD2    H711949   1.972   2.131  10.384  0.4201 -0.3429 -0.7181
  812MPD2     C11950   0.960   2.587  12.341 -0.0993 -0.4567  0.6922
  812MPD2    C111951   0.869   2.609  12.446 -0.4136 -0.5831 -0.3749
  812MPD2    C211952   0.824   2.503  12.518 -0.1498  0.7257 -0.0847
  812MPD2    C311953   0.870   2.374  12.490 -0.0300  0.7489  0.3994
  812MPD2    C411954   0.951   2.359  12.382  0.6286 -0.7012 -0.5744
  812MPD2    C511955   0.998   2.461  12.306  0.1600 -0.3863 -0.5866
  812MPD2     H11956   0.749   2.515  12.595  0.5259 -0.3326  0.7408
  812MPD2    H111957   0.987   2.265  12.341 -0.5769 -1.4393  0.0687
  812MPD2    H211958   1.002   2.667  12.282  3.0769 -2.2599  0.5115
  812MPD2    H311959   1.078   2.445  12.235  1.7400 -1.3283  1.3681
  812MPD2     N11960   0.826   2.261  12.570  0.6832  0.3334 -0.1153
  812MPD2    H511961   0.772   2.286  12.652 -0.3623 -2.3592  0.0031
  812MPD2    N111962   0.831   2.739  12.479 -0.3262 -0.4676 -0.2211
  812MPD2    H711963   0.866   2.810  12.416 -1.2218  0.1390 -0.0361
  813MPD2     C11964   0.366   4.029  12.797 -0.1902  0.4051 -0.0627
  813MPD2    C111965   0.312   4.154  12.799 -0.6546 -0.2653  0.4402
  813MPD2    C211966   0.178   4.179  12.818  0.4623 -0.5165 -0.0871
  813MPD2    C311967   0.095   4.063  12.847 -0.0073 -0.9516  0.3879
  813MPD2    C411968   0.147   3.935  12.843  0.1223  0.4452 -0.6886
  813MPD2    C511969   0.282   3.921  12.819 -0.2637  0.3101  0.0376
  813MPD2     H11970   0.137   4.279  12.816  0.4380 -0.5474 -1.1655
  813MPD2    H111971   0.087   3.850  12.872  1.4974 -0.6166 -0.9633
  813MPD2    H211972   0.471   4.004  12.794 -0.2426  0.2624 -0.7329
  813MPD2    H311973   0.327   3.822  12.820 -0.0070  0.3945 -1.7761
  813MPD2     N11974   4.686   4.097  12.892  0.0215 -0.0300 -0.4974
  813MPD2    H511975   4.657   4.194  12.888 -1.2526 -0.4281 -0.7506
  813MPD2    N111976   0.404   4.255  12.804  0.2085 -0.0288 -0.8594
  813MPD2    H711977   0.502   4.228  12.802  0.3218  0.2975  0.1341
  814MPD2     C11978   0.444   0.683  12.612 -0.7929 -0.1156  0.4786
  814MPD2    C111979   0.467   0.767  12.503 -0.7521 -0.6355  0.0627
  814MPD2    C211980   0.525   0.891  12.532  0.6042 -0.5488 -0.4246
  814MPD2    C311981   0.558   0.925  12.661 -0.6874 -0.4447  0.6117
  814MPD2    C411982   0.529   0.843  12.759 -0.0546  0.3478 -0.0060
  814MPD2    C511983   0.470   0.720  12.742 -0.3796 -0.7886  0.9073
  814MPD2     H11984   0.543   0.952  12.444 -0.4979  2.6706  1.5768
  814MPD2    H111985   0.557   0.869  12.861  3.5084 -0.6708 -0.6993
  814MPD2    H211986   0.398   0.587  12.591  1.1923 -1.1469  0.8317
  814MPD2    H311987   0.452   0.646  12.819 -1.9870 -0.1571  1.1355
  814MPD2     N11988   0.622   1.039  12.696  0.0361  0.7984  0.0173
  814MPD2    H511989   0.628   1.058  12.795 -0.2207  1.7380 -0.1469
  814MPD2    N111990   0.430   0.751  12.367 -0.0525 -0.1396  0.2945
  814MPD2    H711991   0.436   0.830  12.305 -1.4861  0.0930  0.4341
  815MPD2     C11992   0.846   3.568  12.464  0.7040  0.2450 -0.0275
  815MPD2    C111993   0.826   3.612  12.340 -1.0400  0.0400 -0.2850
  815MPD2    C211994   0.704   3.581  12.270 -0.1165 -0.1618  0.6404
  815MPD2    C311995   0.605   3.513  12.340 -0.1020  0.5614 -0.8088
  815MPD2    C411996   0.623   3.487  12.479  0.3269  0.3043  0.9702
  815MPD2    C511997   0.744   3.513  12.534 -1.0551  0.4342 -0.0478
  815MPD2     H11998   0.682   3.613  12.169 -3.5602 -2.2571  0.7471
  815MPD2    H111999   0.550   3.447  12.549  0.5879  0.7867  1.5250
  815MPD2    H212000   0.943   3.586  12.510 -0.0412  2.1483  0.7765
  815MPD2    H312001   0.757   3.477  12.636  0.8561 -0.9550 -0.7817
  815MPD2     N12002   0.483   3.500  12.273 -0.6651 -0.4129 -0.4953
  815MPD2    H512003   0.487   3.530  12.176 -2.2431 -0.5616 -0.6032
  815MPD2    N112004   0.921   3.694  12.280 -0.4751 -0.5087  0.3990
  815MPD2    H712005   0.997   3.719  12.342  0.4612  1.6150 -1.6503
  816MPD2     C12006   0.082   2.481  17.178 -0.0696  0.0820  0.2844
  816MPD2    C112007   0.144   2.597  17.144  0.1449  0.3388 -0.3286
  816MPD2    C212008   0.251   2.596  17.059 -0.0552  0.1926  0.3724
  816MPD2    C312009   0.298   2.474  17.011  0.6566 -0.6605 -0.0196
  816MPD2    C412010   0.241   2.358  17.050  0.2091  0.0211  0.2056
  816MPD2    C512011   0.129   2.366  17.132 -0.0461 -0.0689  0.4028
  816MPD2     H12012   0.301   2.685  17.023  1.7233 -1.2094 -0.5982
  816MPD2    H112013   0.280   2.262  17.017 -0.1611 -0.2899  0.6593
  816MPD2    H212014   4.719   2.481  17.241  0.2378  0.7441  0.7203
  816MPD2    H312015   0.073   2.278  17.161 -0.2833  0.2082  0.7788
  816MPD2     N12016   0.421   2.484  16.930 -0.1835 -0.1988 -0.0208
  816MPD2    H512017   0.453   2.579  16.913  2.2898 -1.1626 -0.8328
  816MPD2    N112018   0.095   2.714  17.211  0.5959  0.1176 -0.1764
  816MPD2    H712019   0.001   2.716  17.250 -0.1986  0.6594 -2.1343
  817MPD2     C12020   0.950   0.092   9.686  0.3368  0.1203  0.0703
  817MPD2    C112021   0.827   0.025   9.673 -0.4570  0.1238  0.1512
  817MPD2    C212022   0.713   0.104   9.629 -0.2018  0.6760 -0.2489
  817MPD2    C312023   0.721   0.235   9.596  0.1917 -0.9311 -0.7674
  817MPD2    C412024   0.852   0.285   9.590 -0.7015  0.0702  0.6328
  817MPD2    C512025   0.959   0.219   9.643  0.0968 -0.3082  0.0844
  817MPD2     H12026   0.618   0.055   9.607  0.0621  0.2860 -0.5285
  817MPD2    H112027   0.874   0.382   9.546  0.8170  0.4080  2.1559
  817MPD2    H212028   1.031   0.049   9.743 -0.9520 -1.6281  0.5565
  817MPD2    H312029   1.052   0.274   9.654  0.7656 -0.8627 -2.7559
  817MPD2     N12030   0.607   0.316   9.555  0.1521 -0.0516 -0.2951
  817MPD2    H512031   0.528   0.263   9.519 -0.6208  0.1247  1.1365
  817MPD2    N112032   0.803   4.616   9.712 -0.5675  0.3163  0.2678
  817MPD2    H712033   0.707   4.597   9.687  0.1442  1.8710 -3.6842
  818MPD2     C12034   0.162   4.662  10.290 -0.1871  0.2918  0.2058
  818MPD2    C112035   0.045   4.610  10.332  0.5269 -0.4786  0.8264
  818MPD2    C212036   4.720   4.493  10.287 -0.0831 -0.1173  0.2884
  818MPD2    C312037   0.073   4.412  10.204 -0.0144 -0.3965  0.3431
  818MPD2    C412038   0.195   4.463  10.164  0.1904 -0.3432 -0.1573
  818MPD2    C512039   0.236   4.587  10.201 -0.1938  0.2097  0.5044
  818MPD2     H12040   4.623   4.458  10.320  0.0939  1.1047  2.0920
  818MPD2    H112041   0.251   4.395  10.101 -0.8838  0.5072 -2.0365
  818MPD2    H212042   0.198   0.038  10.310  0.9281  0.1479 -1.1341
  818MPD2    H312043   0.328   4.622  10.154  0.3148 -0.1450  1.2335
  818MPD2     N12044   0.027   4.287  10.160  0.1013  0.1137  0.2402
  818MPD2    H512045   0.092   4.230  10.107  1.7273  0.0454  2.2790
  818MPD2    N112046   4.680   4.682  10.413  0.1938  0.4074  0.3239
  818MPD2    H712047   4.600   4.631  10.448 -0.5395  1.0400 -0.4508
  819MPD2     C12048   1.979   1.242  15.568  0.7638 -0.0956 -0.0587
  819MPD2    C112049   1.966   1.370  15.619  0.4930 -0.5078 -0.3799
  819MPD2    C212050   2.076   1.420  15.685  0.1478  0.0501  0.2424
  819MPD2    C312051   2.197   1.349  15.694 -0.1564 -0.0866  0.9298
  819MPD2    C412052   2.199   1.225  15.640 -0.2298  0.3139  0.0593
  819MPD2    C512053   2.093   1.168  15.576  0.5721 -0.4059  0.0803
  819MPD2     H12054   2.061   1.511  15.742  1.0148 -0.5626  1.4220
  819MPD2    H112055   2.281   1.155  15.653  1.0441  1.1883 -3.2609
  819MPD2    H212056   1.889   1.194  15.531 -0.6879 -0.0733  3.4381
  819MPD2    H312057   2.102   1.067  15.537 -1.6273 -0.9478  1.0036
  819MPD2     N12058   2.301   1.401  15.772  0.5076 -0.8451  0.1113
  819MPD2    H512059   2.275   1.474  15.837 -2.0370  0.3935 -2.3281
  819MPD2    N112060   1.848   1.428  15.587 -0.5349  0.2816 -0.3013
  819MPD2    H712061   1.781   1.372  15.535  0.3240  1.4060 -2.6100
  820MPD2     C12062   1.462   2.319  15.266 -0.2884  0.4269 -0.6834
  820MPD2    C112063   1.389   2.215  15.207  0.3139  0.2936 -0.2482
  820MPD2    C212064   1.431   2.079  15.224 -0.4733  0.2629 -0.6542
  820MPD2    C312065   1.532   2.054  15.313 -0.3875 -0.8065 -0.3231
  820MPD2    C412066   1.610   2.161  15.355  0.2049  0.6912  0.0132
  820MPD2    C512067   1.585   2.291  15.321  0.8324 -0.6344  0.2674
  820MPD2     H12068   1.377   1.999  15.176 -1.4951 -1.1670  2.8571
  820MPD2    H112069   1.695   2.137  15.418 -0.8893  1.0575  1.6413
  820MPD2    H212070   1.450   2.426  15.249  0.5498  0.6371  0.0212
  820MPD2    H312071   1.638   2.379  15.356  0.3391 -0.8237  1.4909
  820MPD2     N12072   1.578   1.930  15.358  0.1031 -0.4942 -0.6136
  820MPD2    H512073   1.665   1.944  15.407 -0.3739 -0.3569  0.1877
  820MPD2    N112074   1.271   2.252  15.139  0.4739 -0.0721 -0.0317
  820MPD2    H712075   1.246   2.350  15.139  0.5442 -0.0549 -1.3428
  821MPD2     C12076   1.923   2.449  13.419 -0.8335  0.5235 -0.8130
  821MPD2    C112077   2.001   2.554  13.443  0.0689  0.0011  0.4195
  821MPD2    C212078   2.110   2.575  13.357  0.0934  0.2867  0.3015
  821MPD2    C312079   2.142   2.496  13.249  0.0048 -0.3785  0.5217
  821MPD2    C412080   2.050   2.397  13.225  0.2646 -0.8864 -0.2621
  821MPD2    C512081   1.945   2.370  13.303 -0.0283 -0.2989  0.5447
  821MPD2     H12082   2.178   2.656  13.378  0.1717 -0.2272  2.0366
  821MPD2    H112083   2.068   2.329  13.142  1.1061 -0.3775 -0.5000
  821MPD2    H212084   1.836   2.431  13.482 -0.3259 -0.0517 -0.2641
  821MPD2    H312085   1.884   2.284  13.279 -0.3947 -0.3165  1.5502
  821MPD2     N12086   2.268   2.514  13.194  0.4009 -0.2547 -0.6087
  821MPD2    H512087   2.323   2.582  13.245  0.6128 -1.1210  0.3155
  821MPD2    N112088   1.994   2.637  13.556 -0.1537  0.1181 -0.1736
  821MPD2    H712089   2.048   2.723  13.559 -2.0781  1.2861  1.3313
  822MPD2     C12090   2.615   2.625  15.754 -0.4021 -0.0286 -0.1686
  822MPD2    C112091   2.650   2.608  15.890 -0.1354 -0.2461  0.0271
  822MPD2    C212092   2.621   2.711  15.978  0.0600  0.0500  0.8504
  822MPD2    C312093   2.550   2.822  15.933  0.5605 -0.0560  0.5830
  822MPD2    C412094   2.523   2.839  15.796 -0.1462  0.0015  0.2131
  822MPD2    C512095   2.553   2.740  15.703 -0.4924 -0.2421 -0.2551
  822MPD2     H12096   2.640   2.693  16.083 -0.8274 -1.5315  0.7468
  822MPD2    H112097   2.459   2.919  15.761  0.9054  0.1152 -1.4494
  822MPD2    H212098   2.645   2.554  15.677 -2.6290 -0.9561 -0.1616
  822MPD2    H312099   2.530   2.747  15.597 -1.4543  0.8606  0.0297
  822MPD2     N12100   2.513   2.905  16.033  0.1192 -0.3167 -0.1739
  822MPD2    H512101   2.531   2.878  16.130 -0.5464 -0.6181 -0.1366
  822MPD2    N112102   2.724   2.500  15.932 -0.0061  0.8689 -0.2938
  822MPD2    H712103   2.776   2.511  16.018 -0.9246  0.2536  0.3390
  823MPD2     C12104   2.149   3.188  16.749 -0.2871  0.2821  0.6390
  823MPD2    C112105   2.208   3.095  16.673 -0.4695 -0.6452 -0.3189
  823MPD2    C212106   2.260   2.984  16.729  0.1173  0.4017 -0.3875
  823MPD2    C312107   2.263   2.964  16.870 -0.8664  1.9889 -0.3694
  823MPD2    C412108   2.191   3.062  16.947  0.1250  0.5932 -0.4338
  823MPD2    C512109   2.137   3.170  16.890  1.4114 -0.6471  0.6194
  823MPD2     H12110   2.319   2.921  16.663  1.9169 -0.2519  1.8357
  823MPD2    H112111   2.184   3.055  17.055  5.3977 -3.2522 -0.3365
  823MPD2    H212112   2.111   3.279  16.704 -0.4743 -0.9125 -1.6528
  823MPD2    H312113   2.087   3.248  16.945  1.7268  0.4517 -0.6540
  823MPD2     N12114   2.343   2.866  16.937 -0.0448  0.2852  0.1872
  823MPD2    H512115   2.351   2.869  17.038 -1.4086  0.6337  0.2909
  823MPD2    N112116   2.224   3.130  16.536 -0.0363 -0.6066 -0.6493
  823MPD2    H712117   2.213   3.227  16.506  1.2097  0.2933  1.8232
  824MPD2     C12118   2.986   1.667  16.007 -0.4095 -0.4478 -0.6195
  824MPD2    C112119   3.073   1.755  15.943 -0.1830 -0.6047  0.1368
  824MPD2    C212120   3.207   1.717  15.922 -0.2000  0.1753  0.4428
  824MPD2    C312121   3.246   1.590  15.951 -0.4726 -1.3296  0.1734
  824MPD2    C412122   3.161   1.500  16.010 -0.1360 -0.7624  0.1283
  824MPD2    C512123   3.033   1.540  16.039  0.0174  0.5852  0.0657
  824MPD2     H12124   3.280   1.781  15.873 -2.8297  2.6670 -0.2177
  824MPD2    H112125   3.184   1.394  16.017  0.1555 -0.6906  0.2842
  824MPD2    H212126   2.882   1.691  16.024 -0.8663 -0.5277 -3.2720
  824MPD2    H312127   2.965   1.469  16.084  2.0244  0.1813  2.4297
  824MPD2     N12128   3.371   1.557  15.911 -0.3855  0.0411 -0.2842
  824MPD2    H512129   3.415   1.628  15.852  1.5854 -1.0564 -0.1590
  824MPD2    N112130   3.054   1.896  15.946  0.7906  0.0374  0.0241
  824MPD2    H712131   3.128   1.964  15.933  1.5971 -0.7940  0.3005
  825MPD2     C12132   4.221   1.703  15.884  0.2499  0.8686 -0.0646
  825MPD2    C112133   4.085   1.736  15.862 -0.7127  0.2503  0.2370
  825MPD2    C212134   4.052   1.869  15.835  0.2902  0.0353 -0.4148
  825MPD2    C312135   4.150   1.969  15.847  0.0509  0.0224  0.0608
  825MPD2    C412136   4.279   1.932  15.880 -0.2472  0.1301  0.3884
  825MPD2    C512137   4.313   1.801  15.884 -0.1083  0.1220 -0.1033
  825MPD2     H12138   3.952   1.902  15.808  0.2670 -3.4939 -4.6624
  825MPD2    H112139   4.359   2.002  15.903  3.0297 -3.6195  0.4475
  825MPD2    H212140   4.253   1.600  15.870  0.3277  1.0401 -1.1029
  825MPD2    H312141   4.417   1.772  15.875 -0.6293 -1.2944 -1.6418
  825MPD2     N12142   4.123   2.106  15.833 -0.0179  0.6756  0.1328
  825MPD2    H512143   4.201   2.169  15.852  2.3486 -1.1281 -3.5522
  825MPD2    N112144   3.985   1.633  15.863  0.2896 -0.2474  0.0990
  825MPD2    H712145   4.019   1.540  15.884 -1.5162 -0.9046  0.1017
  826MPD2     C12146   3.750   1.827  13.901 -0.3516  0.0422 -0.6009
  826MPD2    C112147   3.701   1.843  13.769 -0.1330  1.2312  0.1777
  826MPD2    C212148   3.590   1.931  13.747  0.3405 -0.2957  0.7686
  826MPD2    C312149   3.540   2.006  13.855  0.0482 -0.0429  0.5360
  826MPD2    C412150   3.585   1.984  13.985 -0.4410 -0.5470 -0.0633
  826MPD2    C512151   3.690   1.894  14.008 -0.1203  0.2541 -0.2376
  826MPD2     H12152   3.553   1.937  13.646  1.4383 -0.9111  0.3282
  826MPD2    H112153   3.546   2.049  14.062 -0.9060  0.5256 -1.1998
  826MPD2    H212154   3.832   1.758  13.915 -1.3320 -1.3334 -1.4811
  826MPD2    H312155   3.718   1.876  14.111  2.3161 -0.1591 -0.9769
  826MPD2     N12156   3.438   2.099  13.842 -0.3762 -0.3204  0.2995
  826MPD2    H512157   3.407   2.141  13.929 -2.3644 -0.8629 -0.1584
  826MPD2    N112158   3.773   1.776  13.664 -0.5852 -0.2130  0.3035
  826MPD2    H712159   3.841   1.708  13.697  3.1418  2.3585 -2.0522
  827MPD2     C12160   4.685   3.535  10.087  0.1843  0.1330 -0.1311
  827MPD2    C112161   4.593   3.478  10.173  0.2685  0.1277  0.1223
  827MPD2    C212162   4.462   3.462  10.127  0.0787 -0.5646 -0.5652
  827MPD2    C312163   4.423   3.516  10.009  0.0587  0.0844  0.2683
  827MPD2    C412164   4.515   3.581   9.930  0.2001  0.0398 -0.6812
  827MPD2    C512165   4.644   3.589   9.971 -0.4325  1.2350 -0.1226
  827MPD2     H12166   4.388   3.408  10.185  1.9685  0.4353  2.7612
  827MPD2    H112167   4.487   3.623   9.835  1.9639  0.7895 -0.8759
  827MPD2    H212168   0.063   3.558  10.116 -0.3976 -0.3201  2.2881
  827MPD2    H312169   4.716   3.637   9.905 -0.4744  1.9751  0.3770
  827MPD2     N12170   4.282   3.505   9.978  0.4662  0.1901 -0.0835
  827MPD2    H512171   4.223   3.467  10.051  0.4219  0.6567  0.1263
  827MPD2    N112172   4.637   3.442  10.300  0.1920 -0.1589  0.3538
  827MPD2    H712173   0.010   3.452  10.328 -0.0439 -0.5313  1.3138
  828MPD2     C12174   3.206   2.908  12.576 -0.3580 -0.4714 -0.0869
  828MPD2    C112175   3.139   2.877  12.458  0.7412  0.0194  0.0936
  828MPD2    C212176   3.219   2.845  12.346  0.1304 -1.0390  0.2438
  828MPD2    C312177   3.356   2.842  12.346 -0.3363 -0.2801  0.5660
  828MPD2    C412178   3.415   2.868  12.474 -0.8501  1.0601  0.5011
  828MPD2    C512179   3.342   2.909  12.584  0.7710 -0.5056 -0.3588
  828MPD2     H12180   3.168   2.814  12.256 -2.6350 -1.4276  1.9632
  828MPD2    H112181   3.523   2.875  12.481 -0.8267  0.0558  1.1885
  828MPD2    H212182   3.156   2.926  12.671  0.6205 -1.4523  0.6030
  828MPD2    H312183   3.385   2.945  12.676 -1.7862  0.2879  0.5419
  828MPD2     N12184   3.447   2.806  12.242 -0.0710 -0.0873 -0.4432
  828MPD2    H512185   3.544   2.807  12.272  0.0145 -1.3163 -0.6831
  828MPD2    N112186   2.998   2.891  12.440 -0.4053  0.4099  0.5831
  828MPD2    H712187   2.961   2.873  12.347  3.0034 -2.3794 -0.2557
  829MPD2     C12188   2.422   3.448  11.993 -0.2212  0.0252 -0.6865
  829MPD2    C112189   2.344   3.403  12.094 -0.4203 -0.1409 -0.3230
  829MPD2    C212190   2.383   3.285  12.150  0.4665 -0.2277 -0.2077
  829MPD2    C312191   2.494   3.214  12.114  0.0253 -0.3039 -0.0426
  829MPD2    C412192   2.582   3.270  12.029 -0.0178 -0.4868 -1.2008
  829MPD2    C512193   2.537   3.380  11.956  0.2721 -0.1169  0.5763
  829MPD2     H12194   2.321   3.238  12.225  1.3227  0.1140  0.7025
  829MPD2    H112195   2.676   3.222  12.003  1.3710  0.9091  1.2487
  829MPD2    H212196   2.382   3.535  11.942  2.7273  1.2604 -0.8986
  829MPD2    H312197   2.609   3.426  11.890  1.9229 -1.6442  1.2847
  829MPD2     N12198   2.521   3.102  12.183  0.4107 -0.0487 -0.9056
  829MPD2    H512199   2.459   3.082  12.261 -1.2761  2.6016 -1.6026
  829MPD2    N112200   2.227   3.481  12.125  0.4016 -0.4025  0.0153
  829MPD2    H712201   2.210   3.566  12.071 -1.9029  0.2595  1.7914
  830MPD2     C12202   2.478   0.969  16.404  0.3120  0.1378  0.3407
  830MPD2    C112203   2.432   1.053  16.308  0.4140  0.0282 -0.1567
  830MPD2    C212204   2.403   1.010  16.179 -0.1768  0.3907 -0.8887
  830MPD2    C312205   2.444   0.879  16.149  0.1830  0.2758 -0.0409
  830MPD2    C412206   2.499   0.791  16.246 -0.0239  0.2076  0.6961
  830MPD2    C512207   2.509   0.843  16.372  0.2147 -0.7186  0.6844
  830MPD2     H12208   2.375   1.082  16.104 -2.7543 -1.1909 -1.4592
  830MPD2    H112209   2.533   0.691  16.221 -1.7421 -0.4933  1.2256
  830MPD2    H212210   2.497   1.005  16.505 -1.2149  1.6886  0.0688
  830MPD2    H312211   2.550   0.778  16.448  0.8925 -1.7790 -0.5885
  830MPD2     N12212   2.443   0.840  16.012  0.2274 -0.0148  0.2973
  830MPD2    H512213   2.483   0.752  15.982 -1.4535 -0.6349 -0.1097
  830MPD2    N112214   2.411   1.185  16.351  0.1324  0.0161 -0.1199
  830MPD2    H712215   2.403   1.191  16.452 -0.6457 -0.1727 -0.1682
  831MPD2     C12216   2.794   3.038  16.356  0.2213 -0.5461 -0.3559
  831MPD2    C112217   2.795   2.917  16.295 -0.3973 -0.3639  0.1552
  831MPD2    C212218   2.701   2.828  16.328  0.1237  0.8153  0.0145
  831MPD2    C312219   2.606   2.857  16.423  0.4682  0.0317 -0.4237
  831MPD2    C412220   2.615   2.978  16.491 -0.2123 -0.0971  0.0564
  831MPD2    C512221   2.703   3.074  16.457 -0.3309 -0.7723  0.3015
  831MPD2     H12222   2.688   2.739  16.268  4.3187  0.7563 -0.7934
  831MPD2    H112223   2.539   3.003  16.564  0.6737  2.4629  0.1103
  831MPD2    H212224   2.878   3.100  16.328  0.0689  0.0307  0.4609
  831MPD2    H312225   2.703   3.174  16.499 -0.8048 -0.2207 -1.0079
  831MPD2     N12226   2.506   2.757  16.456 -0.1518  0.5114  0.3667
  831MPD2    H512227   2.461   2.767  16.547 -0.2537 -2.6420  0.6458
  831MPD2    N112228   2.905   2.896  16.208  0.6194  0.1056  0.0434
  831MPD2    H712229   2.976   2.969  16.209 -1.3725  2.0260 -0.0948
  832MPD2     C12230   1.195   3.625  17.208 -0.7209  0.5247  0.7189
  832MPD2    C112231   1.170   3.757  17.192  0.6630  0.1362 -0.5176
  832MPD2    C212232   1.064   3.798  17.111 -0.6524  0.0081 -0.4298
  832MPD2    C312233   0.983   3.701  17.055 -0.0298 -0.3810  0.1630
  832MPD2    C412234   1.007   3.571  17.083 -0.4045  0.4452  0.7016
  832MPD2    C512235   1.119   3.527  17.151  0.0762  0.3019 -0.0187
  832MPD2     H12236   1.040   3.904  17.108 -0.2007  0.0862 -1.3109
  832MPD2    H112237   0.942   3.495  17.041  2.0164 -0.6903 -1.0106
  832MPD2    H212238   1.270   3.600  17.282  0.2499 -0.1875 -0.5115
  832MPD2    H312239   1.139   3.421  17.161  0.8779  0.2840 -1.6863
  832MPD2     N12240   0.869   3.724  16.974  0.6514 -0.2115 -0.1436
  832MPD2    H512241   0.826   3.642  16.934 -0.9348  1.0966 -1.1086
  832MPD2    N112242   1.245   3.843  17.266 -0.1309 -0.1366  0.1897
  832MPD2    H712243   1.309   3.801  17.332  0.2072 -0.1728 -0.1644
  833MPD2     C12244   3.382   0.546  12.125  0.1778  0.1089 -0.4608
  833MPD2    C112245   3.475   0.562  12.226  0.2217 -0.3877  0.0132
  833MPD2    C212246   3.596   0.613  12.195  0.0599  0.0068  0.4546
  833MPD2    C312247   3.637   0.643  12.063  0.8073 -0.0356  0.0493
  833MPD2    C412248   3.542   0.625  11.967  0.1019 -0.4193 -0.6124
  833MPD2    C512249   3.416   0.584  12.000  0.2003  0.7076  0.8085
  833MPD2     H12250   3.674   0.632  12.268 -0.9043 -0.5325  1.6058
  833MPD2    H112251   3.561   0.657  11.865 -1.2037  0.5311 -0.5530
  833MPD2    H212252   3.284   0.502  12.140 -0.2533  0.9481 -0.8170
  833MPD2    H312253   3.338   0.577  11.925  2.4732  0.1642 -1.5423
  833MPD2     N12254   3.768   0.683  12.029 -0.6150  0.4847  0.0356
  833MPD2    H512255   3.782   0.724  11.937 -1.5946  3.1568  1.0673
  833MPD2    N112256   3.430   0.555  12.359  0.5742  0.4536  0.2408
  833MPD2    H712257   3.340   0.511  12.375 -0.1577  1.7082 -0.4547
  834MPD2     C12258   3.978   1.077  11.288 -0.2087  0.3432 -0.5067
  834MPD2    C112259   3.902   0.974  11.334 -1.3172  0.1831 -0.4909
  834MPD2    C212260   3.922   0.924  11.461  0.5426  0.6200  0.1096
  834MPD2    C312261   4.000   0.997  11.552  0.2858 -0.6724 -0.8502
  834MPD2    C412262   4.064   1.112  11.509 -0.0793 -0.3303 -0.2530
  834MPD2    C512263   4.052   1.140  11.380 -0.7263 -0.0587  0.3126
  834MPD2     H12264   3.868   0.838  11.500  1.9900 -0.7301 -0.8612
  834MPD2    H112265   4.128   1.169  11.576  1.5129  0.0637 -2.1016
  834MPD2    H212266   3.972   1.118  11.188 -2.2807 -0.4062 -0.6854
  834MPD2    H312267   4.104   1.230  11.348  0.8491 -1.3550 -0.7586
  834MPD2     N12268   3.990   0.958  11.686 -0.2635  0.0398 -0.3043
  834MPD2    H512269   3.913   0.898  11.716 -0.1967 -0.5315 -1.2828
  834MPD2    N112270   3.825   0.912  11.234 -0.4782  0.6450 -0.3910
  834MPD2    H712271   3.829   0.965  11.148  0.7327  0.1442 -0.6398
  835MPD2     C12272   3.285   2.841  11.275 -0.3001  0.2853 -0.0150
  835MPD2    C112273   3.394   2.926  11.270 -0.2404 -0.1681  0.1450
  835MPD2    C212274   3.450   2.967  11.391  0.1889 -0.2150  0.1290
  835MPD2    C312275   3.389   2.921  11.514  0.4722  0.4943 -0.1504
  835MPD2    C412276   3.271   2.859  11.513  0.4598  0.3247  0.5245
  835MPD2    C512277   3.220   2.813  11.388  0.5501 -0.2959  0.2241
  835MPD2     H12278   3.535   3.034  11.404  0.3155  0.1369 -2.5157
  835MPD2    H112279   3.210   2.848  11.602 -0.9217 -2.0240 -0.7070
  835MPD2    H212280   3.237   2.813  11.182 -1.8859 -0.0564  0.9070
  835MPD2    H312281   3.129   2.754  11.386 -0.3137  1.0148  1.4686
  835MPD2     N12282   3.449   2.948  11.642  0.8603  0.6903  0.0581
  835MPD2    H512283   3.393   2.920  11.722 -0.7675 -0.5355 -1.5188
  835MPD2    N112284   3.458   2.956  11.145 -0.0733 -0.5199 -0.0735
  835MPD2    H712285   3.422   2.900  11.068 -1.7522 -0.0984  0.4187
  836MPD2     C12286   3.504   3.198  12.473 -0.0122  0.0511  0.0362
  836MPD2    C112287   3.433   3.187  12.356  0.6221 -0.4727  0.5138
  836MPD2    C212288   3.296   3.212  12.357  0.4379 -0.0835 -0.3796
  836MPD2    C312289   3.243   3.267  12.471  0.5167 -0.0852 -0.7813
  836MPD2    C412290   3.318   3.282  12.582  0.0261  0.6663  0.4909
  836MPD2    C512291   3.444   3.234  12.585 -0.0087 -0.5553 -0.1855
  836MPD2     H12292   3.235   3.230  12.269 -1.2292 -0.4236  0.7182
  836MPD2    H112293   3.282   3.331  12.672 -2.2741 -1.2352  0.5980
  836MPD2    H212294   3.609   3.172  12.479 -0.1303 -0.4877 -0.2957
  836MPD2    H312295   3.496   3.245  12.680  0.8785 -0.0587 -0.7291
  836MPD2     N12296   3.109   3.293  12.495 -0.0186 -0.2999  0.3392
  836MPD2    H512297   3.099   3.296  12.596 -0.3980  1.4764  0.2454
  836MPD2    N112298   3.506   3.166  12.234  0.0825  0.5478  0.0392
  836MPD2    H712299   3.608   3.166  12.233  0.0722  1.2998 -0.6077
  837MPD2     C12300   1.970   3.370  10.219 -0.2555 -0.3229  0.1597
  837MPD2    C112301   1.845   3.366  10.273 -0.2096 -1.8487 -1.1634
  837MPD2    C212302   1.774   3.478  10.299 -1.1212  0.0939 -0.7014
  837MPD2    C312303   1.828   3.604  10.276  0.3962  0.3462 -0.2081
  837MPD2    C412304   1.955   3.610  10.230  0.6412 -0.3982 -0.3173
  837MPD2    C512305   2.015   3.494  10.188 -0.9752  0.6198 -0.2650
  837MPD2     H12306   1.668   3.476  10.322 -0.6198 -0.6288  1.5643
  837MPD2    H112307   1.993   3.699  10.180 -0.8019  0.6083  0.3686
  837MPD2    H212308   2.025   3.280  10.195  0.3614 -0.6041  2.7200
  837MPD2    H312309   2.107   3.509  10.132 -0.2506 -0.8401  0.5146
  837MPD2     N12310   1.754   3.719  10.296 -0.2894  0.4144 -0.0888
  837MPD2    H512311   1.660   3.705  10.331 -0.8236  0.0350 -1.6751
  837MPD2    N112312   1.771   3.246  10.281 -0.1244 -0.6135  0.1096
  837MPD2    H712313   1.684   3.252  10.332  0.6831  0.3895  1.3753
  838MPD2     C12314   0.529   1.972  11.894 -0.2792 -0.4941  0.3560
  838MPD2    C112315   0.520   1.837  11.897  1.1950 -0.7834  0.1113
  838MPD2    C212316   0.481   1.770  12.012 -0.0115  0.6969 -0.0949
  838MPD2    C312317   0.449   1.845  12.127  0.0400  0.0640  0.0983
  838MPD2    C412318   0.471   1.982  12.123  0.0960  0.0494 -0.2208
  838MPD2    C512319   0.513   2.045  12.009  0.3784  0.3941 -0.3735
  838MPD2     H12320   0.464   1.663  12.004 -0.2716  0.5929  1.8884
  838MPD2    H112321   0.444   2.048  12.204 -0.7676 -1.3911  0.6581
  838MPD2    H212322   0.552   2.025  11.802 -0.9211  2.3433  1.8334
  838MPD2    H312323   0.534   2.152  12.014  0.7902  0.2563  0.8586
  838MPD2     N12324   0.393   1.784  12.238  0.4089  0.0463 -0.2840
  838MPD2    H512325   0.394   1.683  12.244  0.2460 -0.1092 -2.7363
  838MPD2    N112326   0.516   1.760  11.784 -0.3390 -0.0383  0.0633
  838MPD2    H712327   0.510   1.659  11.794  0.5059 -0.1860 -0.9567
  839MPD2     C12328   4.548   1.432  11.542 -0.0677 -0.1889  0.7198
  839MPD2    C112329   4.619   1.334  11.471  0.1714  0.1895  0.6842
  839MPD2    C212330   0.027   1.367  11.443  0.3636 -0.4891  0.8111
  839MPD2    C312331   0.091   1.489  11.491 -0.2139 -1.1973 -0.4477
  839MPD2    C412332   0.011   1.585  11.555 -0.1885 -0.6512  0.0635
  839MPD2    C512333   4.604   1.556  11.579  0.1839 -0.3837 -0.0558
  839MPD2     H12334   0.087   1.293  11.391 -0.6617  0.6983 -2.0984
  839MPD2    H112335   0.047   1.679  11.596  0.6655 -0.1302 -1.8635
  839MPD2    H212336   4.449   1.411  11.579 -0.6843  1.6010  0.0551
  839MPD2    H312337   4.534   1.621  11.630  0.6171  0.4277 -0.5014
  839MPD2     N12338   0.228   1.530  11.473  0.3888  0.3402 -0.2836
  839MPD2    H512339   0.253   1.623  11.503 -1.4770  0.1415  1.8274
  839MPD2    N112340   4.561   1.212  11.431 -0.8790 -0.7671  0.3431
  839MPD2    H712341   4.618   1.146  11.380 -1.2074 -2.3454  1.9851
  840MPD2     C12342   0.461   3.568  10.486 -0.4191  0.0182 -0.1510
  840MPD2    C112343   0.394   3.556  10.603 -0.1856 -0.2826  0.3329
  840MPD2    C212344   0.438   3.612  10.719  0.0812  0.1661 -0.6764
  840MPD2    C312345   0.541   3.699  10.716 -0.0459 -0.0770  0.8142
  840MPD2    C412346   0.609   3.721  10.594 -0.1196 -0.3782  0.8241
  840MPD2    C512347   0.563   3.658  10.479  0.1481  0.5005 -0.6149
  840MPD2     H12348   0.382   3.608  10.811  2.3990 -0.6740  0.6894
  840MPD2    H112349   0.707   3.767  10.595 -0.9670  1.4009  0.7374
  840MPD2    H212350   0.426   3.510  10.401 -1.3197  2.9091 -1.7671
  840MPD2    H312351   0.624   3.660  10.390 -0.0372  1.1402 -0.7280
  840MPD2     N12352   0.589   3.760  10.830 -0.2879 -0.2338  0.3098
  840MPD2    H512353   0.668   3.822  10.823 -0.8304  0.4714  0.5087
  840MPD2    N112354   0.285   3.471  10.589 -0.2904  0.0321  0.1894
  840MPD2    H712355   0.257   3.439  10.497  0.3466  2.7753 -0.9690
  841MPD2     C12356   4.327   3.366  15.116 -0.4689  0.2907  0.0391
  841MPD2    C112357   4.306   3.365  14.979  0.0969 -0.3142  0.3259
  841MPD2    C212358   4.326   3.484  14.915  0.1078 -0.3085  0.4190
  841MPD2    C312359   4.358   3.598  14.978  0.1877 -0.3407 -0.0057
  841MPD2    C412360   4.366   3.607  15.115  0.0065  0.3443 -0.4567
  841MPD2    C512361   4.350   3.488  15.181  0.0579 -0.3788 -0.4905
  841MPD2     H12362   4.319   3.480  14.807  0.6644 -0.1078  0.3747
  841MPD2    H112363   4.399   3.689  15.178  0.6261  1.0162 -1.6585
  841MPD2    H212364   4.326   3.277  15.177 -0.9645 -0.6859 -1.3799
  841MPD2    H312365   4.351   3.492  15.289  0.1583  0.5404 -0.5295
  841MPD2     N12366   4.382   3.705  14.891  0.2761 -0.1972  0.3596
  841MPD2    H512367   4.372   3.682  14.793 -1.9929 -2.6082  1.1380
  841MPD2    N112368   4.280   3.250  14.896 -0.1162 -0.3867 -0.0344
  841MPD2    H712369   4.282   3.265  14.796  1.3277  0.8501  0.1902
  842MPD2     C12370   0.532   4.240  16.653 -0.4298 -0.2781  0.4479
  842MPD2    C112371   0.436   4.170  16.713 -0.0947 -0.2788  0.3247
  842MPD2    C212372   0.453   4.134  16.845  0.5422 -0.7287 -0.4351
  842MPD2    C312373   0.553   4.168  16.916 -0.7624  0.3547 -0.3106
  842MPD2    C412374   0.655   4.236  16.854  0.0496  0.3933 -0.1352
  842MPD2    C512375   0.645   4.271  16.723 -0.1596 -0.4100  0.2178
  842MPD2     H12376   0.368   4.095  16.901  0.6524  0.2410  0.3927
  842MPD2    H112377   0.744   4.254  16.913 -0.2569  0.2914  0.3592
  842MPD2    H212378   0.529   4.273  16.550  1.1085  0.7673  0.7288
  842MPD2    H312379   0.729   4.321  16.676  0.1090 -1.7828 -0.7666
  842MPD2     N12380   0.566   4.134  17.054 -0.7019 -0.1702  0.2976
  842MPD2    H512381   0.630   4.197  17.104  0.4675 -1.9439  1.0443
  842MPD2    N112382   0.321   4.148  16.642 -0.2624  0.0897 -0.1568
  842MPD2    H712383   0.317   4.196  16.552 -0.8259 -1.5238 -1.0037
  843MPD2     C12384   2.265   0.137  17.539  0.6332  0.0451 -0.7155
  843MPD2    C112385   2.355   0.052  17.597 -0.2868  0.3291  0.5532
  843MPD2    C212386   2.487   0.085  17.606  0.2271  0.3883  0.1737
  843MPD2    C312387   2.519   0.211  17.548  0.8318 -0.3675 -0.1560
  843MPD2    C412388   2.426   0.297  17.496 -0.7346  0.7229  0.4672
  843MPD2    C512389   2.298   0.255  17.486 -0.1260 -0.2295  0.2197
  843MPD2     H12390   2.557   0.030  17.668  0.1417  0.8981  0.7197
  843MPD2    H112391   2.464   0.387  17.448  0.2181  0.2002  0.2507
  843MPD2    H212392   2.160   0.112  17.530  0.5794 -1.2651  3.6164
  843MPD2    H312393   2.221   0.318  17.442  0.7449  0.8424  0.2134
  843MPD2     N12394   2.649   0.266  17.557  0.0383 -0.3365 -0.1780
  843MPD2    H512395   2.663   0.362  17.526  1.8271 -0.4343  0.3372
  843MPD2    N112396   2.299   4.669  17.654 -0.2259 -0.3214 -0.1638
  843MPD2    H712397   2.200   4.656  17.636 -0.5081 -1.0186  1.8735
  844MPD2     C12398   0.877   3.605  16.325 -0.0200 -0.3258  0.2626
  844MPD2    C112399   0.952   3.505  16.382 -0.4615 -0.3835 -0.2836
  844MPD2    C212400   1.004   3.530  16.508  0.3458 -0.5455  0.2297
  844MPD2    C312401   1.000   3.658  16.567  0.0241  0.0205 -0.2965
  844MPD2    C412402   0.931   3.756  16.500 -0.4067  0.4608  0.4666
  844MPD2    C512403   0.861   3.725  16.387  0.0419 -0.0206  0.1300
  844MPD2     H12404   1.057   3.447  16.554  0.4330  1.1044  3.1503
  844MPD2    H112405   0.920   3.858  16.536 -1.6623  1.4343 -2.6424
  844MPD2    H212406   0.828   3.591  16.229 -1.6242 -0.6568  1.1300
  844MPD2    H312407   0.803   3.804  16.340 -0.0876 -0.0980  0.1590
  844MPD2     N12408   1.088   3.695  16.673 -0.5149  0.1429  0.0999
  844MPD2    H512409   1.149   3.623  16.708 -0.2252  0.8282  0.9965
  844MPD2    N112410   0.983   3.381  16.312 -0.0417 -0.0399 -1.2190
  844MPD2    H712411   1.000   3.300  16.369 -1.7490 -1.3995 -2.6345
  845MPD2     C12412   1.456   4.596  17.054 -0.4275 -0.1509  0.1315
  845MPD2    C112413   1.343   4.535  17.102  0.4302  0.0161  0.0446
  845MPD2    C212414   1.313   4.410  17.054 -1.2835  0.3469  0.6925
  845MPD2    C312415   1.397   4.340  16.971  0.5281  0.7602 -0.5101
  845MPD2    C412416   1.511   4.401  16.925 -0.2060  0.2188 -0.6779
  845MPD2    C512417   1.533   4.529  16.961 -0.3817 -0.0103 -0.2298
  845MPD2     H12418   1.218   4.369  17.087 -1.9000  0.5218 -0.8409
  845MPD2    H112419   1.577   4.348  16.858 -0.4764 -0.2057 -0.6085
  845MPD2    H212420   1.481   4.700  17.070 -1.9400  0.2812 -0.2839
  845MPD2    H312421   1.612   4.583  16.911 -1.6065 -0.6849 -2.8818
  845MPD2     N12422   1.368   4.202  16.948 -0.9452  0.4440  0.5909
  845MPD2    H512423   1.278   4.164  16.977 -1.8086  0.2233 -2.3870
  845MPD2    N112424   1.272   4.607  17.207  0.4167 -0.4793  0.0478
  845MPD2    H712425   1.321   4.694  17.224 -2.1012  1.4309 -2.3907
  846MPD2     C12426   2.559   0.100  13.535 -0.3655  0.3333 -0.3021
  846MPD2    C112427   2.536   0.220  13.591  0.6048 -0.3187 -0.3189
  846MPD2    C212428   2.522   0.232  13.730 -0.3056  0.2542 -0.1402
  846MPD2    C312429   2.533   0.119  13.809 -0.3667 -0.5250 -0.4263
  846MPD2    C412430   2.575   0.001  13.749 -0.3880 -0.9680 -0.2228
  846MPD2    C512431   2.574   4.717  13.614 -0.7153 -0.8597  0.0333
  846MPD2     H12432   2.491   0.325  13.775  0.2488  0.2893  0.1688
  846MPD2    H112433   2.605   4.639  13.808 -0.9971 -1.2849 -0.3804
  846MPD2    H212434   2.562   0.076  13.429  1.0678  0.4936 -0.2957
  846MPD2    H312435   2.597   4.620  13.571  1.7648 -0.9224  1.5396
  846MPD2     N12436   2.508   0.135  13.946 -0.7971 -0.1024  0.7379
  846MPD2    H512437   2.461   0.219  13.978  1.8198  1.0910  1.5009
  846MPD2    N112438   2.530   0.342  13.515 -0.2681 -0.1153 -0.2500
  846MPD2    H712439   2.519   0.426  13.571 -0.3881  1.8507 -3.2035
  847MPD2     C12440   2.838   0.986  14.331  0.6954  0.0657  0.4434
  847MPD2    C112441   2.908   1.040  14.433 -0.2852  0.5700  0.9137
  847MPD2    C212442   2.930   0.967  14.546  0.3324 -0.2106 -0.4623
  847MPD2    C312443   2.890   0.836  14.551 -0.5940  0.2990 -0.5518
  847MPD2    C412444   2.831   0.777  14.444 -0.1157 -0.6701 -0.1876
  847MPD2    C512445   2.815   0.851  14.332  0.4531 -0.2315 -0.5079
  847MPD2     H12446   2.981   1.005  14.634  0.3690 -0.1500 -0.5095
  847MPD2    H112447   2.802   0.673  14.442  0.7700 -0.8882 -1.4654
  847MPD2    H212448   2.810   1.039  14.240  0.2133  2.5802  2.0538
  847MPD2    H312449   2.766   0.802  14.249 -0.6444  0.6483 -0.3849
  847MPD2     N12450   2.926   0.774  14.677 -0.2863  0.3545 -0.7887
  847MPD2    H512451   2.979   0.831  14.742 -0.5840  0.4344 -0.6118
  847MPD2    N112452   2.953   1.170  14.428 -0.5500 -0.8231 -0.3688
  847MPD2    H712453   2.982   1.205  14.519 -0.0171 -0.3977 -0.6999
  848MPD2     C12454   0.670   4.049  16.241 -0.1544 -0.0680  0.6258
  848MPD2    C112455   0.705   4.101  16.362  0.0893  0.2780 -0.3020
  848MPD2    C212456   0.759   4.224  16.368  0.2801  0.0021 -0.6454
  848MPD2    C312457   0.765   4.306  16.260 -0.4915 -0.2948 -0.4436
  848MPD2    C412458   0.734   4.258  16.134  0.1503  0.3566  0.1278
  848MPD2    C512459   0.688   4.128  16.125  0.2594  0.3475  0.2963
  848MPD2     H12460   0.777   4.262  16.468  0.5622  0.0233 -0.7027
  848MPD2    H112461   0.736   4.325  16.049 -1.7133 -0.3025 -0.4508
  848MPD2    H212462   0.628   3.949  16.234  0.7830 -0.3796 -0.5068
  848MPD2    H312463   0.666   4.075  16.033 -3.2933  1.5089  0.4776
  848MPD2     N12464   0.795   4.441  16.268 -0.5644  0.2274 -0.4024
  848MPD2    H512465   0.801   4.484  16.176  1.3650  0.5872 -0.1130
  848MPD2    N112466   0.694   4.034  16.483 -0.4988 -0.2244 -0.3670
  848MPD2    H712467   0.746   4.078  16.558  0.2150  0.9735 -1.5499
  849MPD2     C12468   4.450   3.550  14.059 -0.0261 -0.3326  0.5942
  849MPD2    C112469   4.497   3.681  14.060 -0.2897 -0.1046 -0.0977
  849MPD2    C212470   4.618   3.704  14.125  0.7999 -0.5397  0.2323
  849MPD2    C312471   4.687   3.602  14.189  0.1334  0.5444  0.4757
  849MPD2    C412472   4.647   3.473  14.176 -0.5386  0.6478 -0.1181
  849MPD2    C512473   4.528   3.447  14.112  0.3754  0.1259 -0.2329
  849MPD2     H12474   4.676   3.795  14.114  1.6040 -1.2571 -1.4995
  849MPD2    H112475   4.701   3.382  14.202  0.4688  1.4372  0.5323
  849MPD2    H212476   4.361   3.526  14.002 -0.0212  2.4080 -0.5615
  849MPD2    H312477   4.479   3.350  14.102 -2.9699  1.5904  1.7044
  849MPD2     N12478   0.089   3.622  14.254  0.0820  0.3444  0.2297
  849MPD2    H512479   0.154   3.546  14.267  1.4226  1.7532  1.6245
  849MPD2    N112480   4.434   3.776  13.970  0.3880 -0.5162  0.3772
  849MPD2    H712481   4.361   3.749  13.905 -0.6680 -0.2894  1.4689
  850MPD2     C12482   2.921   2.001  14.720  0.1789  0.7420 -0.1678
  850MPD2    C112483   2.992   1.919  14.802  0.3101  0.8579 -0.0189
  850MPD2    C212484   3.102   1.963  14.870 -0.3253  0.2355 -0.4450
  850MPD2    C312485   3.136   2.097  14.855  0.0106  0.3769 -0.2150
  850MPD2    C412486   3.062   2.182  14.779  0.5859  0.0820 -0.4418
  850MPD2    C512487   2.953   2.137  14.712  0.2146 -0.0816  0.4908
  850MPD2     H12488   3.168   1.897  14.925 -0.1035  1.5431  0.8485
  850MPD2    H112489   3.090   2.287  14.769 -1.1082  0.3485 -2.4212
  850MPD2    H212490   2.834   1.960  14.670  0.5923  0.9234 -1.0444
  850MPD2    H312491   2.897   2.216  14.663 -0.6983 -1.1487 -0.1912
  850MPD2     N12492   3.253   2.151  14.910  0.1996 -1.1084 -0.6046
  850MPD2    H512493   3.285   2.242  14.880 -2.0807  0.6495  2.3733
  850MPD2    N112494   2.940   1.788  14.813 -0.0686  0.2834 -0.2075
  850MPD2    H712495   2.864   1.764  14.750  1.4687 -1.1088 -1.5168
  851MPD2     C12496   3.085   1.240  15.383 -0.0821  0.0761 -0.4989
  851MPD2    C112497   2.969   1.219  15.310 -0.0975  0.2144 -0.2139
  851MPD2    C212498   2.875   1.133  15.363 -0.1968 -0.3545  0.0277
  851MPD2    C312499   2.902   1.055  15.474 -0.3983  0.0314  0.2239
  851MPD2    C412500   3.022   1.074  15.537 -0.0054  0.1467  0.9229
  851MPD2    C512501   3.110   1.161  15.487  0.3755 -0.5846  0.6409
  851MPD2     H12502   2.781   1.120  15.311  0.3535 -0.7746 -0.8741
  851MPD2    H112503   3.041   1.015  15.627 -1.2718 -1.9638 -0.1891
  851MPD2    H212504   3.170   1.303  15.361  1.9231 -1.7828  1.8504
  851MPD2    H312505   3.201   1.165  15.546 -0.5909 -1.9686  2.2432
  851MPD2     N12506   2.808   0.964  15.524  0.0933 -0.0674 -0.7524
  851MPD2    H512507   2.719   0.959  15.475 -0.3438 -0.5908  0.0970
  851MPD2    N112508   2.943   1.298  15.193 -0.6737  0.8298 -0.1311
  851MPD2    H712509   3.003   1.379  15.179 -1.6050  1.3274 -1.2788
  852MPD2     C12510   2.339   0.247  10.030 -0.1122  0.6156  0.1060
  852MPD2    C112511   2.427   0.232  10.137 -0.7179 -0.1378  0.2886
  852MPD2    C212512   2.555   0.286  10.122  0.3675  0.2644  0.3838
  852MPD2    C312513   2.590   0.363  10.011  0.2778 -0.4161  0.0949
  852MPD2    C412514   2.500   0.371   9.911  0.5550 -0.3916 -0.8544
  852MPD2    C512515   2.379   0.310   9.920  0.0367  0.2573  0.3428
  852MPD2     H12516   2.631   0.281  10.199 -0.7533  2.9191  1.6743
  852MPD2    H112517   2.519   0.423   9.817  1.7376 -0.4139 -0.6272
  852MPD2    H212518   2.240   0.202  10.030 -0.3698  1.1803  1.0005
  852MPD2    H312519   2.323   0.306   9.827  3.5752 -1.4521 -1.6967
  852MPD2     N12520   2.717   0.422  10.012  0.1861  0.2412 -0.3518
  852MPD2    H512521   2.776   0.414  10.095  0.0629  0.2384 -0.2644
  852MPD2    N112522   2.394   0.162  10.254  0.6660 -0.3421 -0.2252
  852MPD2    H712523   2.473   0.151  10.317  2.0756 -0.0594 -1.9547
  853MPD2     C12524   0.028   0.010  12.338 -0.4636  0.0044 -0.2311
  853MPD2    C112525   4.707   0.138  12.317  0.3441  0.0277  0.4446
  853MPD2    C212526   4.684   0.180  12.184  0.4738 -0.6929  0.2792
  853MPD2    C312527   4.705   0.090  12.084  0.6012  0.5023  0.2450
  853MPD2    C412528   0.027   4.686  12.111  0.2241  0.5894 -0.6541
  853MPD2    C512529   0.051   4.646  12.238  0.1035  0.7313  0.4009
  853MPD2     H12530   4.646   0.280  12.168 -0.0297 -1.3838 -2.7912
  853MPD2    H112531   0.053   4.617  12.032 -1.1654 -1.5465  0.7374
  853MPD2    H212532   0.069   4.706  12.434 -0.7790 -1.6799 -0.6000
  853MPD2    H312533   0.102   4.551  12.251 -0.7725  0.4576  1.7474
  853MPD2     N12534   4.683   0.114  11.947 -0.1545 -0.6349  0.4148
  853MPD2    H512535   4.709   0.039  11.885 -1.8713 -0.3897 -0.6131
  853MPD2    N112536   4.695   0.210  12.436 -0.1689 -0.4200 -0.0568
  853MPD2    H712537   4.720   0.167  12.524 -0.1018  1.1230  0.6721
  854MPD2     C12538   1.496   0.192  12.809  0.1461  0.8368  0.2408
  854MPD2    C112539   1.606   0.258  12.854  0.3401 -0.3392 -0.5461
  854MPD2    C212540   1.710   0.180  12.904 -0.2966  0.8941 -0.9194
  854MPD2    C312541   1.702   0.042  12.900  0.3679 -1.2095 -0.6978
  854MPD2    C412542   1.586   4.703  12.862 -0.1143  0.4019  0.6792
  854MPD2    C512543   1.483   0.057  12.807 -0.1217 -0.0322 -0.1602
  854MPD2     H12544   1.790   0.241  12.945 -1.3428  0.8596  1.2107
  854MPD2    H112545   1.570   4.596  12.860  1.8023  0.1052  1.0391
  854MPD2    H212546   1.424   0.250  12.752 -2.5666 -0.9326  1.8922
  854MPD2    H312547   1.395   0.017  12.758 -1.1496  1.1289  0.7499
  854MPD2     N12548   1.801   4.685  12.952 -0.4304 -0.5193  0.0200
  854MPD2    H512549   1.794   4.586  12.927  2.4468 -1.1855  1.7881
  854MPD2    N112550   1.601   0.399  12.840  0.7818  0.7670  0.3634
  854MPD2    H712551   1.511   0.438  12.816 -0.4687 -1.0173  2.1798
  855MPD2     C12552   1.798   4.540  13.909  0.0255  0.3146 -0.3020
  855MPD2    C112553   1.911   4.471  13.874  0.3652  0.4530 -0.0268
  855MPD2    C212554   1.952   4.475  13.743  0.7974 -0.2689 -0.4089
  855MPD2    C312555   1.883   4.554  13.654 -0.0310 -0.4071  0.1959
  855MPD2    C412556   1.774   4.620  13.684  0.0498 -0.2594  0.2877
  855MPD2    C512557   1.730   4.612  13.807  0.1264  0.3320 -0.0865
  855MPD2     H12558   2.033   4.411  13.710  2.0917  1.1666  0.0261
  855MPD2    H112559   1.701   4.665  13.618 -0.3784  2.0049  2.3019
  855MPD2    H212560   1.760   4.544  14.011 -0.5585 -1.8773 -0.4494
  855MPD2    H312561   1.643   4.672  13.832 -0.2748 -0.5699  0.7071
  855MPD2     N12562   1.916   4.559  13.516 -0.0116 -0.5638  0.2786
  855MPD2    H512563   1.858   4.626  13.466  1.1756 -0.6738 -1.2456
  855MPD2    N112564   1.982   4.393  13.962 -0.1786  0.0193 -0.1127
  855MPD2    H712565   2.069   4.354  13.927  0.9706  1.3882  1.1922
  856MPD2     C12566   3.648   0.379  14.351  0.1440  0.1743  0.4792
  856MPD2    C112567   3.667   0.509  14.299  0.5371 -0.2576 -0.4938
  856MPD2    C212568   3.561   0.574  14.238  0.1206 -0.1556  0.2780
  856MPD2    C312569   3.431   0.533  14.259 -0.1730  0.5127  0.0510
  856MPD2    C412570   3.409   0.419  14.337 -0.0140  0.2072 -0.4411
  856MPD2    C512571   3.518   0.346  14.380  0.2214  0.0942 -0.0667
  856MPD2     H12572   3.567   0.676  14.201 -0.8027 -1.2933 -2.9923
  856MPD2    H112573   3.310   0.387  14.370 -0.4307  3.6072  1.5817
  856MPD2    H212574   3.733   0.321  14.387 -0.5987  0.1128  2.1177
  856MPD2    H312575   3.503   0.258  14.442  0.6160 -1.3326 -1.9981
  856MPD2     N12576   3.316   0.610  14.213  0.2523  0.5982 -0.2358
  856MPD2    H512577   3.231   0.598  14.268  0.2786  2.2087  0.1442
  856MPD2    N112578   3.794   0.577  14.297 -0.1249  0.1823 -0.2857
  856MPD2    H712579   3.799   0.672  14.260  1.7333  0.4722  0.7090
  857MPD2     C12580   0.769   2.835  13.459 -0.1937 -0.5803  0.1952
  857MPD2    C112581   0.812   2.895  13.346  0.3047  0.1377 -0.4503
  857MPD2    C212582   0.858   3.026  13.350  0.3334  0.8931  0.0350
  857MPD2    C312583   0.882   3.083  13.473 -0.2447  0.6611  0.7653
  857MPD2    C412584   0.831   3.023  13.581 -0.7198 -0.1238  0.4760
  857MPD2    C512585   0.768   2.904  13.574 -0.0853  0.6208 -0.3494
  857MPD2     H12586   0.894   3.079  13.263 -2.0709  3.1329  0.4090
  857MPD2    H112587   0.844   3.063  13.681  0.6919  1.2693 -0.2688
  857MPD2    H212588   0.725   2.736  13.462  1.8354 -1.4783  0.3883
  857MPD2    H312589   0.715   2.865  13.660  0.0852  0.2742 -0.3997
  857MPD2     N12590   0.939   3.206  13.494  0.3742  0.1336 -0.1144
  857MPD2    H512591   0.951   3.238  13.590 -0.7934 -0.8106  0.3512
  857MPD2    N112592   0.809   2.817  13.230  0.1650 -0.2688  0.2667
  857MPD2    H712593   0.765   2.726  13.242 -3.6325  1.3766 -1.3621
  858MPD2     C12594   0.857   1.950  16.941  0.4254  0.2391  0.5333
  858MPD2    C112595   0.980   1.882  16.971 -0.1722 -0.1770  0.1258
  858MPD2    C212596   1.039   1.912  17.093 -0.1265 -1.2411 -0.4494
  858MPD2    C312597   0.983   2.007  17.180 -0.5821  0.2377  0.1942
  858MPD2    C412598   0.860   2.061  17.155 -0.2809 -0.2860  0.1402
  858MPD2    C512599   0.799   2.024  17.038 -0.1935  0.1849  0.6183
  858MPD2     H12600   1.132   1.862  17.119 -0.6711 -2.6005 -1.1083
  858MPD2    H112601   0.813   2.122  17.231  0.0047 -1.1723  1.0247
  858MPD2    H212602   0.806   1.943  16.846  0.0801  0.7008  0.6836
  858MPD2    H312603   0.704   2.075  17.020  0.1184  0.3299 -0.5947
  858MPD2     N12604   1.039   2.029  17.310  0.3962  0.2469 -0.8686
  858MPD2    H512605   0.974   2.073  17.375 -1.6138 -0.4115 -2.4424
  858MPD2    N112606   1.034   1.807  16.865 -0.1467  0.1199 -0.5535
  858MPD2    H712607   0.973   1.804  16.783  1.6999 -2.7756 -1.8400
  859MPD2     C12608   4.589   3.649  15.659  0.1610 -0.1046  0.2134
  859MPD2    C112609   4.654   3.677  15.538  0.0708  0.2364  0.1888
  859MPD2    C212610   4.676   3.577  15.447 -0.2562  0.2375  0.3589
  859MPD2    C312611   4.631   3.451  15.482  0.0898  0.1375  0.5419
  859MPD2    C412612   4.554   3.421  15.592  0.0214  0.0262 -0.1986
  859MPD2    C512613   4.541   3.522  15.680 -0.6550  0.0629  0.7793
  859MPD2     H12614   0.002   3.594  15.352  1.8322  0.4798  1.5076
  859MPD2    H112615   4.517   3.323  15.623 -1.6686  0.6010 -0.3848
  859MPD2    H212616   4.568   3.732  15.725 -0.9809 -0.9553  0.9058
  859MPD2    H312617   4.491   3.502  15.774 -1.3226 -0.2611  0.3518
  859MPD2     N12618   4.647   3.348  15.386  0.4004  0.3278 -0.0614
  859MPD2    H512619   4.599   3.262  15.412  2.5202 -1.1018 -0.8950
  859MPD2    N112620   4.676   3.819  15.515  0.0442 -0.0156  0.1941
  859MPD2    H712621   4.692   3.889  15.586 -1.7658 -0.7303  1.3029
  860MPD2     C12622   2.533   4.157  11.497  0.7403 -0.1006 -0.1306
  860MPD2    C112623   2.513   4.282  11.547  0.3453  0.0981  0.2179
  860MPD2    C212624   2.421   4.296  11.643  0.5384  0.2449 -0.4277
  860MPD2    C312625   2.344   4.194  11.700  0.7485  0.5451  0.0546
  860MPD2    C412626   2.360   4.070  11.647  0.0029  0.3797  0.0884
  860MPD2    C512627   2.441   4.063  11.542  0.1145 -0.2207  0.0368
  860MPD2     H12628   2.418   4.394  11.689  1.1424 -1.5746  3.4389
  860MPD2    H112629   2.306   3.982  11.679  1.5684 -0.3019  0.8218
  860MPD2    H212630   2.600   4.135  11.415  0.1109 -2.0657 -0.1202
  860MPD2    H312631   2.453   3.965  11.498 -1.9486 -1.1299  1.4721
  860MPD2     N12632   2.270   4.223  11.815 -0.8950 -0.1821 -0.4169
  860MPD2    H512633   2.275   4.317  11.852  0.2106 -0.1474 -0.6641
  860MPD2    N112634   2.581   4.403  11.510 -0.6016 -0.3592  0.0131
  860MPD2    H712635   2.559   4.489  11.558  2.3186  0.6904 -0.5101
  861MPD2     C12636   1.328   2.770  11.243  0.4651 -0.5358  0.8366
  861MPD2    C112637   1.327   2.869  11.337 -0.1468  0.2650 -0.0651
  861MPD2    C212638   1.290   2.991  11.300  0.0687  0.7255  0.3200
  861MPD2    C312639   1.230   3.008  11.175 -0.2039  0.1388  0.0007
  861MPD2    C412640   1.226   2.902  11.089 -0.7438 -0.5489  0.6192
  861MPD2    C512641   1.281   2.780  11.116 -0.1112 -0.2781  0.4173
  861MPD2     H12642   1.301   3.066  11.377  0.8645  1.6400 -0.6925
  861MPD2    H112643   1.182   2.910  10.990  0.9073 -0.0325 -0.0812
  861MPD2    H212644   1.368   2.672  11.265 -1.5924 -0.6362  4.1456
  861MPD2    H312645   1.285   2.707  11.036 -1.3767 -1.9016  1.8541
  861MPD2     N12646   1.175   3.130  11.131  0.6815 -0.8163 -0.6858
  861MPD2    H512647   1.131   3.124  11.040 -0.5194  0.3417 -0.1581
  861MPD2    N112648   1.339   2.836  11.477 -0.1767 -0.4547 -0.5262
  861MPD2    H712649   1.346   2.738  11.505  1.1330 -0.4009 -0.7077
  862MPD2     C12650   0.641   3.267  10.686  0.7512  0.5878  0.3953
  862MPD2    C112651   0.758   3.207  10.734  0.2485 -0.0339 -0.6646
  862MPD2    C212652   0.808   3.086  10.682  0.4534  0.2111  0.2810
  862MPD2    C312653   0.726   3.015  10.591  0.7078  0.0828  0.5093
  862MPD2    C412654   0.613   3.079  10.551 -0.1039  0.1203  0.0614
  862MPD2    C512655   0.569   3.201  10.594  1.1101 -1.2917 -0.1528
  862MPD2     H12656   0.902   3.044  10.717  0.7772  1.2141  0.6034
  862MPD2    H112657   0.546   3.036  10.478  0.4859 -0.4645 -0.1344
  862MPD2    H212658   0.599   3.350  10.741  0.0428 -0.3248  1.2382
  862MPD2    H312659   0.480   3.242  10.548  1.5033  1.6479  1.6907
  862MPD2     N12660   0.757   2.894  10.533 -0.1879  0.7569  0.1854
  862MPD2    H512661   0.694   2.862  10.460 -0.6243  1.0359  0.4395
  862MPD2    N112662   0.846   3.270  10.824  0.7866  0.5311  0.2740
  862MPD2    H712663   0.940   3.236  10.840  1.4347  2.3334  0.3715
  863MPD2     C12664   4.694   0.597  16.406  0.4515 -0.5524 -0.3405
  863MPD2    C112665   4.575   0.625  16.471 -0.0036  0.4482  0.2134
  863MPD2    C212666   4.565   0.631  16.616  0.1917  0.3805  0.2936
  863MPD2    C312667   4.682   0.601  16.687  0.2038 -0.5107  0.2521
  863MPD2    C412668   0.079   0.593  16.623  0.3864  0.1654  0.3605
  863MPD2    C512669   0.081   0.595  16.483 -0.2810  0.8587  0.3472
  863MPD2     H12670   4.468   0.634  16.665 -0.0216  2.6356 -0.2805
  863MPD2    H112671   0.174   0.581  16.673  0.0880 -0.1141  0.8684
  863MPD2    H212672   4.696   0.576  16.300  1.4817 -0.3220 -0.3658
  863MPD2    H312673   0.175   0.576  16.431 -2.2331  2.1016 -3.6049
  863MPD2     N12674   4.684   0.594  16.828  0.0219  0.3278 -0.2094
  863MPD2    H512675   0.045   0.570  16.878 -0.1487  1.1740  0.4950
  863MPD2    N112676   4.462   0.636  16.386 -0.2252 -0.3551  0.3729
  863MPD2    H712677   4.485   0.646  16.287 -0.2590 -0.2054  0.3793
  864MPD2     C12678   4.296   2.252  17.242  0.3521  0.4703 -0.3094
  864MPD2    C112679   4.361   2.155  17.165 -0.1658  0.2666 -0.3991
  864MPD2    C212680   4.458   2.186  17.075 -0.8534  0.0641 -0.1582
  864MPD2    C312681   4.490   2.316  17.055 -0.0781 -0.5880 -0.0564
  864MPD2    C412682   4.431   2.413  17.134  0.1343 -0.1282  0.0620
  864MPD2    C512683   4.335   2.380  17.221  0.0959 -0.9615 -0.2870
  864MPD2     H12684   4.506   2.112  17.012  1.8361  1.0717  0.6833
  864MPD2    H112685   4.443   2.514  17.096 -0.8911  0.2720  0.7986
  864MPD2    H212686   4.224   2.221  17.317 -0.1754 -1.9123 -1.7931
  864MPD2    H312687   4.272   2.449  17.276  0.0631 -1.1934 -0.0282
  864MPD2     N12688   4.587   2.367  16.960  0.6153  0.1029  0.0878
  864MPD2    H512689   4.598   2.467  16.970 -0.9933  0.3063 -0.1971
  864MPD2    N112690   4.321   2.020  17.184  0.1453 -0.3007 -0.2632
  864MPD2    H712691   4.259   2.001  17.261 -0.7471  0.2761 -0.8437
  865MPD2     C12692   0.071   2.596  16.184  0.0891  0.3305 -0.2330
  865MPD2    C112693   0.059   2.521  16.293  0.4204 -0.4870  0.5214
  865MPD2    C212694   0.054   2.576  16.418  0.1971 -0.1338  0.5571
  865MPD2    C312695   0.073   2.712  16.438 -1.1266 -0.1371  0.6312
  865MPD2    C412696   0.094   2.785  16.324  0.1777 -0.3815 -0.1573
  865MPD2    C512697   0.088   2.733  16.200  0.1852  0.5248  0.1367
  865MPD2     H12698   0.035   2.505  16.498 -2.9149  1.1682  0.9647
  865MPD2    H112699   0.110   2.891  16.339  1.6404 -0.5954 -0.1769
  865MPD2    H212700   0.085   2.558  16.084 -4.2374  0.9867 -1.0664
  865MPD2    H312701   0.109   2.800  16.118  3.2912 -1.2350 -0.4981
  865MPD2     N12702   0.073   2.776  16.566 -0.4371 -0.1013  0.8765
  865MPD2    H512703   0.088   2.876  16.564 -0.1976 -0.1148  1.8844
  865MPD2    N112704   0.063   2.387  16.267 -0.3076 -0.7991  0.0846
  865MPD2    H712705   0.093   2.358  16.174 -1.7308 -0.5138 -0.4638
  866MPD2     C12706   2.008   3.188  12.020  0.1045  1.3446  0.1075
  866MPD2    C112707   2.039   3.233  11.893 -0.2838  0.2849 -0.6387
  866MPD2    C212708   1.936   3.302  11.822  0.2530 -0.0716 -0.0341
  866MPD2    C312709   1.809   3.320  11.875 -0.2338 -0.7451 -0.1279
  866MPD2    C412710   1.784   3.283  12.009 -0.5562 -0.3048 -0.2264
  866MPD2    C512711   1.884   3.217  12.077 -0.2685 -0.0492  0.0410
  866MPD2     H12712   1.962   3.337  11.723  2.2182 -1.4190  0.0081
  866MPD2    H112713   1.693   3.302  12.064 -2.7187 -2.4786 -3.0781
  866MPD2    H212714   2.087   3.152  12.086  0.3256  0.8644 -0.4221
  866MPD2    H312715   1.854   3.185  12.176  0.8942 -1.7173 -0.1436
  866MPD2     N12716   1.697   3.362  11.797  0.5936  0.0066 -0.2082
  866MPD2    H512717   1.611   3.361  11.850  0.2848  0.9237 -0.6955
  866MPD2    N112718   2.177   3.204  11.853  0.2796 -0.6193 -0.0974
  866MPD2    H712719   2.239   3.145  11.908  1.4819  0.5871 -0.1523
  867MPD2     C12720   3.426   2.220  16.999  0.4516  0.1033  0.7010
  867MPD2    C112721   3.560   2.208  17.038 -0.2098 -0.0127 -0.1747
  867MPD2    C212722   3.624   2.318  17.106 -0.0207  0.1127  0.0983
  867MPD2    C312723   3.540   2.422  17.138 -0.4834 -0.5818 -0.0875
  867MPD2    C412724   3.413   2.431  17.099  0.2707 -0.2138  0.2306
  867MPD2    C512725   3.356   2.334  17.027  0.0355 -0.0778 -0.2010
  867MPD2     H12726   3.730   2.312  17.129  0.0213 -3.1316 -0.9652
  867MPD2    H112727   3.356   2.518  17.130  1.6892  0.3990  1.1095
  867MPD2    H212728   3.373   2.144  16.943 -0.1794  1.2423 -0.2346
  867MPD2    H312729   3.254   2.353  16.997  0.5811  0.3051 -1.8048
  867MPD2     N12730   3.584   2.535  17.206  0.4825  0.5264 -0.3020
  867MPD2    H512731   3.530   2.619  17.187 -0.1083  0.2751  0.2706
  867MPD2    N112732   3.631   2.087  17.004  0.5366 -0.6081 -0.5253
  867MPD2    H712733   3.582   2.023  16.943 -0.3816 -2.0655  1.7700
  868MPD2     C12734   0.425   0.646  13.143 -0.8541  0.1709  0.4313
  868MPD2    C112735   0.505   0.755  13.112  0.7018  0.2704 -0.8564
  868MPD2    C212736   0.446   0.881  13.107  0.9334  0.4583  0.7745
  868MPD2    C312737   0.307   0.901  13.139  0.6406  0.0361 -0.2573
  868MPD2    C412738   0.230   0.787  13.168 -0.2378  0.3928  0.5129
  868MPD2    C512739   0.292   0.666  13.159  0.1256 -0.2718 -0.0849
  868MPD2     H12740   0.507   0.970  13.096 -0.0547  0.8086 -1.7721
  868MPD2    H112741   0.129   0.802  13.204 -0.5768 -1.5688  0.3844
  868MPD2    H212742   0.467   0.546  13.138 -0.3844  0.4013 -0.2275
  868MPD2    H312743   0.238   0.576  13.187 -1.2914  0.5974 -0.0542
  868MPD2     N12744   0.256   1.034  13.144  0.3971 -0.6544  0.1091
  868MPD2    H512745   0.318   1.105  13.106  0.1732 -0.4718  0.0831
  868MPD2    N112746   0.649   0.730  13.095 -0.5330  0.1149  0.4806
  868MPD2    H712747   0.681   0.637  13.117  0.5339  0.0134 -1.4974
  869MPD2     C12748   2.658   3.683   1.500  0.6384 -0.1456  0.2026
  869MPD2    C112749   2.549   3.594   1.486  0.2925  0.1355  0.5138
  869MPD2    C212750   2.433   3.641   1.427  0.3904  0.7950 -0.1744
  869MPD2    C312751   2.439   3.760   1.355 -0.0608 -0.5542  0.3534
  869MPD2    C412752   2.549   3.832   1.341 -0.2539  0.1734 -0.1371
  869MPD2    C512753   2.653   3.799   1.424  0.2796 -0.0999 -0.0161
  869MPD2     H12754   2.353   3.569   1.414 -0.6826  1.7046  1.4252
  869MPD2    H112755   2.544   3.917   1.274 -1.0972 -0.4277 -0.8401
  869MPD2    H212756   2.738   3.655   1.568 -0.2345 -1.5682  0.6389
  869MPD2    H312757   2.729   3.876   1.423  1.8382 -1.6150  1.3575
  869MPD2     N12758   2.333   3.802   1.281 -0.1471  0.5984 -0.1480
  869MPD2    H512759   2.348   3.892   1.236  1.3577 -0.1987 -1.2307
  869MPD2    N112760   2.546   3.475   1.565 -0.0982 -0.0317 -0.5102
  869MPD2    H712761   2.634   3.454   1.612  0.8714  1.8906 -1.4509
  870MPD2     C12762   0.462   2.720   1.399  0.0326 -0.1981  0.0864
  870MPD2    C112763   0.569   2.781   1.333  0.3803  0.0033  1.0157
  870MPD2    C212764   0.538   2.829   1.202 -0.3076  0.5401  0.6285
  870MPD2    C312765   0.406   2.827   1.163  0.6804 -0.4997 -0.6224
  870MPD2    C412766   0.310   2.755   1.228 -0.2556 -0.4093  0.7174
  870MPD2    C512767   0.336   2.702   1.353 -0.2017 -0.7563 -0.0043
  870MPD2     H12768   0.618   2.877   1.147 -2.2079  2.5660 -0.3716
  870MPD2    H112769   0.215   2.730   1.182  0.6132  1.0086 -1.8163
  870MPD2    H212770   0.486   2.663   1.488  1.1488 -0.7052 -0.5378
  870MPD2    H312771   0.259   2.640   1.396 -0.9316  1.8671  2.4434
  870MPD2     N12772   0.376   2.899   1.043  0.0433 -0.6893 -0.1908
  870MPD2    H512773   0.452   2.915   0.979 -0.9011  2.2534 -0.5780
  870MPD2    N112774   0.702   2.770   1.385  0.4190 -0.1206 -0.5498
  870MPD2    H712775   0.710   2.725   1.476 -2.7773 -0.3504 -0.3984
  871MPD2     C12776   2.743   2.469  16.471  0.1265 -0.2000  0.1531
  871MPD2    C112777   2.710   2.408  16.587  0.6220  0.0448 -0.3703
  871MPD2    C212778   2.656   2.288  16.579  0.4174  0.0957 -0.1348
  871MPD2    C312779   2.623   2.228  16.458  0.3171 -0.7715  0.1478
  871MPD2    C412780   2.636   2.299  16.342 -0.1700 -0.3102 -0.1647
  871MPD2    C512781   2.704   2.417  16.348 -0.2742  0.2341 -0.4423
  871MPD2     H12782   2.624   2.237  16.669 -0.4745  2.8608  1.1060
  871MPD2    H112783   2.604   2.259  16.246  3.7077  1.4174 -2.1831
  871MPD2    H212784   2.788   2.568  16.469  0.6069 -0.4142  0.3015
  871MPD2    H312785   2.721   2.475  16.258 -1.2019  0.4914 -0.4578
  871MPD2     N12786   2.554   2.102  16.466  0.0545 -0.2118  0.2106
  871MPD2    H512787   2.542   2.067  16.561  0.6253 -0.8564  0.0422
  871MPD2    N112788   2.731   2.479  16.708 -0.3389 -0.0658 -0.0153
  871MPD2    H712789   2.773   2.570  16.694 -2.8335  1.6698  3.8192
  872MPD2     C12790   3.412   4.476  14.382 -0.0403 -0.5015  0.0794
  872MPD2    C112791   3.343   4.532  14.284  0.2887  0.0830 -0.3146
  872MPD2    C212792   3.217   4.482  14.253  0.6469  0.0350 -0.2126
  872MPD2    C312793   3.171   4.372  14.319  0.6995  0.0912 -0.3667
  872MPD2    C412794   3.251   4.314  14.415  0.1633  0.0535  0.0883
  872MPD2    C512795   3.373   4.363  14.447 -0.0100  0.7698 -0.2122
  872MPD2     H12796   3.150   4.528  14.181 -0.3487  0.5882  1.0582
  872MPD2    H112797   3.207   4.239  14.480  0.2518 -0.6217 -0.6320
  872MPD2    H212798   3.512   4.508  14.411 -0.5203  1.5822 -0.5234
  872MPD2    H312799   3.427   4.334  14.536  0.4382 -1.9146 -1.3631
  872MPD2     N12800   3.042   4.321  14.308 -0.2329  0.2995  0.5574
  872MPD2    H512801   3.018   4.246  14.372  0.9144 -0.3093  0.2489
  872MPD2    N112802   3.393   4.639  14.204 -0.6031 -0.3295 -0.0885
  872MPD2    H712803   3.334   4.671  14.128  0.5215  0.1045 -0.7812
  873MPD2     C12804   0.230   4.482   0.754  0.0955 -0.7135 -0.2013
  873MPD2    C112805   0.300   4.470   0.870  0.2248 -0.0677  0.2702
  873MPD2    C212806   0.334   4.343   0.914  0.6926 -0.0230  0.3970
  873MPD2    C312807   0.303   4.238   0.835 -0.2721  0.0442  0.2075
  873MPD2    C412808   0.240   4.252   0.723  0.2549 -0.3031 -0.0058
  873MPD2    C512809   0.196   4.372   0.683  0.6147 -0.5315  0.0323
  873MPD2     H12810   0.377   4.333   1.013  0.9626  0.2110  0.3035
  873MPD2    H112811   0.202   4.170   0.664 -0.2130  0.8614 -1.3172
  873MPD2    H212812   0.200   4.580   0.720  1.6695 -0.1085  0.1614
  873MPD2    H312813   0.140   4.382   0.591 -1.1887 -0.8610  1.0835
  873MPD2     N12814   0.316   4.097   0.871  0.5788  0.5570  0.4247
  873MPD2    H512815   0.269   4.027   0.814  1.1428  0.5883 -0.0737
  873MPD2    N112816   0.336   4.589   0.933  0.2360  0.4346  0.1609
  873MPD2    H712817   0.297   4.677   0.901 -1.4555 -0.4987 -0.3894
  874MPD2     C12818   0.046   4.642  16.145 -0.8594 -0.0516 -0.2611
  874MPD2    C112819   0.107   4.570  16.244  0.0290 -0.0167  0.1374
  874MPD2    C212820   0.235   4.608  16.289  0.1221  0.6416  0.3829
  874MPD2    C312821   0.299   4.711  16.220 -0.6540  0.6927  0.7998
  874MPD2    C412822   0.240   0.067  16.122  0.6919 -0.1447  0.7018
  874MPD2    C512823   0.117   0.018  16.084 -0.6058  0.5248  0.0637
  874MPD2     H12824   0.276   4.576  16.384  0.6092  2.1353  0.6651
  874MPD2    H112825   0.289   0.150  16.073 -0.6032  0.3899  0.3235
  874MPD2    H212826   4.678   4.599  16.107 -0.1621 -1.4883 -0.3360
  874MPD2    H312827   0.074   0.065  15.996 -2.4365 -1.0053  0.1398
  874MPD2     N12828   0.434   0.007  16.267 -0.8804  0.1138 -0.1453
  874MPD2    H512829   0.463   4.666  16.340 -1.0548  0.4847  0.2533
  874MPD2    N112830   0.038   4.464  16.308  0.4657  0.0642  0.2020
  874MPD2    H712831   4.664   4.452  16.288  1.0853  0.7139 -3.2150
  875MPD2     C12832   1.399   3.606  15.093 -1.7203  0.4142  0.4789
  875MPD2    C112833   1.337   3.500  15.152 -0.2855 -0.0080 -0.6233
  875MPD2    C212834   1.401   3.431  15.258 -0.6123  0.2105 -0.3272
  875MPD2    C312835   1.516   3.486  15.311  0.4905  0.6755 -0.2021
  875MPD2    C412836   1.575   3.593  15.257 -0.0852  0.2143  0.3618
  875MPD2    C512837   1.521   3.637  15.142  0.3355 -0.5473  0.6965
  875MPD2     H12838   1.342   3.351  15.301 -1.3034  0.6710 -0.4258
  875MPD2    H112839   1.653   3.646  15.311  2.1079 -1.4944 -1.0956
  875MPD2    H212840   1.359   3.672  15.017  0.4580 -0.5777 -1.5134
  875MPD2    H312841   1.568   3.729  15.107 -0.1376 -0.3798  0.4998
  875MPD2     N12842   1.580   3.426  15.420 -0.5308 -0.7843 -0.5454
  875MPD2    H512843   1.662   3.470  15.460 -1.4459 -1.3700  1.9681
  875MPD2    N112844   1.204   3.453  15.117  0.4050  0.3801 -0.1627
  875MPD2    H712845   1.162   3.379  15.172  1.9563 -0.5456 -0.2211
  876MPD2     C12846   0.015   4.103  16.072  0.5571  0.1334  0.0345
  876MPD2    C112847   0.143   4.143  16.099 -0.3564 -0.0694 -0.4990
  876MPD2    C212848   0.223   4.047  16.160 -0.8265  0.9370  0.3077
  876MPD2    C312849   0.175   3.925  16.209  0.1694 -0.5336 -0.1613
  876MPD2    C412850   0.049   3.884  16.176 -0.3206  0.4661  0.0418
  876MPD2    C512851   4.701   3.972  16.099  0.7123  0.0794 -0.1846
  876MPD2     H12852   0.327   4.076  16.173 -0.7166 -0.3588  2.2653
  876MPD2    H112853   4.722   3.790  16.196  1.0510 -0.1955  0.4277
  876MPD2    H212854   4.667   4.171  16.029  2.9125  2.6071 -0.0415
  876MPD2    H312855   4.604   3.944  16.059  1.4676 -2.5347 -0.2280
  876MPD2     N12856   0.277   3.842  16.269 -0.3654 -0.6239 -0.0345
  876MPD2    H512857   0.374   3.871  16.273 -0.7980  1.2698 -2.9652
  876MPD2    N112858   0.178   4.263  16.038 -0.4501  0.0892  0.0071
  876MPD2    H712859   0.109   4.300  15.974 -0.7449  2.2156  1.5226
  877MPD2     C12860   0.020   4.622  15.457 -0.4050  0.6082  0.3113
  877MPD2    C112861   0.142   4.681  15.469  0.6948  0.3189 -0.0626
  877MPD2    C212862   0.203   4.719  15.353 -0.2751  0.3625 -0.0081
  877MPD2    C312863   0.149   4.695  15.224  0.1031 -0.7695  0.5834
  877MPD2    C412864   0.027   4.628  15.219 -0.7781 -0.4288  0.4689
  877MPD2    C512865   4.688   4.598  15.335 -0.2433  0.6069 -0.4281
  877MPD2     H12866   0.297   0.047  15.369  0.4201 -1.4657  1.8332
  877MPD2    H112867   4.698   4.594  15.131 -2.6743  0.2476  1.3620
  877MPD2    H212868   4.682   4.580  15.536  1.4936 -0.0032  1.4892
  877MPD2    H312869   4.582   4.576  15.334 -0.4560  1.5704  1.7971
  877MPD2     N12870   0.223   4.720  15.111  0.0874 -0.4958 -0.0466
  877MPD2    H512871   0.177   4.691  15.026  0.7185 -0.0545 -0.5309
  877MPD2    N112872   0.214   4.694  15.595  0.0915 -0.0301 -0.4588
  877MPD2    H712873   0.308   0.008  15.590 -0.0450  0.2517 -0.8760
  878MPD2     C12874   0.213   4.015  13.167  0.2191 -0.3166 -0.1972
  878MPD2    C112875   0.193   4.140  13.221 -0.4697  0.2807 -0.0424
  878MPD2    C212876   0.097   4.162  13.313 -0.9467 -0.3888  0.0119
  878MPD2    C312877   0.030   4.052  13.368  0.0024  0.0343  0.6657
  878MPD2    C412878   0.056   3.920  13.320 -0.2874 -0.6571 -0.1341
  878MPD2    C512879   0.134   3.912  13.206  0.9317 -0.0687 -0.5067
  878MPD2     H12880   0.069   4.263  13.340  1.9884  0.3380  0.4118
  878MPD2    H112881   0.002   3.829  13.341  0.8610 -0.8781  1.7591
  878MPD2    H212882   0.282   3.994  13.086  2.4096  0.0785  1.5744
  878MPD2    H312883   0.134   3.811  13.166 -0.4694 -1.5824  3.2445
  878MPD2     N12884   4.657   4.079  13.468 -0.3411 -0.5055  0.0455
  878MPD2    H512885   4.668   4.167  13.518 -0.3556  0.7700 -2.1901
  878MPD2    N112886   0.287   4.238  13.166 -0.1458  0.0319  0.5819
  878MPD2    H712887   0.331   4.213  13.078  0.0691  0.5621  0.5327
  879MPD2     C12888   0.705   0.587  16.558  0.8432 -0.0231 -0.4013
  879MPD2    C112889   0.664   0.511  16.668  0.5365 -0.3551 -0.2517
  879MPD2    C212890   0.563   0.419  16.656 -0.1519  0.5025  0.7099
  879MPD2    C312891   0.503   0.398  16.537 -0.0087  0.2387  1.0333
  879MPD2    C412892   0.545   0.474  16.431  0.1698 -0.3732 -0.2354
  879MPD2    C512893   0.639   0.567  16.444 -0.5711 -0.2414  0.1510
  879MPD2     H12894   0.529   0.358  16.738  1.0652  0.1112  0.9275
  879MPD2    H112895   0.519   0.444  16.330  0.6301 -0.6758 -0.2654
  879MPD2    H212896   0.775   0.667  16.579 -0.4543  1.0592 -0.2094
  879MPD2    H312897   0.663   0.623  16.354 -1.1933 -2.0556 -1.1241
  879MPD2     N12898   0.400   0.300  16.511  0.7996  0.4069 -0.4687
  879MPD2    H512899   0.356   0.305  16.419  0.6615 -1.7522 -0.5147
  879MPD2    N112900   0.728   0.545  16.786 -0.1206  0.4918  0.1709
  879MPD2    H712901   0.773   0.635  16.773  0.3515  0.5400  2.2382
  880MPD2     C12902   1.611   2.337   0.582  0.0995  0.0706 -0.2582
  880MPD2    C112903   1.516   2.398   0.648  1.0573  0.3570 -0.5336
  880MPD2    C212904   1.503   2.362   0.780  0.0127 -0.2088 -0.0389
  880MPD2    C312905   1.593   2.274   0.847  0.5024  0.5125 -0.4482
  880MPD2    C412906   1.688   2.208   0.771 -0.5954  0.3394  0.0936
  880MPD2    C512907   1.696   2.245   0.639  0.4841 -0.2638 -0.6644
  880MPD2     H12908   1.418   2.401   0.836 -1.2362 -0.0945 -2.0087
  880MPD2    H112909   1.763   2.137   0.802 -0.7789  0.1525  0.1099
  880MPD2    H212910   1.642   2.368   0.483 -1.2497  4.0235  0.5577
  880MPD2    H312911   1.774   2.209   0.574  0.3132  2.6297 -2.4832
  880MPD2     N12912   1.560   2.250   0.981 -0.2232 -0.3731 -0.6516
  880MPD2    H512913   1.490   2.303   1.031 -0.5109 -0.3212 -1.1155
  880MPD2    N112914   1.436   2.501   0.579 -0.2154  0.0585 -0.3768
  880MPD2    H712915   1.481   2.521   0.490  2.4973  0.6614  1.1299
  881MPD2     C12916   1.184   3.010  17.435 -0.0575  0.4095  0.4356
  881MPD2    C112917   1.295   2.939  17.484 -0.4270  0.4903 -0.4549
  881MPD2    C212918   1.296   2.906  17.621 -0.2291  0.0997 -0.7134
  881MPD2    C312919   1.183   2.925  17.696  0.4817 -0.8293 -0.5214
  881MPD2    C412920   1.081   2.998  17.647  0.0350 -0.4153 -0.4097
  881MPD2    C512921   1.085   3.036  17.519 -0.0529 -0.3061 -0.1266
  881MPD2     H12922   1.386   2.858  17.658 -0.2793  0.5882  0.0410
  881MPD2    H112923   0.989   3.022   0.001  0.5783 -0.0416  0.3775
  881MPD2    H212924   1.172   3.047  17.333  1.8693  0.6902  0.3029
  881MPD2    H312925   1.004   3.104  17.493 -1.3197 -1.8080 -0.1620
  881MPD2     N12926   1.174   2.882   0.131  0.3061  0.0859 -0.2520
  881MPD2    H512927   1.089   2.911   0.177  1.2304  1.4920  0.5456
  881MPD2    N112928   1.409   2.938  17.404  0.0265  0.1096 -0.0173
  881MPD2    H712929   1.396   2.993  17.319  0.4187  1.7943  1.0204
  882MPD2     C12930   0.159   4.500  14.391  0.5163 -0.1597  0.3209
  882MPD2    C112931   0.123   4.609  14.466  0.6396  0.1166  0.2702
  882MPD2    C212932   0.011   4.679  14.431  0.6712 -0.5162 -0.1239
  882MPD2    C312933   4.643   4.625  14.336  0.6521 -0.0623  0.0341
  882MPD2    C412934   4.679   4.527  14.248  1.1103  0.9094  0.2122
  882MPD2    C512935   0.067   4.452  14.289  0.1914 -0.6626  0.2414
  882MPD2     H12936   4.703   0.039  14.491  0.1440  0.4806 -1.7840
  882MPD2    H112937   4.615   4.491  14.168 -0.6013  1.0080  1.5315
  882MPD2    H212938   0.249   4.442  14.411  0.5885 -0.1769 -0.0581
  882MPD2    H312939   0.098   4.370  14.225 -0.7406 -2.3115  1.8931
  882MPD2     N12940   4.509   4.676  14.316  0.2686 -0.1304  0.6914
  882MPD2    H512941   4.462   4.628  14.240  2.6968  0.8486 -1.4162
  882MPD2    N112942   0.207   4.635  14.573 -0.5053  0.0342 -0.6681
  882MPD2    H712943   0.269   4.563  14.608 -0.4588 -0.6440 -2.1248
  883MPD2     C12944   2.578   0.151  16.732  0.4939  0.7482  0.0537
  883MPD2    C112945   2.670   0.154  16.632 -0.1244 -0.1421 -0.2915
  883MPD2    C212946   2.806   0.154  16.660 -0.0035  0.3121 -0.1510
  883MPD2    C312947   2.853   0.147  16.790 -0.0083  0.5194  0.4593
  883MPD2    C412948   2.760   0.144  16.894 -0.2158 -0.1953  0.5728
  883MPD2    C512949   2.624   0.150  16.859  0.2725  0.3846 -0.1925
  883MPD2     H12950   2.883   0.151  16.583  0.7989 -0.2351  0.6622
  883MPD2    H112951   2.783   0.145  17.000  0.6305 -2.3747  0.4105
  883MPD2    H212952   2.471   0.154  16.717  0.6888 -2.2330 -1.8195
  883MPD2    H312953   2.553   0.158  16.940  1.5168  3.2946  0.6167
  883MPD2     N12954   2.986   0.133  16.806  0.2413  0.3043  0.1572
  883MPD2    H512955   3.057   0.158  16.738  0.2022  0.2996  0.1150
  883MPD2    N112956   2.634   0.165  16.497  0.2865  0.0595 -0.8592
  883MPD2    H712957   2.713   0.171  16.434  0.8880 -0.0231 -0.1162
  884MPD2     C12958   3.691   0.205  15.360 -0.0272 -0.2073  0.5643
  884MPD2    C112959   3.646   0.298  15.268 -0.0692 -0.0218 -0.5980
  884MPD2    C212960   3.512   0.344  15.286  0.2833 -0.3664 -0.1543
  884MPD2    C312961   3.449   0.315  15.405 -0.2271  0.1752 -0.0826
  884MPD2    C412962   3.490   0.214  15.497  0.0012  0.3067 -0.1978
  884MPD2    C512963   3.617   0.172  15.476 -0.1399 -0.4389  0.1633
  884MPD2     H12964   3.468   0.417  15.219 -0.7585 -0.3997  0.4938
  884MPD2    H112965   3.444   0.201  15.594  0.9492  0.3864  0.2606
  884MPD2    H212966   3.784   0.153  15.338  0.2940  0.3585  0.5638
  884MPD2    H312967   3.670   0.102  15.540  1.8407 -0.0446 -1.0100
  884MPD2     N12968   3.328   0.382  15.425  0.2033  0.2508  0.0796
  884MPD2    H512969   3.283   0.434  15.351 -0.9498  1.3662  1.5569
  884MPD2    N112970   3.724   0.350  15.160 -0.5501  0.4814 -0.0645
  884MPD2    H712971   3.680   0.410  15.091 -0.5924 -0.4115 -0.8141
  885MPD2     C12972   2.410   1.092   0.031 -0.2168 -0.1820 -0.4950
  885MPD2    C112973   2.457   0.979  17.663 -0.1586 -0.1564  0.0607
  885MPD2    C212974   2.463   0.969  17.526  0.0662 -0.8156 -0.8221
  885MPD2    C312975   2.418   1.071  17.448  0.4076  0.1074 -0.4359
  885MPD2    C412976   2.376   1.189  17.509  0.0313 -1.2830 -0.4439
  885MPD2    C512977   2.380   1.200  17.651 -0.0419 -0.1927  0.1519
  885MPD2     H12978   2.503   0.880  17.479 -0.3291 -2.1676  1.4373
  885MPD2    H112979   2.331   1.268  17.449  1.7086 -0.6585 -0.9005
  885MPD2    H212980   2.405   1.107   0.139  2.1572  1.8317 -0.6573
  885MPD2    H312981   2.333   1.287  17.695  0.1107 -0.1319  0.1944
  885MPD2     N12982   2.421   1.063  17.304  0.1190  0.0841  0.2391
  885MPD2    H512983   2.462   0.976  17.272 -1.3002  0.1228 -1.6742
  885MPD2    N112984   2.508   0.882   0.051  0.7843 -0.3518  0.1119
  885MPD2    H712985   2.504   0.901   0.151  1.4622 -1.3000  0.3198
  886MPD2     C12986   3.382   3.579  15.337  0.4884  0.4216 -0.2086
  886MPD2    C112987   3.458   3.653  15.423  0.3836 -0.0028 -0.0415
  886MPD2    C212988   3.471   3.787  15.407 -0.5282 -0.1967 -0.0181
  886MPD2    C312989   3.398   3.853  15.317  0.0591 -0.5824 -0.3746
  886MPD2    C412990   3.312   3.782  15.232 -0.3434  0.0855 -0.5257
  886MPD2    C512991   3.303   3.643  15.244 -0.3419  0.6113  1.3986
  886MPD2     H12992   3.538   3.840  15.473  0.2832 -0.9307 -0.2568
  886MPD2    H112993   3.270   3.824  15.142  0.9843 -0.7834 -1.5502
  886MPD2    H212994   3.367   3.472  15.350 -0.0918  0.2820 -2.0412
  886MPD2    H312995   3.233   3.600  15.173  0.7058  0.9012  0.1865
  886MPD2     N12996   3.427   3.986  15.280  0.2309 -0.8468  0.0314
  886MPD2    H512997   3.390   4.024  15.193  1.5721  1.7447  0.5852
  886MPD2    N112998   3.542   3.591  15.521 -0.2229 -0.0638 -0.1841
  886MPD2    H712999   3.617   3.645  15.562 -0.2218 -0.3359  0.1671
  887MPD2     C13000   4.214   3.621  15.508 -0.6278 -0.2042 -0.2541
  887MPD2    C113001   4.088   3.674  15.544  0.4058 -0.3885  0.4565
  887MPD2    C213002   4.061   3.816  15.527  0.5375  0.0129  0.3156
  887MPD2    C313003   4.159   3.899  15.483 -0.5682  0.3051  0.5676
  887MPD2    C413004   4.275   3.846  15.439  0.6546  0.5174 -0.0926
  887MPD2    C513005   4.304   3.708  15.450  0.5629  0.4924 -0.1413
  887MPD2     H13006   3.961   3.852  15.548  0.1461 -1.1731  0.5266
  887MPD2    H113007   4.352   3.908  15.395  0.3843  0.1543 -1.0829
  887MPD2    H213008   4.236   3.516  15.523 -0.8890 -0.0473  1.3010
  887MPD2    H313009   4.402   3.666  15.429  0.0684 -1.3701  1.3304
  887MPD2     N13010   4.126   4.031  15.467 -0.1334  0.0914 -0.6714
  887MPD2    H513011   4.034   4.057  15.501  0.0602  0.2409 -0.2622
  887MPD2    N113012   3.978   3.595  15.596  0.3859  0.2310 -0.4129
  887MPD2    H713013   3.887   3.638  15.602  0.1282 -0.6293  1.8294
  888MPD2     C13014   1.243   4.504  14.801 -0.2830 -0.1236 -0.8416
  888MPD2    C113015   1.272   4.507  14.936 -0.2014  0.5006  0.1482
  888MPD2    C213016   1.324   4.620  14.994  0.3600  0.5418 -0.5819
  888MPD2    C313017   1.365   0.003  14.921 -0.1655 -0.4975  0.2530
  888MPD2    C413018   1.342   0.001  14.785 -0.1802  0.7681  0.1053
  888MPD2    C513019   1.277   4.615  14.731  0.3749  0.1993 -0.0611
  888MPD2     H13020   1.348   4.609  15.099  0.1912 -0.3581 -0.6424
  888MPD2    H113021   1.362   0.087  14.722 -0.3107 -0.1686 -1.2083
  888MPD2    H213022   1.214   4.414  14.748 -0.2619 -1.9295  2.2174
  888MPD2    H313023   1.249   4.623  14.626  1.3128  0.4273 -0.2875
  888MPD2     N13024   1.435   0.111  14.982 -0.3798 -0.1408 -0.3594
  888MPD2    H513025   1.453   0.111  15.082 -2.9206 -1.3213  0.1021
  888MPD2    N113026   1.259   4.399  15.022 -0.5672 -0.7817  0.6699
  888MPD2    H713027   1.299   4.415  15.114  0.5972 -0.1647  0.0542
  889MPD2     C13028   1.203   3.970  13.138  0.8583  0.3402  0.0197
  889MPD2    C113029   1.137   3.985  13.259 -0.3977 -0.2165 -0.9483
  889MPD2    C213030   1.132   4.110  13.315  0.0908  0.0727  0.3920
  889MPD2    C313031   1.148   4.223  13.233 -0.2135  0.2955 -0.1194
  889MPD2    C413032   1.196   4.206  13.102  0.5801  0.1195  0.3401
  889MPD2    C513033   1.236   4.081  13.068  0.0999  0.1356 -0.7025
  889MPD2     H13034   1.092   4.123  13.415  1.3024 -2.4761  1.2085
  889MPD2    H113035   1.218   4.284  13.030 -0.7505 -0.4093 -0.6470
  889MPD2    H213036   1.231   3.874  13.096 -0.1596 -0.2459  0.6828
  889MPD2    H313037   1.299   4.070  12.980 -1.0061 -1.4957 -1.2883
  889MPD2     N13038   1.140   4.353  13.297 -0.0962 -0.2457 -0.1742
  889MPD2    H513039   1.101   4.359  13.391  2.3293  0.2788  0.7935
  889MPD2    N113040   1.120   3.870  13.346  0.4385 -0.1788  0.2395
  889MPD2    H713041   1.116   3.884  13.446 -0.3428 -2.1752  0.4917
  890MPD2     C13042   0.240   0.668  14.650 -0.0492  0.2578 -0.4294
  890MPD2    C113043   0.273   0.746  14.761  0.6685 -0.0726  0.0984
  890MPD2    C213044   0.272   0.700  14.892 -0.1022 -0.1322 -0.7784
  890MPD2    C313045   0.240   0.573  14.912 -0.2402 -0.5807 -0.1561
  890MPD2    C413046   0.196   0.491  14.808  0.4619 -0.1278 -0.2367
  890MPD2    C513047   0.195   0.539  14.676  0.6521 -0.3508 -0.1872
  890MPD2     H13048   0.297   0.764  14.976 -2.8970 -0.3439  0.1940
  890MPD2    H113049   0.187   0.383  14.817  0.9070 -0.1653 -0.1988
  890MPD2    H213050   0.254   0.685  14.544 -0.0024  0.4497 -0.3924
  890MPD2    H313051   0.177   0.464  14.600  0.8978 -0.9907  0.3790
  890MPD2     N13052   0.250   0.513  15.037 -0.9619 -0.4763  0.4106
  890MPD2    H513053   0.308   0.557  15.108 -0.8907 -0.2943  0.2405
  890MPD2    N113054   0.309   0.882  14.735  0.3259 -0.3178 -0.4101
  890MPD2    H713055   0.309   0.913  14.639 -2.9729  2.1395  0.3952
  891MPD2     C13056   3.418   3.935  16.786  0.7635 -0.1786  0.0550
  891MPD2    C113057   3.308   3.879  16.850 -0.1950  0.0181 -0.0263
  891MPD2    C213058   3.331   3.774  16.936 -0.4539  0.1394  0.2470
  891MPD2    C313059   3.461   3.733  16.966  0.5960 -0.0500  0.7475
  891MPD2    C413060   3.566   3.798  16.913  0.0284  0.9286 -0.0980
  891MPD2    C513061   3.540   3.903  16.832 -0.0101  0.4080  0.1805
  891MPD2     H13062   3.248   3.711  16.964 -1.8281  0.8924 -2.1322
  891MPD2    H113063   3.669   3.772  16.938  0.5270 -0.2381 -3.3617
  891MPD2    H213064   3.404   4.015  16.715 -0.0473 -0.9223 -0.6279
  891MPD2    H313065   3.626   3.947  16.782 -0.0590  2.1626  1.6664
  891MPD2     N13066   3.467   3.609  17.039 -0.4686  0.7233 -0.9127
  891MPD2    H513067   3.377   3.576  17.072  1.3761 -2.7923  0.5336
  891MPD2    N113068   3.176   3.942  16.825 -0.3281  0.1756 -0.3566
  891MPD2    H713069   3.173   4.014  16.754  1.1371  0.0623 -0.5384
  892MPD2     C13070   3.917   4.679  15.037 -0.7063  0.1105 -0.1997
  892MPD2    C113071   3.830   0.009  14.951 -0.2857 -0.3357 -0.2244
  892MPD2    C213072   3.878   0.043  14.828 -0.4489  0.3834  0.0064
  892MPD2    C313073   4.007   4.722  14.789  0.1786  0.0838 -0.4134
  892MPD2    C413074   4.084   4.650  14.875 -0.3682  0.3792  0.3924
  892MPD2    C513075   4.040   4.642  15.007  0.4714  0.0505  0.0799
  892MPD2     H13076   3.814   0.099  14.762  0.9920  0.5280 -1.2867
  892MPD2    H113077   4.188   4.629  14.851 -0.8213 -2.5114  0.9792
  892MPD2    H213078   3.893   4.675  15.143  1.9755  1.2961  0.4695
  892MPD2    H313079   4.098   4.597  15.087  1.5423  0.6690 -0.3407
  892MPD2     N13080   4.074   0.028  14.667 -0.0054  0.3351 -0.0281
  892MPD2    H513081   4.166   4.714  14.645 -0.3562  0.2184 -1.3283
  892MPD2    N113082   3.698   0.045  14.979  0.3557 -0.4474  0.2766
  892MPD2    H713083   3.649   0.108  14.917  0.3371 -0.8114 -0.0766
  893MPD2     C13084   0.977   2.862   2.201  0.2465 -0.1127  0.1065
  893MPD2    C113085   1.102   2.804   2.191  0.5384  0.5768 -0.0853
  893MPD2    C213086   1.126   2.692   2.266  0.1385  0.3684 -0.4051
  893MPD2    C313087   1.032   2.640   2.357  0.3004  0.1684  0.1114
  893MPD2    C413088   0.905   2.697   2.352 -0.0944 -0.1272  0.6879
  893MPD2    C513089   0.878   2.809   2.277  0.6967  0.5787  0.0855
  893MPD2     H13090   1.220   2.642   2.248 -0.0348 -0.6034  1.3427
  893MPD2    H113091   0.830   2.654   2.417 -0.7661  0.4556  0.2942
  893MPD2    H213092   0.948   2.951   2.145 -0.1750  0.1080  0.6727
  893MPD2    H313093   0.782   2.858   2.283  0.8882  0.9917 -0.2057
  893MPD2     N13094   1.052   2.524   2.437  0.9612 -0.7002 -0.9584
  893MPD2    H513095   0.971   2.490   2.487 -0.8371  0.5126 -3.0284
  893MPD2    N113096   1.191   2.857   2.102 -0.3473 -0.3095 -0.2596
  893MPD2    H713097   1.160   2.930   2.040 -0.9905  0.5813  1.1091
  894MPD2     C13098   3.540   1.420   0.747  0.5655 -0.4871 -0.1957
  894MPD2    C113099   3.592   1.341   0.847 -0.5174  0.2194 -0.2699
  894MPD2    C213100   3.717   1.374   0.906 -0.3905 -0.2410 -0.8222
  894MPD2    C313101   3.790   1.483   0.861 -0.8461 -1.0675 -0.1749
  894MPD2    C413102   3.740   1.564   0.761  0.2863 -0.3129  0.6096
  894MPD2    C513103   3.615   1.534   0.715  0.0682 -0.3383  0.4698
  894MPD2     H13104   3.767   1.309   0.977  2.2202 -0.1815 -2.6387
  894MPD2    H113105   3.787   1.653   0.720  1.8452 -0.5122  1.9612
  894MPD2    H213106   3.455   1.400   0.683  0.3087  0.1304 -0.0481
  894MPD2    H313107   3.577   1.596   0.635  0.0875  3.1816  3.2063
  894MPD2     N13108   3.926   1.506   0.910 -0.5405  0.0487 -0.1259
  894MPD2    H513109   3.962   1.431   0.968 -1.6001 -0.0069  0.4609
  894MPD2    N113110   3.536   1.219   0.889 -0.2480 -0.1555  0.5624
  894MPD2    H713111   3.593   1.160   0.948 -1.0879  1.0654  2.5983
  895MPD2     C13112   3.793   4.137  13.187  0.1012  0.0517 -0.2421
  895MPD2    C113113   3.679   4.110  13.117  0.3558  0.2838 -0.0546
  895MPD2    C213114   3.676   3.990  13.050  0.4736  0.1678  1.0622
  895MPD2    C313115   3.771   3.891  13.076 -0.7664  0.0171  0.8680
  895MPD2    C413116   3.889   3.923  13.155 -0.1988  0.5346 -0.6609
  895MPD2    C513117   3.892   4.047  13.210  0.5386 -0.0816  0.2916
  895MPD2     H13118   3.587   3.966  12.993 -0.5897  2.4738  1.7538
  895MPD2    H113119   3.976   3.860  13.172  1.2349  2.5963 -0.3015
  895MPD2    H213120   3.816   4.234  13.232  2.0781 -0.1664 -0.7549
  895MPD2    H313121   3.976   4.065  13.276  0.7670 -1.9022  0.5091
  895MPD2     N13122   3.736   3.760  13.033  0.3136  0.4741  0.7001
  895MPD2    H513123   3.645   3.752  12.989 -0.0491 -0.6287  1.6529
  895MPD2    N113124   3.582   4.202  13.087  0.5092  0.2124  0.0415
  895MPD2    H713125   3.523   4.173  13.009  2.0782 -1.4631 -0.5237
  896MPD2     C13126   0.712   1.668   2.063  0.0714  0.1544  0.5649
  896MPD2    C113127   0.729   1.634   1.932  0.4223 -0.4934  0.2805
  896MPD2    C213128   0.624   1.572   1.856  0.4369 -0.1903  0.7400
  896MPD2    C313129   0.500   1.557   1.919  1.1181 -0.0441 -0.7479
  896MPD2    C413130   0.484   1.578   2.060 -0.3144  0.1202 -0.6807
  896MPD2    C513131   0.590   1.644   2.123  0.0978  0.2883  0.1759
  896MPD2     H13132   0.629   1.556   1.749  0.5644  1.8423  0.4340
  896MPD2    H113133   0.401   1.538   2.118  0.6172 -0.5656  0.1833
  896MPD2    H213134   0.792   1.716   2.118 -1.9414 -0.5428  4.1092
  896MPD2    H313135   0.594   1.662   2.230  0.9745  0.9922  0.0255
  896MPD2     N13136   0.394   1.509   1.837 -0.0774  0.0038  0.6044
  896MPD2    H513137   0.417   1.499   1.738  0.2785 -1.0860  0.7976
  896MPD2    N113138   0.851   1.670   1.869 -0.1929  0.0034 -0.3674
  896MPD2    H713139   0.921   1.709   1.932  0.9087 -1.2137 -0.8341
  897MPD2     C13140   2.009   3.158  10.815  0.0000  0.5998 -0.4276
  897MPD2    C113141   1.999   3.283  10.761 -0.3123 -0.0086  0.4851
  897MPD2    C213142   1.900   3.366  10.826 -0.1102  0.5181  0.3952
  897MPD2    C313143   1.835   3.338  10.941 -0.5038  1.2395 -0.1445
  897MPD2    C413144   1.870   3.216  10.996 -0.6168  0.5581 -0.4630
  897MPD2    C513145   1.947   3.129  10.934  0.5442  0.6100  0.5326
  897MPD2     H13146   1.884   3.466  10.787  0.9285 -0.1825 -1.8045
  897MPD2    H113147   1.834   3.190  11.094  1.6906 -1.0838 -0.0430
  897MPD2    H213148   2.069   3.080  10.769 -1.0977  0.5483 -1.7541
  897MPD2    H313149   1.972   3.033  10.976 -0.7663  0.0436  0.0074
  897MPD2     N13150   1.762   3.435  11.009  0.0558 -0.0936  0.3605
  897MPD2    H513151   1.739   3.405  11.103  0.1580 -1.2850  0.0138
  897MPD2    N113152   2.079   3.313  10.652  0.1328  0.5594  0.0631
  897MPD2    H713153   2.142   3.240  10.622 -0.8749  0.4882 -1.8514
  898MPD2     C13154   4.004   3.804  17.328  0.3118 -0.5003  0.0322
  898MPD2    C113155   4.051   3.935  17.353 -0.6236  0.2347 -1.0320
  898MPD2    C213156   4.054   4.031  17.257  0.3712  0.3560  0.0853
  898MPD2    C313157   4.014   3.998  17.132 -0.0627 -0.1642  0.2926
  898MPD2    C413158   3.971   3.872  17.101 -0.6668  0.6319 -0.0889
  898MPD2    C513159   3.957   3.778  17.199 -0.2901  0.1757 -0.0870
  898MPD2     H13160   4.085   4.130  17.288  1.0960  0.2926 -0.4351
  898MPD2    H113161   3.931   3.840  17.006 -0.4643 -1.5026  0.5619
  898MPD2    H213162   3.997   3.725  17.402  1.6636 -0.9521 -0.3317
  898MPD2    H313163   3.923   3.679  17.171  1.4880 -0.4573 -0.0080
  898MPD2     N13164   4.007   4.098  17.038  0.0389 -0.6462  0.0629
  898MPD2    H513165   4.040   4.191  17.059 -1.6919 -0.1059  0.3563
  898MPD2    N113166   4.101   3.976  17.472  0.3195  0.1673 -0.0657
  898MPD2    H713167   4.134   4.071  17.484 -1.5915  0.9026 -0.6390
  899MPD2     C13168   4.418   0.351  17.458 -0.4284 -0.9440  0.1946
  899MPD2    C113169   4.422   0.484  17.481 -0.3109  0.6447 -0.7039
  899MPD2    C213170   4.363   0.536  17.597 -0.2800  0.3272  0.3659
  899MPD2    C313171   4.327   0.458   0.001  0.0168 -0.1728 -0.1585
  899MPD2    C413172   4.338   0.323  17.681  0.0295  0.4034  0.7274
  899MPD2    C513173   4.378   0.270  17.560  0.2248 -0.1104 -0.0387
  899MPD2     H13174   4.353   0.644  17.602 -2.1785  0.1316  0.5468
  899MPD2    H113175   4.308   0.254   0.061  1.4051 -0.1698  0.7440
  899MPD2    H213176   4.448   0.311  17.362 -0.9253  1.2301 -0.8688
  899MPD2    H313177   4.383   0.163  17.545 -1.8539 -0.1392 -0.5542
  899MPD2     N13178   4.275   0.499   0.130 -0.8595 -0.4457 -0.5386
  899MPD2    H513179   4.248   0.429   0.199 -1.8406 -0.3191 -0.7914
  899MPD2    N113180   4.465   0.560  17.374 -0.2684  0.2332  0.3666
  899MPD2    H713181   4.503   0.514  17.292 -1.2429 -1.6895  0.9967
  900MPD2     C13182   4.594   2.346  12.419 -0.8714 -0.1303  0.3046
  900MPD2    C113183   4.544   2.221  12.438 -0.0185  0.3111 -0.4068
  900MPD2    C213184   4.444   2.173  12.354  0.1365  0.3708 -0.3363
  900MPD2    C313185   4.406   2.243  12.241 -0.1464 -0.0750  0.1392
  900MPD2    C413186   4.484   2.353  12.211  0.1486 -0.3649 -0.1789
  900MPD2    C513187   4.562   2.410  12.306 -0.0452  0.9786  0.0418
  900MPD2     H13188   4.404   2.073  12.367  3.4755 -0.6755  1.9449
  900MPD2    H113189   4.455   2.415  12.127  2.5280 -0.2465 -0.9118
  900MPD2    H213190   4.670   2.389  12.483 -0.2876  0.7849 -1.0041
  900MPD2    H313191   4.607   2.506  12.284 -2.0393  1.9403  0.1379
  900MPD2     N13192   4.297   2.203  12.162  0.3164  0.0599  0.4448
  900MPD2    H513193   4.245   2.123  12.196 -1.4771  0.7824 -0.5935
  900MPD2    N113194   4.598   2.135  12.542 -0.4988  0.3419 -0.7289
  900MPD2    H713195   4.679   2.167  12.594  1.1083 -1.0598 -2.3190
  901MPD2     C13196   4.291   1.256  12.888  0.2201 -0.8903  0.1112
  901MPD2    C113197   4.431   1.254  12.895 -0.6938 -0.1043  0.8063
  901MPD2    C213198   4.490   1.376  12.905 -0.6541 -0.3477  0.3876
  901MPD2    C313199   4.415   1.497  12.898 -0.3141  0.8551  0.2416
  901MPD2    C413200   4.278   1.495  12.896 -0.1066  0.3736  0.4904
  901MPD2    C513201   4.212   1.369  12.887 -0.5060  0.1154 -0.0894
  901MPD2     H13202   4.598   1.380  12.917 -0.5267 -1.8340 -0.2381
  901MPD2    H113203   4.216   1.582  12.877 -0.0848  0.4692  0.8519
  901MPD2    H213204   4.232   1.165  12.881  2.2727 -2.1135 -1.4037
  901MPD2    H313205   4.106   1.374  12.868 -0.3618  1.3346 -0.5986
  901MPD2     N13206   4.472   1.627  12.894  0.2889  0.1784 -0.7310
  901MPD2    H513207   4.420   1.714  12.900  0.5751  0.4468 -2.1185
  901MPD2    N113208   4.493   1.126  12.889  0.0014  0.1883 -0.5394
  901MPD2    H713209   4.432   1.046  12.875  0.4661 -0.0951 -0.9660
  902MPD2     C13210   3.595   0.268  12.851 -0.2709 -0.1326  0.0722
  902MPD2    C113211   3.494   0.236  12.768 -0.0600  1.1818 -0.6615
  902MPD2    C213212   3.523   0.250  12.635  0.0012 -0.1668  0.0202
  902MPD2    C313213   3.648   0.269  12.587  0.6792  0.4730 -0.4657
  902MPD2    C413214   3.746   0.314  12.672 -0.4853 -0.6073  0.1889
  902MPD2    C513215   3.711   0.317  12.804 -0.5881 -0.3342  0.7653
  902MPD2     H13216   3.443   0.231  12.564  0.3867 -1.1229 -0.1620
  902MPD2    H113217   3.841   0.356  12.640 -0.4698 -2.2812 -1.9302
  902MPD2    H213218   3.580   0.284  12.957 -1.8813  0.4640 -0.2416
  902MPD2    H313219   3.781   0.370  12.867  1.1103 -0.5611 -0.9452
  902MPD2     N13220   3.670   0.276  12.450 -0.7853  0.3979 -0.4261
  902MPD2    H513221   3.753   0.327  12.421 -0.4278  0.1452  0.1670
  902MPD2    N113222   3.364   0.213  12.822 -0.3680  0.0681  0.0970
  902MPD2    H713223   3.359   0.208  12.923 -0.9104  0.8422  0.1061
  903MPD2     C13224   3.599   0.033  11.567  0.3048 -0.6356  0.2743
  903MPD2    C113225   3.515   0.078  11.669  0.0928  0.3611 -0.0997
  903MPD2    C213226   3.380   0.047  11.656  0.6044  0.2337  0.5018
  903MPD2    C313227   3.330   4.694  11.550 -0.1473  0.0547 -0.6918
  903MPD2    C413228   3.416   4.642  11.459 -0.7270 -0.3904  0.2385
  903MPD2    C513229   3.547   4.675  11.468  0.1692  0.0388  0.4427
  903MPD2     H13230   3.308   0.072  11.733  0.4685  4.5676 -1.0742
  903MPD2    H113231   3.391   4.567  11.385 -0.1348 -0.8970  0.5563
  903MPD2    H213232   3.706   0.052  11.572  0.0302  1.2090 -0.9706
  903MPD2    H313233   3.630   4.634  11.413 -0.4416  0.7228 -0.9867
  903MPD2     N13234   3.189   4.677  11.551 -0.3377 -0.6251 -0.0154
  903MPD2    H513235   3.135   0.010  11.615  0.3188 -1.4626  1.2978
  903MPD2    N113236   3.570   0.157  11.774  0.2940  0.8277 -0.4775
  903MPD2    H713237   3.670   0.170  11.772  0.6682 -2.1961 -1.2958
  904MPD2     C13238   2.959   3.513  13.650  0.2226  0.5037 -0.3541
  904MPD2    C113239   3.041   3.580  13.565 -0.4556  0.0256  0.7797
  904MPD2    C213240   3.174   3.555  13.558 -0.6761  0.4133  0.3198
  904MPD2    C313241   3.231   3.471  13.644  0.3221  0.0590  1.1557
  904MPD2    C413242   3.154   3.401  13.733 -0.2805 -0.6971  0.1429
  904MPD2    C513243   3.020   3.421  13.732  0.8599  0.1176 -0.1623
  904MPD2     H13244   3.237   3.600  13.481  1.8991 -2.2415  0.8524
  904MPD2    H113245   3.199   3.331  13.802 -2.4641 -3.3253 -1.0909
  904MPD2    H213246   2.851   3.503  13.648  0.2923  0.0994 -2.0477
  904MPD2    H313247   2.952   3.362  13.792  0.2127 -0.7302 -1.7254
  904MPD2     N13248   3.367   3.470  13.636 -0.5174  0.2599  0.3328
  904MPD2    H513249   3.413   3.518  13.560  0.0696 -0.0010  0.5233
  904MPD2    N113250   2.988   3.675  13.476 -0.1205  0.1904  0.3989
  904MPD2    H713251   3.054   3.720  13.413 -1.2682 -0.9888 -1.6108
  905MPD2     C13252   3.072   3.884  12.773 -0.8404  0.3198  0.2484
  905MPD2    C113253   3.081   3.786  12.871  0.3201  0.6282 -0.7541
  905MPD2    C213254   3.184   3.691  12.875 -0.1998 -0.6389 -0.0911
  905MPD2    C313255   3.289   3.694  12.778 -0.2408 -0.3415 -0.6200
  905MPD2    C413256   3.289   3.797  12.683  0.3859 -0.0153 -0.1635
  905MPD2    C513257   3.175   3.882  12.677  0.1873 -0.8550 -0.3300
  905MPD2     H13258   3.187   3.610  12.948  1.2425 -0.5849 -0.0845
  905MPD2    H113259   3.367   3.810  12.609  0.5249  1.1982  0.1948
  905MPD2    H213260   2.995   3.957  12.751 -1.3670 -0.0621  0.8537
  905MPD2    H313261   3.165   3.953  12.595  0.4467 -0.9934 -0.4820
  905MPD2     N13262   3.403   3.608  12.788  0.1504  0.1760 -0.5443
  905MPD2    H513263   3.491   3.627  12.740  1.4813 -3.1900  0.5095
  905MPD2    N113264   3.010   3.800  12.993  0.0350  0.4735 -0.6102
  905MPD2    H713265   3.053   3.751  13.071  0.7339  0.2715 -1.1166
  906MPD2     C13266   0.649   3.720  11.696  0.5050 -0.4016  0.3130
  906MPD2    C113267   0.611   3.663  11.572  0.4396  0.3379 -0.0649
  906MPD2    C213268   0.538   3.543  11.575  0.0120 -0.2567 -0.2212
  906MPD2    C313269   0.497   3.489  11.692  0.1644 -0.2708 -0.3304
  906MPD2    C413270   0.529   3.552  11.807 -0.0324  0.8095  0.3399
  906MPD2    C513271   0.610   3.660  11.811 -0.1925 -0.1759 -1.0055
  906MPD2     H13272   0.540   3.484  11.483 -2.6117  1.5883 -1.4826
  906MPD2    H113273   0.511   3.520  11.909 -2.4444 -0.9508 -0.6484
  906MPD2    H213274   0.709   3.811  11.697 -1.5650  0.9699 -0.2614
  906MPD2    H313275   0.645   3.705  11.903 -2.1483  1.6374 -1.1449
  906MPD2     N13276   0.434   3.367  11.701  0.4538 -0.2457  0.3707
  906MPD2    H513277   0.411   3.329  11.792 -0.4131 -1.4620 -0.3522
  906MPD2    N113278   0.621   3.718  11.441 -0.1912  0.0175 -0.0146
  906MPD2    H713279   0.578   3.661  11.368 -0.0130  0.4899 -0.4879
  907MPD2     C13280   4.385   2.621  16.218 -0.3338  0.5062 -0.4862
  907MPD2    C113281   4.283   2.528  16.225  0.2128  0.3020  0.3635
  907MPD2    C213282   4.246   2.488  16.353 -0.0667 -0.3324  1.0064
  907MPD2    C313283   4.297   2.549  16.466  0.0541 -0.1295 -0.4289
  907MPD2    C413284   4.402   2.641  16.455  0.3893  0.0401  0.3937
  907MPD2    C513285   4.447   2.671  16.331  1.1005 -0.5066  0.6212
  907MPD2     H13286   4.166   2.418  16.376 -0.6005  0.5738  1.8686
  907MPD2    H113287   4.450   2.686  16.541  1.3295 -1.7061  0.7847
  907MPD2    H213288   4.423   2.661  16.125  0.5658  0.7068 -0.0387
  907MPD2    H313289   4.526   2.746  16.329  1.3727 -0.7783  1.0446
  907MPD2     N13290   4.247   2.508  16.595 -0.2027  0.2778 -0.7558
  907MPD2    H513291   4.172   2.439  16.594  1.0299 -1.0487 -1.6959
  907MPD2    N113292   4.211   2.488  16.106 -0.4381  0.1854  0.0484
  907MPD2    H713293   4.138   2.420  16.123  2.6530 -2.5883  2.3959
  908MPD2     C13294   2.651   2.839  10.200 -0.1562  0.6543  0.3274
  908MPD2    C113295   2.524   2.836  10.151  0.8530  0.1959  0.4274
  908MPD2    C213296   2.442   2.942  10.188  0.7449  0.2808  0.2623
  908MPD2    C313297   2.495   3.046  10.268  1.2968 -0.6237 -1.0699
  908MPD2    C413298   2.631   3.043  10.307  0.5510  0.2921 -0.5179
  908MPD2    C513299   2.706   2.940  10.270  0.0588  0.0069  0.3035
  908MPD2     H13300   2.339   2.963  10.161  0.4252  0.5981  1.7127
  908MPD2    H113301   2.671   3.119  10.373  1.3936 -0.7227  0.1282
  908MPD2    H213302   2.708   2.747  10.192  0.5843  1.3007 -1.9008
  908MPD2    H313303   2.809   2.934  10.304  0.1742  1.8902  0.2510
  908MPD2     N13304   2.419   3.163  10.295 -0.4566  0.1056 -0.5149
  908MPD2    H513305   2.319   3.146  10.294 -0.5737  0.7194  0.6975
  908MPD2    N113306   2.483   2.722  10.070  0.5537  0.0058 -0.4049
  908MPD2    H713307   2.555   2.661  10.034  0.0222 -1.1022  0.4323
  909MPD2     C13308   2.247   1.595  12.079  0.2499  0.7191 -0.5025
  909MPD2    C113309   2.303   1.715  12.056  0.1110 -0.2207 -0.4664
  909MPD2    C213310   2.271   1.822  12.139  0.7054 -0.3548  0.3052
  909MPD2    C313311   2.172   1.812  12.235 -0.2890  0.7434  1.0063
  909MPD2    C413312   2.115   1.688  12.259 -0.2283  0.5297  0.2987
  909MPD2    C513313   2.154   1.580  12.180  0.7959 -0.2055  1.5624
  909MPD2     H13314   2.315   1.920  12.125 -1.6584  0.6463 -0.0408
  909MPD2    H113315   2.033   1.676  12.329 -1.1436  0.7057 -0.7396
  909MPD2    H213316   2.269   1.505  12.023 -0.0240  0.3438 -0.0100
  909MPD2    H313317   2.097   1.489  12.194 -0.1833  0.2763  0.5988
  909MPD2     N13318   2.127   1.928  12.306  0.0610  0.3011 -0.1945
  909MPD2    H513319   2.165   2.014  12.266 -0.0956 -0.1288 -1.2614
  909MPD2    N113320   2.390   1.736  11.950 -0.3054 -0.1769  0.0303
  909MPD2    H713321   2.424   1.831  11.944 -0.0280 -0.2603  0.3286
  910MPD2     C13322   3.222   2.794  15.268 -0.4127 -0.1042  0.6351
  910MPD2    C113323   3.318   2.892  15.239  0.0674  0.3136  0.2136
  910MPD2    C213324   3.304   2.963  15.120 -0.3734 -0.1201 -0.1839
  910MPD2    C313325   3.195   2.950  15.036 -0.2649 -0.5161  0.6764
  910MPD2    C413326   3.093   2.863  15.072 -0.0571 -0.2772 -0.3087
  910MPD2    C513327   3.111   2.780  15.185  0.1140  0.5587 -0.2611
  910MPD2     H13328   3.377   3.041  15.101 -0.0413  0.0486  1.7909
  910MPD2    H113329   3.003   2.844  15.014  0.5334 -0.1024 -1.2900
  910MPD2    H213330   3.216   2.740  15.362 -1.2332 -0.3448  0.4421
  910MPD2    H313331   3.039   2.700  15.204  1.3153 -0.9079 -1.9045
  910MPD2     N13332   3.190   3.016  14.915  0.2677 -0.5143  0.3342
  910MPD2    H513333   3.110   2.996  14.856  1.2802 -0.5680 -1.0339
  910MPD2    N113334   3.437   2.902  15.309  0.1188 -0.4525 -0.5857
  910MPD2    H713335   3.502   2.973  15.276  0.2220 -0.0906  0.4021
  911MPD2     C13336   1.379   3.558  16.412  0.7565 -0.1529 -0.3859
  911MPD2    C113337   1.431   3.669  16.472 -0.8389  0.1014  0.4739
  911MPD2    C213338   1.377   3.797  16.460 -0.5322  0.4334  0.2096
  911MPD2    C313339   1.262   3.812  16.390  1.0892  1.2342 -0.4132
  911MPD2    C413340   1.212   3.697  16.328  0.0332 -0.5105  0.4888
  911MPD2    C513341   1.271   3.571  16.326 -0.1617 -0.1755 -0.3744
  911MPD2     H13342   1.430   3.883  16.498 -1.2698  1.3664 -0.8804
  911MPD2    H113343   1.114   3.709  16.281  0.1845 -1.6847 -0.1241
  911MPD2    H213344   1.421   3.458  16.415  4.6240  1.5411  1.5562
  911MPD2    H313345   1.224   3.489  16.273 -1.1099 -0.3725  0.7793
  911MPD2     N13346   1.201   3.928  16.341 -0.0494 -0.3889 -0.2903
  911MPD2    H513347   1.120   3.922  16.280 -0.8776  1.0532  0.6497
  911MPD2    N113348   1.550   3.651  16.537  0.0189  0.0727  0.2668
  911MPD2    H713349   1.595   3.563  16.515 -0.8258  0.5662 -3.3808
  912MPD2     C13350   0.890   3.851  15.694  0.5762  0.4696 -0.8469
  912MPD2    C113351   0.948   3.838  15.815  0.4142  0.4998 -0.2550
  912MPD2    C213352   0.977   3.703  15.860 -0.2655  0.3475  0.5553
  912MPD2    C313353   0.955   3.598  15.774 -0.8693 -0.2448 -0.6119
  912MPD2    C413354   0.922   3.623  15.645 -0.9502 -0.6394  0.0677
  912MPD2    C513355   0.883   3.747  15.608 -0.1593 -0.1985  0.5241
  912MPD2     H13356   1.001   3.681  15.964 -1.7286  1.1151  1.0585
  912MPD2    H113357   0.898   3.539  15.581  1.4470 -1.0384 -0.3246
  912MPD2    H213358   0.842   3.946  15.674 -4.7235 -1.8529  0.7081
  912MPD2    H313359   0.833   3.758  15.513  1.6093  3.9319  0.0857
  912MPD2     N13360   0.979   3.471  15.828  0.2699 -0.0630  0.6135
  912MPD2    H513361   0.994   3.469  15.928 -3.4325 -1.6569  1.1561
  912MPD2    N113362   0.956   3.950  15.910  0.4437  0.5550  0.0781
  912MPD2    H713363   0.929   4.042  15.878 -0.6405  0.5776  1.0731
  913MPD2     C13364   1.668   0.025  10.452 -0.5781 -0.2562 -0.3224
  913MPD2    C113365   1.754   0.086  10.538 -1.5525 -0.9128 -0.2631
  913MPD2    C213366   1.790   0.220  10.520 -0.1743  0.2194  0.3380
  913MPD2    C313367   1.727   0.282  10.408  0.2852  0.1363  0.0818
  913MPD2    C413368   1.643   0.225  10.324 -0.1972  0.6022  0.9583
  913MPD2    C513369   1.610   0.095  10.353 -0.4147  0.1578  0.4016
  913MPD2     H13370   1.840   0.277  10.597  1.7026 -1.4017  0.3265
  913MPD2    H113371   1.595   0.282  10.245 -2.7805 -2.3151  0.3942
  913MPD2    H213372   1.625   4.652  10.476 -1.6124  1.1257  3.3144
  913MPD2    H313373   1.532   0.042  10.299 -1.9253  1.4234  1.3494
  913MPD2     N13374   1.760   0.418  10.371 -0.4801 -0.0469  0.5533
  913MPD2    H513375   1.704   0.455  10.295  2.8421  0.5025 -1.6178
  913MPD2    N113376   1.804   0.008  10.640 -0.4535 -0.3685  0.2506
  913MPD2    H713377   1.774   4.636  10.632 -0.0787 -0.5476  1.0022
  914MPD2     C13378   0.096   1.093  12.153  0.9280 -0.1436 -0.3842
  914MPD2    C113379   0.155   1.169  12.252 -0.1273  0.2074  0.2716
  914MPD2    C213380   0.177   1.109  12.374 -0.1509  0.2136 -0.1411
  914MPD2    C313381   0.157   0.971  12.393  0.1523  0.6951 -0.4067
  914MPD2    C413382   0.114   0.894  12.291 -0.6401 -0.5226  0.6316
  914MPD2    C513383   0.081   0.956  12.175 -0.2996 -0.2875 -0.0808
  914MPD2     H13384   0.204   1.171  12.459 -0.5212 -2.5072  1.9811
  914MPD2    H113385   0.087   0.790  12.303 -0.9092 -0.5064  0.1731
  914MPD2    H213386   0.060   1.133  12.058  0.2981 -2.1257 -0.9715
  914MPD2    H313387   0.030   0.897  12.099  0.7372  1.6417 -2.2725
  914MPD2     N13388   0.173   0.922  12.526 -0.5122  0.0856  0.2148
  914MPD2    H513389   0.225   0.983  12.587 -0.2517 -0.1581  0.2372
  914MPD2    N113390   0.157   1.311  12.248 -0.0188 -0.1421  0.5498
  914MPD2    H713391   0.105   1.362  12.177  0.9949 -0.3259 -0.3313
  915MPD2     C13392   2.023   0.608  15.614  0.5813  0.1761 -0.1882
  915MPD2    C113393   1.946   0.723  15.596 -0.2465  0.1390 -0.2000
  915MPD2    C213394   1.962   0.826  15.684 -0.7267 -0.3042  1.0515
  915MPD2    C313395   2.043   0.810  15.794  0.9189  0.0262  0.2249
  915MPD2    C413396   2.129   0.701  15.807 -0.0958 -0.0370  0.1679
  915MPD2    C513397   2.121   0.606  15.713 -0.7376 -0.2420  0.3391
  915MPD2     H13398   1.904   0.918  15.682 -0.0858  0.0623 -0.6550
  915MPD2    H113399   2.205   0.696  15.883  1.5243 -0.3700 -1.4910
  915MPD2    H213400   2.015   0.520  15.550 -2.5328  0.3053  0.0443
  915MPD2    H313401   2.184   0.517  15.715 -0.4183 -0.0267 -0.0898
  915MPD2     N13402   2.046   0.914  15.888  0.2227 -0.3423 -0.4638
  915MPD2    H513403   1.993   0.999  15.869 -1.0542 -0.4308  2.7170
  915MPD2    N113404   1.848   0.720  15.489  0.6217  0.1599  0.0158
  915MPD2    H713405   1.812   0.631  15.455 -2.4914  2.0699 -1.6174
  916MPD2     C13406   0.574   3.586  15.769  0.5528 -0.0260 -0.2556
  916MPD2    C113407   0.586   3.493  15.862 -0.0798  0.2308  0.8065
  916MPD2    C213408   0.592   3.362  15.826  0.2854 -0.1487  0.2498
  916MPD2    C313409   0.601   3.326  15.693 -0.1811  0.3405 -0.5294
  916MPD2    C413410   0.584   3.429  15.606  0.7738  0.3754 -0.7681
  916MPD2    C513411   0.567   3.558  15.636  0.2030 -0.1076  0.1452
  916MPD2     H13412   0.597   3.288  15.905 -1.4101 -2.1238 -1.4866
  916MPD2    H113413   0.580   3.414  15.498 -0.9035  2.1132 -0.9553
  916MPD2    H213414   0.576   3.689  15.805 -2.2438 -0.2546  0.5166
  916MPD2    H313415   0.561   3.630  15.555  2.9566 -1.2422 -1.0633
  916MPD2     N13416   0.631   3.196  15.649 -0.4454 -0.5329 -0.2714
  916MPD2    H513417   0.656   3.133  15.725 -0.6659 -0.5561 -0.2158
  916MPD2    N113418   0.582   3.541  15.996 -0.0623  0.2382  0.2146
  916MPD2    H713419   0.575   3.641  16.007 -0.7008  0.2297 -0.1210
  917MPD2     C13420   0.940   1.285  11.025  0.6309 -0.2004  0.0770
  917MPD2    C113421   1.010   1.327  11.132  0.3872  0.4966  0.4105
  917MPD2    C213422   1.131   1.386  11.113 -0.1532  0.2715 -0.7951
  917MPD2    C313423   1.188   1.403  10.979  0.0774  0.4186  0.2698
  917MPD2    C413424   1.120   1.350  10.876  0.2752 -0.4037  0.7856
  917MPD2    C513425   0.997   1.301  10.897  0.1655  0.1628 -0.5630
  917MPD2     H13426   1.160   1.445  11.199 -4.0290  0.3378  0.4559
  917MPD2    H113427   1.142   1.373  10.772  0.0162  2.1163  1.2913
  917MPD2    H213428   0.845   1.237  11.042  0.3534  1.3268  2.9448
  917MPD2    H313429   0.947   1.271  10.805 -0.7707 -0.0905  0.0300
  917MPD2     N13430   1.292   1.493  10.949 -0.1993 -0.1966 -0.4366
  917MPD2    H513431   1.319   1.500  10.851  0.7113  0.6780 -0.1242
  917MPD2    N113432   0.937   1.314  11.256  0.3229  0.1115 -0.3495
  917MPD2    H713433   0.846   1.271  11.247 -0.2496  1.4409 -0.8712
  918MPD2     C13434   0.961   1.644  12.212  0.0159  0.1208  0.3640
  918MPD2    C113435   1.063   1.571  12.150 -0.2557 -0.5605  0.8347
  918MPD2    C213436   1.044   1.542  12.013 -0.3330 -0.3252  0.2007
  918MPD2    C313437   0.922   1.561  11.950  0.5739  0.8193  0.2000
  918MPD2    C413438   0.821   1.627  12.015 -0.2565 -0.2188  0.2380
  918MPD2    C513439   0.840   1.670  12.146  0.2067 -0.0625  0.0510
  918MPD2     H13440   1.120   1.488  11.958  1.0563  2.2117 -0.3879
  918MPD2    H113441   0.721   1.642  11.975 -0.1730  1.7191  0.7410
  918MPD2    H213442   0.964   1.690  12.310  1.8700 -0.4053  0.5430
  918MPD2    H313443   0.761   1.718  12.201  2.9077 -0.3678  4.1427
  918MPD2     N13444   0.904   1.514  11.820  0.2834 -0.3616  0.2635
  918MPD2    H513445   0.988   1.475  11.778 -0.7088 -0.5983 -1.4920
  918MPD2    N113446   1.173   1.542  12.230 -0.3015 -0.7114 -0.1507
  918MPD2    H713447   1.170   1.558  12.330  0.4859 -2.3776  0.1425
  919MPD2     C13448   1.898   0.411  11.634 -0.3321 -0.6368  0.6399
  919MPD2    C113449   1.814   0.309  11.596  0.1079 -0.0814  0.1439
  919MPD2    C213450   1.774   0.293  11.467 -0.4081 -0.5968 -0.5141
  919MPD2    C313451   1.813   0.392  11.378  0.1230  0.4591  0.0579
  919MPD2    C413452   1.888   0.498  11.417  0.9631  0.7902  0.2403
  919MPD2    C513453   1.925   0.510  11.546  0.6255  0.0458 -0.4021
  919MPD2     H13454   1.710   0.214  11.430 -0.1205  0.2627 -2.8552
  919MPD2    H113455   1.934   0.574  11.356  2.2411 -0.0764  0.1357
  919MPD2    H213456   1.925   0.418  11.739  1.8120  0.9913 -0.0217
  919MPD2    H313457   1.989   0.593  11.572 -0.8239  0.2982  2.4246
  919MPD2     N13458   1.779   0.381  11.241 -0.4218  0.5912 -0.7188
  919MPD2    H513459   1.809   0.466  11.193 -0.3678  0.5713 -0.7213
  919MPD2    N113460   1.763   0.206  11.681  0.5079 -0.4960 -0.6472
  919MPD2    H713461   1.703   0.134  11.643  0.5455 -0.8974  0.0605
  920MPD2     C13462   1.825   1.035  10.551 -0.5046  0.3436  0.5106
  920MPD2    C113463   1.699   0.983  10.522  0.7132  0.0681 -0.0675
  920MPD2    C213464   1.661   0.860  10.585  0.0995 -0.7749 -0.3821
  920MPD2    C313465   1.743   0.799  10.678 -0.4730  0.0662  0.3968
  920MPD2    C413466   1.854   0.869  10.725 -0.3658  0.1242 -0.6074
  920MPD2    C513467   1.897   0.976  10.646 -0.7735 -0.1323 -0.2300
  920MPD2     H13468   1.565   0.814  10.564 -0.2059 -0.3543  0.1023
  920MPD2    H113469   1.914   0.842  10.812 -0.4494 -0.4384 -0.7226
  920MPD2    H213470   1.867   1.122  10.502 -1.4472 -0.0966 -1.0985
  920MPD2    H313471   1.993   1.008  10.684 -2.2712  2.4231  1.3769
  920MPD2     N13472   1.689   0.676  10.733  0.5254 -0.5404 -0.4031
  920MPD2    H513473   1.604   0.649  10.684  0.9038  2.4573 -2.7140
  920MPD2    N113474   1.605   1.051  10.431  0.5360  0.2798 -0.0864
  920MPD2    H713475   1.509   1.019  10.430  0.5806  0.1381  0.0431
  921MPD2     C13476   2.313   4.189  16.892  0.5163 -0.2630  0.2350
  921MPD2    C113477   2.357   4.069  16.868  0.0025  0.0698  0.2425
  921MPD2    C213478   2.291   3.966  16.808 -0.2318 -0.5737  0.1425
  921MPD2    C313479   2.155   4.005  16.772 -0.1182  0.2997  0.5458
  921MPD2    C413480   2.112   4.132  16.783  0.3283  0.1033 -0.1371
  921MPD2    C513481   2.192   4.223  16.840  0.2201  0.5282  0.4384
  921MPD2     H13482   2.338   3.870  16.791 -0.8127 -0.6015 -1.3133
  921MPD2    H113483   2.019   4.162  16.737 -0.6249 -1.3854  0.8260
  921MPD2    H213484   2.377   4.270  16.926 -1.1271  1.0677  0.1761
  921MPD2    H313485   2.166   4.328  16.849 -1.4691  0.3777 -2.9399
  921MPD2     N13486   2.065   3.915  16.715 -0.3386  0.4903 -0.1115
  921MPD2    H513487   1.979   3.955  16.680  0.4466  1.4332 -0.9966
  921MPD2    N113488   2.494   4.060  16.899 -0.0921  0.0347 -0.1311
  921MPD2    H713489   2.533   4.138  16.950  2.3454 -0.7522 -0.7996
  922MPD2     C13490   3.361   1.709  17.078  0.0070  0.0739 -0.0443
  922MPD2    C113491   3.318   1.793  17.175  0.1783 -0.4582  0.2502
  922MPD2    C213492   3.188   1.784  17.229  0.3459 -0.3912  0.4639
  922MPD2    C313493   3.111   1.676  17.194  0.4298 -0.0245 -0.3638
  922MPD2    C413494   3.163   1.584  17.103  0.7609  0.3412  0.1667
  922MPD2    C513495   3.285   1.600  17.038 -0.3339 -0.0246  0.4497
  922MPD2     H13496   3.157   1.859  17.301 -0.8385  0.2939 -0.7674
  922MPD2    H113497   3.104   1.494  17.090  1.4005 -0.3151  1.8276
  922MPD2    H213498   3.464   1.712  17.044 -0.2344  2.1590 -0.6081
  922MPD2    H313499   3.324   1.537  16.959  0.1065  1.0848 -0.2221
  922MPD2     N13500   2.979   1.665  17.248  0.2014  0.0623 -0.8645
  922MPD2    H513501   2.950   1.717  17.330 -1.7833 -1.3864 -0.6596
  922MPD2    N113502   3.404   1.883  17.235 -0.1860  0.0159 -0.3251
  922MPD2    H713503   3.366   1.954  17.296  3.6534  1.4823  0.3569
  923MPD2     C13504   0.376   4.265   9.808 -0.0390 -0.3342  0.1010
  923MPD2    C113505   0.346   4.386   9.747 -0.7882 -0.1364  0.9478
  923MPD2    C213506   0.398   4.503   9.802 -0.4200 -0.2268 -0.2559
  923MPD2    C313507   0.484   4.496   9.909  1.1214  0.6673  0.4518
  923MPD2    C413508   0.524   4.376   9.959 -0.2720 -0.4048 -0.5841
  923MPD2    C513509   0.466   4.259   9.907  0.3603  0.1879 -0.1409
  923MPD2     H13510   0.368   4.598   9.761 -0.4524  0.4214  1.2879
  923MPD2    H113511   0.594   4.363  10.041 -0.2548 -1.8074 -0.8142
  923MPD2    H213512   0.339   4.167   9.778 -1.0788  0.7147 -2.0156
  923MPD2    H313513   0.499   4.168   9.955  4.4618  1.2701 -0.9344
  923MPD2     N13514   0.546   4.620   9.958 -0.5481  0.4518 -0.3590
  923MPD2    H513515   0.621   4.608  10.026 -0.7856  1.9151  0.1595
  923MPD2    N113516   0.264   4.380   9.634  0.1297 -0.6093  0.0058
  923MPD2    H713517   0.221   4.288   9.633  0.7681 -0.9303  1.4098
  924MPD2     C13518   3.819   1.894  16.536  0.8967 -0.2847 -0.2093
  924MPD2    C113519   3.768   2.003  16.602 -0.1215 -0.7494 -0.0365
  924MPD2    C213520   3.847   2.084  16.683 -0.3972  0.3904  0.3601
  924MPD2    C313521   3.977   2.045  16.706 -0.3804  0.1506  0.0488
  924MPD2    C413522   4.030   1.937  16.644  0.4798  0.8927  0.2165
  924MPD2    C513523   3.948   1.864  16.553 -0.4828  0.3098 -0.8603
  924MPD2     H13524   3.803   2.173  16.726  1.0139  1.5769 -0.6315
  924MPD2    H113525   4.130   1.898  16.663  1.2616  2.3824 -0.9042
  924MPD2    H213526   3.763   1.830  16.468 -0.4413  0.4936  0.1643
  924MPD2    H313527   3.989   1.773  16.512  0.5043 -0.1952  1.2365
  924MPD2     N13528   4.063   2.118  16.782 -0.7117  0.4102  0.4071
  924MPD2    H513529   4.162   2.093  16.780 -0.6647  0.5770  0.6109
  924MPD2    N113530   3.634   2.026  16.570 -0.2842 -0.5856  0.3968
  924MPD2    H713531   3.597   1.957  16.505 -0.2229 -0.4658  0.2342
  925MPD2     C13532   2.988   3.925  14.709 -0.3698 -0.0261 -0.0643
  925MPD2    C113533   2.868   3.995  14.718 -0.5676 -0.9428 -0.2057
  925MPD2    C213534   2.800   4.016  14.838  0.6365  0.2511  0.0580
  925MPD2    C313535   2.862   3.970  14.958 -0.5130 -0.0154 -0.2224
  925MPD2    C413536   2.973   3.887  14.943  0.2461 -0.2168  0.4594
  925MPD2    C513537   3.023   3.853  14.823  0.2355  0.1555 -0.9834
  925MPD2     H13538   2.697   4.052  14.837  1.1761  1.8617  1.8259
  925MPD2    H113539   3.012   3.833  15.028  1.7647 -1.4143 -0.9935
  925MPD2    H213540   3.035   3.894  14.616  0.4775  1.1300 -0.0124
  925MPD2    H313541   3.101   3.779  14.814  1.1899  1.1606 -1.0087
  925MPD2     N13542   2.813   3.988  15.088  0.1332  0.3498 -0.2075
  925MPD2    H513543   2.860   3.936  15.161 -1.4482 -0.3097  0.3270
  925MPD2    N113544   2.821   4.037  14.590 -1.0648  0.1548 -0.1886
  925MPD2    H713545   2.863   3.999  14.506 -0.6921  2.0642 -0.8513
  926MPD2     C13546   2.324   2.970  13.279 -0.3024  0.6266 -0.2149
  926MPD2    C113547   2.293   3.089  13.328  0.4411  0.1533 -0.1238
  926MPD2    C213548   2.312   3.202  13.246 -0.2248  0.3513 -0.5648
  926MPD2    C313549   2.379   3.193  13.130  0.6045 -0.3702 -0.0242
  926MPD2    C413550   2.403   3.069  13.085 -0.0027  0.4259  0.3152
  926MPD2    C513551   2.379   2.960  13.156 -0.1694 -0.2753 -0.1107
  926MPD2     H13552   2.279   3.296  13.287  0.2692 -1.6770  4.4930
  926MPD2    H113553   2.453   3.060  12.989  1.8931 -0.4486  1.3936
  926MPD2    H213554   2.289   2.885  13.338  1.6509 -0.5092 -0.6997
  926MPD2    H313555   2.396   2.862  13.113  1.1951  0.5105 -1.3494
  926MPD2     N13556   2.426   3.311  13.057  0.1493  0.6742 -0.0347
  926MPD2    H513557   2.480   3.290  12.974 -0.2829 -1.3122  0.1697
  926MPD2    N113558   2.264   3.112  13.457 -1.4843  0.2247 -0.6123
  926MPD2    H713559   2.259   3.212  13.471 -1.3664  0.3714 -1.5756
  927MPD2     C13560   1.302   0.675  17.447  0.0787 -0.0816  0.3922
  927MPD2    C113561   1.383   0.629  17.545  0.5182  0.1298 -0.3562
  927MPD2    C213562   1.506   0.580  17.508  0.2583 -0.4257 -0.0997
  927MPD2    C313563   1.554   0.592  17.376 -0.0210  0.5762  0.1269
  927MPD2    C413564   1.473   0.657  17.280 -0.2230  0.0454  0.3591
  927MPD2    C513565   1.347   0.684  17.316  0.4201  0.0038 -0.0423
  927MPD2     H13566   1.574   0.545  17.585  1.3860 -0.3912 -1.0981
  927MPD2    H113567   1.507   0.671  17.178 -0.7245 -2.2188 -0.1245
  927MPD2    H213568   1.203   0.712  17.471  1.0802  1.0918  2.7271
  927MPD2    H313569   1.276   0.724  17.245  1.6085 -0.6854 -1.6235
  927MPD2     N13570   1.684   0.545  17.355  0.0638  0.3077 -0.1315
  927MPD2    H513571   1.729   0.502  17.436  1.3819  0.4504 -0.7908
  927MPD2    N113572   1.333   0.618  17.677 -0.4073  0.4675  0.1925
  927MPD2    H713573   1.245   0.665  17.696 -1.6300 -1.3461 -1.0156
  928MPD2     C13574   3.960   3.551   0.923 -0.4453  0.4602  0.4812
  928MPD2    C113575   4.025   3.654   0.983  0.0766 -0.0092  0.0562
  928MPD2    C213576   4.149   3.690   0.934  0.7620 -0.3122 -0.0077
  928MPD2    C313577   4.215   3.616   0.836 -0.0972  0.4233  0.1608
  928MPD2    C413578   4.145   3.519   0.772 -0.3550 -0.4618 -1.0904
  928MPD2    C513579   4.019   3.488   0.813 -0.5228 -0.3062  0.9138
  928MPD2     H13580   4.200   3.773   0.983  1.4494 -0.2967 -0.7560
  928MPD2    H113581   4.170   3.465   0.681 -0.8946  1.2199 -2.2417
  928MPD2    H213582   3.857   3.530   0.947 -1.0703  1.0359 -1.7006
  928MPD2    H313583   3.967   3.413   0.755 -1.1233  2.3358 -1.9545
  928MPD2     N13584   4.346   3.656   0.783  0.2964 -0.0661  0.7842
  928MPD2    H513585   4.379   3.606   0.701  0.0056 -0.5829  0.9814
  928MPD2    N113586   3.964   3.720   1.097  0.2504 -0.1450 -0.4480
  928MPD2    H713587   3.891   3.663   1.137 -0.9221  1.4969 -0.2653
  929MPD2     C13588   4.703   3.679  10.779  0.0049 -0.4851  0.0116
  929MPD2    C113589   4.578   3.650  10.734 -0.4229  0.7587  0.3867
  929MPD2    C213590   4.542   3.674  10.605 -0.0560 -0.1114  0.5877
  929MPD2    C313591   4.640   3.727  10.519  0.4845 -0.3852  1.3165
  929MPD2    C413592   0.048   3.738  10.559  0.4754 -0.1612 -0.0590
  929MPD2    C513593   0.078   3.712  10.693  0.3864 -0.1241  0.0305
  929MPD2     H13594   4.439   3.681  10.572 -0.1771  0.3744  1.0674
  929MPD2    H113595   0.129   3.770  10.495 -0.4797  2.7650  0.1677
  929MPD2    H213596   0.005   3.668  10.883 -0.0706 -0.0386  0.0779
  929MPD2    H313597   0.174   3.715  10.743  0.1348 -2.9295  0.6510
  929MPD2     N13598   4.610   3.763  10.386 -0.1897  0.0901 -0.9693
  929MPD2    H513599   4.512   3.780  10.366  0.0383  2.1386 -0.3388
  929MPD2    N113600   4.492   3.607  10.836  0.2957 -0.3186 -0.6530
  929MPD2    H713601   4.533   3.585  10.926  1.7622  1.4663 -0.9011
  930MPD2     C13602   1.012   1.370  14.180  0.0771  0.2988  0.3276
  930MPD2    C113603   1.150   1.336  14.182  0.8093  0.1846 -0.0275
  930MPD2    C213604   1.190   1.227  14.115  0.6284 -0.1353  0.0921
  930MPD2    C313605   1.104   1.164  14.030 -0.0992  0.3213  0.0153
  930MPD2    C413606   0.972   1.188  14.031 -0.0288 -1.1055 -0.5832
  930MPD2    C513607   0.923   1.286  14.116  0.9788  0.3091  0.7746
  930MPD2     H13608   1.297   1.207  14.114  0.8275  0.8976  0.5890
  930MPD2    H113609   0.905   1.127  13.971 -1.1207  0.3089 -0.7826
  930MPD2    H213610   0.971   1.459  14.226  0.8937  0.0556  1.5076
  930MPD2    H313611   0.817   1.302  14.134  0.6624 -0.3260 -0.5379
  930MPD2     N13612   1.144   1.094  13.912  0.0086  0.1509  0.3217
  930MPD2    H513613   1.070   1.091  13.843 -0.7734  1.8706  1.0836
  930MPD2    N113614   1.242   1.433  14.232 -0.3849  0.3548 -0.0586
  930MPD2    H713615   1.200   1.525  14.241 -2.9033 -1.1016  3.0117
  931MPD2     C13616   1.693   0.170   0.500 -0.7281  0.0705  0.4669
  931MPD2    C113617   1.606   0.258   0.568 -0.0682 -0.7189  0.6306
  931MPD2    C213618   1.604   0.250   0.710  0.3945 -0.5940  0.1365
  931MPD2    C313619   1.681   0.151   0.777  0.0824  0.7472 -0.0880
  931MPD2    C413620   1.775   0.092   0.703 -1.0273 -0.0945 -0.2512
  931MPD2    C513621   1.789   0.093   0.569  0.5839  0.1994  0.1640
  931MPD2     H13622   1.530   0.293   0.776 -0.6915 -1.1031 -0.7484
  931MPD2    H113623   1.842   0.030   0.761  1.1378  2.7586  0.3237
  931MPD2    H213624   1.689   0.179   0.392  2.1785 -0.3846  0.3220
  931MPD2    H313625   1.867   0.045   0.512  2.0644  1.3026  1.2625
  931MPD2     N13626   1.661   0.120   0.913 -0.1898 -0.4373  0.6184
  931MPD2    H513627   1.709   0.036   0.945  1.5238  0.7909  1.2804
  931MPD2    N113628   1.524   0.338   0.492  0.1266  0.4130  0.2136
  931MPD2    H713629   1.533   0.332   0.391  0.3530 -1.8405  0.3868
  932MPD2     C13630   3.593   0.125  11.111 -0.2544  0.2796  0.4091
  932MPD2    C113631   3.687   0.227  11.128  0.6110 -0.2963  0.8601
  932MPD2    C213632   3.808   0.187  11.184 -0.0178  0.7367  0.0045
  932MPD2    C313633   3.833   0.051  11.203  0.2978  0.3730  0.2466
  932MPD2    C413634   3.741   4.682  11.174  0.2419 -0.1578 -0.3093
  932MPD2    C513635   3.619   4.720  11.127 -0.0306  0.0867  0.1651
  932MPD2     H13636   3.885   0.262  11.197  0.1561  0.5454  0.0779
  932MPD2    H113637   3.766   4.578  11.187  1.9247  0.2041 -0.7074
  932MPD2    H213638   3.491   0.141  11.078  0.8251  0.2402 -2.9265
  932MPD2    H313639   3.549   4.639  11.107 -0.4776  0.7827 -1.0580
  932MPD2     N13640   3.954   0.008  11.255 -0.1522 -0.0695 -0.2762
  932MPD2    H513641   3.956   4.637  11.289  1.0559  0.3089  0.7416
  932MPD2    N113642   3.658   0.368  11.109 -0.6545  0.0555  0.7899
  932MPD2    H713643   3.741   0.427  11.112  1.4471 -2.8714  0.2897
  933MPD2     C13644   3.644   4.199   1.805  0.0379  0.1416 -0.3120
  933MPD2    C113645   3.728   4.225   1.697 -0.0140 -0.3636  0.0119
  933MPD2    C213646   3.755   4.360   1.667  0.3075 -0.4503 -0.4905
  933MPD2    C313647   3.699   4.467   1.739  0.0048  0.1713  0.3249
  933MPD2    C413648   3.619   4.432   1.849  0.2564  0.0299  1.1583
  933MPD2    C513649   3.590   4.302   1.880 -0.4722 -0.0909 -0.0923
  933MPD2     H13650   3.817   4.383   1.581 -0.4255 -0.7068 -1.0889
  933MPD2    H113651   3.566   4.509   1.904 -0.5404 -0.2622  0.7939
  933MPD2    H213652   3.620   4.095   1.828 -1.9019  0.6317 -0.0793
  933MPD2    H313653   3.523   4.281   1.962 -2.1722  1.2562 -1.1502
  933MPD2     N13654   3.731   4.598   1.695 -0.2264  0.2111  0.4170
  933MPD2    H513655   3.780   4.612   1.607 -2.5694 -0.3537 -0.9963
  933MPD2    N113656   3.790   4.113   1.628  0.0507  0.0719  0.7193
  933MPD2    H713657   3.747   4.023   1.649 -2.3145  0.5599 -1.9612
  934MPD2     C13658   0.497   1.215   2.196  0.1079  0.9342 -0.0279
  934MPD2    C113659   0.579   1.219   2.081  0.2609  0.2842 -0.3567
  934MPD2    C213660   0.527   1.165   1.967  0.1145  0.9260  0.5508
  934MPD2    C313661   0.398   1.110   1.962 -0.5582 -0.2005 -0.9335
  934MPD2    C413662   0.316   1.111   2.078  0.1276  0.2030 -0.7937
  934MPD2    C513663   0.374   1.152   2.194  0.1600 -0.3504  0.0696
  934MPD2     H13664   0.590   1.175   1.879 -0.8957 -0.0944 -0.2903
  934MPD2    H113665   0.218   1.063   2.082  0.3747 -0.2919 -0.6153
  934MPD2    H213666   0.521   1.247   2.296  1.2589  0.7703 -0.2587
  934MPD2    H313667   0.318   1.133   2.284 -0.2757  0.2746 -0.0641
  934MPD2     N13668   0.340   1.060   1.848 -0.2309  0.1138  0.3139
  934MPD2    H513669   0.243   1.035   1.862 -0.8799  1.1884 -2.3542
  934MPD2    N113670   0.709   1.274   2.079 -0.1377  0.4444 -0.3605
  934MPD2    H713671   0.741   1.296   1.985  2.6928 -4.4630 -0.5661
  935MPD2     C13672   0.688   0.456   1.141 -0.5257  0.2391  0.8924
  935MPD2    C113673   0.575   0.504   1.088 -0.2015 -0.0933 -1.3359
  935MPD2    C213674   0.500   0.585   1.166  0.3233 -0.4076 -0.1200
  935MPD2    C313675   0.532   0.624   1.293 -0.1344 -0.3415  0.2544
  935MPD2    C413676   0.659   0.585   1.340 -0.2668  0.5828 -0.2629
  935MPD2    C513677   0.743   0.502   1.264  0.8489 -0.6268  0.2442
  935MPD2     H13678   0.404   0.611   1.122  1.3665  1.2235 -1.4235
  935MPD2    H113679   0.703   0.624   1.431  1.9917 -0.6734 -0.8137
  935MPD2    H213680   0.752   0.389   1.085 -1.9811 -0.6671  0.3398
  935MPD2    H313681   0.841   0.472   1.298  1.9504 -0.3898 -2.7811
  935MPD2     N13682   0.456   0.723   1.364  0.1174 -0.7183 -0.4514
  935MPD2    H513683   0.487   0.744   1.458 -0.9687 -1.9810  0.1834
  935MPD2    N113684   0.517   0.450   0.969  0.0059  0.3514  0.0977
  935MPD2    H713685   0.427   0.480   0.933  0.4168  0.2414 -1.0358
  936MPD2     C13686   3.932   2.322  12.433  0.0519  0.5093 -0.0345
  936MPD2    C113687   3.953   2.309  12.567 -0.3390 -0.0712 -0.6433
  936MPD2    C213688   4.080   2.349  12.618  0.1068 -0.0159  0.4140
  936MPD2    C313689   4.179   2.403  12.540 -0.0296  0.0336  0.0557
  936MPD2    C413690   4.160   2.410  12.403  0.9683 -0.3369 -0.1398
  936MPD2    C513691   4.037   2.376  12.358 -0.0589  0.4779 -0.4507
  936MPD2     H13692   4.100   2.354  12.725  0.1143  0.8458  0.3764
  936MPD2    H113693   4.236   2.453  12.339  0.9227  0.0173  0.0411
  936MPD2    H213694   3.835   2.295  12.394 -1.5358  0.2114  4.0768
  936MPD2    H313695   4.020   2.396  12.253  0.2511  1.1036 -0.3806
  936MPD2     N13696   4.307   2.444  12.590  0.0385 -0.2851  0.3267
  936MPD2    H513697   4.368   2.492  12.525  0.0538  2.0221  2.0665
  936MPD2    N113698   3.848   2.275  12.660  0.6352 -0.5102 -0.1008
  936MPD2    H713699   3.883   2.285  12.755  1.5934  0.1784 -0.5228
  937MPD2     C13700   1.860   4.212  11.702 -0.5910 -0.3991 -0.4628
  937MPD2    C113701   1.852   4.332  11.643  0.4031  0.0076  0.0652
  937MPD2    C213702   1.929   4.352  11.528  0.7806 -0.2982  0.8256
  937MPD2    C313703   2.011   4.255  11.474  0.6210  1.0927 -0.3285
  937MPD2    C413704   2.009   4.132  11.533  0.0506  0.0517  0.1021
  937MPD2    C513705   1.930   4.109  11.640  0.4097  0.1575  0.8165
  937MPD2     H13706   1.940   4.453  11.489 -0.9317 -0.9871 -1.4356
  937MPD2    H113707   2.065   4.050  11.489 -3.1782 -2.6071  0.8955
  937MPD2    H213708   1.816   4.196  11.799  0.0638  1.0199  0.0766
  937MPD2    H313709   1.938   4.010  11.684 -1.4075  0.1892  1.2152
  937MPD2     N13710   2.097   4.295  11.371 -0.0706 -0.0132  0.2747
  937MPD2    H513711   2.082   4.390  11.338 -1.0100  0.4700  2.1152
  937MPD2    N113712   1.809   4.442  11.717 -0.5924 -0.0668 -0.5367
  937MPD2    H713713   1.828   4.528  11.667  0.0141 -0.6474 -1.3232
  938MPD2     C13714   4.386   0.550   0.987  0.1521  0.9211  1.0764
  938MPD2    C113715   4.301   0.638   1.044 -0.6355  0.5547  0.9051
  938MPD2    C213716   4.256   0.612   1.172 -0.3134 -0.3132  0.4804
  938MPD2    C313717   4.298   0.502   1.247  0.4312 -0.5927  0.1354
  938MPD2    C413718   4.389   0.419   1.189  0.1146  0.3768  1.0842
  938MPD2    C513719   4.436   0.451   1.061  0.4958  0.3963 -0.6543
  938MPD2     H13720   4.201   0.688   1.226  0.4207  1.1639 -0.8428
  938MPD2    H113721   4.418   0.328   1.241 -2.1229 -1.1789 -0.3519
  938MPD2    H213722   4.416   0.562   0.884 -0.3575 -0.2677  0.7919
  938MPD2    H313723   4.516   0.396   1.014 -1.4370 -3.1514  0.2253
  938MPD2     N13724   4.251   0.467   1.371  0.6100  0.1906  0.3346
  938MPD2    H513725   4.301   0.396   1.423 -1.1389 -0.5551  1.0219
  938MPD2    N113726   4.270   0.767   0.994  0.1198 -0.1065 -0.1573
  938MPD2    H713727   4.201   0.819   1.047  0.4638 -1.4911  1.6560
  939MPD2     C13728   0.688   1.966   1.750 -0.3945  0.3134 -0.1465
  939MPD2    C113729   0.760   2.075   1.709  0.8309 -0.1779 -0.2037
  939MPD2    C213730   0.804   2.078   1.580 -0.3908 -0.3254  0.2684
  939MPD2    C313731   0.774   1.983   1.488 -0.1082  0.0579  0.2035
  939MPD2    C413732   0.710   1.874   1.536 -0.3086 -0.0066  0.2516
  939MPD2    C513733   0.665   1.867   1.664  0.3410  0.2973 -0.1868
  939MPD2     H13734   0.869   2.159   1.548 -1.6054  1.2682  1.8025
  939MPD2    H113735   0.675   1.791   1.475 -0.6427 -0.9311  1.6952
  939MPD2    H213736   0.641   1.960   1.848 -0.5121 -2.6811 -0.3780
  939MPD2    H313737   0.602   1.783   1.689  0.3626  0.4174  0.2702
  939MPD2     N13738   0.801   2.011   1.357 -0.2644  0.7437  0.6306
  939MPD2    H513739   0.840   2.104   1.345 -0.6707  0.6911 -1.0356
  939MPD2    N113740   0.779   2.173   1.807 -0.1190  0.3332  0.1762
  939MPD2    H713741   0.741   2.145   1.897  1.0487 -2.6435 -0.2629
  940MPD2     C13742   4.389   3.269  13.098 -1.0132  0.0104  0.3412
  940MPD2    C113743   4.444   3.193  13.201  0.3042 -0.4232  0.0966
  940MPD2    C213744   4.540   3.098  13.174  0.4392  1.3432  0.4254
  940MPD2    C313745   4.581   3.072  13.048 -0.2684 -0.2048  0.0196
  940MPD2    C413746   4.518   3.141  12.944 -0.0907  0.1271 -0.2073
  940MPD2    C513747   4.419   3.236  12.968  0.1074 -0.0597 -0.3797
  940MPD2     H13748   4.578   3.039  13.257  0.3270  0.6702 -0.0042
  940MPD2    H113749   4.548   3.127  12.841  2.3389 -1.3294  0.6939
  940MPD2    H213750   4.305   3.338  13.112  0.4345  1.5439  1.4765
  940MPD2    H313751   4.361   3.279  12.887 -0.0601  0.8769  0.2449
  940MPD2     N13752   4.674   2.964  13.014 -0.6661 -0.4792 -0.6951
  940MPD2    H513753   4.701   2.963  12.916 -1.0367  0.0183 -0.8003
  940MPD2    N113754   4.399   3.212  13.333  0.5638  0.2834  0.1857
  940MPD2    H713755   4.435   3.153  13.407 -0.6985 -2.6376 -1.4933
  941MPD2     C13756   3.509   2.476   9.612  0.8587 -0.0859 -0.1947
  941MPD2    C113757   3.601   2.457   9.720  0.5223  0.3282 -0.4297
  941MPD2    C213758   3.588   2.333   9.783  0.1261 -0.2763  0.3275
  941MPD2    C313759   3.504   2.229   9.749 -0.1287  0.3411  0.4948
  941MPD2    C413760   3.417   2.253   9.648  0.2452  0.0877  0.1758
  941MPD2    C513761   3.431   2.368   9.578  0.5827 -0.0715  0.2564
  941MPD2     H13762   3.654   2.324   9.868 -1.2133 -2.7892  1.1116
  941MPD2    H113763   3.338   2.183   9.622  0.7885  0.2966 -2.0505
  941MPD2    H213764   3.506   2.563   9.547 -2.4594 -0.6518 -0.8039
  941MPD2    H313765   3.368   2.380   9.491  1.1411  0.2749 -0.1020
  941MPD2     N13766   3.497   2.114   9.830  0.3647  0.0364 -0.1234
  941MPD2    H513767   3.431   2.043   9.798  1.3699  0.5043 -3.2042
  941MPD2    N113768   3.700   2.548   9.761 -0.0550  0.0073 -0.1738
  941MPD2    H713769   3.747   2.519   9.846  0.5095  0.2301 -0.4143
  942MPD2     C13770   3.826   0.324  10.246  0.3207 -0.7096 -0.1110
  942MPD2    C113771   3.725   0.247  10.209  0.0572 -0.0482 -0.5551
  942MPD2    C213772   3.752   0.162  10.104 -0.2745  0.3948  0.4679
  942MPD2    C313773   3.878   0.161  10.047 -0.4253  0.0113 -0.2029
  942MPD2    C413774   3.975   0.246  10.089  0.1726 -0.2218 -0.4195
  942MPD2    C513775   3.947   0.337  10.191  0.0766 -0.6580 -0.9941
  942MPD2     H13776   3.675   0.098  10.062  0.1779  0.1073  0.0864
  942MPD2    H113777   4.072   0.255  10.042 -0.2544 -2.3052 -1.7168
  942MPD2    H213778   3.808   0.382  10.336  0.7212  2.0016 -1.8004
  942MPD2    H313779   4.029   0.391  10.238  0.3096 -0.3874 -1.7129
  942MPD2     N13780   3.908   0.060   9.949  0.1964  0.6138 -0.0674
  942MPD2    H513781   4.006   0.071   9.922  0.4735 -0.2915  0.5813
  942MPD2    N113782   3.600   0.241  10.272  0.5628 -0.4847 -0.4038
  942MPD2    H713783   3.532   0.173  10.240 -0.8947  0.7118  0.1292
  943MPD2     C13784   2.455   1.248   9.464 -0.2427 -0.8621  0.2651
  943MPD2    C113785   2.588   1.258   9.486 -0.4329 -0.4468  0.0052
  943MPD2    C213786   2.684   1.283   9.385  0.9035 -0.7692 -0.1367
  943MPD2    C313787   2.637   1.316   9.259  0.1649 -0.4231  0.9857
  943MPD2    C413788   2.505   1.311   9.231  0.2224 -0.8150 -0.5024
  943MPD2    C513789   2.413   1.270   9.334  0.2941 -0.2444  0.3615
  943MPD2     H13790   2.786   1.304   9.418  0.7664 -1.5027  0.7582
  943MPD2    H113791   2.473   1.351   9.136  0.8978  0.4009 -0.2098
  943MPD2    H213792   2.380   1.222   9.538 -1.7661  1.5173 -0.4254
  943MPD2    H313793   2.311   1.253   9.304  0.7139 -1.2159 -0.5151
  943MPD2     N13794   2.719   1.378   9.159 -0.4372  0.6567  0.1602
  943MPD2    H513795   2.681   1.373   9.065  2.2012  0.6618 -0.8915
  943MPD2    N113796   2.622   1.233   9.623 -0.1175  0.1442  0.4952
  943MPD2    H713797   2.558   1.189   9.689  2.3974 -0.1273  2.7422
  944MPD2     C13798   2.299   1.125  11.027 -0.6304 -0.3976 -0.4607
  944MPD2    C113799   2.399   1.180  11.106 -0.0763  0.3786 -0.6082
  944MPD2    C213800   2.372   1.292  11.183 -0.8763 -0.0351 -0.3821
  944MPD2    C313801   2.242   1.331  11.207  0.8562 -1.1458 -0.0666
  944MPD2    C413802   2.140   1.254  11.151  0.3496 -0.7104 -0.5688
  944MPD2    C513803   2.168   1.160  11.058 -0.1194  0.1933 -0.3174
  944MPD2     H13804   2.453   1.349  11.227 -0.9989 -0.6439  0.6352
  944MPD2    H113805   2.038   1.261  11.187  0.2838 -1.1313 -0.6721
  944MPD2    H213806   2.334   1.054  10.953 -2.1428 -1.9151  0.2871
  944MPD2    H313807   2.094   1.109  10.997 -0.5275 -0.9485  1.1265
  944MPD2     N13808   2.226   1.440  11.297 -0.1810  0.2070 -0.2390
  944MPD2    H513809   2.313   1.485  11.324 -0.9087  1.2324  0.3898
  944MPD2    N113810   2.534   1.151  11.085  0.2694  0.9406 -0.1074
  944MPD2    H713811   2.547   1.070  11.024  3.5760  1.2719  0.1912
    1TCq1    O113812   0.120   2.673  15.765 -0.2315  0.1433  0.2029
    1TCq1    C113813   0.099   2.551  15.715 -0.0996 -0.2380 -0.5943
    1TCq1    O213814   0.113   2.447  15.775 -0.4965 -0.3022  0.0856
    1TCq1    C213815   0.106   2.562  15.576 -0.3850  0.2453 -0.5400
    1TCq1    C313816   0.028   2.478  15.492 -0.4866  0.4161 -0.5089
    1TCq1    C413817   0.017   2.515  15.369 -0.3517 -1.1416 -0.3418
    1TCq1    C513818   0.095   2.612  15.309 -0.0769  0.1220  0.0855
    1TCq1    C613819   0.187   2.674  15.383 -0.1572 -1.1238  0.9385
    1TCq1    C713820   0.201   2.645  15.521 -0.0309 -0.0311  0.1082
    1TCq1    C813821   0.258   2.796  15.344 -0.5275 -0.3797 -0.7267
    1TCq1    O413822   0.327   2.851  15.428  0.0862 -0.3610 -0.1224
    1TCq1    C913823   4.640   2.445  15.297 -0.4504 -0.8043  0.9517
    1TCq1    O513824   4.580   2.351  15.355  0.1066  0.2222 -0.0585
    1TCq1    O613825   4.625   2.486  15.176 -0.0454 -0.2037 -0.0074
    1TCq1    H113826   0.092   2.742  15.701  1.1037  0.1775 -0.3447
    1TCq1    H213827   4.690   2.411  15.549  0.3385 -1.0469 -1.3395
    1TCq1    H313828   0.081   2.636  15.204 -2.7322 -2.0891 -0.0831
    1TCq1    H413829   0.278   2.698  15.577 -0.4665  1.7345 -0.9749
    2MPD2     C13830   0.386   3.151  15.006  0.5453 -0.6042  0.1660
    2MPD2    C113831   0.292   3.068  14.944 -0.1734  0.3411 -0.2292
    2MPD2    C213832   0.233   2.964  15.012  0.1706 -0.8415  0.4048
    2MPD2    C313833   0.274   2.947  15.143  0.9417 -0.8547 -0.6720
    2MPD2    C413834   0.371   3.025  15.197 -0.6616 -0.0264  0.6697
    2MPD2    C513835   0.431   3.131  15.130 -0.3075  0.0648  0.0630
    2MPD2     H13836   0.157   2.903  14.965  1.6628 -2.3810 -0.0071
    2MPD2    H113837   0.396   3.021  15.303  0.5601  0.5978  0.4069
    2MPD2    H213838   0.429   3.238  14.957  1.2756 -2.0134 -1.6874
    2MPD2    H313839   0.492   3.206  15.178  0.5050 -0.5169 -0.0659
    2MPD2     N13840   0.221   2.842  15.221  0.2169 -0.5259  0.3319
    2MPD2    H513841   0.141   2.796  15.178  0.6528  2.3465 -3.5349
    2MPD2    N113842   0.252   3.107  14.815 -0.4855 -0.3009  0.1439
    2MPD2    H713843   0.303   3.187  14.779 -2.6917  1.4589  0.9635
    3TMC2    C113844   0.185   3.099  14.595 -0.3439 -0.2208 -0.1645
    3TMC2    C213845   0.204   3.229  14.585 -0.1308  0.7707 -0.1858
    3TMC2    C313846   0.291   3.284  14.497 -0.5180  0.1779 -0.6590
    3TMC2    C413847   0.224   3.017  14.497  0.2244 -0.2927 -0.5288
    3TMC2    C513848   0.299   3.074  14.396  0.1873  0.0431  0.4781
    3TMC2    C613849   0.350   3.201  14.409  0.4078 -0.0841 -0.0020
    3TMC2     C13850   0.178   3.035  14.726  0.1523  0.4786 -0.5063
    3TMC2     O13851   0.141   2.917  14.727 -0.2405 -0.4471 -0.7451
    3TMC2     H13852   0.160   3.294  14.659  0.7059 -0.0011  0.9740
    3TMC2    H113853   0.181   2.918  14.496 -0.7559  0.1266  0.2599
    3TMC2    H213854   0.415   3.236  14.330 -2.6807  1.4720 -1.8831
    3TMC2    C713855   0.260   3.035  14.263  0.1717 -0.3513  0.0477
    3TMC2    C813856   0.235   3.398  14.436 -0.7976 -0.8710  0.2935
    3TMC2    O113857   0.221   2.919  14.249  0.7839 -0.1406  0.3962
    3TMC2    O213858   0.244   3.417  14.315 -0.2991  0.2030  0.1488
    3TMC2    O513859   0.229   3.489  14.532  0.1924 -0.2102 -0.1510
    3TMC2    H513860   0.265   3.449  14.614  0.4935  0.1490 -0.1061
    4MPD2     C13861   0.453   3.511  12.877 -0.1871 -0.1783  0.2419
    4MPD2    C113862   0.325   3.543  12.923 -0.0186  0.5288 -0.1578
    4MPD2    C213863   0.304   3.589  13.050 -0.2683 -0.2514  0.0280
    4MPD2    C313864   0.411   3.581  13.136  0.3058  0.5981  0.0585
    4MPD2    C413865   0.535   3.550  13.092  0.3647 -0.5141 -0.1730
    4MPD2    C513866   0.559   3.502  12.965  0.4786 -0.7411  0.0711
    4MPD2     H13867   0.213   3.630  13.093 -0.4951  0.6273 -1.2838
    4MPD2    H113868   0.621   3.549  13.157  0.8291  0.1406 -0.7876
    4MPD2    H213869   0.476   3.493  12.772  0.1433 -1.4298  0.5194
    4MPD2    H313870   0.655   3.471  12.925  0.9005  2.3079 -1.2353
    4MPD2     N13871   0.400   3.621  13.272  0.1275 -0.0144  0.1399
    4MPD2    H513872   0.485   3.631  13.326 -0.7458  0.7459  1.3853
    4MPD2    N113873   0.230   3.558  12.816  0.4935  0.0670 -0.3645
    4MPD2    H713874   0.265   3.560  12.720 -0.7751 -0.3549 -0.8435
    5TCq2    C113875   0.280   3.625  13.341  0.2678 -0.0634 -0.2882
    5TCq2    O213876   0.173   3.576  13.319  0.2647  0.0968  0.5257
    5TCq2    C213877   0.314   3.653  13.475 -0.0564  0.1875  0.6493
    5TCq2    C313878   0.393   3.761  13.494 -0.2311  0.3249  0.6047
    5TCq2    C413879   0.424   3.793  13.621 -0.8270  0.1838 -1.1145
    5TCq2    C513880   0.382   3.708  13.726  0.5099  0.4134 -0.1645
    5TCq2    C613881   0.298   3.599  13.702 -0.3945 -0.2562  0.0855
    5TCq2    C713882   0.251   3.586  13.576  0.2899  0.0145 -0.1430
    5TCq2    C813883   0.280   3.497  13.803  0.2183 -0.6586 -0.2774
    5TCq2    O413884   0.324   3.523  13.917 -0.0897 -0.3365  0.6234
    5TCq2    C913885   0.535   3.890  13.640 -0.8004 -0.0731  0.5363
    5TCq2    O513886   0.604   3.911  13.540 -0.1493  0.1731  0.0630
    5TCq2    O613887   0.566   3.925  13.764 -0.1073  0.4556 -0.8027
    5TCq2    H213888   0.428   3.826  13.415  2.5511  1.6206  2.8958
    5TCq2    H313889   0.429   3.728  13.822  1.4452 -0.2549 -0.4813
    5TCq2    H413890   0.189   3.504  13.542  1.8081 -0.2744 -2.2230
    6MPD1     C13891   4.296   0.482  12.282  0.1783  0.7416 -0.8449
    6MPD1    C113892   4.243   0.474  12.410  0.0407  0.0579 -0.2154
    6MPD1    C213893   4.232   0.351  12.478 -0.4855  0.1361 -0.3255
    6MPD1    C313894   4.311   0.248  12.421 -0.1897 -0.4328 -0.7236
    6MPD1    C413895   4.375   0.260  12.296  0.2206 -0.4158 -0.4661
    6MPD1    C513896   4.353   0.371  12.226 -0.3966 -0.4640  0.0900
    6MPD1     H13897   4.168   0.337  12.564  1.0606 -1.9510  0.5025
    6MPD1    H113898   4.414   0.173  12.245 -1.2201 -0.6703 -1.1225
    6MPD1    H213899   4.288   0.566  12.215 -1.3640  0.1627 -1.3771
    6MPD1    H313900   4.389   0.374  12.123 -0.2939 -1.5665  0.0973
    6MPD1     N13901   4.338   0.124  12.479  0.0489 -0.0631 -0.2498
    6MPD1    H513902   4.404   0.067  12.427 -0.5800 -1.8755  0.9462
    6MPD1    N113903   4.161   0.575  12.454  0.0764 -0.0248  0.0567
    6MPD1    H613904   4.153   0.574  12.556  1.0022  0.6065  0.1335
    6MPD1    H713905   4.195   0.664  12.419  0.4408 -0.5215 -0.8465
    7MPD2     C13906   4.119   4.077  12.845 -0.1318 -0.1728  0.0951
    7MPD2    C113907   4.196   4.098  12.730  0.3759  0.7930  0.0806
    7MPD2    C213908   4.280   3.998  12.684 -0.1619  0.8879  0.4060
    7MPD2    C313909   4.297   3.874  12.752 -0.4108  0.2678  0.2401
    7MPD2    C413910   4.219   3.853  12.864  0.8712  0.5792  0.0785
    7MPD2    C513911   4.130   3.949  12.904  0.2039 -0.0462  0.0864
    7MPD2     H13912   4.351   4.025  12.606 -2.2074 -1.4538 -2.2801
    7MPD2    H113913   4.227   3.759  12.918 -1.1410  1.0171  1.1692
    7MPD2    H213914   4.057   4.152  12.892  1.9975  2.4402 -1.2586
    7MPD2    H313915   4.072   3.921  12.991  0.8119 -2.2276 -0.1989
    7MPD2     N13916   4.384   3.772  12.714 -0.0895 -0.7711 -0.2846
    7MPD2    H513917   4.386   3.683  12.762  1.3997 -0.6826 -0.2035
    7MPD2    N113918   4.194   4.219  12.664 -0.0481 -0.2578  0.3857
    7MPD2    H713919   4.270   4.233  12.598  0.5584  0.4545  1.2325
    8TMC3    C113920   4.552   3.664  12.597  0.7030  0.0712  0.0455
    8TMC3    C213921   4.620   3.638  12.717  0.1891  0.2404  0.4413
    8TMC3    C313922   0.024   3.590  12.703 -0.2453  0.6416 -0.0831
    8TMC3    C413923   4.616   3.661  12.479 -0.4630 -0.2202  0.4128
    8TMC3    C513924   0.029   3.645  12.477 -0.1398  0.2279  0.3475
    8TMC3    C613925   0.096   3.601  12.589 -0.1230 -0.2597  0.4975
    8TMC3     C13926   4.462   3.777  12.601  0.2815 -0.1443 -0.4055
    8TMC3     O13927   4.471   3.851  12.507 -0.5211  0.4218 -0.1803
    8TMC3     H13928   4.564   3.640  12.810  0.9602  1.3213  0.8814
    8TMC3    H113929   4.555   3.668  12.390 -1.9588  0.8742  1.5278
    8TMC3    H213930   0.201   3.578  12.573 -0.0591  0.6166 -0.3807
    8TMC3    C713931   0.107   3.759  12.425  0.8630  0.0035  0.1070
    8TMC3    C813932   0.094   3.578  12.831  0.2051  0.5617  0.1603
    8TMC3    O113933   0.231   3.758  12.426  0.2990 -0.3082  0.2683
    8TMC3    O213934   0.030   3.575  12.937  0.4677  0.0236  0.3378
    9TMC3    C113935   4.330   4.652  12.621 -0.3247  0.7921 -0.4992
    9TMC3    C213936   4.457   4.620  12.592 -1.1000  0.4967  0.8237
    9TMC3    C313937   4.489   4.490  12.612  0.8247 -0.3723 -0.3651
    9TMC3    C413938   4.233   4.561  12.660  0.3708  0.5866  0.3387
    9TMC3    C513939   4.270   4.435  12.696 -0.6243  0.4308  0.4663
    9TMC3    C613940   4.399   4.394  12.660  0.3098  0.5654  0.0464
    9TMC3     C13941   4.272   0.064  12.582 -0.1411  0.3647 -0.0237
    9TMC3     O13942   4.160   0.095  12.611 -0.0890 -0.3096 -0.3020
    9TMC3     H13943   4.526   4.692  12.552  0.3185 -0.1682  2.0569
    9TMC3    H113944   4.128   4.587  12.657  0.4688  1.0688  1.1355
    9TMC3    H213945   4.441   4.303  12.700 -1.9957 -0.1333  0.8848
    9TMC3    C713946   4.161   4.339  12.724  0.2321 -0.2962  0.8716
    9TMC3    C813947   4.608   4.448  12.555 -0.5573 -0.6922 -0.2484
    9TMC3    O113948   4.075   4.355  12.812 -0.2215 -0.2628 -0.0054
    9TMC3    O213949   4.707   4.520  12.558 -0.3209  0.4881  0.6933
   10MPD2     C13950   0.182   4.045  12.396  0.0013  0.0927 -0.4725
   10MPD2    C113951   0.050   4.003  12.417  0.7143  0.6077  0.4984
   10MPD2    C213952   4.675   4.093  12.435  0.4684  0.6516 -0.0992
   10MPD2    C313953   4.701   4.233  12.467  0.8306 -0.2192 -0.3040
   10MPD2    C413954   0.111   4.269  12.461  0.4605 -0.1327  0.0953
   10MPD2    C513955   0.209   4.180  12.429  0.0615  0.1451  0.2822
   10MPD2     H13956   4.574   4.052  12.437  0.7777 -0.1061 -0.2190
   10MPD2    H113957   0.150   4.370  12.468  2.2532 -0.7648 -0.7606
   10MPD2    H213958   0.262   3.975  12.374 -0.6769 -0.6607 -0.5459
   10MPD2    H313959   0.315   4.206  12.433  0.2358 -0.6529  0.8979
   10MPD2     N13960   4.599   4.317  12.513  0.3476 -0.0862  0.4409
   10MPD2    H513961   4.509   4.270  12.507  0.1256  0.5136 -1.0266
   10MPD2    N113962   0.015   3.868  12.413 -0.0973 -0.5882  0.2687
   10MPD2    H713963   4.642   3.856  12.442 -0.2281  2.0521  0.9095
   11MPD2     C13964   0.169   3.027  13.966  0.0131 -0.1001 -0.3941
   11MPD2    C113965   0.200   3.136  14.040  0.2814  0.3065 -0.0633
   11MPD2    C213966   0.226   3.252  13.972  0.2021 -0.2425  0.9110
   11MPD2    C313967   0.191   3.265  13.837  0.2867  0.3721 -0.1549
   11MPD2    C413968   0.139   3.160  13.772 -0.1093  0.2719  0.2842
   11MPD2    C513969   0.133   3.038  13.840  0.7962 -0.0225  0.8373
   11MPD2     H13970   0.271   3.332  14.030  0.3720  0.6166 -0.4334
   11MPD2    H113971   0.100   3.154  13.671 -1.6245  2.9450  0.6957
   11MPD2    H213972   0.167   2.923  13.998 -0.2694  0.3114  0.9330
   11MPD2    H313973   0.104   2.950  13.784  1.7974  0.6400 -0.7203
   11MPD2     N13974   0.223   3.381  13.755 -0.0963 -0.3507 -0.1337
   11MPD2    H513975   0.202   3.369  13.656 -0.8838  0.2710 -0.0354
   11MPD2    N113976   0.256   3.136  14.168 -0.2663 -0.0853 -0.0338
   11MPD2    H713977   0.274   3.225  14.213 -0.3527 -0.1490  0.1275
    1MPD1     C13978   3.309   4.210  17.310  0.3488  0.8389 -0.1873
    1MPD1    C113979   3.302   4.148  17.192 -0.0035 -0.3937  0.8841
    1MPD1    C213980   3.259   4.218  17.085  0.0626 -0.3629 -0.5232
    1MPD1    C313981   3.196   4.343  17.088 -0.6736 -0.4789  0.7858
    1MPD1    C413982   3.186   4.392  17.213  0.0725 -0.2933  0.4342
    1MPD1    C513983   3.251   4.331  17.317  0.1819  0.9776 -0.1013
    1MPD1     H13984   3.264   4.168  16.989  4.9632 -2.0491  0.6203
    1MPD1    H113985   3.138   4.488  17.226 -1.0002 -0.6594 -0.8468
    1MPD1    H213986   3.354   4.165  17.398 -0.3911  2.3702  0.9954
    1MPD1    H313987   3.255   4.387  17.409  1.6945  1.3885 -0.4283
    1MPD1     N13988   3.127   4.407  16.977 -0.4091 -0.5393  0.1419
    1MPD1    H513989   3.076   4.494  16.988 -0.9273 -0.8391  0.0633
    1MPD1    N113990   3.371   4.030  17.167  0.2631  0.1824  0.6805
    1MPD1    H613991   3.321   3.974  17.097 -0.7211  0.6441  1.0266
    1MPD1    H713992   3.375   3.972  17.250  0.8153  1.7317  1.7224
    2MPD1     C13993   3.251   4.462  16.008  0.1171 -0.1960 -0.6521
    2MPD1    C113994   3.273   4.359  16.096  0.1522  0.5546 -0.2171
    2MPD1    C213995   3.197   4.353  16.212 -0.6253 -0.1158 -0.4098
    2MPD1    C313996   3.116   4.455  16.254 -0.6917  0.0819 -0.1804
    2MPD1    C413997   3.105   4.563  16.168 -0.1967  0.6804 -0.2784
    2MPD1    C513998   3.168   4.563  16.049 -0.4351  0.0525 -1.0470
    2MPD1     H13999   3.203   4.263  16.271  1.1551  0.7466  0.7385
    2MPD1    H114000   3.044   4.650  16.191 -0.1137  0.8268 -0.6200
    2MPD1    H214001   3.294   4.465  15.908  2.6870  0.1162  0.4623
    2MPD1    H314002   3.155   4.649  15.984 -0.0115  0.3220 -0.7806
    2MPD1     N14003   3.058   4.459  16.377 -0.0045  0.2855  0.0235
    2MPD1    H514004   3.088   4.376  16.427 -0.7882  1.3121  2.1694
    2MPD1    N114005   3.351   4.254  16.053 -0.5736 -0.8644  0.2789
    2MPD1    H614006   3.385   4.191  16.126  0.6088  0.0048  0.4764
    2MPD1    H714007   3.433   4.274  15.997  0.3933 -2.0194  1.2921
    3TMC3    C114008   2.949   4.508  16.576  0.3197  0.2218 -0.0235
    3TMC3    C214009   2.833   4.543  16.638 -0.1832  0.6116  0.3349
    3TMC3    C314010   2.815   4.521  16.768  0.6746  0.7978  0.2120
    3TMC3    C414011   3.045   4.441  16.642  0.5107 -0.0664 -0.8006
    3TMC3    C514012   3.019   4.418  16.773  0.1148  0.5529  0.4046
    3TMC3    C614013   2.905   4.445  16.835 -0.4705 -0.3581 -0.8580
    3TMC3     C14014   2.978   4.555  16.443  0.2013  0.2147  0.6246
    3TMC3     O14015   2.930   4.661  16.404  0.0168 -0.0251  0.2540
    3TMC3     H14016   2.768   4.599  16.571 -0.4439 -0.2951 -0.1718
    3TMC3    H114017   3.147   4.427  16.608  0.3668 -1.2050 -0.7457
    3TMC3    H214018   2.889   4.434  16.942  1.0638  0.9753 -0.4904
    3TMC3    C714019   3.120   4.353  16.850  0.3841 -0.0046 -0.3235
    3TMC3    C814020   2.682   4.538  16.825  0.2882 -0.5497  1.0861
    3TMC3    O114021   3.173   4.260  16.794  0.1847 -0.3371  0.8964
    3TMC3    O214022   2.670   4.540  16.946  0.6095 -0.2355  0.8919
    4MPD1     C14023   2.178   4.613  16.761  0.9714  0.1870 -0.3776
    4MPD1    C114024   2.238   4.627  16.647 -0.2457 -0.3646 -0.2157
    4MPD1    C214025   2.378   4.617  16.637 -0.3504  0.2508 -0.1735
    4MPD1    C314026   2.451   4.573  16.739 -0.6225  0.6377  0.4549
    4MPD1    C414027   2.388   4.558  16.866  0.0027 -0.6873  0.0185
    4MPD1    C514028   2.251   4.581  16.876 -0.2160 -0.1003 -0.0796
    4MPD1     H14029   2.424   4.651  16.546  0.1637 -1.7050 -0.6529
    4MPD1    H114030   2.429   4.516  16.958  0.3817 -0.1728  0.0821
    4MPD1    H214031   2.072   4.634  16.772  1.0550 -0.8409  2.3300
    4MPD1    H314032   2.204   4.568  16.974 -0.5184 -0.2149 -0.2383
    4MPD1     N14033   2.590   4.560  16.727  0.0089 -0.1969 -0.6354
    4MPD1    H514034   2.618   4.556  16.630  1.6904  0.7421 -0.1927
    4MPD1    N114035   2.171   4.686  16.535 -0.4083 -0.4417 -0.1038
    4MPD1    H614036   2.073   4.660  16.544 -0.0259 -1.0327  2.5988
    4MPD1    H714037   2.218   4.653  16.451  2.8427  0.4797  1.3650
    1TCq1    O114038   0.418   3.750  12.592 -0.5387 -0.2995 -0.1428
    1TCq1    C114039   0.533   3.819  12.594  0.1945  0.3321 -0.4063
    1TCq1    O214040   0.617   3.805  12.681  0.5138 -0.6976 -0.2660
    1TCq1    C214041   0.575   3.865  12.466  0.5145 -0.1269 -0.1951
    1TCq1    C314042   0.513   3.837  12.344  0.1654 -0.2135 -0.4926
    1TCq1    C414043   0.534   3.912  12.232 -0.5668 -0.6097 -0.5572
    1TCq1    C514044   0.616   4.020  12.241 -0.2540  0.3646 -0.7503
    1TCq1    C614045   0.675   4.054  12.361  0.3759  0.3951 -0.4485
    1TCq1    C714046   0.662   3.971  12.475  0.8451  0.8971 -0.8822
    1TCq1    C814047   0.640   4.189  12.401 -0.1005  0.2286 -0.1921
    1TCq1    O414048   0.658   4.222  12.516 -0.4296  0.0175  0.9598
    1TCq1    C914049   0.492   3.858  12.105 -0.5889 -0.3546  0.6336
    1TCq1    O514050   0.440   3.742  12.096  0.4053 -0.4190 -0.4949
    1TCq1    O614051   0.486   3.937  12.003 -0.3228  0.2766 -0.0944
    1TCq1    H114052   0.368   3.768  12.509  1.2478  3.1501 -0.4508
    1TCq1    H214053   0.457   3.746  12.331  0.2306 -0.5073  1.3573
    1TCq1    H314054   0.643   4.073  12.150 -0.2079 -0.1240 -1.0217
    1TCq1    H414055   0.713   4.010  12.562  1.2122 -0.3045 -0.5564
    2MPD1     C14056   0.377   4.614  12.314 -0.1079  0.5396  0.8054
    2MPD1    C114057   0.410   4.565  12.193 -0.3214 -0.5131 -0.0798
    2MPD1    C214058   0.473   4.442  12.183  0.1861 -0.1141  0.6087
    2MPD1    C314059   0.523   4.383  12.299 -0.2457  0.2273  0.7719
    2MPD1    C414060   0.496   4.443  12.427 -0.3233 -0.2757 -0.8468
    2MPD1    C514061   0.412   4.549  12.431 -0.3321 -0.3715  0.0794
    2MPD1     H14062   0.486   4.392  12.088  1.4098  0.5172  0.4382
    2MPD1    H114063   0.534   4.405  12.521 -3.1107  1.3325  0.9677
    2MPD1    H214064   0.315   4.702  12.332  0.9777  2.0330 -2.7357
    2MPD1    H314065   0.376   4.584  12.527  0.5100  2.8006 -0.7753
    2MPD1     N14066   0.600   4.261  12.290  0.0681  0.6593 -0.7065
    2MPD1    H514067   0.609   4.219  12.198  0.9839  2.1762 -1.3184
    2MPD1    N114068   0.368   4.628  12.075 -0.0606  0.3846  0.3869
    2MPD1    H614069   0.441   4.624  12.004  1.9625  3.0456  2.3386
    2MPD1    H714070   0.349   0.004  12.084 -2.5760 -0.0051 -0.5289
    1TCq1    O114071   1.814   1.500   1.046 -0.3187  0.0575  0.1534
    1TCq1    C114072   1.815   1.367   1.028 -0.2134  0.0360 -0.5040
    1TCq1    O214073   1.727   1.290   1.074 -0.5150 -0.2148 -1.0161
    1TCq1    C214074   1.891   1.332   0.909  1.2624  0.2114 -0.6764
    1TCq1    C314075   1.958   1.421   0.828  0.8037 -0.1352 -0.5884
    1TCq1    C414076   2.076   1.386   0.764  0.5133  0.2001 -0.0101
    1TCq1    C514077   2.105   1.252   0.743 -0.1539  0.1565  0.0207
    1TCq1    C614078   2.039   1.164   0.825  0.1468 -0.5140 -0.3287
    1TCq1    C714079   1.935   1.202   0.911 -0.4515 -0.2114 -0.3747
    1TCq1    C814080   2.064   1.022   0.795  0.0124 -0.1608 -0.5216
    1TCq1    O414081   2.153   0.988   0.719 -0.1930  0.1980 -0.3575
    1TCq1    C914082   2.127   1.474   0.657 -0.2515  0.1228  0.3762
    1TCq1    O514083   2.076   1.586   0.636 -0.3725 -0.2384 -0.5444
    1TCq1    O614084   2.216   1.425   0.578  0.1917  0.2054 -0.2416
    1TCq1    H114085   1.900   1.541   1.021  0.4000 -1.2860  0.4409
    1TCq1    H214086   1.933   1.527   0.826 -0.8379 -0.4946  0.9965
    1TCq1    H314087   2.187   1.227   0.677 -0.5099 -0.1923 -0.2858
    1TCq1    H414088   1.896   1.138   0.989  0.3908 -0.6292 -0.2980
    2MPD1     C14089   1.885   0.542   0.729 -0.1583 -0.2146  0.0933
    2MPD1    C114090   1.782   0.624   0.773  0.4087 -0.0635 -0.1866
    2MPD1    C214091   1.807   0.758   0.801  0.2188  1.1640 -0.2862
    2MPD1    C314092   1.935   0.814   0.797 -0.1678  0.5371 -0.0249
    2MPD1    C414093   2.034   0.732   0.750  0.6654 -0.2961 -0.0176
    2MPD1    C514094   2.005   0.598   0.717 -0.0941  0.1073  0.3744
    2MPD1     H14095   1.723   0.827   0.808 -0.4728  0.4630 -1.7558
    2MPD1    H114096   2.136   0.763   0.728  0.4046  2.2554  2.3220
    2MPD1    H214097   1.869   0.444   0.684 -1.3809  0.7799 -1.6290
    2MPD1    H314098   2.074   0.528   0.669  0.3559  0.9385 -0.1918
    2MPD1     N14099   1.958   0.947   0.833  0.8111  0.6192 -0.1565
    2MPD1    H514100   1.887   0.992   0.889 -1.5242 -3.7047  0.2926
    2MPD1    N114101   1.649   0.584   0.765 -0.1189  0.8671  0.7081
    2MPD1    H614102   1.652   0.483   0.775 -0.1598  0.6815 -1.1532
    2MPD1    H714103   1.594   0.628   0.839  2.0856  1.6877  1.8694
    1MPD1     C14104   0.703   4.671  12.828 -0.1607  0.1973 -0.4723
    1MPD1    C114105   0.653   0.035  12.731  0.2345  0.5526  0.0559
    1MPD1    C214106   0.680   0.009  12.603  0.4076  0.2942 -0.0214
    1MPD1    C314107   0.745   4.622  12.561 -0.6892  0.0775 -0.9358
    1MPD1    C414108   0.783   4.530  12.654  0.0012 -0.1701  0.9286
    1MPD1    C514109   0.771   4.560  12.783 -0.4580  0.1953  0.3921
    1MPD1     H14110   0.633   0.069  12.525 -1.8949 -3.8319 -1.8180
    1MPD1    H114111   0.851   4.449  12.631  0.8578  0.3886  1.5167
    1MPD1    H214112   0.695   4.693  12.934 -0.1383 -0.2987 -0.3654
    1MPD1    H314113   0.820   4.493  12.853  0.2253 -0.3076 -0.5706
    1MPD1     N14114   0.772   4.599  12.423  0.0058  0.7684  0.1072
    1MPD1    H514115   0.722   4.662  12.361 -1.2192  0.3936  0.7083
    1MPD1    N114116   0.603   0.164  12.758 -0.2181  0.2214 -0.2803
    1MPD1    H614117   0.533   0.188  12.688  0.2506 -0.8907 -1.1263
    1MPD1    H714118   0.546   0.167  12.842 -2.3508 -0.6091 -1.6926
    2MPD1     C14119   0.587   0.423  10.692 -0.0121  0.4835 -0.0547
    2MPD1    C114120   0.488   0.422  10.789 -0.2285 -0.1610  0.7256
    2MPD1    C214121   0.456   0.296  10.842 -0.4509 -0.0130  0.7444
    2MPD1    C314122   0.527   0.181  10.816  0.2189  0.5790  0.5059
    2MPD1    C414123   0.635   0.194  10.724  0.4502 -0.2342  0.3483
    2MPD1    C514124   0.665   0.319  10.668  0.2855  0.2943 -0.0779
    2MPD1     H14125   0.369   0.297  10.906 -1.5015 -0.2343 -0.6723
    2MPD1    H114126   0.691   0.106  10.696  1.6967  0.3400  0.9927
    2MPD1    H214127   0.618   0.519  10.650  0.8595  0.1323 -0.2115
    2MPD1    H314128   0.749   0.338  10.602 -0.9488 -1.4024 -2.1076
    2MPD1     N14129   0.502   0.054  10.876  0.2514 -0.2835 -0.5543
    2MPD1    H514130   0.558   4.697  10.851  1.7404 -0.0990  2.2552
    2MPD1    N114131   0.416   0.533  10.831 -0.0237 -0.1627 -0.1934
    2MPD1    H614132   0.375   0.520  10.923 -0.2243  0.2565 -0.2207
    2MPD1    H714133   0.485   0.609  10.839 -1.3962  0.7406  3.0332
    3MPD1     C14134   0.384   4.072  10.422  0.6395  0.8190 -0.3341
    3MPD1    C114135   0.388   4.208  10.411 -0.3443 -0.1126  0.2021
    3MPD1    C214136   0.413   4.285  10.527 -0.1122  0.5959  0.2785
    3MPD1    C314137   0.424   4.226  10.651  0.3111  0.4747 -0.2463
    3MPD1    C414138   0.426   4.089  10.663  0.2928  0.1784 -0.1032
    3MPD1    C514139   0.407   4.013  10.544  0.1838 -0.2699  0.3318
    3MPD1     H14140   0.425   4.392  10.520  0.5395  0.5006 -0.1317
    3MPD1    H114141   0.441   4.039  10.758 -0.7175  2.4560  1.2551
    3MPD1    H214142   0.383   4.006  10.337  1.2783  1.0688 -0.5339
    3MPD1    H314143   0.419   3.906  10.556  1.4736 -0.2669 -0.9203
    3MPD1     N14144   0.436   4.313  10.762  0.0637  0.0367 -0.5193
    3MPD1    H514145   0.455   4.410  10.737 -0.8805  0.4262  0.2934
    3MPD1    N114146   0.395   4.275  10.287 -0.0487  0.3595  0.4050
    3MPD1    H614147   0.346   4.364  10.292 -1.0143  0.0087 -2.4945
    3MPD1    H714148   0.346   4.217  10.219 -1.1423 -1.0386  2.3825
    4MPD2     C14149   0.640   0.167  11.717 -0.3888 -0.0887 -0.1418
    4MPD2    C114150   0.771   0.154  11.755  0.3761 -0.1211  0.1785
    4MPD2    C214151   0.878   0.205  11.678  0.3174 -0.6239  0.3234
    4MPD2    C314152   0.851   0.257  11.552  0.5755 -0.1928 -1.0662
    4MPD2    C414153   0.722   0.258  11.509  0.3241  0.7823  0.0338
    4MPD2    C514154   0.615   0.216  11.594 -1.0703 -0.1534  0.3338
    4MPD2     H14155   0.977   0.179  11.714  0.0207 -0.7315  1.0622
    4MPD2    H114156   0.714   0.285  11.405  0.6301 -0.1052 -0.2154
    4MPD2    H214157   0.552   0.134  11.772  0.9203 -3.1259  0.1134
    4MPD2    H314158   0.513   0.213  11.559 -0.6361 -2.2102 -0.7488
    4MPD2     N14159   0.954   0.293  11.462  0.6179  0.0278 -0.0979
    4MPD2    H514160   0.921   0.310  11.368  0.2877 -1.1007 -0.1922
    4MPD2    N114161   0.820   0.076  11.861  0.3090 -0.0039  0.1107
    4MPD2    H714162   0.921   0.066  11.867  0.3659 -0.5701 -1.6186
    5TMC3    C114163   0.822   4.640  12.018 -0.9674  0.6259  0.1814
    5TMC3    C214164   0.787   4.607  12.149 -0.3141  0.1861 -0.0545
    5TMC3    C314165   0.875   4.527  12.219 -0.0191 -0.2231  0.1404
    5TMC3    C414166   0.941   4.602  11.971 -0.4008  0.2884  0.0722
    5TMC3    C514167   1.033   4.539  12.050  0.1900  0.4665  0.4232
    5TMC3    C614168   0.995   4.492  12.173 -0.7367 -0.4705  0.6040
    5TMC3     C14169   0.740   4.724  11.943 -0.3192  0.0739 -0.1510
    5TMC3     O14170   0.619   0.010  11.963  0.4372  0.3580 -0.4076
    5TMC3     H14171   0.688   4.626  12.188 -0.2506 -0.1244  0.2661
    5TMC3    H114172   0.964   4.610  11.865 -3.6226 -0.4242 -0.6715
    5TMC3    H214173   1.056   4.423  12.229  1.0382  0.1579 -0.5432
    5TMC3    C714174   1.141   4.477  11.991 -0.5008  0.8281  0.1056
    5TMC3    C814175   0.848   4.505  12.361 -0.8368 -0.1781 -0.0700
    5TMC3    O114176   1.182   4.376  12.045 -0.1502 -0.0081  0.6007
    5TMC3    O214177   0.913   4.417  12.420 -0.1377 -0.5349 -0.1667
    6TMC3    C114178   0.408   4.619  11.030  0.3428 -0.4934 -0.1220
    6TMC3    C214179   0.414   4.522  10.933  0.0158 -0.6577 -0.4599
    6TMC3    C314180   0.450   4.401  10.976  0.2209  1.0338 -0.9857
    6TMC3    C414181   0.442   4.603  11.161 -0.6382 -0.6167  0.3814
    6TMC3    C514182   0.490   4.481  11.204  0.5894  0.2178 -0.1114
    6TMC3    C614183   0.491   4.384  11.107 -0.8386 -0.0202 -1.0183
    6TMC3     C14184   0.408   0.030  10.982 -0.3000  0.0415  0.0999
    6TMC3     O14185   0.338   0.113  11.039 -0.3933 -0.3826  0.0253
    6TMC3     H14186   0.388   4.556  10.833 -2.4044 -0.7602  0.1377
    6TMC3    H114187   0.457   4.694  11.217  1.0818 -0.2920 -0.6371
    6TMC3    H214188   0.530   4.284  11.122 -0.3489  0.2150 -0.7212
    6TMC3    C714189   0.634   4.499  11.257  0.5305 -0.1433  0.0434
    6TMC3    C814190   0.445   4.278  10.897  0.3588  0.0626 -0.2635
    6TMC3    O114191   0.660   4.617  11.281 -0.1581 -0.1315 -0.0488
    6TMC3    O214192   0.434   4.170  10.956  0.1326 -0.0889  0.0500
    7MPD2     C14193   1.465   4.448  11.583 -0.0644 -0.3101  0.2166
    7MPD2    C114194   1.438   4.581  11.602 -0.4107 -0.2194 -0.5258
    7MPD2    C214195   1.355   4.618  11.713  0.1757  0.1157  0.5803
    7MPD2    C314196   1.292   4.516  11.787 -0.6049  0.3951  0.3960
    7MPD2    C414197   1.331   4.384  11.776 -0.3164  0.4036  0.4539
    7MPD2    C514198   1.412   4.356  11.663  0.4921  0.3570  0.1048
    7MPD2     H14199   1.323   4.720  11.731 -2.2886 -0.7128  0.8075
    7MPD2    H114200   1.279   4.308  11.833  0.6999 -0.7007 -0.0685
    7MPD2    H214201   1.527   4.410  11.502 -1.0115  1.3781 -1.2751
    7MPD2    H314202   1.453   4.259  11.636 -0.9526 -0.1131 -0.3914
    7MPD2     N14203   1.196   4.553  11.883 -0.1465  0.1946 -0.3948
    7MPD2    H514204   1.174   4.652  11.890  0.0956  0.2988 -1.2185
    7MPD2    N114205   1.472   4.670  11.499  0.5499  0.5598 -0.3051
    7MPD2    H714206   1.503   4.630  11.410  0.2192 -0.2904 -0.0314
    8TMC3    C114207   1.379   0.137  11.394 -0.1790 -0.6067 -0.1805
    8TMC3    C214208   1.320   0.045  11.314 -0.5860 -1.1232 -0.5726
    8TMC3    C314209   1.199   0.079  11.256  0.5537 -0.5949  0.1660
    8TMC3    C414210   1.308   0.250  11.420  0.2994 -0.0648 -0.3433
    8TMC3    C514211   1.177   0.273  11.383 -0.3060  0.2486  0.6138
    8TMC3    C614212   1.124   0.194  11.287  0.7568  0.8478 -0.3352
    8TMC3     C14213   1.450   0.077  11.507  0.0793 -0.5055  0.1940
    8TMC3     O14214   1.466   0.148  11.606  0.4754 -0.5556 -0.3321
    8TMC3     H14215   1.370   4.683  11.270  1.5805 -0.6853  1.0750
    8TMC3    H114216   1.346   0.321  11.493 -0.0987 -0.0099 -0.1932
    8TMC3    H214217   1.026   0.214  11.245  0.9636  0.5175 -0.9801
    8TMC3    C714218   1.088   0.296  11.490  0.1743 -0.0793 -0.5435
    8TMC3    C814219   1.116   4.687  11.221 -0.2569  0.2612  0.2349
    8TMC3    O114220   1.146   0.306  11.596 -0.5606 -0.3669  0.3914
    8TMC3    O214221   1.034   4.706  11.134  0.4978 -0.4013  0.4712
    9MPD2     C14222   1.094   4.360  11.389 -0.1682  0.3472  0.3168
    9MPD2    C114223   1.050   4.465  11.316 -0.3379  1.3090 -0.0401
    9MPD2    C214224   0.917   4.474  11.279  0.1270  0.3284 -0.3524
    9MPD2    C314225   0.830   4.374  11.318  0.3263 -0.3059 -0.1653
    9MPD2    C414226   0.880   4.265  11.392  0.7696 -0.3744 -0.0597
    9MPD2    C514227   1.010   4.260  11.428 -0.0820 -0.1091 -0.3622
    9MPD2     H14228   0.879   4.554  11.216  1.5335  0.6981 -0.7537
    9MPD2    H114229   0.816   4.193  11.441  0.1296  1.4159  1.7311
    9MPD2    H214230   1.198   4.349  11.419  0.0505  2.9180  0.4254
    9MPD2    H314231   1.038   4.167  11.475 -0.0090  0.0871 -0.0204
    9MPD2     N14232   0.697   4.381  11.293  0.4539 -0.4722 -0.1110
    9MPD2    H514233   0.645   4.296  11.313 -1.1333  0.6209  0.3395
    9MPD2    N114234   1.142   4.570  11.291 -0.1814  0.1232  0.4141
    9MPD2    H714235   1.239   4.557  11.317  0.1764  3.0752  0.5449
    1MPD1     C14236   1.250   3.349  16.683 -0.0081  0.5590  0.2965
    1MPD1    C114237   1.233   3.258  16.577 -0.2619  0.0011 -0.6693
    1MPD1    C214238   1.120   3.185  16.577 -0.7798 -0.1428 -0.7527
    1MPD1    C314239   1.019   3.210  16.664 -0.1992 -0.5700 -0.3588
    1MPD1    C414240   1.042   3.288  16.774 -0.0279  0.7050 -0.3127
    1MPD1    C514241   1.153   3.364  16.776  0.5645 -0.2635 -0.6162
    1MPD1     H14242   1.115   3.095  16.518  2.0434 -0.6220 -0.2919
    1MPD1    H114243   0.970   3.299  16.854  1.9936 -1.7664  1.8423
    1MPD1    H214244   1.340   3.406  16.700 -0.1058 -0.2175  3.5318
    1MPD1    H314245   1.159   3.435  16.858 -2.0942 -2.6901  1.7015
    1MPD1     N14246   0.897   3.140  16.674 -0.1813  0.4602  0.1810
    1MPD1    H514247   0.837   3.157  16.754  1.5325 -0.4250  1.6539
    1MPD1    N114248   1.348   3.222  16.504 -0.5566  0.1355 -0.1576
    1MPD1    H614249   1.421   3.293  16.514 -0.7083  0.3186 -0.3340
    1MPD1    H714250   1.325   3.205  16.406  0.7649  0.5527 -0.5488
    2MPD1     C14251   0.149   3.279  16.088  0.2929 -0.2204  0.1024
    2MPD1    C114252   0.277   3.250  16.043 -0.4223 -0.1237  0.0458
    2MPD1    C214253   0.357   3.177  16.129  0.0060 -0.1980  0.3010
    2MPD1    C314254   0.323   3.138  16.257  0.2524 -0.3017  0.2889
    2MPD1    C414255   0.192   3.172  16.298 -0.2489 -0.1451  0.8370
    2MPD1    C514256   0.111   3.240  16.212  0.3723  0.0689 -0.2082
    2MPD1     H14257   0.452   3.140  16.091 -0.3259 -0.6408 -0.1088
    2MPD1    H114258   0.153   3.163  16.399 -0.2951 -3.1835  0.5667
    2MPD1    H214259   0.071   3.323  16.026  0.5767 -0.1633 -0.2150
    2MPD1    H314260   0.008   3.258  16.243  1.1113 -0.4031  2.5660
    2MPD1     N14261   0.417   3.059  16.334  0.1931 -0.3898 -0.2916
    2MPD1    H514262   0.500   3.029  16.285  0.5955  0.2034  0.0229
    2MPD1    N114263   0.308   3.255  15.908 -0.7771 -0.3653 -0.3866
    2MPD1    H614264   0.244   3.310  15.852  0.6826  0.0926 -1.5935
    2MPD1    H714265   0.406   3.278  15.891 -1.2912  3.5595  2.0527
    3TCq2    C114266   0.388   3.003  16.456  0.1814 -0.0551 -0.3647
    3TCq2    O214267   0.277   2.987  16.502  0.1269  0.8287  0.0076
    3TCq2    C214268   0.504   2.949  16.522 -0.0488  0.6027  0.2836
    3TCq2    C314269   0.480   2.881  16.641  0.0551  0.1146  0.7325
    3TCq2    C414270   0.569   2.908  16.744 -0.3300 -0.3436 -0.5527
    3TCq2    C514271   0.688   2.979  16.724  0.2021  0.0406  0.3976
    3TCq2    C614272   0.710   3.020  16.598 -0.6171  0.1752 -1.1489
    3TCq2    C714273   0.621   3.015  16.498 -0.4809 -0.0606  0.0452
    3TCq2    C814274   0.841   3.078  16.566 -0.2020  0.5698  0.2578
    3TCq2    O414275   0.875   3.066  16.448  0.5468 -0.2084  0.6683
    3TCq2    C914276   0.553   2.833  16.869  0.1644  0.0497 -0.3345
    3TCq2    O514277   0.471   2.743  16.870  0.8477 -0.0242  0.1901
    3TCq2    O614278   0.634   2.863  16.962  0.1325  0.3552 -0.5986
    3TCq2    H214279   0.388   2.827  16.656  1.2611 -0.5715  5.5159
    3TCq2    H314280   0.771   2.975  16.794 -0.1490 -0.3444  0.7967
    3TCq2    H414281   0.646   3.052  16.399 -3.1793  1.4671 -0.0929
    1TCq1    O114282   3.672   1.892  12.646 -0.2325 -0.1083  0.1061
    1TCq1    C114283   3.574   1.947  12.720 -0.1657  0.6322  0.3781
    1TCq1    O214284   3.455   1.937  12.711 -0.7787  1.0273 -0.0268
    1TCq1    C214285   3.632   1.979  12.847 -0.3193 -0.5871 -0.1027
    1TCq1    C314286   3.551   2.001  12.960 -0.3108  0.3652 -0.3885
    1TCq1    C414287   3.607   2.057  13.075 -0.4192 -0.2876 -0.5044
    1TCq1    C514288   3.733   2.093  13.080 -0.7622 -0.3258  0.6330
    1TCq1    C614289   3.813   2.081  12.969  0.9029  0.7324 -0.5315
    1TCq1    C714290   3.768   2.025  12.854  0.1350 -0.1776  0.6655
    1TCq1    C814291   3.945   2.147  12.978  0.9483 -0.2142 -0.0208
    1TCq1    O414292   3.973   2.239  12.906 -0.4084  0.2093  0.2404
    1TCq1    C914293   3.529   2.072  13.197  0.6211 -0.1256  0.0250
    1TCq1    O514294   3.587   2.111  13.302 -0.0192 -0.4911 -0.2111
    1TCq1    O614295   3.403   2.068  13.182 -0.0542 -0.5096  0.3288
    1TCq1    H114296   3.756   1.905  12.696 -0.1362 -0.4876  0.0399
    1TCq1    H214297   3.454   1.954  12.972  0.3626 -0.5948  1.3893
    1TCq1    H314298   3.763   2.150  13.167  0.9855  0.1657 -0.2854
    1TCq1    H414299   3.834   2.019  12.768  1.0220  0.6247  1.2947
    2MPD2     C14300   4.186   2.267  13.124 -0.6063  0.1884 -0.6158
    2MPD2    C114301   4.114   2.153  13.162 -0.6697 -0.1147 -0.4156
    2MPD2    C214302   4.149   2.095  13.281  0.5155 -0.5344 -0.0027
    2MPD2    C314303   4.255   2.141  13.360  0.4669  0.0390  0.5880
    2MPD2    C414304   4.326   2.247  13.320 -0.5369  0.0018  0.3413
    2MPD2    C514305   4.286   2.312  13.205 -0.0294 -0.1469  0.0091
    2MPD2     H14306   4.106   2.004  13.319 -1.7952  1.2645  1.6554
    2MPD2    H114307   4.412   2.285  13.375 -0.1398 -1.1620  0.5132
    2MPD2    H214308   4.176   2.313  13.027  2.1534 -1.3898 -1.6540
    2MPD2    H314309   4.338   2.407  13.193  1.6573 -1.2152 -1.0497
    2MPD2     N14310   4.279   2.084  13.491  0.5813  0.3801 -0.0868
    2MPD2    H514311   4.210   2.011  13.505 -0.4371  1.4197  0.2959
    2MPD2    N114312   4.006   2.099  13.093 -0.4958  0.0617 -0.3300
    2MPD2    H714313   3.960   2.013  13.120  0.4187 -0.0702  0.8184
    3TCq1    O114314   4.127   1.690  13.922  0.2548 -0.3736 -0.1266
    3TCq1    C114315   4.117   1.772  13.820  0.1226 -0.0615 -0.1267
    3TCq1    O214316   4.081   1.732  13.713 -0.0492  0.0870  0.1081
    3TCq1    C214317   4.217   1.877  13.828  0.2407  0.1923  0.1198
    3TCq1    C314318   4.237   1.942  13.948  0.0446 -0.7336  0.6536
    3TCq1    C414319   4.326   2.046  13.944 -0.0285 -0.4476  0.2329
    3TCq1    C514320   4.392   2.087  13.831  0.2719 -0.5959 -0.6122
    3TCq1    C614321   4.357   2.028  13.714 -0.1036 -0.1529 -0.2890
    3TCq1    C714322   4.280   1.917  13.712  0.2717  0.7653  0.2125
    3TCq1    C814323   4.375   2.109  13.589 -0.0412 -0.0202  0.1762
    3TCq1    O414324   4.455   2.203  13.598 -0.0154  0.1806 -0.0256
    3TCq1    C914325   4.350   2.128  14.062  1.4611  0.7612 -0.3862
    3TCq1    O514326   4.278   2.097  14.159  0.2013  0.0297 -0.1665
    3TCq1    O614327   4.402   2.243  14.044 -0.2465 -0.2263  0.1467
    3TCq1    H114328   4.194   1.715  13.989 -0.5876 -0.1140  0.6157
    3TCq1    H214329   4.192   1.903  14.039  0.9448  0.1343  1.4799
    3TCq1    H314330   4.452   2.177  13.840  1.4797 -1.4168 -0.5085
    3TCq1    H414331   4.249   1.862  13.623  0.2149 -0.1657  0.8078
    1MPD2     C14332   3.478   3.608  14.067  0.0349 -0.1008  0.3923
    1MPD2    C114333   3.499   3.496  14.144 -0.2955  0.5476  0.5896
    1MPD2    C214334   3.542   3.515  14.272 -0.7023  0.0676 -0.8155
    1MPD2    C314335   3.586   3.638  14.326 -0.3505  0.3709 -0.7960
    1MPD2    C414336   3.578   3.749  14.246 -0.2752 -0.5552 -0.2636
    1MPD2    C514337   3.528   3.731  14.116  0.1224 -0.6347  0.2021
    1MPD2     H14338   3.525   3.428  14.335 -1.9768  1.8885  1.3741
    1MPD2    H114339   3.610   3.850  14.269  0.0344 -1.0131  1.2831
    1MPD2    H214340   3.430   3.613  13.970  0.8695 -2.0441 -0.1186
    1MPD2    H314341   3.501   3.820  14.060 -0.2137 -0.7939  0.1098
    1MPD2     N14342   3.645   3.647  14.456 -0.1635 -0.3427  0.3161
    1MPD2    H514343   3.682   3.738  14.479 -1.6253  0.4707 -0.5489
    1MPD2    N114344   3.463   3.366  14.095  0.0156  0.2676 -0.0023
    1MPD2    H714345   3.439   3.361  13.996  0.6147  0.2512 -0.1466
    2TMC3    C114346   3.444   3.129  14.083 -0.5229  0.0029 -0.3188
    2TMC3    C214347   3.489   3.022  14.146 -0.1608 -0.1257  0.1252
    2TMC3    C314348   3.407   2.921  14.181  0.3395  0.4759 -0.5960
    2TMC3    C414349   3.316   3.144  14.051  0.4302  0.3649  0.0583
    2TMC3    C514350   3.236   3.033  14.077 -0.7163  0.4678  0.3182
    2TMC3    C614351   3.277   2.921  14.136  0.3944 -0.0242 -0.0419
    2TMC3     C14352   3.501   3.243  14.146  0.3281 -0.7749 -0.0506
    2TMC3     O14353   3.569   3.227  14.252  0.7452 -0.8166 -0.0292
    2TMC3     H14354   3.596   3.018  14.164 -0.4071  0.5546  1.7363
    2TMC3    H114355   3.281   3.229  13.994 -2.3318 -0.7891  0.0258
    2TMC3    H214356   3.206   2.841  14.157 -0.8312  1.4081  1.2836
    2TMC3    C714357   3.100   3.036  14.031 -0.5944  0.3666  0.2030
    2TMC3    C814358   3.414   2.882  14.319  0.2517  0.0894  0.5051
    2TMC3    O114359   3.048   2.925  14.008 -0.0960  0.1365  0.1577
    2TMC3    O214360   3.343   2.793  14.367  0.9391 -0.2845  0.4495
    3TCq1    O114361   2.747   3.931  13.983  0.7082  0.4711 -0.3571
    3TCq1    C114362   2.646   3.982  14.059  0.2547  0.2977  0.8035
    3TCq1    O214363   2.605   4.097  14.075  0.1580  0.1685 -0.2473
    3TCq1    C214364   2.568   3.878  14.126 -0.7979 -0.5778 -0.0632
    3TCq1    C314365   2.517   3.910  14.250 -0.2802  0.4221 -0.0454
    3TCq1    C414366   2.484   3.803  14.332  0.4239 -0.0247 -0.0634
    3TCq1    C514367   2.499   3.674  14.289 -0.4540  0.4496  0.1155
    3TCq1    C614368   2.543   3.655  14.161 -0.0791  0.0977 -0.1721
    3TCq1    C714369   2.586   3.753  14.076 -0.1733 -0.1736  0.2605
    3TCq1    C814370   2.556   3.511  14.119  0.0700 -0.1523  0.4451
    3TCq1    O414371   2.463   3.440  14.151  0.2811  0.0976  0.7198
    3TCq1    C914372   2.443   3.829  14.472 -0.0458  0.5259 -0.3154
    3TCq1    O514373   2.419   3.733  14.552  0.8545 -0.1028 -0.5855
    3TCq1    O614374   2.411   3.949  14.496  0.2950 -0.0194 -0.5359
    3TCq1    H114375   2.754   3.834  13.996  0.2764  0.5485  0.4310
    3TCq1    H214376   2.503   4.010  14.290 -0.0194 -0.1848  1.5730
    3TCq1    H314377   2.485   3.582  14.345 -2.4120  1.3845  1.1319
    3TCq1    H414378   2.614   3.733  13.973 -2.1072 -0.5574 -0.1965
    4MPD2     C14379   2.647   3.259  14.000 -0.2467 -0.7427  0.2152
    4MPD2    C114380   2.724   3.353  14.058 -0.0766 -0.4026  0.4507
    4MPD2    C214381   2.858   3.323  14.065  0.0435 -0.0931 -0.7369
    4MPD2    C314382   2.906   3.194  14.028  0.2281  0.5276 -0.1455
    4MPD2    C414383   2.815   3.099  13.970 -0.8297 -0.6749 -0.5246
    4MPD2    C514384   2.684   3.134  13.962 -0.6464  0.2267 -0.5794
    4MPD2     H14385   2.927   3.393  14.108  1.2087 -1.9756  0.4590
    4MPD2    H114386   2.842   2.998  13.939 -1.0749 -1.4821  1.8636
    4MPD2    H214387   2.542   3.285  13.988  0.5380  2.3436 -0.1295
    4MPD2    H314388   2.610   3.071  13.913 -2.1919  0.5460  1.3405
    4MPD2     N14389   3.044   3.165  14.047  0.0894  0.2498  0.3559
    4MPD2    H514390   3.107   3.233  14.088 -0.9032  1.2355  0.2432
    4MPD2    N114391   2.687   3.484  14.091  0.0192 -0.3800 -0.3802
    4MPD2    H714392   2.764   3.547  14.110 -1.6982  0.9608  2.0668
    5TMC2    C114393   3.804   3.406  14.814  0.9775  0.1764 -0.7834
    5TMC2    C214394   3.935   3.410  14.771  0.5400  0.7150  1.2289
    5TMC2    C314395   3.965   3.503  14.683 -0.4682 -0.7487 -0.7465
    5TMC2    C414396   3.707   3.495  14.775  0.3422 -0.0325  0.2572
    5TMC2    C514397   3.741   3.564  14.662 -0.1556  0.0268  0.4578
    5TMC2    C614398   3.871   3.577  14.622 -0.7865 -0.2558 -0.0341
    5TMC2     C14399   3.759   3.273  14.836 -0.3441  0.4281  0.8510
    5TMC2     O14400   3.803   3.202  14.922  0.3151  0.0653 -0.1901
    5TMC2     H14401   4.006   3.335  14.803 -0.3988  0.2824  2.3068
    5TMC2    H114402   3.602   3.472  14.788  0.0441 -0.2528 -2.5246
    5TMC2    H214403   3.899   3.609  14.522 -3.0228  1.4823 -0.1042
    5TMC2    C714404   3.649   3.548  14.554  0.3629  0.5513  0.0147
    5TMC2    C814405   4.089   3.504  14.611 -1.2348 -0.1345  0.5953
    5TMC2    O114406   3.584   3.443  14.553 -1.1671 -0.4705 -0.2180
    5TMC2    O214407   4.162   3.407  14.612 -0.0868  0.8475 -0.6820
    5TMC2    O514408   4.133   3.637  14.606 -0.1779 -0.4832 -0.0871
    5TMC2    H514409   4.063   3.699  14.636 -0.5383 -1.2892  0.7556
    6MPD2     C14410   3.540   2.870  14.601 -0.3864  0.4671  0.7866
    6MPD2    C114411   3.529   2.985  14.522 -0.3928 -0.1351 -0.2320
    6MPD2    C214412   3.560   3.105  14.576 -0.4521  0.3165  0.7481
    6MPD2    C314413   3.620   3.121  14.700 -0.1294  0.5137  0.4385
    6MPD2    C414414   3.624   3.009  14.782  0.4569  0.4862  0.1134
    6MPD2    C514415   3.579   2.885  14.730 -0.0221 -0.3018  0.4580
    6MPD2     H14416   3.552   3.184  14.502 -0.8267 -0.1698  0.2702
    6MPD2    H114417   3.681   3.004  14.875  0.6707 -0.2187 -0.0584
    6MPD2    H214418   3.522   2.770  14.564  2.9157  0.2278 -0.2226
    6MPD2    H314419   3.589   2.791  14.783 -0.4174  0.4045  1.7950
    6MPD2     N14420   3.670   3.242  14.730  0.2776  0.4298 -0.3861
    6MPD2    H514421   3.641   3.319  14.670 -1.4005  0.6199  0.6803
    6MPD2    N114422   3.490   2.982  14.387  0.4237 -0.0975  0.5501
    6MPD2    H714423   3.509   3.070  14.340  1.8156 -0.9094 -0.3940
  945NH4     N114424   2.339   1.720   9.449 -0.3460  0.1879  0.6675
  945NH4     H214425   2.405   1.653   9.494  1.5486 -0.8080 -3.6648
  945NH4     H314426   2.391   1.808   9.437  0.2646 -0.5248 -1.8056
  945NH4     H414427   2.268   1.741   9.522  0.0555  1.5510  0.6644
  945NH4     H514428   2.292   1.677   9.367  2.5543 -1.0279 -0.3463
  946SOD     NA14429   1.736   2.003   7.856 -0.1257  0.0866 -0.0959
  947SOD     NA14430   0.910   4.111   9.209 -0.2003  0.3041 -0.1217
  948SOD     NA14431   3.003   1.662   9.893  0.1487  0.5771 -0.5132
  949SOD     NA14432   4.053   0.925   7.523  0.5210 -0.4331 -0.5080
  950SOD     NA14433   3.230   1.449   9.977  0.3736 -0.1393  0.1714
  951SOD     NA14434   2.663   3.293  11.106 -0.2397 -0.0308 -0.0533
  952SOD     NA14435   2.869   1.496  10.404  0.2002  0.0078  0.5406
  953SOD     NA14436   4.633   2.131  11.104  0.2267 -0.0442  0.2688
  954SOD     NA14437   3.673   1.821  11.418 -0.0951 -0.0452  0.0336
  955SOD     NA14438   0.894   4.481   6.039  0.2409  0.1310  0.1994
  956SOD     NA14439   4.071   2.133  14.267  0.1194 -0.6537  0.5851
  957SOD     NA14440   3.854   3.530  12.109  0.1253 -0.1096  0.2397
  958SOD     NA14441   2.441   0.373   0.701  0.2067  0.4099 -0.0035
  959SOD     NA14442   3.089   1.094   2.325  0.0194 -0.7515  0.1775
  960SOD     NA14443   3.362   0.742  11.589  0.6909  0.0760  0.0115
  961SOD     NA14444   1.042   1.547   0.978  0.1369  0.5002 -0.2288
  962SOD     NA14445   3.320   4.454   9.226 -0.2406  0.2476  0.2026
  963SOD     NA14446   2.674   2.292  15.547  0.0497 -0.4262  0.2669
  964SOD     NA14447   3.672   0.566  11.522  0.1322  0.0948  0.4582
  965SOD     NA14448   1.094   1.518  12.872  0.7466  0.1167 -0.5486
  966SOD     NA14449   2.015   1.874  11.121 -0.4255 -0.0840  0.4443
  967SOD     NA14450   3.606   3.848  11.693  0.1973  0.1658 -0.2318
  968SOD     NA14451   3.182   2.710  14.513 -0.1267  0.1455 -0.3139
  969SOD     NA14452   4.358   1.667  14.520 -0.2814  0.3439  0.4634
  970SOD     NA14453   1.083   2.603  16.426 -0.3548 -0.8109  0.1907
  971SOD     NA14454   0.290   3.809  11.962  0.0711  0.3831  0.1629
  972SOD     NA14455   2.393   4.062  14.694 -0.3461  0.2309  0.3584
  973SOD     NA14456   2.775   1.720  13.009  0.2592 -0.2488  0.2484
  974SOD     NA14457   1.709   1.620  13.006 -0.3198 -0.0747  0.6452
  975SOD     NA14458   4.123   2.645  11.473  0.5358  0.3080  0.7985
  976SOD     NA14459   4.696   3.507  13.330 -0.7120 -0.2492 -0.0086
  977SOD     NA14460   4.537   2.642  15.067 -0.3585 -0.1491 -0.0829
  978SOD     NA14461   0.665   1.953  14.735 -0.1028  0.2148  0.0911
  979SOD     NA14462   2.512   3.493  11.308 -0.2512  0.0191 -0.0536
  980SOD     NA14463   4.524   2.580  14.543  0.0737  0.1194 -0.5687
  981SOD     NA14464   3.482   4.082   2.672  0.2838 -0.3238 -0.1626
  982SOD     NA14465   1.567   2.328   2.099 -0.1146 -0.0003 -0.6153
  983SOD     NA14466   0.574   0.398  17.437  0.1589  0.1616  0.1311
  984SOD     NA14467   4.369   2.352  15.324 -0.2375  0.0991  0.2168
  985SOD     NA14468   3.065   3.518  11.870 -0.1143 -0.0596  0.3052
  986SOD     NA14469   4.317   3.046  15.700  0.2948  0.1885  0.2587
  987SOD     NA14470   1.611   1.983   4.556 -0.1137 -0.2409 -0.4222
  988SOD     NA14471   4.513   3.813  16.944  0.0456 -0.1531  0.3371
  989SOD     NA14472   3.114   1.536  10.247 -0.0213 -0.0188 -0.0192
  990SOD     NA14473   0.799   1.403   1.168 -0.4914 -0.0312 -0.6665
  991SOD     NA14474   4.468   0.267  14.637 -0.3718  0.3784 -0.1513
  992SOD     NA14475   0.711   0.531  15.165  0.7361  0.1327 -0.0662
  993SOD     NA14476   1.456   2.808  13.946 -0.2612  0.3067 -0.2670
  994SOD     NA14477   1.002   4.248  12.518  0.3032 -0.3351 -0.2361
  995SOD     NA14478   0.270   4.288   2.382  0.2563 -0.1189  0.4268
  996SOD     NA14479   3.725   2.128  13.459 -0.0055 -0.0558  0.1205
  997SOD     NA14480   2.086   2.285   2.482 -0.4757  0.3540  0.5147
  998SOD     NA14481   4.134   2.502  10.257  0.1809  0.0643  0.3504
  999SOD     NA14482   4.099   1.588  12.121 -0.4170  0.4531 -0.4184
 1000SOD     NA14483   1.253   1.139  11.422 -0.0860 -0.3553 -0.1487
 1001SOD     NA14484   0.502   4.412  13.783 -0.1101 -0.4499  0.0191
 1002SOD     NA14485   4.053   0.758  16.965 -0.0665 -0.3017  0.2108
 1003SOD     NA14486   0.700   4.152   0.903  0.1741  0.6186  0.0253
 1004SOD     NA14487   1.503   1.452   0.068  0.4715  0.3426 -0.4299
 1005SOD     NA14488   3.003   2.983   0.443 -0.6611 -0.4546 -0.2265
 1006SOD     NA14489   2.325   1.455  13.992  0.2559  0.3797 -0.1286
 1007SOD     NA14490   0.607   2.187   2.486  0.8713  0.0221 -0.0079
 1008SOD     NA14491   3.023   2.096   2.645 -0.2441 -0.1347  0.3991
 1009SOD     NA14492   0.571   3.470  11.051  0.0732  0.3204 -0.5780
 1010SOD     NA14493   4.350   4.265  10.342 -0.3660  0.0993  0.6265
 1011SOL     OW14494   0.800   4.614   3.824 -0.5925  0.5457 -0.2108
 1011SOL    HW114495   0.732   4.567   3.776  1.6686  0.2555 -3.1858
 1011SOL    HW214496   0.871   4.554   3.798 -1.8093 -0.5648 -0.9833
 1012SOL     OW14497   0.119   2.881   4.294 -0.1074  0.0650 -0.1774
 1012SOL    HW114498   0.137   2.827   4.371 -0.4146  3.1309  2.0387
 1012SOL    HW214499   0.097   2.815   4.229  0.5747 -0.9154  0.5793
 1013SOL     OW14500   2.447   1.517   0.489 -0.7049 -0.1469 -0.4274
 1013SOL    HW114501   2.474   1.542   0.577 -0.3968 -0.6250 -0.3882
 1013SOL    HW214502   2.366   1.468   0.507 -1.3056  0.1821 -2.2348
 1014SOL     OW14503   4.578   4.664   2.648  0.3753  0.8531 -0.9180
 1014SOL    HW114504   4.668   4.696   2.648  0.3661  0.8741 -0.3592
 1014SOL    HW214505   4.555   4.674   2.555  0.4207  1.1838 -0.8951
 1015SOL     OW14506   1.673   3.354  16.176  0.3982  0.4230  0.2695
 1015SOL    HW114507   1.751   3.383  16.128 -1.8280  1.6305 -2.6001
 1015SOL    HW214508   1.623   3.435  16.167 -0.5286  0.0948  2.5090
 1016SOL     OW14509   2.874   2.424  15.468 -0.4208 -0.3838  0.7831
 1016SOL    HW114510   2.946   2.379  15.425  0.0812 -0.5695  1.8077
 1016SOL    HW214511   2.886   2.514  15.437  3.2625 -1.0511  0.2954
 1017SOL     OW14512   2.679   3.641   5.143  0.4175 -1.3425  0.4122
 1017SOL    HW114513   2.631   3.641   5.226 -0.9249  0.2207 -0.3641
 1017SOL    HW214514   2.749   3.583   5.172  2.2289  0.9734  0.6765
 1018SOL     OW14515   2.588   1.162   7.731 -0.0000  0.1580  0.0392
 1018SOL    HW114516   2.497   1.130   7.729  0.1969 -0.5009  1.7143
 1018SOL    HW214517   2.616   1.159   7.640  0.2396  0.8846  0.0897
 1019SOL     OW14518   3.667   1.319  10.504 -0.2125 -0.2182  0.5178
 1019SOL    HW114519   3.738   1.378  10.530 -1.0957  0.9401  0.2920
 1019SOL    HW214520   3.730   1.247  10.506  1.7377  1.4712  0.0734
 1020SOL     OW14521   4.036   3.286  13.202  0.1450  0.1642 -0.1994
 1020SOL    HW114522   3.949   3.274  13.241  0.2919 -0.6824 -0.1377
 1020SOL    HW214523   4.089   3.310  13.278 -0.3106  2.5685 -0.6304
 1021SOL     OW14524   3.136   3.324   1.170  0.4397  0.4087 -0.0746
 1021SOL    HW114525   3.229   3.344   1.161  0.5110 -0.1439 -0.5668
 1021SOL    HW214526   3.140   3.253   1.234 -0.5687 -0.5501 -1.0623
 1022SOL     OW14527   3.520   2.932   4.463 -0.2320  0.7790 -0.4922
 1022SOL    HW114528   3.474   3.007   4.500  0.4079  0.1179  1.6664
 1022SOL    HW214529   3.598   2.971   4.423  1.3065  1.6620  3.4089
 1023SOL     OW14530   1.195   1.153   0.937 -0.3266 -0.8061 -0.5946
 1023SOL    HW114531   1.264   1.126   0.998 -1.8466 -4.2298 -0.4210
 1023SOL    HW214532   1.163   1.069   0.904 -1.6904 -1.3872  2.1910
 1024SOL     OW14533   4.408   4.231   5.279 -0.1859  0.7824 -0.4566
 1024SOL    HW114534   4.439   4.144   5.254  1.0532  0.4760  2.1107
 1024SOL    HW214535   4.330   4.227   5.223  0.4442 -0.9604 -1.2126
 1025SOL     OW14536   2.559   2.173  17.080  0.3008 -0.0639  0.0991
 1025SOL    HW114537   2.562   2.078  17.070  0.1300  0.1969 -2.2609
 1025SOL    HW214538   2.556   2.204  16.990  1.5256  1.7577  0.6947
 1026SOL     OW14539   1.529   1.035   7.221  0.0852  0.2798  0.0224
 1026SOL    HW114540   1.468   1.006   7.288  0.1821 -0.1300 -0.0650
 1026SOL    HW214541   1.614   1.002   7.250 -0.8620 -2.1815  0.0384
 1027SOL     OW14542   0.252   0.324   7.877 -0.2460  0.0995 -0.4365
 1027SOL    HW114543   0.171   0.278   7.857 -0.4378 -0.2705  1.2649
 1027SOL    HW214544   0.297   0.303   7.795  0.6504 -0.1971  0.1376
 1028SOL     OW14545   0.675   4.396   0.967  0.0334  0.2293 -0.4577
 1028SOL    HW114546   0.659   4.444   0.886 -0.5962  0.2575 -0.3153
 1028SOL    HW214547   0.598   4.420   1.019 -0.7901  0.1993 -1.6643
 1029SOL     OW14548   0.098   0.943   8.250 -0.0825 -0.1577  0.6036
 1029SOL    HW114549   0.170   0.970   8.306  0.1984 -2.2761  1.2643
 1029SOL    HW214550   0.128   0.859   8.215 -2.9342 -0.6294 -0.7368
 1030SOL     OW14551   0.559   1.724   4.267  1.1464  0.1690 -0.4245
 1030SOL    HW114552   0.506   1.795   4.304 -0.3411 -0.1742 -1.9266
 1030SOL    HW214553   0.606   1.682   4.339 -2.5862 -0.6358  1.5930
 1031SOL     OW14554   3.882   4.583  12.265 -0.4997  0.1173 -0.3150
 1031SOL    HW114555   3.901   4.676  12.255  1.3737 -0.3077 -0.8391
 1031SOL    HW214556   3.863   4.576  12.359 -0.1247  2.3768 -0.0776
 1032SOL     OW14557   2.985   1.872  12.629 -0.7063  0.4369  0.2600
 1032SOL    HW114558   3.071   1.896  12.593 -0.8821 -0.5580 -0.8324
 1032SOL    HW214559   2.929   1.945  12.602 -2.2016 -1.0398 -0.5950
 1033SOL     OW14560   2.782   1.605   7.162  0.1207  0.9631 -0.2961
 1033SOL    HW114561   2.724   1.669   7.204 -1.0959 -0.0430 -0.4356
 1033SOL    HW214562   2.852   1.601   7.227  0.1452  1.0736 -0.3160
 1034SOL     OW14563   0.964   2.092   9.555 -0.6291  0.1170  0.3638
 1034SOL    HW114564   1.008   2.099   9.470  2.1060 -0.6923  1.7178
 1034SOL    HW214565   0.916   2.175   9.561  0.3752  0.6949  0.4928
 1035SOL     OW14566   4.342   4.028  11.482 -0.5909 -0.4280 -0.8211
 1035SOL    HW114567   4.332   4.120  11.507 -0.6374 -0.7015  0.1440
 1035SOL    HW214568   4.303   4.029  11.394 -1.4918 -1.5387 -0.4331
 1036SOL     OW14569   1.341   4.245   1.907 -0.2591  0.6213  0.0087
 1036SOL    HW114570   1.285   4.255   1.830  2.2347 -1.1816 -2.0523
 1036SOL    HW214571   1.292   4.296   1.972 -0.2436 -1.1562  1.4208
 1037SOL     OW14572   3.328   2.232   3.695 -0.3243 -0.7920 -0.0322
 1037SOL    HW114573   3.284   2.189   3.768  2.4263 -1.7299  1.0529
 1037SOL    HW214574   3.412   2.248   3.738 -0.8910 -1.1062  1.2010
 1038SOL     OW14575   0.325   0.002   4.234  0.2293  0.0141  0.0187
 1038SOL    HW114576   0.303   0.073   4.294 -0.1791  0.3820 -0.5723
 1038SOL    HW214577   0.409   0.041   4.209  0.2828  0.0799  0.2985
 1039SOL     OW14578   1.186   3.136  14.853 -0.0460  0.3217  0.4390
 1039SOL    HW114579   1.170   3.082  14.930 -2.2282 -0.1320 -0.3495
 1039SOL    HW214580   1.275   3.113  14.825 -0.8186  1.7223 -3.0817
 1040SOL     OW14581   4.390   1.201   9.016  0.3329  0.5414 -0.3580
 1040SOL    HW114582   4.304   1.235   8.990  0.5544  1.2494 -0.1405
 1040SOL    HW214583   4.412   1.150   8.939 -1.4955 -1.4176  0.4014
 1041SOL     OW14584   0.307   3.053  10.368 -0.0826  0.4402  0.0320
 1041SOL    HW114585   0.277   3.143  10.362 -1.9009 -0.0697  1.2168
 1041SOL    HW214586   0.227   3.006  10.393  0.4306 -1.0536 -1.0751
 1042SOL     OW14587   0.784   2.985   4.650 -0.3118  0.7441 -0.1504
 1042SOL    HW114588   0.707   2.960   4.702 -2.2235  3.4516 -1.6893
 1042SOL    HW214589   0.744   2.973   4.563 -0.1573 -0.9904  0.0126
 1043SOL     OW14590   4.028   2.440   6.126  0.9358  0.7976 -0.3997
 1043SOL    HW114591   3.999   2.436   6.217 -0.7291 -0.9641 -1.0180
 1043SOL    HW214592   3.990   2.361   6.089  0.7263  1.2456 -1.1298
 1044SOL     OW14593   0.636   1.779  10.628  0.1262  0.2109 -0.4132
 1044SOL    HW114594   0.646   1.728  10.549 -0.3308 -0.9498  0.2812
 1044SOL    HW214595   0.700   1.737  10.685 -2.0097 -0.8269  1.2117
 1045SOL     OW14596   1.223   3.396   5.272  0.4549  0.0811  0.4083
 1045SOL    HW114597   1.148   3.376   5.328  0.2512  0.1221  0.1522
 1045SOL    HW214598   1.184   3.447   5.201 -2.6178 -2.4531  0.2981
 1046SOL     OW14599   4.016   2.170   8.797 -0.1288 -0.6944  0.0672
 1046SOL    HW114600   3.932   2.139   8.831 -1.1761  2.3654  0.3280
 1046SOL    HW214601   4.029   2.238   8.864  0.7849 -1.4309  0.6372
 1047SOL     OW14602   4.703   0.799   2.599 -0.1651  0.0849 -0.4414
 1047SOL    HW114603   4.651   0.724   2.570 -0.0197 -0.1693 -0.0407
 1047SOL    HW214604   4.633   0.862   2.617 -0.3428  0.6384 -3.0719
 1048SOL     OW14605   1.155   4.045   0.333 -0.0171  0.1656 -0.1001
 1048SOL    HW114606   1.198   3.961   0.315 -0.3098  0.0153 -0.1070
 1048SOL    HW214607   1.195   4.086   0.409 -0.3615 -0.0521  0.1982
 1049SOL     OW14608   1.548   2.563   7.731  0.5314  0.4570 -0.5250
 1049SOL    HW114609   1.481   2.630   7.715 -1.5113 -0.8875  2.1851
 1049SOL    HW214610   1.534   2.548   7.825  1.8960  1.1436 -0.2100
 1050SOL     OW14611   0.455   4.616  13.857 -0.1653  0.8005 -0.1673
 1050SOL    HW114612   0.495   4.638  13.941 -2.8089  2.2118  0.6959
 1050SOL    HW214613   0.462   4.701  13.815 -1.9856  1.6805  1.3436
 1051SOL     OW14614   2.017   4.634  12.686  0.9875 -0.3578  0.2562
 1051SOL    HW114615   2.104   4.672  12.701  0.5490  0.3046  1.1427
 1051SOL    HW214616   2.015   4.632  12.591 -0.7278 -0.7181  0.2967
 1052SOL     OW14617   4.607   3.587   4.053 -0.3167 -0.2933  0.1502
 1052SOL    HW114618   4.669   3.520   4.080  0.6180  1.4633  2.4126
 1052SOL    HW214619   4.674   3.655   4.056 -1.1197  0.5097 -0.0586
 1053SOL     OW14620   2.450   0.109   0.284  0.2832 -0.2005 -0.2648
 1053SOL    HW114621   2.525   0.165   0.266 -0.4127  0.2365 -1.8375
 1053SOL    HW214622   2.476   0.039   0.224  0.3136 -3.1776  3.2099
 1054SOL     OW14623   2.910   3.579   5.624  0.2797  0.5063  0.1067
 1054SOL    HW114624   2.965   3.571   5.546 -0.8064  2.2946 -0.8341
 1054SOL    HW214625   2.911   3.674   5.634 -2.5072  0.5943 -0.4643
 1055SOL     OW14626   4.222   4.075   7.091 -0.0089  0.1097  0.6103
 1055SOL    HW114627   4.276   4.134   7.038  1.6369 -4.1787 -2.4799
 1055SOL    HW214628   4.134   4.098   7.064 -0.1694 -3.2378 -1.7239
 1056SOL     OW14629   1.306   2.549   7.360  0.2265  0.3300 -0.5935
 1056SOL    HW114630   1.231   2.593   7.401 -0.0621  1.0577 -1.9102
 1056SOL    HW214631   1.259   2.469   7.337  1.2272 -0.7029  0.9537
 1057SOL     OW14632   2.357   3.205   3.943  0.1580 -0.6285 -0.5524
 1057SOL    HW114633   2.428   3.260   3.909 -0.9117  0.7492 -0.5787
 1057SOL    HW214634   2.392   3.117   3.932  1.3903  0.0127 -1.7176
 1058SOL     OW14635   2.880   4.459   7.871  0.6406 -0.3105 -0.6509
 1058SOL    HW114636   2.819   4.453   7.796  0.1871 -0.3875 -0.2764
 1058SOL    HW214637   2.821   4.439   7.943 -1.2146  1.0442 -1.7968
 1059SOL     OW14638   0.202   3.307   3.598 -0.3451  0.2675 -0.1255
 1059SOL    HW114639   0.136   3.320   3.666 -0.5868  1.1687 -0.5323
 1059SOL    HW214640   0.167   3.227   3.560  2.4310 -1.9172  1.9801
 1060SOL     OW14641   0.227   3.219  13.364 -0.3484  0.1163 -0.8051
 1060SOL    HW114642   0.266   3.246  13.281 -1.8583  0.7937 -1.2870
 1060SOL    HW214643   0.257   3.128  13.360 -0.4243  0.2232 -3.6028
 1061SOL     OW14644   1.670   1.962   8.938  0.1244 -0.6912  0.6429
 1061SOL    HW114645   1.639   2.041   8.982 -1.5246 -0.4195 -1.0392
 1061SOL    HW214646   1.690   2.000   8.852  0.7171 -0.2916  0.9534
 1062SOL     OW14647   1.584   0.753   0.561  0.3768  0.4552  0.0086
 1062SOL    HW114648   1.606   0.693   0.633 -2.0957 -0.1996  0.2014
 1062SOL    HW214649   1.494   0.773   0.585  0.6053  2.3314 -0.6396
 1063SOL     OW14650   3.942   0.217   0.442 -0.2140  0.4074 -0.6333
 1063SOL    HW114651   3.970   0.137   0.486 -0.5291  1.1081  0.8346
 1063SOL    HW214652   3.992   0.285   0.487 -2.5662  1.8680 -0.2686
 1064SOL     OW14653   1.374   1.200  14.709  0.0172 -0.0020  0.6195
 1064SOL    HW114654   1.370   1.116  14.662 -0.1171  1.3925 -1.8943
 1064SOL    HW214655   1.301   1.201  14.771 -1.8489  2.7712 -1.5900
 1065SOL     OW14656   1.307   4.176   0.511  0.5344 -0.4398  0.5066
 1065SOL    HW114657   1.270   4.263   0.494 -0.3445 -0.5915  1.6544
 1065SOL    HW214658   1.383   4.191   0.566  1.1293 -1.4043 -0.0325
 1066SOL     OW14659   3.090   4.566   8.889  0.0360 -0.0855 -0.0700
 1066SOL    HW114660   3.084   4.499   8.821 -2.7112  0.8740 -0.7941
 1066SOL    HW214661   3.185   4.574   8.883 -0.0305  0.8817  0.1772
 1067SOL     OW14662   2.513   4.022   1.701  0.4964  0.2566 -0.0681
 1067SOL    HW114663   2.521   3.927   1.715 -2.2218  0.0568  0.1183
 1067SOL    HW214664   2.427   4.024   1.659  1.1724  0.8409 -1.4041
 1068SOL     OW14665   4.205   2.426  14.092  0.3981 -0.0448 -0.3179
 1068SOL    HW114666   4.223   2.332  14.088 -1.5725 -0.4959  1.4883
 1068SOL    HW214667   4.276   2.459  14.037 -0.2835  0.3319 -0.9722
 1069SOL     OW14668   3.871   3.955  12.211  0.2365 -0.1688  0.2281
 1069SOL    HW114669   3.918   4.032  12.180  0.8277 -0.2495  0.9424
 1069SOL    HW214670   3.789   3.994  12.242 -0.2548 -1.8371  1.0187
 1070SOL     OW14671   2.860   1.856   8.584 -1.0602 -0.9061  0.2811
 1070SOL    HW114672   2.829   1.862   8.494  2.1015 -0.0231 -0.7399
 1070SOL    HW214673   2.873   1.762   8.595 -0.4232 -0.5612  2.5787
 1071SOL     OW14674   0.427   3.005   4.085  0.3409 -0.5493 -0.3609
 1071SOL    HW114675   0.469   2.929   4.044 -1.1216 -1.9762  0.7992
 1071SOL    HW214676   0.509   3.051   4.104  0.9342 -1.5763 -0.4401
 1072SOL     OW14677   1.520   3.147   7.777 -1.0483 -0.4507 -0.5240
 1072SOL    HW114678   1.612   3.122   7.786 -0.9587 -0.6173 -1.9883
 1072SOL    HW214679   1.484   3.152   7.866 -0.6269  0.6329 -0.4074
 1073SOL     OW14680   2.772   4.417   6.232  0.0763  0.5274 -0.1964
 1073SOL    HW114681   2.759   4.511   6.223  1.3220  0.7433  0.1736
 1073SOL    HW214682   2.703   4.379   6.178  0.6933  0.8854 -1.2502
 1074SOL     OW14683   0.686   2.082  14.355  0.4602 -0.0111  0.0534
 1074SOL    HW114684   0.736   2.009  14.318 -0.4408  0.3926 -1.9328
 1074SOL    HW214685   0.670   2.136  14.278 -2.2173 -0.5415  0.2104
 1075SOL     OW14686   4.710   1.613  15.799 -0.1348  0.1173  0.0632
 1075SOL    HW114687   4.656   1.681  15.760 -1.0780  0.2010  1.5205
 1075SOL    HW214688   4.676   1.531  15.765  1.8209 -0.1680 -1.2406
 1076SOL     OW14689   1.814   3.583   1.502  0.0522  0.3613 -0.1106
 1076SOL    HW114690   1.881   3.526   1.540  0.2752  1.0767  0.5958
 1076SOL    HW214691   1.803   3.639   1.580  1.4943  0.4190  0.0521
 1077SOL     OW14692   3.244   0.589   4.141  0.0401  0.5180  0.0413
 1077SOL    HW114693   3.286   0.648   4.203  0.1100  2.2330 -1.6167
 1077SOL    HW214694   3.161   0.635   4.128 -1.2922 -1.8869  0.0643
 1078SOL     OW14695   4.181   1.910   5.603 -0.4369 -0.2006 -0.4182
 1078SOL    HW114696   4.124   1.984   5.583 -0.8040 -1.0573 -2.5570
 1078SOL    HW214697   4.246   1.949   5.661  1.3105 -0.7836 -2.0130
 1079SOL     OW14698   1.551   3.666   4.577 -0.1179 -0.1043  0.2200
 1079SOL    HW114699   1.494   3.725   4.627 -1.2215  0.3791 -1.5995
 1079SOL    HW214700   1.541   3.585   4.627  0.3425 -0.2213  0.1268
 1080SOL     OW14701   0.295   0.019  17.001  0.1891 -0.0337  0.1211
 1080SOL    HW114702   0.253   0.011  17.087  1.8701 -1.9893  0.7537
 1080SOL    HW214703   0.333   0.107  16.999 -0.7346  0.3338 -0.9292
 1081SOL     OW14704   0.887   0.809   2.458 -0.9849 -0.5472  0.4441
 1081SOL    HW114705   0.921   0.801   2.547 -0.5456 -4.5914 -0.0845
 1081SOL    HW214706   0.828   0.884   2.472 -0.8572  0.2300 -3.1585
 1082SOL     OW14707   1.451   0.595   4.189  0.1543 -0.2547  0.4242
 1082SOL    HW114708   1.390   0.665   4.166  1.0810  0.6936  0.8439
 1082SOL    HW214709   1.496   0.631   4.266 -0.9052 -1.4606  1.6068
 1083SOL     OW14710   1.881   0.375   2.697 -0.2871 -0.2033  0.1374
 1083SOL    HW114711   1.975   0.380   2.714 -0.3112  2.4763 -0.4762
 1083SOL    HW214712   1.868   0.462   2.660 -2.1385 -0.4901  0.1168
 1084SOL     OW14713   3.429   1.269   2.231  0.2051 -0.2287 -0.0512
 1084SOL    HW114714   3.465   1.202   2.289  0.0011 -1.1036 -0.9392
 1084SOL    HW214715   3.507   1.323   2.220  1.2667 -1.0659  3.2897
 1085SOL     OW14716   3.964   3.389   5.973 -0.2963 -0.5868 -0.0589
 1085SOL    HW114717   4.057   3.368   5.964 -0.2754 -0.4133 -0.2343
 1085SOL    HW214718   3.967   3.466   6.029  0.9888 -0.9705  0.3924
 1086SOL     OW14719   0.732   0.396   2.870  0.4497 -0.0711 -0.1069
 1086SOL    HW114720   0.658   0.448   2.840 -1.0178 -1.4827  0.9876
 1086SOL    HW214721   0.774   0.364   2.791 -0.1041 -0.0369 -0.4105
 1087SOL     OW14722   1.760   1.474   2.283  0.3025  0.2933  0.1835
 1087SOL    HW114723   1.707   1.489   2.361 -0.8563 -0.9882 -0.3523
 1087SOL    HW214724   1.728   1.388   2.255  0.4471 -0.2785  1.7606
 1088SOL     OW14725   4.428   4.184   3.004  0.4407  0.2332  0.4170
 1088SOL    HW114726   4.352   4.138   2.970 -0.8621  2.7816 -0.1183
 1088SOL    HW214727   4.438   4.144   3.090  1.1987 -0.1923  0.1329
 1089SOL     OW14728   2.245   2.685   7.006  0.6883 -0.4574 -0.0892
 1089SOL    HW114729   2.273   2.603   7.048 -0.8457 -0.6888  0.4995
 1089SOL    HW214730   2.335   2.714   6.998  0.4407  0.3742  0.1094
 1090SOL     OW14731   4.021   2.566   1.377  0.1707 -0.6708  0.1186
 1090SOL    HW114732   4.015   2.618   1.297  2.4767  1.1926  1.1811
 1090SOL    HW214733   3.974   2.624   1.437 -0.8884 -1.6412  0.2277
 1091SOL     OW14734   3.328   0.083   1.508  0.3516 -0.8110  0.3424
 1091SOL    HW114735   3.334   0.065   1.602 -0.2114  1.8282  0.8875
 1091SOL    HW214736   3.274   0.161   1.519  0.7052 -0.4266 -0.7260
 1092SOL     OW14737   2.065   1.138  11.506 -0.5391 -0.2625  0.2312
 1092SOL    HW114738   2.011   1.159  11.582 -0.1553 -0.8215  0.6574
 1092SOL    HW214739   2.069   1.226  11.468  1.5622 -0.0157  1.0195
 1093SOL     OW14740   2.170   1.805   8.281  0.1318 -0.0453  0.0828
 1093SOL    HW114741   2.227   1.881   8.269 -1.4930  1.0303 -0.8388
 1093SOL    HW214742   2.091   1.846   8.316  0.9775  1.5378  0.1657
 1094SOL     OW14743   3.070   3.749   8.042 -0.3391 -0.6253  0.2671
 1094SOL    HW114744   3.023   3.740   8.125 -0.3791 -0.5580  0.2516
 1094SOL    HW214745   2.996   3.782   7.990  1.3188  1.5547 -0.6944
 1095SOL     OW14746   2.881   1.738  13.221  0.3714 -0.1279 -0.5684
 1095SOL    HW114747   2.970   1.720  13.190  0.1058 -0.5582 -1.0782
 1095SOL    HW214748   2.892   1.729  13.316 -1.7007  0.2553 -0.3081
 1096SOL     OW14749   3.884   4.215   3.033 -0.3892 -0.2654 -0.0504
 1096SOL    HW114750   3.951   4.257   3.087  2.7645 -1.9119 -2.7094
 1096SOL    HW214751   3.930   4.148   2.983 -1.0709 -0.6063 -0.2139
 1097SOL     OW14752   4.134   4.351   8.702 -0.3627  0.0866 -0.0790
 1097SOL    HW114753   4.090   4.279   8.656 -0.0373 -1.2918  1.7998
 1097SOL    HW214754   4.196   4.292   8.743 -2.2170 -0.2697  2.2186
 1098SOL     OW14755   1.830   3.932   9.821 -0.1792  0.2223  0.0270
 1098SOL    HW114756   1.834   4.013   9.873 -2.1160  0.5012 -0.2915
 1098SOL    HW214757   1.895   3.881   9.869 -0.8500 -1.1568 -0.5625
 1099SOL     OW14758   0.937   4.413   4.307 -0.0398  0.0568  0.0923
 1099SOL    HW114759   1.002   4.379   4.246  1.6466  1.2036  1.2468
 1099SOL    HW214760   0.867   4.435   4.245 -0.0463  1.4574  0.5985
 1100SOL     OW14761   2.969   4.674   8.219 -0.4162  0.4924 -0.2731
 1100SOL    HW114762   3.047   4.659   8.166 -1.0960 -0.6506 -0.9426
 1100SOL    HW214763   2.954   4.593   8.268  0.9974 -0.2277 -1.0517
 1101SOL     OW14764   2.507   3.095   4.536 -0.3005  0.2051 -0.0425
 1101SOL    HW114765   2.559   3.175   4.533 -0.9972  0.6578 -0.1041
 1101SOL    HW214766   2.533   3.053   4.454  0.0088 -0.0588  0.1880
 1102SOL     OW14767   0.944   0.943  15.239  0.4167  0.6979 -0.2609
 1102SOL    HW114768   0.882   0.998  15.288 -1.5443 -3.2051  1.6354
 1102SOL    HW214769   0.990   1.007  15.185  0.9219  0.6837  0.1549
 1103SOL     OW14770   1.023   1.977   3.550  0.1624 -0.4613 -0.7982
 1103SOL    HW114771   1.023   2.038   3.476 -0.7581 -1.0272 -1.2684
 1103SOL    HW214772   1.104   1.992   3.599 -0.3914  2.5314 -0.8582
 1104SOL     OW14773   1.696   3.033  10.691 -0.5820 -0.0053  0.4701
 1104SOL    HW114774   1.783   2.997  10.670 -1.4955 -1.3942 -0.9214
 1104SOL    HW214775   1.708   3.087  10.769 -2.5322  0.0339  0.7409
 1105SOL     OW14776   0.934   1.000   6.621  0.2821  0.3550 -0.0763
 1105SOL    HW114777   0.856   1.053   6.607 -0.5928 -0.4691  1.7540
 1105SOL    HW214778   0.932   0.981   6.715 -1.7602 -1.3605 -0.4786
 1106SOL     OW14779   2.705   0.119   8.545  0.3858  0.4684  0.3048
 1106SOL    HW114780   2.673   0.108   8.456  0.5180 -1.8765  0.5558
 1106SOL    HW214781   2.787   0.166   8.526  1.3902 -1.4453 -0.0598
 1107SOL     OW14782   2.140   2.082  14.399  0.4253  0.8659 -0.2675
 1107SOL    HW114783   2.096   2.048  14.477 -0.5415  1.7031 -0.4439
 1107SOL    HW214784   2.070   2.078  14.334 -0.3564 -0.6888  0.6746
 1108SOL     OW14785   1.646   2.328   2.568  0.1541  0.7028  0.5587
 1108SOL    HW114786   1.628   2.365   2.654 -1.2016 -2.5513  1.6581
 1108SOL    HW214787   1.631   2.400   2.507 -0.1461  0.6048  0.5169
 1109SOL     OW14788   4.453   3.907   1.856  0.0968 -0.3228  0.0703
 1109SOL    HW114789   4.429   3.961   1.781 -0.7458  3.4366  3.0700
 1109SOL    HW214790   4.400   3.827   1.846 -0.6306  0.1788 -0.0753
 1110SOL     OW14791   1.108   3.857   8.891 -0.2399  0.2138  0.7102
 1110SOL    HW114792   1.163   3.935   8.896 -1.3038  0.8595  2.4495
 1110SOL    HW214793   1.048   3.887   8.823 -0.5382 -0.4641  0.6771
 1111SOL     OW14794   1.023   4.065   3.565 -0.0197 -1.1686  0.6152
 1111SOL    HW114795   1.011   4.109   3.480  0.1463  0.9055  1.6503
 1111SOL    HW214796   1.075   3.988   3.542  1.6964  0.4278 -0.8453
 1112SOL     OW14797   2.529   2.155   3.524  0.1919  0.8224 -0.4742
 1112SOL    HW114798   2.543   2.242   3.486 -0.1279 -0.2117 -3.0038
 1112SOL    HW214799   2.463   2.177   3.589 -1.2016 -0.0753 -1.5826
 1113SOL     OW14800   0.687   1.275   4.834 -0.1058 -0.6996  0.3403
 1113SOL    HW114801   0.733   1.207   4.884 -1.4203  0.1999  2.8146
 1113SOL    HW214802   0.612   1.284   4.894  0.5595  0.5557  0.9980
 1114SOL     OW14803   0.911   4.611   0.884 -0.7462 -0.0249  0.1026
 1114SOL    HW114804   0.928   4.638   0.793 -3.3667 -3.3501 -1.3558
 1114SOL    HW214805   0.847   4.542   0.869 -0.5005 -0.0846 -0.7009
 1115SOL     OW14806   3.603   0.654   6.234  0.0634  0.1467  0.2120
 1115SOL    HW114807   3.515   0.638   6.201  0.6065  1.7454 -2.0354
 1115SOL    HW214808   3.635   0.570   6.266 -0.5696 -0.6817 -1.3564
 1116SOL     OW14809   3.298   2.721  16.318 -0.2838 -0.8923  0.3864
 1116SOL    HW114810   3.384   2.746  16.285 -0.1672 -0.5326  0.9724
 1116SOL    HW214811   3.322   2.682  16.402  1.3745  1.4790  1.0036
 1117SOL     OW14812   2.584   0.554   6.462 -0.0681 -0.1981  0.5558
 1117SOL    HW114813   2.603   0.488   6.528  0.2133 -0.3455  0.3286
 1117SOL    HW214814   2.667   0.602   6.452  0.1177 -1.0934 -2.0650
 1118SOL     OW14815   2.088   2.663  16.650 -0.0877 -0.8164 -0.5747
 1118SOL    HW114816   2.139   2.741  16.629 -1.0767  0.2751  1.1115
 1118SOL    HW214817   2.003   2.688  16.612 -0.4261  0.7313  1.2135
 1119SOL     OW14818   0.425   4.180   3.970 -0.0207 -0.0951  0.6658
 1119SOL    HW114819   0.460   4.255   4.019  0.2260 -0.3143  0.8297
 1119SOL    HW214820   0.494   4.117   3.992 -0.0325 -0.0993  0.6911
 1120SOL     OW14821   2.808   3.093   5.083  0.2890  0.5186  0.1005
 1120SOL    HW114822   2.885   3.150   5.075  0.3673  0.5308  0.9116
 1120SOL    HW214823   2.847   3.018   5.126  1.3469 -0.0414 -1.8381
 1121SOL     OW14824   2.212   3.213   8.424  0.0641 -0.4618  0.1098
 1121SOL    HW114825   2.117   3.221   8.431 -0.1495 -2.2501 -0.6365
 1121SOL    HW214826   2.239   3.282   8.484  1.5571 -0.1905 -0.8684
 1122SOL     OW14827   2.278   4.396  13.619  0.0569 -0.2603  0.2434
 1122SOL    HW114828   2.200   4.379  13.566 -0.1332  1.3679  0.0047
 1122SOL    HW214829   2.352   4.384  13.558 -0.4118 -1.2424 -0.1211
 1123SOL     OW14830   1.937   4.566   4.409  0.6690 -0.5235  0.5164
 1123SOL    HW114831   1.956   4.629   4.478 -1.0434  0.8350 -0.2696
 1123SOL    HW214832   1.902   4.504   4.472  0.1141 -1.1200 -0.3929
 1124SOL     OW14833   1.948   3.048   5.634 -0.6776  0.1483 -0.2521
 1124SOL    HW114834   1.890   3.006   5.697 -0.8935  2.0758  0.8275
 1124SOL    HW214835   1.975   2.976   5.577 -2.2226  0.5912 -1.5560
 1125SOL     OW14836   0.642   1.251   2.810  0.2950  0.0655 -0.1321
 1125SOL    HW114837   0.561   1.273   2.858  0.1041  0.1483 -0.4917
 1125SOL    HW214838   0.685   1.335   2.795  0.7394 -0.0029  0.8106
 1126SOL     OW14839   0.140   4.318   7.308  0.5178  0.5978 -0.0801
 1126SOL    HW114840   0.179   4.404   7.297 -1.8874  1.4137 -2.2540
 1126SOL    HW214841   0.058   4.325   7.258  0.8126  1.1973 -0.4714
 1127SOL     OW14842   3.442   1.519   9.955  0.2018  0.6205  0.0880
 1127SOL    HW114843   3.519   1.463   9.969 -0.8030 -1.0810 -1.1021
 1127SOL    HW214844   3.478   1.596   9.912 -1.4242  0.5081 -1.4835
 1128SOL     OW14845   3.261   4.024   0.008  0.0174  0.2250  0.5226
 1128SOL    HW114846   3.176   3.984   0.030 -1.2580  0.5639 -3.7721
 1128SOL    HW214847   3.252   4.119   0.005 -2.1643 -0.0136 -0.4968
 1129SOL     OW14848   4.174   3.160   0.659 -0.2045  0.6806 -0.6951
 1129SOL    HW114849   4.260   3.158   0.619 -0.0402  0.1913 -0.3031
 1129SOL    HW214850   4.112   3.107   0.609  0.1602  0.4698 -0.9231
 1130SOL     OW14851   0.252   1.639   0.419  0.5856 -0.2270  0.0414
 1130SOL    HW114852   0.292   1.585   0.486  1.5069  0.6928  0.2239
 1130SOL    HW214853   0.159   1.617   0.425  0.9717 -2.5272 -2.0006
 1131SOL     OW14854   1.171   0.124   5.547  0.1268  0.7210  0.4760
 1131SOL    HW114855   1.077   0.133   5.535  0.3270  1.0826 -0.8472
 1131SOL    HW214856   1.187   0.033   5.522  2.1713  1.5778 -1.3384
 1132SOL     OW14857   1.623   3.373   1.785  1.1050 -0.3791 -0.5330
 1132SOL    HW114858   1.677   3.407   1.857  1.5533 -1.3561 -0.4020
 1132SOL    HW214859   1.554   3.332   1.838 -0.2757  1.6551 -0.7813
 1133SOL     OW14860   0.181   4.551   6.620 -1.0048  0.1683 -0.0279
 1133SOL    HW114861   0.226   4.601   6.551 -0.6993 -0.3226 -0.1794
 1133SOL    HW214862   0.219   4.464   6.607  3.1370  1.8765  0.4444
 1134SOL     OW14863   1.342   0.392   3.221  0.8213  0.0097 -0.0589
 1134SOL    HW114864   1.260   0.406   3.172  0.3498 -2.3339  0.0113
 1134SOL    HW214865   1.399   0.449   3.170  0.5628  0.4949  0.1954
 1135SOL     OW14866   0.396   0.445   1.577  0.2082 -0.2426 -0.4226
 1135SOL    HW114867   0.428   0.534   1.558 -0.8596  0.7127  2.3183
 1135SOL    HW214868   0.453   0.384   1.530  0.1204  0.0997 -0.9715
 1136SOL     OW14869   0.171   4.676   3.478  0.0386 -0.7497 -0.2954
 1136SOL    HW114870   0.194   4.584   3.485  3.6658  0.1382 -0.5084
 1136SOL    HW214871   0.259   4.705   3.455 -0.4336  1.4523  0.6160
 1137SOL     OW14872   3.290   4.204   2.437  1.0427  0.8684 -0.0604
 1137SOL    HW114873   3.338   4.286   2.447  0.7093  1.0595 -0.0167
 1137SOL    HW214874   3.229   4.196   2.510 -0.4065  2.4438 -1.1082
 1138SOL     OW14875   0.879   2.309  13.182 -0.4321 -0.4441 -0.3535
 1138SOL    HW114876   0.954   2.268  13.137  0.4413  1.4115 -0.5944
 1138SOL    HW214877   0.814   2.239  13.190 -0.9477  0.0751  0.0072
 1139SOL     OW14878   1.708   0.420   6.628  0.0871 -0.3284  0.4139
 1139SOL    HW114879   1.613   0.409   6.623 -0.1960  1.9445  0.6993
 1139SOL    HW214880   1.713   0.461   6.542 -0.1828 -0.7968  0.1706
 1140SOL     OW14881   1.891   1.354   7.072  0.2161  0.0802 -0.4476
 1140SOL    HW114882   1.908   1.410   6.996 -0.8011 -3.9495 -3.6649
 1140SOL    HW214883   1.934   1.281   7.027  0.3749 -0.2507  0.2390
 1141SOL     OW14884   1.555   1.791   6.411  0.3632 -0.1149 -0.0896
 1141SOL    HW114885   1.542   1.696   6.401 -0.7375  0.0690 -0.3590
 1141SOL    HW214886   1.605   1.790   6.493 -0.1990  0.2877  0.2551
 1142SOL     OW14887   3.135   3.739   3.843  0.0024  0.1248  0.2488
 1142SOL    HW114888   3.143   3.737   3.747  0.8495 -0.4061  0.3295
 1142SOL    HW214889   3.044   3.715   3.857 -0.0719  1.3002  1.7315
 1143SOL     OW14890   4.488   2.219   6.621 -0.1468  0.0546  0.7213
 1143SOL    HW114891   4.518   2.263   6.541  0.8146 -1.0146  0.5046
 1143SOL    HW214892   4.469   2.141   6.570 -1.7128  0.1935  1.0822
 1144SOL     OW14893   2.734   4.687   6.129 -0.6355  0.4098 -0.3116
 1144SOL    HW114894   2.767   4.659   6.044  1.4382  0.1414  0.5910
 1144SOL    HW214895   2.718   0.057   6.121 -1.0822  0.4671  1.2683
 1145SOL     OW14896   2.734   2.768   3.842 -0.4794 -0.2149  0.1398
 1145SOL    HW114897   2.812   2.791   3.791 -0.3794  1.6119  1.1023
 1145SOL    HW214898   2.771   2.776   3.930  0.8775  0.4540 -0.4872
 1146SOL     OW14899   0.327   0.045   0.295  0.1211 -0.1368 -0.1718
 1146SOL    HW114900   0.413   0.087   0.292 -0.1559  0.3781 -1.2427
 1146SOL    HW214901   0.323   0.044   0.199 -2.2716 -1.5314 -0.0533
 1147SOL     OW14902   0.783   4.446  13.311 -0.5507 -0.3693  0.1492
 1147SOL    HW114903   0.821   4.402  13.387  0.3367  0.6966  0.3197
 1147SOL    HW214904   0.801   4.540  13.317 -0.8150 -0.4168  1.6697
 1148SOL     OW14905   3.701   4.319   7.965 -0.2059  0.0367  0.5687
 1148SOL    HW114906   3.714   4.272   8.047  0.9701 -0.9768 -0.2063
 1148SOL    HW214907   3.781   4.303   7.915 -0.4694  0.2140  0.0842
 1149SOL     OW14908   3.897   0.799   9.074  0.3367  0.2040  0.2545
 1149SOL    HW114909   3.879   0.803   8.980 -1.1996  2.6824  0.6609
 1149SOL    HW214910   3.982   0.844   9.073 -0.3094  1.3795 -1.1607
 1150SOL     OW14911   2.402   0.964   9.755 -0.5713 -0.2392  0.0712
 1150SOL    HW114912   2.345   0.973   9.832 -0.5059 -1.6972  0.2870
 1150SOL    HW214913   2.439   0.877   9.770 -0.7382 -0.2049  0.6992
 1151SOL     OW14914   2.794   2.249   0.474 -0.2133  0.2459 -0.0566
 1151SOL    HW114915   2.807   2.344   0.477 -0.7430  0.3406 -0.7012
 1151SOL    HW214916   2.701   2.253   0.498 -0.1808 -0.2514  0.1615
 1152SOL     OW14917   2.876   2.424  17.591 -0.0585 -0.0841 -0.1396
 1152SOL    HW114918   2.852   2.332  17.605  0.5202 -0.1995  0.1124
 1152SOL    HW214919   2.879   2.428  17.495  1.4524 -4.8279 -0.2941
 1153SOL     OW14920   3.381   1.888   2.847  0.0730  0.6773  0.7144
 1153SOL    HW114921   3.444   1.947   2.805 -1.4068  1.7696  0.0068
 1153SOL    HW214922   3.368   1.934   2.930 -3.2164 -0.3959  0.8058
 1154SOL     OW14923   1.825   2.381  16.507  0.2675  0.8286  0.4040
 1154SOL    HW114924   1.885   2.310  16.487 -1.6556 -0.1773 -1.7775
 1154SOL    HW214925   1.858   2.440  16.439 -1.7809  2.4271  0.7962
 1155SOL     OW14926   4.560   1.514   9.356  0.6664 -0.1176 -0.0365
 1155SOL    HW114927   4.644   1.553   9.382  2.3680 -2.4516 -2.0936
 1155SOL    HW214928   4.495   1.545   9.419  0.8829  3.1099 -1.3989
 1156SOL     OW14929   1.466   4.596   9.868 -0.4227 -0.1715  0.5519
 1156SOL    HW114930   1.482   4.502   9.862  1.1571  0.1726 -0.5279
 1156SOL    HW214931   1.479   4.609   9.962  0.1338  1.4043  0.2614
 1157SOL     OW14932   4.293   0.127  13.680 -0.1490 -0.1313 -0.2831
 1157SOL    HW114933   4.331   0.041  13.697 -0.3961  0.2123  2.0578
 1157SOL    HW214934   4.211   0.120  13.729  0.7389  0.3056  1.2765
 1158SOL     OW14935   4.139   2.884   4.232 -0.3666  0.2193 -0.0408
 1158SOL    HW114936   4.232   2.892   4.211 -0.6620 -0.6066 -1.6430
 1158SOL    HW214937   4.132   2.977   4.256  2.4539  0.3978  0.1046
 1159SOL     OW14938   2.734   3.484  17.679 -0.2536  0.0188  0.3314
 1159SOL    HW114939   2.777   3.434   0.050  0.0214  0.6089  0.5946
 1159SOL    HW214940   2.662   3.522   0.031  0.4995  1.9162 -0.0003
 1160SOL     OW14941   3.805   2.672   2.564  0.8395  0.2980  0.3603
 1160SOL    HW114942   3.871   2.709   2.506  0.1320 -0.0061 -0.6377
 1160SOL    HW214943   3.722   2.708   2.532  0.9630  1.6485  1.5289
 1161SOL     OW14944   1.409   1.701   4.847  0.2187  0.5100  0.1333
 1161SOL    HW114945   1.460   1.703   4.928  0.0914  1.2074  0.1955
 1161SOL    HW214946   1.401   1.607   4.831 -0.4216  0.2539  1.9345
 1162SOL     OW14947   1.760   0.422   4.498  0.1037  0.3233  0.3207
 1162SOL    HW114948   1.752   0.327   4.507  0.2562  0.4294  1.5188
 1162SOL    HW214949   1.709   0.433   4.418  2.0597 -0.1956 -1.0017
 1163SOL     OW14950   3.666   1.198  16.802  0.1081  0.3674 -0.8772
 1163SOL    HW114951   3.631   1.190  16.713  0.7909 -2.2864 -0.9123
 1163SOL    HW214952   3.623   1.129  16.853 -0.4357  1.2946 -0.0804
 1164SOL     OW14953   4.476   0.635   2.528 -0.1577  0.4393  0.6304
 1164SOL    HW114954   4.407   0.691   2.493 -0.9049 -1.2523 -0.6579
 1164SOL    HW214955   4.502   0.612   2.439 -0.8967 -0.3990  0.6225
 1165SOL     OW14956   1.163   0.402   6.507  0.0296  0.1390  0.3878
 1165SOL    HW114957   1.171   0.318   6.463  0.2980  0.0309  0.6425
 1165SOL    HW214958   1.089   0.387   6.566  0.0308 -2.9702 -0.4119
 1166SOL     OW14959   4.295   1.668  12.553 -0.3072 -0.4331  0.7494
 1166SOL    HW114960   4.383   1.676  12.590 -0.1902 -2.1572  0.8195
 1166SOL    HW214961   4.274   1.762  12.555  1.6253 -0.0185  1.8784
 1167SOL     OW14962   1.881   2.728   4.321 -0.3474  0.0257 -0.6697
 1167SOL    HW114963   1.922   2.794   4.377 -1.3802  0.6432 -0.6451
 1167SOL    HW214964   1.795   2.769   4.319 -0.6916 -0.6212  1.7030
 1168SOL     OW14965   1.021   2.533   1.219  0.1483 -0.1402 -0.0286
 1168SOL    HW114966   1.022   2.610   1.162 -1.0283 -0.4142 -0.4295
 1168SOL    HW214967   0.979   2.467   1.164  0.5798  1.6023 -2.4549
 1169SOL     OW14968   0.890   3.255   1.263 -0.0401  0.2573  0.4155
 1169SOL    HW114969   0.931   3.269   1.177  2.2751 -0.7589  1.3681
 1169SOL    HW214970   0.934   3.317   1.322 -1.0843  1.7782 -0.3852
 1170SOL     OW14971   3.470   1.582  17.369  0.8667  0.6026 -0.5971
 1170SOL    HW114972   3.402   1.626  17.420  0.7003  0.3499 -0.6038
 1170SOL    HW214973   3.479   1.647  17.299 -0.5949 -0.4320 -1.7291
 1171SOL     OW14974   3.409   4.419  11.692 -0.3418  0.1174 -0.2873
 1171SOL    HW114975   3.374   4.444  11.606 -1.1643 -1.3048 -0.3619
 1171SOL    HW214976   3.401   4.326  11.670 -0.5455  0.2878 -0.9196
 1172SOL     OW14977   4.313   3.978  11.946  0.8670  0.5331  0.3074
 1172SOL    HW114978   4.272   4.063  11.932  1.9224  0.6451 -2.2155
 1172SOL    HW214979   4.394   3.991  11.896 -0.1673 -0.8395 -1.7391
 1173SOL     OW14980   2.509   3.103   6.960  0.0924 -0.1304 -0.1843
 1173SOL    HW114981   2.427   3.118   7.005 -0.4490 -2.6608 -0.3343
 1173SOL    HW214982   2.517   3.008   6.960 -1.2189 -0.2205  2.0695
 1174SOL     OW14983   3.710   0.784   5.573 -0.1976  0.1937 -0.2624
 1174SOL    HW114984   3.763   0.705   5.579 -0.6656  0.0354  1.6979
 1174SOL    HW214985   3.775   0.828   5.519  1.0953 -1.0974  0.2599
 1175SOL     OW14986   3.108   2.192   4.138 -0.1114 -0.5359 -0.0218
 1175SOL    HW114987   3.028   2.149   4.109  0.2679 -0.1764 -1.5862
 1175SOL    HW214988   3.168   2.185   4.064  1.3963 -0.0647  1.1663
 1176SOL     OW14989   3.978   3.101  15.086 -0.0189 -0.3275  0.0939
 1176SOL    HW114990   3.914   3.143  15.029  0.0567  0.7121  0.7669
 1176SOL    HW214991   4.044   3.170  15.100  0.5462 -0.1791 -3.2702
 1177SOL     OW14992   1.660   0.859   1.760 -0.1764 -0.2690 -0.1327
 1177SOL    HW114993   1.654   0.886   1.668  0.9456  2.1650  0.4991
 1177SOL    HW214994   1.742   0.810   1.750  0.8140  0.9732  2.0482
 1178SOL     OW14995   2.220   4.262  13.856 -0.0109 -0.4508 -0.4135
 1178SOL    HW114996   2.313   4.280  13.872 -0.0542  0.3461 -1.0872
 1178SOL    HW214997   2.217   4.299  13.768  0.5049 -0.8792 -0.6117
 1179SOL     OW14998   1.301   3.122  15.191 -0.5623  0.1937 -0.2132
 1179SOL    HW114999   1.214   3.088  15.208  0.2569 -1.6579  0.2085
 1179SOL    HW215000   1.352   3.059  15.241  0.7218  0.3796 -1.2659
 1180SOL     OW15001   0.699   0.250  13.785 -0.6360  0.1683  0.1062
 1180SOL    HW115002   0.691   0.335  13.829 -1.0961  0.6417 -0.9165
 1180SOL    HW215003   0.767   0.221  13.847 -3.9051 -0.6347  3.3021
 1181SOL     OW15004   2.562   1.996  16.727 -0.6055  0.0945 -0.0666
 1181SOL    HW115005   2.580   1.920  16.782 -1.0814 -1.0864 -1.5356
 1181SOL    HW215006   2.507   2.048  16.785  0.4215  1.5963 -0.4572
 1182SOL     OW15007   0.525   4.615   4.588 -0.3911 -0.3983  0.2036
 1182SOL    HW115008   0.532   4.674   4.663 -0.6076  0.9348 -0.8176
 1182SOL    HW215009   0.541   4.681   4.521  0.8927 -1.1580 -0.2228
 1183SOL     OW15010   0.577   0.012   9.287 -0.2372  0.3492 -0.0447
 1183SOL    HW115011   0.483   0.010   9.273 -0.4030 -0.5245  1.3026
 1183SOL    HW215012   0.598   0.106   9.285  1.2662  0.0273  0.4921
 1184SOL     OW15013   0.409   4.052   4.337 -0.1018  0.8306 -0.0639
 1184SOL    HW115014   0.350   4.127   4.342  0.1781  1.1806 -2.0763
 1184SOL    HW215015   0.390   3.991   4.408  1.9498 -0.4778 -0.6095
 1185SOL     OW15016   2.794   1.400   2.185  0.2401  0.5202  0.2779
 1185SOL    HW115017   2.800   1.353   2.102  0.6256  2.8462 -1.0267
 1185SOL    HW215018   2.774   1.488   2.153 -0.7893 -0.0986 -0.7584
 1186SOL     OW15019   1.430   4.365   9.543 -0.1237 -0.4219 -0.0685
 1186SOL    HW115020   1.366   4.398   9.481  0.4248 -2.4780 -1.7439
 1186SOL    HW215021   1.430   4.272   9.520 -1.5293 -0.1443 -1.2112
 1187SOL     OW15022   1.469   0.426   8.162 -0.4816  0.4796 -0.0998
 1187SOL    HW115023   1.486   0.473   8.244 -2.1932  1.9597 -0.5986
 1187SOL    HW215024   1.475   0.333   8.183 -1.0816  0.6698  0.9190
 1188SOL     OW15025   2.434   4.085   4.121 -0.1890 -0.5544  0.7820
 1188SOL    HW115026   2.422   4.055   4.211 -0.4493 -1.0492  0.5845
 1188SOL    HW215027   2.344   4.090   4.088  0.5226 -1.4777 -1.3146
 1189SOL     OW15028   0.519   4.681   5.853 -0.2383  0.2398 -0.0606
 1189SOL    HW115029   0.556   0.044   5.858 -1.0871  0.5221  1.3465
 1189SOL    HW215030   0.505   4.678   5.758  0.8088  1.5939 -0.2474
 1190SOL     OW15031   4.462   2.374  14.825  0.5837 -0.2881  0.3141
 1190SOL    HW115032   4.544   2.375  14.776  1.1076 -3.1805  1.1305
 1190SOL    HW215033   4.440   2.467  14.836 -1.6703 -0.5584 -1.7292
 1191SOL     OW15034   3.126   3.498   8.626  0.0316  0.0032  0.7155
 1191SOL    HW115035   3.169   3.502   8.712  1.2785  2.4803 -0.0300
 1191SOL    HW215036   3.199   3.473   8.570  1.4223  1.8439  1.7239
 1192SOL     OW15037   2.965   0.003   9.342 -0.0054 -0.6559 -0.3400
 1192SOL    HW115038   2.933   0.092   9.326  3.1919  0.2424 -1.6966
 1192SOL    HW215039   2.943   4.681   9.260  2.3389  0.6237 -1.6819
 1193SOL     OW15040   4.715   1.703   6.139 -0.3428  0.3346  0.1019
 1193SOL    HW115041   4.697   1.643   6.066 -3.5316  0.8429  0.4543
 1193SOL    HW215042   4.704   1.641   6.210 -0.4004 -1.8192 -1.7836
 1194SOL     OW15043   4.368   0.757   8.941 -0.0214 -0.0648 -0.4290
 1194SOL    HW115044   4.344   0.807   9.019 -0.7371 -1.1626  0.0493
 1194SOL    HW215045   4.340   0.670   8.967 -1.1552  0.1825 -0.8165
 1195SOL     OW15046   2.867   2.260   2.110 -0.1960 -0.2909 -0.0006
 1195SOL    HW115047   2.800   2.326   2.129  0.6741  1.1137 -1.7953
 1195SOL    HW215048   2.911   2.309   2.041 -1.4423  0.6656 -0.1056
 1196SOL     OW15049   3.228   4.376   1.342 -0.5335 -0.4466 -0.4667
 1196SOL    HW115050   3.301   4.371   1.404 -0.0081  1.5356 -0.9435
 1196SOL    HW215051   3.277   4.345   1.266  1.7728 -1.6257  1.4784
 1197SOL     OW15052   2.111   4.493  12.390 -0.1418 -0.5489  0.1977
 1197SOL    HW115053   2.206   4.507  12.381 -0.4407  2.2530  1.3266
 1197SOL    HW215054   2.085   4.576  12.349 -1.2551 -0.4042  1.2146
 1198SOL     OW15055   4.551   1.579  12.551  0.0161 -0.3024 -0.2932
 1198SOL    HW115056   4.483   1.531  12.503  2.1687 -2.1466 -1.4948
 1198SOL    HW215057   4.605   1.509  12.587 -1.6443 -1.6491 -0.3889
 1199SOL     OW15058   3.747   3.479   7.951 -0.5133 -0.5587 -0.2264
 1199SOL    HW115059   3.743   3.388   7.923 -2.1814  0.2908 -2.7725
 1199SOL    HW215060   3.745   3.517   7.863 -0.4272 -1.2779 -0.5349
 1200SOL     OW15061   4.170   3.332  10.297  0.0501  0.1323 -0.2351
 1200SOL    HW115062   4.122   3.343  10.379 -1.8058  1.9908 -1.5321
 1200SOL    HW215063   4.255   3.336  10.340 -0.4677 -1.4639  0.9296
 1201SOL     OW15064   0.547   2.194  17.593 -0.6944  0.2349 -0.3053
 1201SOL    HW115065   0.479   2.257  17.568 -0.3496  0.7323  0.0185
 1201SOL    HW215066   0.546   2.201  17.688 -0.6336  0.2306 -0.3047
 1202SOL     OW15067   0.594   4.484   2.116 -0.4037  0.3482  0.3745
 1202SOL    HW115068   0.628   4.455   2.031  0.9480  0.2790  0.9353
 1202SOL    HW215069   0.622   4.406   2.164  0.6632  0.0207 -0.7915
 1203SOL     OW15070   1.218   4.337   1.454  0.2542 -0.8109 -0.8421
 1203SOL    HW115071   1.188   4.259   1.500 -1.0425  2.1671  3.4120
 1203SOL    HW215072   1.283   4.289   1.402  0.9975  0.2789 -0.9357
 1204SOL     OW15073   2.066   2.396  14.358 -0.0286 -0.0459  0.0253
 1204SOL    HW115074   2.161   2.405  14.361 -0.0441  0.9870 -2.0357
 1204SOL    HW215075   2.054   2.421  14.449  0.6480 -0.8131  0.3164
 1205SOL     OW15076   3.298   2.454   5.558  0.4182  0.8881 -0.4693
 1205SOL    HW115077   3.259   2.503   5.486  0.8093  1.4287 -0.3189
 1205SOL    HW215078   3.365   2.516   5.587 -0.6645  0.8938  2.0204
 1206SOL     OW15079   3.496   0.508  13.069  0.3959 -0.1638 -0.9755
 1206SOL    HW115080   3.562   0.539  13.008  3.0432 -2.9747  0.4523
 1206SOL    HW215081   3.426   0.572  13.057 -0.8938 -1.2287  0.7687
 1207SOL     OW15082   1.021   3.348   9.372 -0.2189 -0.0193 -0.3498
 1207SOL    HW115083   1.101   3.358   9.319 -0.0961 -0.9719 -0.3451
 1207SOL    HW215084   1.036   3.266   9.417 -1.2603  0.2123  0.4023
 1208SOL     OW15085   2.915   0.255   9.595 -0.2984 -0.8062 -0.0294
 1208SOL    HW115086   2.886   0.345   9.606  0.5175 -0.6842  1.0542
 1208SOL    HW215087   2.829   0.223   9.568  0.6767 -1.0159 -2.8718
 1209SOL     OW15088   2.288   0.043   0.482  0.0093 -0.2698  0.1759
 1209SOL    HW115089   2.342   0.075   0.410 -1.2451  0.2451 -0.5361
 1209SOL    HW215090   2.223   4.714   0.436 -0.1969 -1.4078  1.8025
 1210SOL     OW15091   4.448   1.641   4.555  0.5001 -0.5002  0.0292
 1210SOL    HW115092   4.358   1.639   4.523  1.3079 -1.4515 -2.1725
 1210SOL    HW215093   4.448   1.551   4.588 -1.3011 -1.1730 -1.8282
 1211SOL     OW15094   1.393   0.042  13.508 -0.8304 -0.0844 -0.1782
 1211SOL    HW115095   1.432   0.096  13.577 -1.4881  1.9463 -1.4049
 1211SOL    HW215096   1.351   4.702  13.566  0.8498 -1.7486 -0.8269
 1212SOL     OW15097   2.627   1.789  16.898 -0.0279 -0.3857  0.0008
 1212SOL    HW115098   2.665   1.827  16.977  0.7961 -0.2466 -0.4511
 1212SOL    HW215099   2.586   1.716  16.943 -2.2917 -0.0908 -1.6086
 1213SOL     OW15100   3.695   4.243   0.982  0.2951  0.2137 -0.0684
 1213SOL    HW115101   3.653   4.305   0.922  1.9288 -0.6560 -2.0924
 1213SOL    HW215102   3.770   4.295   1.011 -1.3122  2.2798  0.3941
 1214SOL     OW15103   1.169   1.591  11.678  0.2024  0.3139 -0.1079
 1214SOL    HW115104   1.229   1.638  11.735  1.2669 -0.3837 -0.6654
 1214SOL    HW215105   1.234   1.545  11.625  1.1795 -0.8135  2.0676
 1215SOL     OW15106   3.492   2.052  10.666  0.2474 -0.6837  0.4590
 1215SOL    HW115107   3.397   2.050  10.654  0.2437 -1.3095  0.5546
 1215SOL    HW215108   3.513   1.959  10.653 -0.0479 -0.7725  0.6255
 1216SOL     OW15109   1.858   2.775  16.588 -0.1599  0.0900 -0.2795
 1216SOL    HW115110   1.790   2.719  16.625  0.3796  0.5278  1.3650
 1216SOL    HW215111   1.815   2.859  16.569 -0.8504  0.2514  2.0121
 1217SOL     OW15112   4.634   4.564  11.744 -0.5976 -0.3245  0.1317
 1217SOL    HW115113   4.607   4.493  11.801 -2.0640 -0.4825 -0.7569
 1217SOL    HW215114   4.681   4.524  11.671 -0.1313  1.7782 -0.7338
 1218SOL     OW15115   3.802   1.331   7.779 -0.3200 -0.0919  0.0390
 1218SOL    HW115116   3.813   1.247   7.823  1.1146  0.0581 -0.0183
 1218SOL    HW215117   3.894   1.359   7.776 -0.9988  1.9399 -1.8890
 1219SOL     OW15118   3.291   0.209   7.280 -0.4063 -0.0599  0.0555
 1219SOL    HW115119   3.292   0.142   7.348 -0.6168  0.5679  0.6726
 1219SOL    HW215120   3.197   0.212   7.264 -0.5542  0.5313  1.0541
 1220SOL     OW15121   3.124   2.285   8.011 -0.4932  0.0962  0.4483
 1220SOL    HW115122   3.138   2.232   8.089 -2.0649  1.3829  1.6030
 1220SOL    HW215123   3.139   2.220   7.942 -1.0888  1.2230 -0.7481
 1221SOL     OW15124   1.528   3.221   4.601 -0.3419  0.3062 -0.7370
 1221SOL    HW115125   1.503   3.310   4.625 -0.5151  0.0743 -0.0737
 1221SOL    HW215126   1.613   3.237   4.559  0.3345  1.9918  1.2934
 1222SOL     OW15127   1.879   4.470   5.044 -0.6284  0.4655 -0.1962
 1222SOL    HW115128   1.969   4.439   5.058 -1.1449  0.1228  2.4314
 1222SOL    HW215129   1.861   4.426   4.961 -0.2039  1.7786 -0.9930
 1223SOL     OW15130   2.831   4.155   1.338 -0.4570  0.1062 -0.4852
 1223SOL    HW115131   2.757   4.172   1.280 -0.7272  0.5631 -0.0059
 1223SOL    HW215132   2.796   4.178   1.424 -0.9322 -1.0766 -0.3718
 1224SOL     OW15133   0.132   3.494  11.063  0.3902  0.0636 -0.1727
 1224SOL    HW115134   0.203   3.467  11.122 -0.6945 -0.8686  0.6966
 1224SOL    HW215135   0.180   3.496  10.981 -2.2139  2.7067 -1.6385
 1225SOL     OW15136   2.958   0.433   7.078  0.3816 -0.1932 -0.4070
 1225SOL    HW115137   2.980   0.341   7.095  4.1201  0.5648 -1.1894
 1225SOL    HW215138   2.939   0.422   6.985  1.6121 -0.9952 -0.5693
 1226SOL     OW15139   3.771   1.285   5.757 -0.1213 -0.1278 -0.1101
 1226SOL    HW115140   3.819   1.256   5.680  1.3018  2.5332 -0.2129
 1226SOL    HW215141   3.802   1.375   5.765  1.7377 -0.8749  1.1943
 1227SOL     OW15142   2.436   0.597   1.324 -0.0148  0.0357  0.1641
 1227SOL    HW115143   2.379   0.520   1.331  0.6922 -0.5975 -1.1232
 1227SOL    HW215144   2.445   0.600   1.229 -1.6522 -0.4028 -0.0032
 1228SOL     OW15145   1.924   3.387  13.764 -0.0483  1.1236 -0.1183
 1228SOL    HW115146   1.917   3.349  13.677 -3.3675  0.6716  0.3390
 1228SOL    HW215147   1.889   3.320  13.823 -2.9458  0.6750 -2.3261
 1229SOL     OW15148   0.502   3.101   8.121 -0.0635 -0.5622  0.3050
 1229SOL    HW115149   0.565   3.069   8.185 -1.0567 -1.5328  0.8048
 1229SOL    HW215150   0.439   3.029   8.122 -0.7911  0.0663 -1.0823
 1230SOL     OW15151   2.126   1.520  10.934  0.6287 -0.1110  0.5480
 1230SOL    HW115152   2.055   1.492  10.992 -0.0651  0.2863 -0.1094
 1230SOL    HW215153   2.121   1.449  10.870 -0.6686  1.5440 -1.1840
 1231SOL     OW15154   3.513   2.910   2.181 -0.1522  0.2046 -0.0027
 1231SOL    HW115155   3.550   2.842   2.125 -1.3536 -1.3087  0.9938
 1231SOL    HW215156   3.577   2.980   2.180 -1.2198  1.1611 -1.1174
 1232SOL     OW15157   1.029   1.329   6.353  0.0065 -0.0188  0.1337
 1232SOL    HW115158   0.961   1.320   6.419 -0.3043  1.2904 -0.0123
 1232SOL    HW215159   1.079   1.248   6.370  0.9949  0.1240 -2.1614
 1233SOL     OW15160   0.925   0.959   6.876 -0.0367 -0.1744 -0.3170
 1233SOL    HW115161   0.840   0.939   6.915  1.4912 -0.6120  2.8059
 1233SOL    HW215162   0.965   1.016   6.942  2.1754  0.4638 -2.1973
 1234SOL     OW15163   4.599   2.329   9.667  0.3537 -0.2051 -0.3288
 1234SOL    HW115164   4.658   2.254   9.656 -0.5172 -0.8417 -0.6227
 1234SOL    HW215165   4.519   2.277   9.663  0.2119 -0.0475  0.5080
 1235SOL     OW15166   2.336   2.254   3.660 -0.6863  0.1331  0.1352
 1235SOL    HW115167   2.260   2.203   3.633 -1.2825 -0.1118  2.2700
 1235SOL    HW215168   2.303   2.342   3.680  1.1607  0.6222  1.0243
 1236SOL     OW15169   2.729   0.012   1.958 -0.0060  0.7549 -0.0171
 1236SOL    HW115170   2.810   0.009   1.907  0.7268 -0.2588  1.1808
 1236SOL    HW215171   2.677   0.077   1.912 -0.7500 -0.4026 -0.8096
 1237SOL     OW15172   4.211   0.400   6.437  0.8391 -1.2037 -0.4432
 1237SOL    HW115173   4.191   0.344   6.363 -0.7060 -0.2294 -0.7676
 1237SOL    HW215174   4.128   0.447   6.447  2.1732  1.2227 -0.7567
 1238SOL     OW15175   2.928   2.636   6.712  0.5044 -0.2237  0.1704
 1238SOL    HW115176   2.954   2.728   6.709  0.0727 -0.2112 -3.9822
 1238SOL    HW215177   2.929   2.619   6.617 -0.9525  0.6778 -0.0067
 1239SOL     OW15178   0.635   0.762   4.491 -0.4147  0.7273  0.2886
 1239SOL    HW115179   0.603   0.687   4.541 -1.7993  1.6221  0.7594
 1239SOL    HW215180   0.583   0.742   4.412 -0.6803  0.5594  0.5057
 1240SOL     OW15181   3.770   3.275  11.471 -0.1724  0.2437 -0.0652
 1240SOL    HW115182   3.756   3.186  11.504 -0.3141  0.6824  1.0672
 1240SOL    HW215183   3.721   3.273  11.389 -0.0966  0.2932 -0.1122
 1241SOL     OW15184   3.080   2.875  13.603  0.2257 -0.2492  0.4166
 1241SOL    HW115185   3.121   2.862  13.688 -2.3850  3.0827  2.1817
 1241SOL    HW215186   3.100   2.787  13.572 -0.4549  0.2188 -1.3467
 1242SOL     OW15187   2.949   0.590   4.483  0.6103  0.0386  0.5455
 1242SOL    HW115188   2.986   0.505   4.460 -0.4242  0.3253 -2.1712
 1242SOL    HW215189   2.854   0.584   4.483  0.6439 -0.3908  4.1252
 1243SOL     OW15190   0.874   2.602   3.196  0.8038  0.2656  0.4763
 1243SOL    HW115191   0.828   2.566   3.120  0.2592  1.1572  0.3802
 1243SOL    HW215192   0.965   2.608   3.166  0.7941  1.5763  0.7116
 1244SOL     OW15193   3.958   1.916   9.096  0.0763 -0.8248  0.0995
 1244SOL    HW115194   3.974   1.887   9.006 -2.2269 -1.4719 -0.0830
 1244SOL    HW215195   4.040   1.964   9.108 -1.3525  1.8504 -0.8587
 1245SOL     OW15196   1.493   0.459   1.718  0.3489  0.4100 -0.4301
 1245SOL    HW115197   1.554   0.481   1.789 -0.8406  1.8642  0.1482
 1245SOL    HW215198   1.426   0.415   1.771  0.1445  1.6963  0.3996
 1246SOL     OW15199   3.254   1.958   3.521 -0.4628  0.1366 -0.0045
 1246SOL    HW115200   3.275   2.034   3.575  2.1623 -1.0680  0.6575
 1246SOL    HW215201   3.211   2.000   3.447  1.1812  0.3558 -0.8289
 1247SOL     OW15202   4.461   2.796   7.625 -0.3614  0.3389  0.3912
 1247SOL    HW115203   4.399   2.767   7.692 -1.4331  2.9237  0.5372
 1247SOL    HW215204   4.428   2.884   7.608 -0.8067 -0.4150 -2.5653
 1248SOL     OW15205   3.068   1.797  13.451 -0.1555 -0.5415 -0.1867
 1248SOL    HW115206   3.115   1.880  13.446 -1.1186  0.1408  1.9001
 1248SOL    HW215207   3.088   1.764  13.363  0.9196 -2.5104  0.7756
 1249SOL     OW15208   4.229   2.651   8.554  0.8443 -0.6615  0.6085
 1249SOL    HW115209   4.304   2.686   8.602  1.9702 -4.1743  1.4455
 1249SOL    HW215210   4.167   2.657   8.627 -0.9241  1.8272 -1.0995
 1250SOL     OW15211   1.617   1.316   4.075 -0.0567 -0.9356  0.0230
 1250SOL    HW115212   1.587   1.263   4.001  0.7081 -2.2914  0.6902
 1250SOL    HW215213   1.560   1.392   4.067 -1.2478 -1.7682  0.7684
 1251SOL     OW15214   3.954   1.624  15.468 -0.2982 -0.1662 -0.5864
 1251SOL    HW115215   3.987   1.541  15.435  2.0192  1.6094 -2.7400
 1251SOL    HW215216   4.034   1.661  15.505 -0.6401 -1.1416  1.1250
 1252SOL     OW15217   4.521   2.438   2.547  0.2613  0.4928  0.2806
 1252SOL    HW115218   4.526   2.363   2.607 -0.9027  0.9485  0.9466
 1252SOL    HW215219   4.555   2.395   2.469 -2.8268  0.6582 -1.1596
 1253SOL     OW15220   1.101   0.058   4.141 -0.2139 -0.0492  0.6076
 1253SOL    HW115221   1.134   0.118   4.073  1.4238 -0.4174  1.0628
 1253SOL    HW215222   1.007   0.068   4.129 -0.5063 -2.2172  1.1739
 1254SOL     OW15223   4.389   4.647  15.134 -0.2768 -0.2296  0.6765
 1254SOL    HW115224   4.378   4.641  15.229  0.9807 -0.7930  0.7856
 1254SOL    HW215225   4.459   4.713  15.130 -0.4796 -0.0598 -0.1025
 1255SOL     OW15226   2.831   1.216  10.357  0.2145  0.2796  0.5362
 1255SOL    HW115227   2.887   1.271  10.303  1.9576 -1.2851  0.7244
 1255SOL    HW215228   2.859   1.236  10.447  1.4641  1.4725 -0.1224
 1256SOL     OW15229   0.941   4.208   4.537 -0.1233 -0.7356 -0.4577
 1256SOL    HW115230   0.996   4.283   4.514 -0.2121  0.0088  1.7773
 1256SOL    HW215231   0.867   4.206   4.475  0.1703  1.1313 -0.8660
 1257SOL     OW15232   0.460   0.127  13.755 -0.2290 -0.1180  1.0433
 1257SOL    HW115233   0.431   0.203  13.705 -1.6836  0.1458  2.2841
 1257SOL    HW215234   0.547   0.160  13.777  0.8748 -2.5786  0.3120
 1258SOL     OW15235   2.426   0.666   9.407 -0.6334 -0.2911  0.6052
 1258SOL    HW115236   2.511   0.678   9.363 -1.4857  0.5941 -0.7903
 1258SOL    HW215237   2.447   0.661   9.500 -0.4114 -1.2248  0.5011
 1259SOL     OW15238   0.785   0.927  12.283  0.2236 -0.2179 -0.3883
 1259SOL    HW115239   0.818   0.854  12.335  2.5300  0.4875 -0.8555
 1259SOL    HW215240   0.768   0.988  12.355 -0.1006  0.8462 -1.3667
 1260SOL     OW15241   3.649   3.395   6.678 -0.0055 -0.2058  0.2876
 1260SOL    HW115242   3.721   3.333   6.689  0.2054  0.1950  1.1201
 1260SOL    HW215243   3.635   3.434   6.764  0.9243 -0.7599  0.6846
 1261SOL     OW15244   4.669   4.614   6.111 -0.1008 -0.2358  0.0189
 1261SOL    HW115245   4.593   4.670   6.097  0.2974  0.2551 -0.1777
 1261SOL    HW215246   0.001   4.687   6.136  0.7176 -0.3038 -1.6398
 1262SOL     OW15247   1.791   1.592   6.190  0.4150  0.0850 -0.0866
 1262SOL    HW115248   1.712   1.560   6.234 -0.3916  0.6996 -1.0811
 1262SOL    HW215249   1.843   1.511   6.190 -0.1326 -0.2618 -1.0009
 1263SOL     OW15250   4.625   3.664  13.188 -0.8501  0.2350  0.2740
 1263SOL    HW115251   4.661   3.678  13.100 -0.3774 -2.4670  0.0530
 1263SOL    HW215252   4.534   3.684  13.166 -0.5351  0.0536 -1.1847
 1264SOL     OW15253   3.277   3.204   8.256  0.1360 -0.1378 -0.9433
 1264SOL    HW115254   3.234   3.244   8.181 -0.9043  2.2297  0.9149
 1264SOL    HW215255   3.318   3.277   8.302  2.1610 -1.3311 -0.8630
 1265SOL     OW15256   0.716   3.960   9.161 -0.1149 -0.2224  0.1540
 1265SOL    HW115257   0.622   3.946   9.163  0.2276 -2.1235  4.2475
 1265SOL    HW215258   0.751   3.879   9.198  1.2875  0.8427  1.1712
 1266SOL     OW15259   1.617   3.026   6.380 -0.5202  0.5661  0.3733
 1266SOL    HW115260   1.584   3.111   6.351 -1.7145  0.2375  0.7963
 1266SOL    HW215261   1.615   2.966   6.305 -1.4301  0.6987  0.2888
 1267SOL     OW15262   4.369   2.035  14.852 -0.0190  0.2680 -0.9405
 1267SOL    HW115263   4.293   2.044  14.910  0.5678  0.4495 -0.2002
 1267SOL    HW215264   4.402   2.125  14.844  2.2500 -0.4003  0.7796
 1268SOL     OW15265   2.908   4.565   0.900 -0.1388  0.2195 -0.5986
 1268SOL    HW115266   3.001   4.546   0.913 -0.1386  0.1738 -0.6682
 1268SOL    HW215267   2.867   4.490   0.943  2.8532 -0.4644  1.0678
 1269SOL     OW15268   0.525   0.576   8.197  0.1722  0.1079 -0.6460
 1269SOL    HW115269   0.461   0.556   8.129 -0.3119 -1.8752  0.3916
 1269SOL    HW215270   0.508   0.668   8.215  0.1100 -0.6917  3.5007
 1270SOL     OW15271   0.813   3.608  13.722 -0.2407 -0.7034 -0.0054
 1270SOL    HW115272   0.756   3.680  13.750  1.7671  1.2399 -0.8651
 1270SOL    HW215273   0.749   3.549  13.682 -2.7798  0.0188  3.0038
 1271SOL     OW15274   2.384   3.113   4.801  0.5424  0.4031 -0.0503
 1271SOL    HW115275   2.375   3.166   4.880 -1.3371 -3.0633  2.0021
 1271SOL    HW215276   2.461   3.156   4.761  2.0028 -2.3056 -0.1201
 1272SOL     OW15277   1.810   2.708   3.044 -0.3336  0.8885 -0.3946
 1272SOL    HW115278   1.900   2.685   3.068  0.0108 -2.0129 -4.4243
 1272SOL    HW215279   1.818   2.712   2.948  2.1321  0.1392 -0.2155
 1273SOL     OW15280   1.395   3.938   6.768 -0.0521  0.0352 -0.3980
 1273SOL    HW115281   1.374   3.845   6.766  2.8417 -0.5886 -0.9986
 1273SOL    HW215282   1.471   3.936   6.826 -1.2062 -2.8789  0.9887
 1274SOL     OW15283   0.776   2.843   7.023 -0.0906 -0.0960  0.3198
 1274SOL    HW115284   0.767   2.928   6.979 -0.2884 -0.7022 -0.8031
 1274SOL    HW215285   0.814   2.863   7.109  0.4619  0.2954 -0.0120
 1275SOL     OW15286   2.357   2.366   2.038 -0.2164 -0.3783 -0.3455
 1275SOL    HW115287   2.290   2.427   2.070 -1.2011 -1.6490  0.0163
 1275SOL    HW215288   2.295   2.302   2.003 -0.5907 -0.0935 -0.1997
 1276SOL     OW15289   1.636   1.211  14.460 -0.1598  0.2059 -0.0667
 1276SOL    HW115290   1.566   1.161  14.418 -0.8530 -0.4954  1.8980
 1276SOL    HW215291   1.702   1.204  14.390 -1.8112 -0.3086 -1.5688
 1277SOL     OW15292   2.007   1.171   9.700 -0.2498 -0.3563  0.4261
 1277SOL    HW115293   2.068   1.109   9.661 -1.8856 -1.3019 -0.6555
 1277SOL    HW215294   2.059   1.250   9.712  0.5120 -0.9535  1.0462
 1278SOL     OW15295   1.003   1.782   9.269 -0.4496 -0.1253  0.1491
 1278SOL    HW115296   1.073   1.846   9.255  0.7965 -1.9051 -1.7222
 1278SOL    HW215297   1.042   1.695   9.255  2.5505  1.0745  1.0016
 1279SOL     OW15298   2.803   3.364   3.946 -0.0571  0.8981  0.2033
 1279SOL    HW115299   2.801   3.408   3.860  0.6484 -0.0071 -0.2730
 1279SOL    HW215300   2.863   3.410   4.004 -1.3595  0.0194  2.2226
 1280SOL     OW15301   0.896   3.779   3.894 -0.3790  0.5388  0.0143
 1280SOL    HW115302   0.887   3.867   3.858 -0.2401  0.5622  0.0351
 1280SOL    HW215303   0.815   3.736   3.867  0.9128 -1.7513 -0.1616
 1281SOL     OW15304   1.557   0.586   2.787 -0.1319 -0.1561  0.4161
 1281SOL    HW115305   1.563   0.491   2.794  2.1190 -0.1372 -1.3995
 1281SOL    HW215306   1.550   0.598   2.693 -0.7078 -2.2605  0.1914
 1282SOL     OW15307   4.561   0.552   2.291 -0.4557  0.1225 -0.1456
 1282SOL    HW115308   4.574   0.573   2.199  0.0936  0.7737  0.0853
 1282SOL    HW215309   4.625   0.482   2.305 -0.3221  0.3235  0.2610
 1283SOL     OW15310   3.758   3.500  16.307  0.0339  0.5892  0.1260
 1283SOL    HW115311   3.722   3.507  16.219  2.1855  1.1348 -0.7241
 1283SOL    HW215312   3.827   3.564  16.291 -2.4434  3.6326  1.6152
 1284SOL     OW15313   2.400   0.291   1.588 -0.5415  0.1762 -0.0992
 1284SOL    HW115314   2.439   0.208   1.562 -0.7283 -0.5432  1.8839
 1284SOL    HW215315   2.309   0.276   1.560 -1.1509  0.6416  1.5961
 1285SOL     OW15316   1.914   0.580   9.430  0.2156 -0.0462 -0.0769
 1285SOL    HW115317   1.845   0.639   9.459  1.8457  0.8637  1.9797
 1285SOL    HW215318   1.915   0.586   9.334  0.0180  4.0374  0.1666
 1286SOL     OW15319   2.264   4.201   4.451 -0.3817 -0.7878 -0.0881
 1286SOL    HW115320   2.313   4.128   4.413 -1.5991 -0.9323 -1.3738
 1286SOL    HW215321   2.330   4.270   4.445  1.2639 -2.2722  0.7544
 1287SOL     OW15322   4.327   2.933   6.594 -0.0863 -0.1741  0.0154
 1287SOL    HW115323   4.287   2.846   6.584 -1.8774  0.2317  3.3749
 1287SOL    HW215324   4.283   2.988   6.530  0.0282 -1.2640 -0.9938
 1288SOL     OW15325   2.061   3.013   5.227  0.3377  0.2966 -0.2107
 1288SOL    HW115326   2.032   3.099   5.258 -0.2525  0.0581 -0.1185
 1288SOL    HW215327   2.145   3.019   5.182  1.2221 -0.4455  1.3239
 1289SOL     OW15328   1.666   4.616  11.287 -0.3856  0.4563 -0.0169
 1289SOL    HW115329   1.672   4.555  11.213  1.2237  0.0869  0.4146
 1289SOL    HW215330   1.645   4.699  11.244  0.5191  0.8933  0.3912
 1290SOL     OW15331   1.089   2.659   3.665  0.2509  0.2517  0.0972
 1290SOL    HW115332   1.024   2.720   3.630  0.0557 -0.1446 -0.2413
 1290SOL    HW215333   1.032   2.582   3.671  2.1079 -1.2158 -1.2800
 1291SOL     OW15334   2.103   0.590  16.208 -0.3902 -0.0889 -0.0493
 1291SOL    HW115335   2.041   0.553  16.144  0.1746  1.7890 -1.6798
 1291SOL    HW215336   2.130   0.672  16.168 -1.3865  0.3290  0.1224
 1292SOL     OW15337   4.477   1.725   2.095 -0.0791 -0.4668  0.0058
 1292SOL    HW115338   4.471   1.645   2.148 -0.9359 -0.0637  0.5211
 1292SOL    HW215339   4.572   1.724   2.087  0.1495  0.8113  2.4765
 1293SOL     OW15340   2.571   0.517   4.153  0.1316  0.0914  0.4278
 1293SOL    HW115341   2.596   0.596   4.104  0.4292  0.6684  1.5064
 1293SOL    HW215342   2.653   0.469   4.152 -0.4977 -0.9673 -1.0949
 1294SOL     OW15343   0.747   3.271   8.996  0.2777 -0.9906  0.5144
 1294SOL    HW115344   0.761   3.278   9.090 -1.4863  1.2162  0.6125
 1294SOL    HW215345   0.818   3.327   8.966 -0.6222 -0.5371 -0.7776
 1295SOL     OW15346   2.887   3.688  14.150  0.0705  0.2187  0.2319
 1295SOL    HW115347   2.888   3.687  14.246 -1.3184  0.5745  0.2381
 1295SOL    HW215348   2.980   3.678  14.129  0.1870  0.7740  0.4921
 1296SOL     OW15349   1.568   2.813   4.908  0.2298 -0.5314 -0.2640
 1296SOL    HW115350   1.636   2.833   4.844  1.5045 -1.4620  0.8017
 1296SOL    HW215351   1.607   2.857   4.983 -1.0922  0.3587 -0.0920
 1297SOL     OW15352   2.870   4.666   7.376  0.3336  0.0845 -0.0295
 1297SOL    HW115353   2.790   4.617   7.397 -0.3686  1.4594  0.4417
 1297SOL    HW215354   2.874   0.002   7.450 -2.0480 -0.3259  0.4204
 1298SOL     OW15355   0.562   0.908  16.037 -0.0917  0.1634 -0.3965
 1298SOL    HW115356   0.609   0.947  15.963  2.7475 -0.2317  1.1942
 1298SOL    HW215357   0.472   0.921  16.007 -1.0388 -0.1877  2.2741
 1299SOL     OW15358   0.234   2.847   9.170 -0.3068 -0.2553 -0.0473
 1299SOL    HW115359   0.253   2.753   9.176 -2.3990 -0.8073 -2.3866
 1299SOL    HW215360   0.285   2.872   9.247  0.8326  0.3273 -0.9843
 1300SOL     OW15361   3.187   3.542  11.642  0.0317 -0.3447 -0.5042
 1300SOL    HW115362   3.187   3.620  11.587  2.4516  0.6942  1.0046
 1300SOL    HW215363   3.127   3.483  11.596 -0.5235 -0.9141  0.9546
 1301SOL     OW15364   4.472   4.623   2.414  0.1891  0.3791  0.2817
 1301SOL    HW115365   4.523   4.612   2.334 -0.9976  0.0441 -0.4190
 1301SOL    HW215366   4.430   4.541   2.439 -1.0303  0.4689 -1.5122
 1302SOL     OW15367   3.152   3.418   5.176  0.8219 -0.7700  0.2087
 1302SOL    HW115368   3.224   3.356   5.188 -0.5020 -2.2629  0.4866
 1302SOL    HW215369   3.195   3.503   5.181  0.2483 -0.3981 -1.2399
 1303SOL     OW15370   4.465   0.812  14.952 -0.4030  0.2935  0.0516
 1303SOL    HW115371   4.545   0.815  14.899 -0.0549  0.4460  0.5840
 1303SOL    HW215372   4.476   0.725  14.992 -1.8960  0.5575  1.0148
 1304SOL     OW15373   3.294   3.215   1.532 -0.6993  0.3320  0.4569
 1304SOL    HW115374   3.276   3.308   1.549  1.6228  0.8371  0.1959
 1304SOL    HW215375   3.209   3.183   1.503  0.2990 -0.6101 -1.4465
 1305SOL     OW15376   3.319   2.529   7.194  0.1270 -0.1044 -0.3804
 1305SOL    HW115377   3.409   2.506   7.216  0.5014  1.5164 -0.2534
 1305SOL    HW215378   3.281   2.441   7.193 -0.2258  0.0247  2.1612
 1306SOL     OW15379   2.904   0.165  16.262  0.3060  0.5469 -0.0022
 1306SOL    HW115380   2.893   0.111  16.184 -1.4679  2.1054 -0.8243
 1306SOL    HW215381   2.927   0.085  16.309 -0.6155 -1.0199 -2.2231
 1307SOL     OW15382   1.153   2.311   8.582 -0.3340 -0.0087 -0.3589
 1307SOL    HW115383   1.122   2.375   8.518  3.1846  0.7967 -1.2858
 1307SOL    HW215384   1.136   2.229   8.535 -2.3045 -0.1020  0.5268
 1308SOL     OW15385   0.371   1.843   0.260 -0.2560  0.3481 -0.2324
 1308SOL    HW115386   0.291   1.856   0.209 -0.8682  1.0448  0.8933
 1308SOL    HW215387   0.337   1.802   0.340 -0.7834  1.0983 -0.0606
 1309SOL     OW15388   1.073   4.674   3.469 -0.1454  1.1320 -0.0215
 1309SOL    HW115389   1.066   4.579   3.469  0.2986  1.1006 -0.4813
 1309SOL    HW215390   1.149   4.689   3.525 -0.1787 -0.7645  0.5268
 1310SOL     OW15391   0.250   1.844   3.171  0.3827 -0.8776 -0.2527
 1310SOL    HW115392   0.297   1.908   3.118  0.1844 -1.0772 -0.6669
 1310SOL    HW215393   0.191   1.797   3.112 -0.7846  0.0760  0.1598
 1311SOL     OW15394   4.491   4.010   2.669  0.1267 -0.2381 -0.2154
 1311SOL    HW115395   4.425   3.945   2.694  1.3472 -1.3448  0.1289
 1311SOL    HW215396   4.439   4.058   2.604  0.8367 -0.5079 -0.9790
 1312SOL     OW15397   4.089   1.132   6.509 -0.5590  0.1988  0.2929
 1312SOL    HW115398   4.142   1.172   6.578 -0.3306  0.2139  0.1068
 1312SOL    HW215399   4.003   1.137   6.553 -0.3043  1.5267  0.6441
 1313SOL     OW15400   2.889   3.497  13.058 -0.3723 -0.0986 -0.1283
 1313SOL    HW115401   2.813   3.466  13.108 -0.9754 -0.2012 -1.1251
 1313SOL    HW215402   2.840   3.524  12.981  0.0030  0.2266 -0.2541
 1314SOL     OW15403   4.375   4.659  16.722  0.0544 -0.1713 -0.2845
 1314SOL    HW115404   4.458   4.617  16.701  0.3236  0.9279 -1.3693
 1314SOL    HW215405   4.412   4.717  16.789  0.2577  1.4884 -1.8385
 1315SOL     OW15406   3.343   3.010   0.693  0.1327 -0.2905 -0.1270
 1315SOL    HW115407   3.294   2.928   0.696  0.8804 -0.7148  0.7130
 1315SOL    HW215408   3.374   3.010   0.603  3.3790  2.0752  0.9419
 1316SOL     OW15409   1.547   3.324  16.890 -0.3381  0.3962 -0.5456
 1316SOL    HW115410   1.512   3.394  16.946 -1.1152 -1.5841  1.4273
 1316SOL    HW215411   1.603   3.271  16.948  1.8708  3.3466  0.0325
 1317SOL     OW15412   3.144   3.640  10.408  0.2836 -0.2248  0.3043
 1317SOL    HW115413   3.182   3.726  10.427  0.1665  0.0110 -0.4948
 1317SOL    HW215414   3.159   3.635  10.313  1.0147 -1.7640  0.5034
 1318SOL     OW15415   2.335   2.219  14.601  0.0986  0.0381 -0.4021
 1318SOL    HW115416   2.287   2.157  14.546  0.2243 -2.0041  1.7971
 1318SOL    HW215417   2.368   2.168  14.674  3.0581 -1.3601 -2.6963
 1319SOL     OW15418   3.709   4.090  10.676 -0.1417 -0.4612 -0.0924
 1319SOL    HW115419   3.702   4.022  10.610 -1.0138 -1.1320  0.6928
 1319SOL    HW215420   3.617   4.119  10.683  0.0151 -0.4045  1.6676
 1320SOL     OW15421   2.401   0.850   1.785 -0.4668 -0.1036  0.3330
 1320SOL    HW115422   2.374   0.917   1.722 -0.0909  0.2677  0.5618
 1320SOL    HW215423   2.457   0.902   1.844  0.1103  1.1911 -1.3451
 1321SOL     OW15424   0.086   2.846   7.673 -0.1524  0.2353  0.4711
 1321SOL    HW115425   0.128   2.765   7.703  0.8051  0.9263  0.9721
 1321SOL    HW215426   0.049   2.877   7.755 -0.5801 -0.0036  0.3662
 1322SOL     OW15427   1.039   0.017  12.897  0.9388  0.1149  0.2411
 1322SOL    HW115428   1.098   4.668  12.878 -0.3976 -1.1501  0.9292
 1322SOL    HW215429   0.996   0.021  12.812  0.8384 -0.0576  0.2842
 1323SOL     OW15430   3.058   2.105   2.880  0.3188 -0.5210  0.5487
 1323SOL    HW115431   3.124   2.142   2.938  0.8212 -3.0761  1.6247
 1323SOL    HW215432   3.017   2.036   2.932  0.2418 -0.3176  0.7566
 1324SOL     OW15433   0.963   0.633  10.026  0.0923  0.0144 -0.2657
 1324SOL    HW115434   1.013   0.688  10.086 -1.0845  2.9504 -1.9588
 1324SOL    HW215435   0.879   0.680  10.025  0.4856  0.7456  0.6236
 1325SOL     OW15436   0.599   2.915  14.647  0.1984 -0.3733 -0.2351
 1325SOL    HW115437   0.556   2.997  14.673 -0.5696 -1.1176  0.8487
 1325SOL    HW215438   0.540   2.850  14.687  0.1635 -1.1758 -1.5928
 1326SOL     OW15439   3.765   4.579   6.174 -0.1288 -0.3590 -0.5788
 1326SOL    HW115440   3.790   4.591   6.266  1.0399 -0.1921 -0.9191
 1326SOL    HW215441   3.720   4.495   6.185 -1.3509  0.3715  0.1207
 1327SOL     OW15442   2.654   4.476   4.861 -0.4680 -0.1048 -0.4230
 1327SOL    HW115443   2.742   4.510   4.879 -0.6193  0.2369 -0.3215
 1327SOL    HW215444   2.607   4.529   4.925  1.2378  1.8965 -0.8325
 1328SOL     OW15445   0.500   3.488   2.378  0.0584  0.2633 -0.8918
 1328SOL    HW115446   0.592   3.483   2.404  0.2786 -0.5950 -1.8611
 1328SOL    HW215447   0.495   3.582   2.359  3.2528  0.4323 -0.8717
 1329SOL     OW15448   4.696   1.107   8.651  0.5628 -0.1238 -0.0921
 1329SOL    HW115449   4.651   1.058   8.720  2.3566  0.1014  1.2366
 1329SOL    HW215450   0.006   1.183   8.697  0.1188  0.0906 -0.1180
 1330SOL     OW15451   1.012   3.157   3.533 -0.2732  0.2027  0.4834
 1330SOL    HW115452   0.960   3.139   3.455  1.4425  0.9513 -0.8207
 1330SOL    HW215453   1.013   3.068   3.568  3.4880  1.2354  2.9719
 1331SOL     OW15454   0.770   1.660  10.132 -0.9053 -0.6401 -0.2026
 1331SOL    HW115455   0.864   1.646  10.122 -0.5379  1.9849 -0.4821
 1331SOL    HW215456   0.739   1.634  10.045  0.3597 -1.8291 -0.2975
 1332SOL     OW15457   3.218   1.392   8.841 -0.0450  0.6193  0.2272
 1332SOL    HW115458   3.272   1.329   8.890  0.0992  0.5767  0.0162
 1332SOL    HW215459   3.130   1.368   8.868  0.2544 -1.0778 -0.2720
 1333SOL     OW15460   2.863   0.380   4.968  0.0071  0.1455 -0.0461
 1333SOL    HW115461   2.863   0.468   4.931 -0.5573  1.1222  2.2970
 1333SOL    HW215462   2.955   0.366   4.988 -0.1580  1.2751  1.4918
 1334SOL     OW15463   2.749   4.151   5.888  0.2509 -0.1155 -0.2311
 1334SOL    HW115464   2.664   4.155   5.933 -0.3383 -0.9292 -1.2770
 1334SOL    HW215465   2.711   4.137   5.802 -0.9901  0.6149  0.1912
 1335SOL     OW15466   1.899   0.588   9.157 -0.0137  0.0139 -0.3455
 1335SOL    HW115467   1.924   0.669   9.112  1.3224 -0.5088 -0.5571
 1335SOL    HW215468   1.957   0.531   9.106  0.5383 -2.1578  2.6859
 1336SOL     OW15469   0.464   0.287   4.778 -0.5702  0.4301  0.2051
 1336SOL    HW115470   0.476   0.362   4.720 -1.5289 -0.4926 -1.1753
 1336SOL    HW215471   0.537   0.232   4.749 -1.2935 -1.0439  1.1893
 1337SOL     OW15472   2.811   0.826  16.557 -0.0007  0.3846 -0.1048
 1337SOL    HW115473   2.840   0.890  16.492 -0.4301  1.0160  0.3213
 1337SOL    HW215474   2.769   0.892  16.613  0.3774  0.1486  0.4578
 1338SOL     OW15475   1.241   3.884   0.761 -0.4972  0.3689  0.6149
 1338SOL    HW115476   1.258   3.795   0.792 -2.2044  0.0767  0.7147
 1338SOL    HW215477   1.298   3.944   0.809  0.7887 -0.3983  0.0287
 1339SOL     OW15478   3.455   3.882  17.620 -0.2388  0.3590 -0.0154
 1339SOL    HW115479   3.402   3.954  17.656 -1.7979  0.4404 -2.4628
 1339SOL    HW215480   3.544   3.909  17.643 -0.7625  0.2628  2.1842
 1340SOL     OW15481   0.146   0.675   0.732  0.3949  0.0704  0.0919
 1340SOL    HW115482   0.201   0.742   0.690 -0.6613  0.4577 -0.6593
 1340SOL    HW215483   0.062   0.700   0.694 -0.3963 -1.0049  1.1097
 1341SOL     OW15484   1.315   0.779   5.552  0.2497 -0.6874  0.3839
 1341SOL    HW115485   1.263   0.699   5.555  0.9201 -1.1746 -1.0161
 1341SOL    HW215486   1.359   0.772   5.467 -0.4116 -0.0489 -0.0056
 1342SOL     OW15487   2.220   1.286  10.532 -0.0384 -0.0343 -0.5557
 1342SOL    HW115488   2.277   1.316  10.461  1.5118 -1.7070 -0.0069
 1342SOL    HW215489   2.143   1.272  10.477  1.4630 -0.0087 -2.6473
 1343SOL     OW15490   1.637   0.137  17.486 -0.3551  0.4857 -0.3717
 1343SOL    HW115491   1.623   0.211  17.545  2.0791  1.3552 -0.8618
 1343SOL    HW215492   1.643   0.066  17.550 -0.0952 -1.9753 -3.1066
 1344SOL     OW15493   1.915   1.181   6.659  0.3330  0.5098 -0.1647
 1344SOL    HW115494   1.847   1.140   6.604  1.2601  2.0147 -2.4621
 1344SOL    HW215495   1.894   1.274   6.644  1.0569  1.0299  2.1827
 1345SOL     OW15496   0.397   2.674   5.524  0.6437  0.2832  0.0969
 1345SOL    HW115497   0.315   2.718   5.504 -0.2068 -1.8017 -1.0317
 1345SOL    HW215498   0.364   2.585   5.535 -0.0431  0.5596  0.2773
 1346SOL     OW15499   2.366   0.421  16.923  0.1473 -0.0038  0.1468
 1346SOL    HW115500   2.282   0.378  16.938  0.4447 -1.4337 -2.4014
 1346SOL    HW215501   2.365   0.434  16.828 -1.9681 -2.3595 -0.1251
 1347SOL     OW15502   1.253   0.251   3.945 -0.4937  0.4369  0.4733
 1347SOL    HW115503   1.236   0.247   3.851 -0.8438  1.6275  0.4954
 1347SOL    HW215504   1.183   0.306   3.979  0.3047  1.0103  1.1707
 1348SOL     OW15505   4.076   4.660  17.275 -0.1558  0.6674  0.1093
 1348SOL    HW115506   4.118   0.015  17.242  0.7919  1.0375  2.1703
 1348SOL    HW215507   3.986   4.689  17.290  0.9855  3.5746  1.2699
 1349SOL     OW15508   4.709   0.098   8.576  0.2539  0.7676  0.1576
 1349SOL    HW115509   4.688   0.007   8.596 -1.3999  1.0830 -0.1191
 1349SOL    HW215510   4.649   0.107   8.501 -0.2072  0.2479  0.4654
 1350SOL     OW15511   4.527   2.499   1.421 -0.2476  0.4348  0.2398
 1350SOL    HW115512   4.520   2.587   1.385 -0.5452  0.1175 -0.4742
 1350SOL    HW215513   4.436   2.469   1.418  0.0829 -0.5333  0.0687
 1351SOL     OW15514   0.326   4.423   2.550 -0.5790  0.1455 -0.2645
 1351SOL    HW115515   0.281   4.505   2.530  2.7998  2.3415  1.2251
 1351SOL    HW215516   0.279   4.395   2.629 -0.4471  0.4004 -0.0983
 1352SOL     OW15517   1.638   1.151  15.504 -0.5356  0.5196 -0.0137
 1352SOL    HW115518   1.631   1.169  15.598 -2.3505 -0.2391 -0.0007
 1352SOL    HW215519   1.710   1.089  15.496 -0.7254  0.4654 -1.2665
 1353SOL     OW15520   1.572   4.273   8.199  0.3072  0.2887  0.0390
 1353SOL    HW115521   1.506   4.320   8.148  0.5452 -0.3133 -0.8111
 1353SOL    HW215522   1.541   4.326   8.273  1.2919 -0.5680  1.0733
 1354SOL     OW15523   0.829   3.111  11.070  0.1204 -0.3480  0.4463
 1354SOL    HW115524   0.774   3.189  11.080  1.1834  0.7633 -2.3802
 1354SOL    HW215525   0.772   3.035  11.058  0.2441 -0.2029 -1.0827
 1355SOL     OW15526   1.432   0.407   9.476  0.5787 -0.0247 -0.1454
 1355SOL    HW115527   1.527   0.421   9.475  0.7881 -1.2647  1.8797
 1355SOL    HW215528   1.399   0.495   9.496 -0.3315  0.2487 -2.8288
 1356SOL     OW15529   3.027   0.558   2.043  0.0620 -0.6126  0.2478
 1356SOL    HW115530   2.991   0.645   2.031 -1.4687 -1.1062  1.3648
 1356SOL    HW215531   3.109   0.569   2.091 -1.5153  1.6079  2.3569
 1357SOL     OW15532   4.706   0.407   7.603 -0.3512 -0.9948  0.2691
 1357SOL    HW115533   4.672   0.335   7.657 -0.5121 -0.8978  0.2972
 1357SOL    HW215534   0.048   0.364   7.549 -0.5286 -1.9268  0.8000
 1358SOL     OW15535   0.407   3.157   2.047 -0.0335 -0.3861 -0.2929
 1358SOL    HW115536   0.380   3.237   2.093  0.1852 -1.4445  1.6865
 1358SOL    HW215537   0.335   3.096   2.058  0.1998 -0.2159  2.1544
 1359SOL     OW15538   3.771   3.891   0.201  0.2774 -0.0593 -0.2240
 1359SOL    HW115539   3.740   3.837   0.129  0.3036 -1.8643  1.1249
 1359SOL    HW215540   3.832   3.822   0.227 -0.5291 -1.6247 -2.5410
 1360SOL     OW15541   1.413   4.297  12.173  0.4349  0.4608 -0.0227
 1360SOL    HW115542   1.331   4.312  12.127 -0.0964 -1.7180  0.2272
 1360SOL    HW215543   1.443   4.226  12.116 -2.9981  0.8160 -2.2611
 1361SOL     OW15544   2.265   3.633   1.745  0.0403 -0.2305 -0.0353
 1361SOL    HW115545   2.342   3.653   1.798 -0.8938 -2.4282  2.1290
 1361SOL    HW215546   2.300   3.570   1.682  2.5190  1.2416 -0.1495
 1362SOL     OW15547   4.311   1.133   8.543 -0.6735 -0.5905 -0.0609
 1362SOL    HW115548   4.380   1.182   8.498  1.1485 -2.4363  0.7006
 1362SOL    HW215549   4.240   1.154   8.483  1.8177  0.2686 -2.7106
 1363SOL     OW15550   3.988   0.866   3.103 -0.0729  0.9232 -0.1033
 1363SOL    HW115551   3.943   0.807   3.042  1.1331 -0.3136  0.1968
 1363SOL    HW215552   3.973   0.820   3.186  1.4691 -2.5777 -1.7648
 1364SOL     OW15553   1.914   2.079   1.443  0.7160  1.3092  0.2786
 1364SOL    HW115554   1.925   2.129   1.524 -0.4045  3.5994 -0.9768
 1364SOL    HW215555   1.866   2.007   1.481 -0.7618  2.5011  0.6778
 1365SOL     OW15556   0.655   1.007   7.275 -0.1261  0.3923 -0.5969
 1365SOL    HW115557   0.674   1.095   7.309 -2.6368  0.7088 -0.0240
 1365SOL    HW215558   0.686   0.951   7.346  2.2082  1.3472 -0.8410
 1366SOL     OW15559   1.039   1.723  10.056 -0.1401 -0.1340 -0.0896
 1366SOL    HW115560   1.083   1.808  10.057 -1.2299  0.4337  0.1161
 1366SOL    HW215561   1.015   1.718   9.964  0.8822 -0.6565 -0.3223
 1367SOL     OW15562   2.754   1.654  16.671  0.0466 -0.5819 -0.1555
 1367SOL    HW115563   2.833   1.649  16.725 -1.2299 -0.4572  1.7317
 1367SOL    HW215564   2.691   1.630  16.739  0.3463  0.5268  0.4985
 1368SOL     OW15565   4.467   1.557   7.452  0.1117 -0.0673  0.2805
 1368SOL    HW115566   4.409   1.501   7.400 -0.0732  1.1895 -0.8507
 1368SOL    HW215567   4.500   1.619   7.388 -0.5700 -1.6827 -1.6509
 1369SOL     OW15568   3.520   3.867   8.917  0.4708 -0.2507  0.8895
 1369SOL    HW115569   3.603   3.866   8.965  0.8611  2.0932  0.2492
 1369SOL    HW215570   3.461   3.903   8.983  1.8406  2.2053  0.7765
 1370SOL     OW15571   4.308   2.118   3.314  0.0754 -0.6892  0.0114
 1370SOL    HW115572   4.254   2.131   3.392 -1.0293 -1.1938 -0.6808
 1370SOL    HW215573   4.361   2.042   3.336  2.0710  0.8537  0.5452
 1371SOL     OW15574   4.586   2.445   6.138 -0.6242 -0.2943  0.5459
 1371SOL    HW115575   4.557   2.392   6.064 -1.4110  2.0105 -0.8044
 1371SOL    HW215576   4.548   2.530   6.116  1.2454 -0.0022 -1.6058
 1372SOL     OW15577   3.174   3.131  11.074 -0.2865 -0.2554 -0.5427
 1372SOL    HW115578   3.206   3.192  11.008 -0.0765  0.6146  0.3703
 1372SOL    HW215579   3.175   3.044  11.033 -0.7510 -0.1867 -0.6998
 1373SOL     OW15580   3.601   4.208   4.655 -0.5402  0.3016  0.0525
 1373SOL    HW115581   3.519   4.214   4.705 -0.1885 -0.0093  0.6645
 1373SOL    HW215582   3.662   4.250   4.715  0.3001 -0.4335 -0.2932
 1374SOL     OW15583   1.631   2.189   9.060 -0.2728 -0.6304  0.0677
 1374SOL    HW115584   1.631   2.170   9.154 -1.1930 -1.4943 -0.1004
 1374SOL    HW215585   1.696   2.258   9.051  1.4743 -2.3547 -0.5482
 1375SOL     OW15586   3.746   3.062   0.128 -0.2234  1.0580 -0.1892
 1375SOL    HW115587   3.777   3.000   0.194  1.1400  1.3359 -0.5702
 1375SOL    HW215588   3.651   3.054   0.134 -0.3841  2.2875 -0.8674
 1376SOL     OW15589   4.668   3.227   3.623 -0.1383 -0.2821 -0.1361
 1376SOL    HW115590   4.638   3.251   3.535 -2.3510  0.9150  0.9504
 1376SOL    HW215591   4.593   3.214   3.680 -1.6055  0.9350 -1.7636
 1377SOL     OW15592   2.513   0.061   1.548 -0.1491 -0.1370  0.1981
 1377SOL    HW115593   2.607   0.070   1.534 -0.4260  2.4090 -0.0718
 1377SOL    HW215594   2.488   4.705   1.502  2.7988 -0.3914 -0.9945
 1378SOL     OW15595   1.773   3.929   5.236 -0.2969  0.3161 -0.2865
 1378SOL    HW115596   1.776   3.834   5.230 -0.8947  0.2870 -0.1954
 1378SOL    HW215597   1.711   3.942   5.307  0.4403  0.4328  0.3311
 1379SOL     OW15598   0.245   2.737  13.755 -0.4484 -0.0312  0.8916
 1379SOL    HW115599   0.158   2.712  13.724 -0.8319 -1.1330  2.9013
 1379SOL    HW215600   0.280   2.786  13.680 -2.8980 -0.7621 -0.7246
 1380SOL     OW15601   2.191   1.265   4.369 -0.1821 -0.6174  0.1891
 1380SOL    HW115602   2.155   1.182   4.339 -0.3700  0.6069 -2.9973
 1380SOL    HW215603   2.214   1.312   4.289 -1.1755  1.5626  1.1879
 1381SOL     OW15604   2.280   1.600   4.000 -0.2849 -0.2068 -0.2360
 1381SOL    HW115605   2.200   1.653   3.993  0.3488  1.2211  3.4048
 1381SOL    HW215606   2.310   1.596   3.909 -0.8590  1.3714 -0.4943
 1382SOL     OW15607   4.568   4.700   8.068 -0.3124 -0.3987 -0.2129
 1382SOL    HW115608   4.601   4.674   7.983  0.5457 -0.5386  0.1613
 1382SOL    HW215609   4.577   4.612   8.105 -0.5924  0.0403  0.9038
 1383SOL     OW15610   0.781   3.347   9.242 -0.3129  0.2099  0.2547
 1383SOL    HW115611   0.858   3.381   9.288  0.7811 -0.3735 -1.1341
 1383SOL    HW215612   0.737   3.302   9.314 -2.0883 -0.1473 -1.0708
 1384SOL     OW15613   0.285   4.371  14.683 -0.3131 -0.0528  0.0496
 1384SOL    HW115614   0.268   4.279  14.665 -0.6252 -0.1370  0.7743
 1384SOL    HW215615   0.320   4.361  14.772  0.8119  0.8090 -0.2946
 1385SOL     OW15616   1.763   3.375   3.208  0.5044  0.1546  0.1844
 1385SOL    HW115617   1.754   3.396   3.301  2.2798 -1.9507  0.8230
 1385SOL    HW215618   1.844   3.417   3.179  1.4347 -0.4068  1.9642
 1386SOL     OW15619   2.103   4.047   6.351  0.0107  0.2895 -0.2573
 1386SOL    HW115620   2.090   4.124   6.406  1.8142  0.2474  0.2193
 1386SOL    HW215621   2.123   4.092   6.269  0.9517 -1.2571 -0.8730
 1387SOL     OW15622   1.427   3.839   2.091 -0.2112 -0.1352 -0.0717
 1387SOL    HW115623   1.481   3.778   2.142  1.0071  1.5345  0.6343
 1387SOL    HW215624   1.471   3.841   2.006  1.2998 -0.2796  0.7098
 1388SOL     OW15625   2.901   0.762   0.768  0.0521  0.2554 -0.3579
 1388SOL    HW115626   2.961   0.766   0.694 -1.0806  1.3924 -1.2149
 1388SOL    HW215627   2.961   0.769   0.842  0.3105 -1.5730 -0.3858
 1389SOL     OW15628   2.940   4.273   5.097  0.3602 -0.4211  0.6036
 1389SOL    HW115629   2.876   4.266   5.025 -0.5739  0.4654  1.3419
 1389SOL    HW215630   2.917   4.209   5.164  0.4258 -0.6945  0.3640
 1390SOL     OW15631   2.639   0.606  11.419 -0.2687 -0.2526 -0.3023
 1390SOL    HW115632   2.570   0.664  11.451 -0.7883 -0.8931 -0.2386
 1390SOL    HW215633   2.724   0.643  11.443 -1.6964  1.8790  1.4948
 1391SOL     OW15634   4.670   3.122   6.127 -0.5377 -0.2286 -0.1253
 1391SOL    HW115635   4.587   3.107   6.173 -0.8465  1.1301 -0.2556
 1391SOL    HW215636   4.640   3.178   6.056 -0.2696  1.2221  0.8976
 1392SOL     OW15637   2.591   2.764   8.305 -0.4791  0.4390  1.1188
 1392SOL    HW115638   2.631   2.824   8.368 -0.7000  1.4531  0.2924
 1392SOL    HW215639   2.567   2.688   8.358 -0.6306 -0.8925 -0.8726
 1393SOL     OW15640   4.618   1.950  14.789 -0.3412  0.2386 -0.4422
 1393SOL    HW115641   4.608   2.006  14.712 -3.5724 -1.1793 -1.0457
 1393SOL    HW215642   4.532   1.955  14.831  0.9086  3.0138  1.7906
 1394SOL     OW15643   1.022   3.233   7.968 -0.1080 -0.9160 -0.6947
 1394SOL    HW115644   0.995   3.156   7.918 -1.0069 -0.9793 -0.1127
 1394SOL    HW215645   0.945   3.250   8.022  0.6510  0.7183 -0.1242
 1395SOL     OW15646   2.960   2.409   1.877  0.6113  0.5889  0.6054
 1395SOL    HW115647   3.049   2.440   1.893  0.5545  1.7625 -1.3319
 1395SOL    HW215648   2.960   2.429   1.783 -1.0515  1.6754  0.8148
 1396SOL     OW15649   2.166   2.661  12.869 -0.2401 -0.3197 -0.3660
 1396SOL    HW115650   2.138   2.717  12.941 -1.0399 -1.9538  0.5813
 1396SOL    HW215651   2.136   2.712  12.794 -0.8300  0.0688  0.1343
 1397SOL     OW15652   0.266   1.767   5.341  0.8698  0.1355  0.4507
 1397SOL    HW115653   0.225   1.755   5.427 -0.8175  1.1763 -0.2067
 1397SOL    HW215654   0.270   1.681   5.300 -0.7955 -0.2935  1.1671
 1398SOL     OW15655   4.011   2.648   1.666  0.0491  0.0690  0.4324
 1398SOL    HW115656   3.983   2.669   1.755  0.5964  1.0023  0.3818
 1398SOL    HW215657   3.968   2.720   1.619  1.8722  0.1319 -1.1122
 1399SOL     OW15658   1.018   4.484   4.566 -0.0969 -0.1615 -0.8644
 1399SOL    HW115659   0.999   4.482   4.472  1.8605 -0.7920 -1.2477
 1399SOL    HW215660   1.109   4.454   4.564  0.1671  0.6676 -1.6760
 1400SOL     OW15661   1.705   4.402  10.523 -0.3783 -0.3428 -0.3005
 1400SOL    HW115662   1.762   4.413  10.447 -0.0723  0.3798  0.0358
 1400SOL    HW215663   1.641   4.336  10.497  0.4009 -1.3129  0.2647
 1401SOL     OW15664   2.637   1.657  13.466 -0.1305 -0.3256  0.2100
 1401SOL    HW115665   2.680   1.731  13.509 -0.7949  0.2167 -0.0655
 1401SOL    HW215666   2.545   1.659  13.493 -0.1941  0.8515 -0.1263
 1402SOL     OW15667   4.329   2.406   5.809 -0.0469 -0.3204 -0.0062
 1402SOL    HW115668   4.420   2.378   5.825 -0.6332 -2.2185  0.0520
 1402SOL    HW215669   4.350   2.459   5.732 -1.9767  0.2704 -0.1125
 1403SOL     OW15670   1.239   1.016   8.686 -0.5446  0.2078 -0.1501
 1403SOL    HW115671   1.168   1.074   8.715 -1.9675 -1.1721 -0.8725
 1403SOL    HW215672   1.196   0.932   8.700 -1.4623  0.8405  0.9012
 1404SOL     OW15673   0.931   1.962   6.538  0.1792 -0.1121  0.4604
 1404SOL    HW115674   0.920   1.914   6.456 -2.7000 -0.7633  1.2345
 1404SOL    HW215675   0.842   1.971   6.570 -0.4152 -1.5337 -0.8211
 1405SOL     OW15676   2.230   0.650   7.396 -0.2428 -0.5200  0.5828
 1405SOL    HW115677   2.272   0.736   7.405  0.4233 -0.8054  0.1651
 1405SOL    HW215678   2.297   0.583   7.394 -1.2533 -1.5831  2.9319
 1406SOL     OW15679   0.879   1.654   7.278 -0.2150  0.1297 -0.1686
 1406SOL    HW115680   0.952   1.713   7.297 -1.6855  1.7349  0.4207
 1406SOL    HW215681   0.930   1.582   7.240  0.8775  1.0002 -0.3522
 1407SOL     OW15682   4.580   2.951  10.678 -0.2974 -0.6212 -0.0580
 1407SOL    HW115683   4.532   2.940  10.760 -1.8100  0.4692 -0.7967
 1407SOL    HW215684   4.508   2.941  10.616  2.1525 -2.5093 -2.6280
 1408SOL     OW15685   2.314   4.623   8.019 -0.5231  0.3893 -0.1363
 1408SOL    HW115686   2.353   4.535   8.023 -1.4144  0.0616  1.3695
 1408SOL    HW215687   2.226   4.601   8.049 -0.4516  1.2932  0.7269
 1409SOL     OW15688   2.502   2.976   3.918 -0.1606  0.1611 -0.1004
 1409SOL    HW115689   2.505   2.934   3.832 -1.0429 -1.3967  0.6413
 1409SOL    HW215690   2.594   3.000   3.926 -0.2212  0.2537  0.2943
 1410SOL     OW15691   1.676   2.727  11.433 -0.1956  0.4830  0.3039
 1410SOL    HW115692   1.681   2.801  11.372 -4.6139  0.7255  0.2297
 1410SOL    HW215693   1.769   2.707  11.420  0.0018  2.0385 -0.8286
 1411SOL     OW15694   0.647   3.019   3.624 -0.8091  0.2843 -0.4813
 1411SOL    HW115695   0.628   3.055   3.711  0.3870 -1.0450  0.3178
 1411SOL    HW215696   0.602   3.089   3.576 -0.5370 -0.1805 -1.4017
 1412SOL     OW15697   1.478   2.033   8.358  0.4770  0.1817 -0.5834
 1412SOL    HW115698   1.521   1.988   8.431  0.8324  2.3259  0.5192
 1412SOL    HW215699   1.464   2.120   8.396 -0.6240  0.1654 -0.9439
 1413SOL     OW15700   3.348   1.600   4.246  0.1202  0.0414  0.2199
 1413SOL    HW115701   3.303   1.563   4.322 -1.2223  1.8161  0.2930
 1413SOL    HW215702   3.330   1.694   4.240  0.3860  0.2030  2.2214
 1414SOL     OW15703   4.039   2.663   0.924 -0.2556  0.4188 -0.0939
 1414SOL    HW115704   4.111   2.720   0.897 -1.2844  1.0937 -1.4498
 1414SOL    HW215705   3.995   2.654   0.840 -0.8451 -0.2295  0.2883
 1415SOL     OW15706   0.804   2.830   4.939  0.0162 -0.1745 -0.6666
 1415SOL    HW115707   0.727   2.885   4.925 -0.5044 -0.4287  1.2428
 1415SOL    HW215708   0.761   2.745   4.945 -0.0002 -0.0799  0.5313
 1416SOL     OW15709   0.796   0.542   7.313 -0.3423  0.0952  0.5890
 1416SOL    HW115710   0.807   0.626   7.269 -0.4691  1.6864  3.6268
 1416SOL    HW215711   0.885   0.509   7.321  0.6887  2.7849  0.0822
 1417SOL     OW15712   3.218   4.511   2.678 -0.1130  0.1342 -0.2817
 1417SOL    HW115713   3.262   4.478   2.600  0.1520  1.3355 -0.6462
 1417SOL    HW215714   3.252   4.600   2.690  0.1788 -0.3425  2.3975
 1418SOL     OW15715   3.041   1.737   6.935 -1.1320  0.6341  0.1862
 1418SOL    HW115716   3.102   1.686   6.881 -0.0549  0.2777  1.7565
 1418SOL    HW215717   2.959   1.702   6.899 -1.1382  2.6097 -1.7256
 1419SOL     OW15718   1.176   3.283   1.744  0.1790  0.2209 -0.2745
 1419SOL    HW115719   1.254   3.332   1.718  1.6227 -0.8593  1.9837
 1419SOL    HW215720   1.191   3.214   1.679 -2.3199 -0.0616 -0.5530
 1420SOL     OW15721   2.834   3.519   3.040 -0.1472 -0.3301 -0.5414
 1420SOL    HW115722   2.851   3.440   2.988 -1.0484  0.7013 -2.4127
 1420SOL    HW215723   2.883   3.585   2.990 -0.2201  0.1648  0.0544
 1421SOL     OW15724   2.767   1.707  15.748 -0.4041 -0.4411  0.4081
 1421SOL    HW115725   2.693   1.693  15.807  0.7155 -1.1346  1.6480
 1421SOL    HW215726   2.824   1.767  15.795 -1.4395 -0.5418  1.7969
 1422SOL     OW15727   3.583   4.137   5.315  0.4838 -0.2926  0.2550
 1422SOL    HW115728   3.589   4.048   5.281 -1.1241  0.0394 -0.8683
 1422SOL    HW215729   3.672   4.162   5.290  0.6204 -1.9844 -0.9406
 1423SOL     OW15730   2.169   4.005   3.517 -0.4616 -0.0215 -0.3981
 1423SOL    HW115731   2.145   4.065   3.447 -1.1947 -2.9040 -2.6019
 1423SOL    HW215732   2.094   3.946   3.521 -0.0970 -0.4876 -0.3075
 1424SOL     OW15733   4.656   0.777   6.655 -0.1832  0.0791 -0.1788
 1424SOL    HW115734   4.621   0.797   6.568  0.4456  1.7045 -0.0655
 1424SOL    HW215735   0.016   0.820   6.641 -0.1043 -0.2225 -0.6416
 1425SOL     OW15736   1.149   0.601   0.743 -1.0232  0.0820  0.1182
 1425SOL    HW115737   1.089   0.614   0.816 -3.5456 -1.0341 -1.7639
 1425SOL    HW215738   1.201   0.534   0.788 -1.1336 -1.2831 -1.7855
 1426SOL     OW15739   1.310   0.818   3.037 -0.4386  0.0713 -0.1153
 1426SOL    HW115740   1.229   0.848   2.995 -1.8816 -1.9672  1.2216
 1426SOL    HW215741   1.366   0.847   2.965 -3.1109  2.5598 -1.1885
 1427SOL     OW15742   2.188   1.617   4.771 -0.2013 -0.1804 -0.0603
 1427SOL    HW115743   2.212   1.607   4.863  0.4019  0.8524 -0.0970
 1427SOL    HW215744   2.202   1.534   4.726  0.5830  0.9336 -1.9146
 1428SOL     OW15745   0.904   1.051  13.402  0.2336 -0.1403 -0.0365
 1428SOL    HW115746   0.904   1.128  13.459  3.0420 -0.2875  0.1952
 1428SOL    HW215747   0.844   1.080  13.333 -0.6330 -1.4483  0.1918
 1429SOL     OW15748   0.800   4.579   9.208  0.4184 -0.4071  0.4574
 1429SOL    HW115749   0.795   4.510   9.274 -1.6360 -1.4171 -0.7414
 1429SOL    HW215750   0.742   4.648   9.241 -3.7696 -3.1669 -1.1102
 1430SOL     OW15751   3.554   4.003   2.477 -0.5575 -0.0911  0.0535
 1430SOL    HW115752   3.548   3.915   2.440 -2.7777 -1.2126  3.1116
 1430SOL    HW215753   3.597   4.044   2.401 -0.7827 -0.3188 -0.1961
 1431SOL     OW15754   0.323   0.640   7.536  0.8969  1.0160  0.3037
 1431SOL    HW115755   0.405   0.602   7.505  0.7601 -0.3570  1.5951
 1431SOL    HW215756   0.267   0.620   7.462  0.7170  1.9733  0.1850
 1432SOL     OW15757   3.766   1.336   1.936  0.0684  0.0576 -0.8055
 1432SOL    HW115758   3.816   1.304   1.861 -1.6707 -0.7321 -1.6186
 1432SOL    HW215759   3.714   1.395   1.881 -1.6090 -2.2817 -1.7008
 1433SOL     OW15760   3.802   0.874   6.266 -0.0155  0.2091 -0.3888
 1433SOL    HW115761   3.835   0.868   6.356 -0.6594  0.6619 -0.1201
 1433SOL    HW215762   3.725   0.817   6.267 -0.0919  0.3339  1.4064
 1434SOL     OW15763   1.715   1.595   1.953 -0.0442  0.1964 -0.0552
 1434SOL    HW115764   1.671   1.626   2.033 -1.7149  1.6849 -1.5607
 1434SOL    HW215765   1.645   1.628   1.897 -1.0323  1.1249  1.7128
 1435SOL     OW15766   1.081   4.387  15.597  0.0133  0.6729  0.2659
 1435SOL    HW115767   1.083   4.293  15.612 -0.0845  0.3501 -1.7761
 1435SOL    HW215768   1.053   4.394  15.506  0.6622 -1.1525 -0.0712
 1436SOL     OW15769   3.070   3.609   2.762 -0.2996  0.1136  0.0419
 1436SOL    HW115770   2.997   3.670   2.777 -0.2492  0.3768 -0.7865
 1436SOL    HW215771   3.017   3.539   2.724  0.1096 -0.2916  0.2311
 1437SOL     OW15772   3.014   4.450   3.121 -0.1031  0.1141 -0.4114
 1437SOL    HW115773   3.061   4.391   3.062 -1.7362 -0.2679 -1.3447
 1437SOL    HW215774   3.082   4.494   3.171 -1.0221  0.9240  0.1347
 1438SOL     OW15775   2.762   0.801   9.528  0.3337  0.6057  0.7354
 1438SOL    HW115776   2.816   0.821   9.452  0.6212 -1.1295  0.4813
 1438SOL    HW215777   2.815   0.852   9.589  2.0237 -1.2895  0.8534
 1439SOL     OW15778   4.188   2.845   8.880  0.5055 -0.3493  0.0105
 1439SOL    HW115779   4.173   2.788   8.956  2.3584 -0.8610  0.0007
 1439SOL    HW215780   4.265   2.895   8.906  0.3901  1.0685 -2.4809
 1440SOL     OW15781   1.882   2.714   8.957 -0.3529  0.6090 -0.2659
 1440SOL    HW115782   1.879   2.622   8.985 -0.0587  1.3706  2.3001
 1440SOL    HW215783   1.953   2.724   8.893 -1.4868  0.4058 -1.5410
 1441SOL     OW15784   3.842   1.588   8.545  0.2253 -0.1594 -0.1588
 1441SOL    HW115785   3.855   1.681   8.527 -3.1807 -0.1172 -2.3688
 1441SOL    HW215786   3.834   1.587   8.640  0.5655 -2.1210 -0.1351
 1442SOL     OW15787   1.995   3.604   3.309  0.4747 -0.6050 -0.2155
 1442SOL    HW115788   2.007   3.600   3.214  1.3906 -2.1276 -0.0398
 1442SOL    HW215789   2.086   3.620   3.335  0.3610  1.1448 -0.8716
 1443SOL     OW15790   2.864   1.057   8.644  0.2615 -0.3430 -0.2221
 1443SOL    HW115791   2.880   0.966   8.669  0.3131  0.0124  1.0569
 1443SOL    HW215792   2.864   1.031   8.552  0.7322 -2.6189  0.4078
 1444SOL     OW15793   3.872   4.475   0.816  0.0192 -0.1281  0.1629
 1444SOL    HW115794   3.904   4.405   0.758  0.9639 -0.6280  1.3019
 1444SOL    HW215795   3.898   4.436   0.899 -0.9090 -0.3311  0.3663
 1445SOL     OW15796   3.955   3.607   7.120  0.2397  0.0332 -0.4946
 1445SOL    HW115797   4.046   3.633   7.133  0.2280  0.0940 -0.5315
 1445SOL    HW215798   3.911   3.674   7.172 -1.1513  0.3734 -2.1342
 1446SOL     OW15799   3.690   2.802  11.410  0.0199 -0.3363  0.0793
 1446SOL    HW115800   3.631   2.750  11.464 -1.6310 -1.8200 -3.1113
 1446SOL    HW215801   3.668   2.890  11.441 -3.1386 -0.9947 -0.2556
 1447SOL     OW15802   1.085   0.105   6.593 -0.0975 -0.1058 -0.1728
 1447SOL    HW115803   1.122   0.122   6.507  0.9968  1.0642  0.5350
 1447SOL    HW215804   1.126   0.019   6.606  1.8238  1.2561  2.7292
 1448SOL     OW15805   3.909   2.995   4.751 -0.5590  0.4966  0.3305
 1448SOL    HW115806   3.968   2.974   4.679 -1.5375  0.1031 -0.3569
 1448SOL    HW215807   3.926   2.929   4.818 -0.9178 -0.6040 -0.6579
 1449SOL     OW15808   2.169   1.086  13.483  0.0088 -0.8102  0.2846
 1449SOL    HW115809   2.107   1.048  13.545  0.1668  0.1829  1.0388
 1449SOL    HW215810   2.145   1.178  13.493 -0.1564 -0.3563 -4.0257
 1450SOL     OW15811   0.582   3.147   5.147 -0.3192  0.1398 -0.4085
 1450SOL    HW115812   0.509   3.206   5.127  0.7201  1.9989  1.2890
 1450SOL    HW215813   0.560   3.121   5.236  2.2207 -0.4590  0.0434
 1451SOL     OW15814   2.802   4.470   3.925  0.0588 -0.4560 -0.7436
 1451SOL    HW115815   2.731   4.421   3.966 -2.1972  1.7786 -2.0332
 1451SOL    HW215816   2.769   4.560   3.930  0.5780 -0.2026 -1.7675
 1452SOL     OW15817   0.335   1.880  13.418  0.0161  0.2296 -0.3445
 1452SOL    HW115818   0.331   1.961  13.468  0.2594 -1.6075  2.6718
 1452SOL    HW215819   0.381   1.816  13.473  1.6978 -0.9106 -3.0521
 1453SOL     OW15820   2.521   2.550   7.656  0.8300 -0.1973  0.2488
 1453SOL    HW115821   2.483   2.560   7.743 -1.2842 -2.3875 -0.4058
 1453SOL    HW215822   2.480   2.626   7.615  1.5971 -1.2337 -2.4907
 1454SOL     OW15823   2.137   3.625   4.902  0.2461  0.8593  0.6656
 1454SOL    HW115824   2.049   3.654   4.878 -0.3031 -0.1547  1.4482
 1454SOL    HW215825   2.107   3.557   4.963 -1.0448 -0.7942 -1.8015
 1455SOL     OW15826   1.495   0.688   4.615  0.4731  0.3393  0.1242
 1455SOL    HW115827   1.514   0.679   4.709  0.7191  0.4488  0.0846
 1455SOL    HW215828   1.403   0.659   4.615  0.2380  1.0927 -1.7084
 1456SOL     OW15829   2.152   4.525   5.422  0.5224 -0.0060  0.4630
 1456SOL    HW115830   2.167   4.583   5.347  1.6524  1.4042  1.7716
 1456SOL    HW215831   2.064   4.549   5.452  0.6771  0.6354  0.4073
 1457SOL     OW15832   0.242   1.854   1.062 -0.1796  0.3577 -0.2278
 1457SOL    HW115833   0.322   1.886   1.021  0.1743  0.8829  0.8999
 1457SOL    HW215834   0.265   1.764   1.085 -0.8953  0.9556  2.7824
 1458SOL     OW15835   0.622   3.621   0.362 -0.1054 -0.0068 -0.0625
 1458SOL    HW115836   0.712   3.596   0.342 -0.0083 -0.6641  1.1821
 1458SOL    HW215837   0.629   3.717   0.363 -1.4786  0.1005 -0.0650
 1459SOL     OW15838   3.724   2.353   4.152  0.2436  0.1810 -0.8162
 1459SOL    HW115839   3.748   2.414   4.221 -1.8629  0.6366 -0.4906
 1459SOL    HW215840   3.760   2.402   4.078  1.2175 -0.3593 -0.7037
 1460SOL     OW15841   0.449   4.663  13.467 -0.3620  0.2106  0.1518
 1460SOL    HW115842   0.416   4.578  13.496 -0.0466  0.0751  0.1230
 1460SOL    HW215843   0.385   4.721  13.509 -2.0998 -0.1640 -1.9957
 1461SOL     OW15844   1.776   3.213   1.618 -0.4280  0.5585 -0.2390
 1461SOL    HW115845   1.796   3.150   1.687 -1.1168  0.1215 -0.4499
 1461SOL    HW215846   1.728   3.282   1.663 -0.0388 -0.1180  1.2229
 1462SOL     OW15847   4.498   4.578   4.408  0.3052 -0.4062 -0.6858
 1462SOL    HW115848   4.590   4.583   4.383  0.3241  1.5779 -0.2187
 1462SOL    HW215849   4.491   4.658   4.460 -0.8541 -0.8920 -0.0909
 1463SOL     OW15850   3.595   3.790   2.229 -0.0249  0.1924  0.1634
 1463SOL    HW115851   3.503   3.795   2.253 -0.3764  0.7459 -1.3020
 1463SOL    HW215852   3.595   3.830   2.142 -0.7669  0.1308  0.1373
 1464SOL     OW15853   2.870   0.678   7.412 -0.0954 -0.3153  0.0023
 1464SOL    HW115854   2.898   0.769   7.425 -1.7122  0.4726 -1.9637
 1464SOL    HW215855   2.946   0.629   7.444  0.0510 -0.2531 -0.2438
 1465SOL     OW15856   4.497   1.377   4.218 -0.2064 -0.5406 -0.5241
 1465SOL    HW115857   4.565   1.441   4.198 -0.1780 -0.9178 -1.6029
 1465SOL    HW215858   4.524   1.289   4.191 -0.9533 -0.4185 -1.6693
 1466SOL     OW15859   2.801   0.120   0.910 -0.1979 -0.1494 -0.0496
 1466SOL    HW115860   2.839   0.032   0.913  0.2434  0.0806  0.9064
 1466SOL    HW215861   2.868   0.169   0.958  0.7827 -1.0289 -0.5272
 1467SOL     OW15862   1.294   2.587   6.288  0.2884  0.8960 -0.0115
 1467SOL    HW115863   1.216   2.555   6.334  0.7450 -2.3625 -1.5040
 1467SOL    HW215864   1.334   2.504   6.260  0.0542  2.1577 -4.0013
 1468SOL     OW15865   4.001   3.866   7.228 -0.2613 -0.2789 -0.1735
 1468SOL    HW115866   4.033   3.878   7.139  1.6699  1.9904  0.8032
 1468SOL    HW215867   4.039   3.950   7.254 -1.2448  0.3324 -0.7330
 1469SOL     OW15868   2.106   4.611   8.946 -0.2187  0.3474  0.5729
 1469SOL    HW115869   2.151   4.614   9.031  0.6104  0.2639  0.1278
 1469SOL    HW215870   2.061   4.695   8.942 -2.3515 -0.7888  0.8095
 1470SOL     OW15871   0.683   3.716   6.594  0.0630  0.4098  0.2797
 1470SOL    HW115872   0.686   3.793   6.651 -0.7789  0.6823 -0.0337
 1470SOL    HW215873   0.740   3.738   6.521 -0.5902 -1.6320 -0.8545
 1471SOL     OW15874   1.336   2.961  17.090 -0.2267  0.4824 -0.5096
 1471SOL    HW115875   1.379   2.962  17.005 -0.7744  4.8152 -0.7117
 1471SOL    HW215876   1.254   2.916  17.070  0.1509 -0.7328  0.6061
 1472SOL     OW15877   2.563   2.360   5.868 -0.0352  0.0511  0.0862
 1472SOL    HW115878   2.561   2.450   5.835  1.2822 -0.0523 -0.2856
 1472SOL    HW215879   2.654   2.335   5.853 -1.1771 -2.4261 -2.8839
 1473SOL     OW15880   3.155   2.492   2.851  0.2846  0.7784  0.2863
 1473SOL    HW115881   3.062   2.512   2.838 -0.4202 -2.5565  0.0548
 1473SOL    HW215882   3.196   2.576   2.832 -1.5025  1.7697  0.8188
 1474SOL     OW15883   3.873   4.581   8.683 -0.1626  0.2975  0.0103
 1474SOL    HW115884   3.959   4.539   8.670  0.1452  0.0388  2.8117
 1474SOL    HW215885   3.842   4.586   8.593 -1.6279 -4.0358  0.2810
 1475SOL     OW15886   0.667   4.575  10.776 -0.6427 -0.3684 -0.0283
 1475SOL    HW115887   0.657   4.583  10.681 -2.6620 -0.2051  0.1929
 1475SOL    HW215888   0.751   4.537  10.801  0.4729  2.6615  0.7591
 1476SOL     OW15889   4.631   3.782   1.101  0.4364 -0.2004  0.9258
 1476SOL    HW115890   4.562   3.780   1.167 -1.5525  1.2213 -1.0967
 1476SOL    HW215891   4.582   3.815   1.026  2.3033  0.8392  0.1617
 1477SOL     OW15892   4.617   0.565   7.399 -0.4041 -0.3609 -0.2831
 1477SOL    HW115893   4.568   0.515   7.333 -0.0639  0.6908 -1.3327
 1477SOL    HW215894   4.649   0.499   7.461  0.5494  0.7279  0.3928
 1478SOL     OW15895   0.416   1.221   6.495  0.7215 -0.3140  0.1589
 1478SOL    HW115896   0.482   1.168   6.540  0.6946 -1.3484 -1.0280
 1478SOL    HW215897   0.340   1.209   6.551  2.8108  0.8197  3.2318
 1479SOL     OW15898   1.774   1.983   6.647 -0.0032  0.4794 -0.1512
 1479SOL    HW115899   1.716   2.059   6.641  0.1999  0.6530  0.0767
 1479SOL    HW215900   1.708   1.919   6.672  2.2359 -1.7334  0.1346
 1480SOL     OW15901   2.464   4.016  15.831  0.4352 -0.1287 -1.2260
 1480SOL    HW115902   2.447   4.110  15.831 -2.1231 -0.5971  1.3948
 1480SOL    HW215903   2.560   4.021  15.835  0.4851 -1.3227 -1.1535
 1481SOL     OW15904   2.693   3.463   3.720  0.1208 -0.4682  0.4398
 1481SOL    HW115905   2.667   3.552   3.698 -1.1948 -1.2748 -1.2561
 1481SOL    HW215906   2.771   3.445   3.667  0.8190  0.9350  1.0109
 1482SOL     OW15907   2.737   1.007   3.185  0.1906 -0.2057 -0.2699
 1482SOL    HW115908   2.647   1.038   3.183 -0.2012 -1.2995  0.4970
 1482SOL    HW215909   2.733   0.917   3.219  1.7348 -0.6334 -1.1930
 1483SOL     OW15910   2.577   1.309   7.139 -0.1352 -0.1084 -0.4451
 1483SOL    HW115911   2.550   1.392   7.100  0.3487 -0.0613 -0.6794
 1483SOL    HW215912   2.497   1.257   7.149 -0.5962  0.3716 -1.6960
 1484SOL     OW15913   2.475   4.203   5.508 -0.1814 -0.2243  0.3801
 1484SOL    HW115914   2.521   4.245   5.435 -0.1816  1.7162  1.4728
 1484SOL    HW215915   2.426   4.144   5.452  0.5456 -1.6329  1.2375
 1485SOL     OW15916   4.023   3.827   4.434 -0.3345  0.2083  0.1879
 1485SOL    HW115917   4.060   3.890   4.497 -0.7765  1.1492 -0.5050
 1485SOL    HW215918   4.097   3.767   4.425 -0.8858 -0.3979 -0.2187
 1486SOL     OW15919   0.506   0.545   2.795  0.0253  0.5289  0.1934
 1486SOL    HW115920   0.509   0.579   2.706  1.1214  0.4897  0.2257
 1486SOL    HW215921   0.433   0.486   2.777 -0.0740  0.3808  1.0733
 1487SOL     OW15922   2.692   3.309   7.051 -0.6536 -0.5477  0.2977
 1487SOL    HW115923   2.630   3.382   7.060  0.7316  0.6953 -0.1984
 1487SOL    HW215924   2.632   3.246   7.012  0.4435 -0.7723 -1.0258
 1488SOL     OW15925   4.277   1.929   0.801  0.1050  0.1066 -0.0398
 1488SOL    HW115926   4.203   1.977   0.838 -0.5652 -1.2495  0.3611
 1488SOL    HW215927   4.315   1.991   0.738 -0.4044 -1.0535 -1.4779
 1489SOL     OW15928   0.707   4.448   8.988 -0.3039 -1.2161 -0.5571
 1489SOL    HW115929   0.670   4.533   8.965  0.1571 -0.2901  2.0942
 1489SOL    HW215930   0.738   4.457   9.078  0.3310 -0.5935 -0.8375
 1490SOL     OW15931   0.814   2.343   5.860  0.0508  0.0398  0.3831
 1490SOL    HW115932   0.868   2.411   5.819 -0.4866  0.2351  0.0062
 1490SOL    HW215933   0.863   2.263   5.839  1.6658  1.3673 -0.9254
 1491SOL     OW15934   4.050   2.874   2.759 -0.2521  0.3272  0.1394
 1491SOL    HW115935   4.060   2.861   2.665 -0.5881  0.1348  0.1328
 1491SOL    HW215936   3.975   2.822   2.787 -0.1211  0.0179 -0.0837
 1492SOL     OW15937   0.808   1.042   4.336 -0.5935 -0.2065 -0.2371
 1492SOL    HW115938   0.762   1.011   4.258  0.2161  0.2342 -0.8922
 1492SOL    HW215939   0.859   0.964   4.361 -0.0110 -0.0320 -0.8617
 1493SOL     OW15940   3.546   1.392   4.460 -0.7266  0.3433 -0.2402
 1493SOL    HW115941   3.508   1.456   4.520 -1.0095 -1.8491  1.9344
 1493SOL    HW215942   3.471   1.367   4.406  0.0157 -0.6878 -0.7960
 1494SOL     OW15943   4.160   2.763   0.383 -0.4774 -0.3959  0.6717
 1494SOL    HW115944   4.206   2.696   0.332 -2.5068 -0.2136 -1.4402
 1494SOL    HW215945   4.107   2.700   0.432 -1.5025 -1.3561 -1.6460
 1495SOL     OW15946   3.113   1.456  14.047  0.7664 -0.3275  0.7702
 1495SOL    HW115947   3.126   1.373  14.001  1.9290 -0.8461  2.0282
 1495SOL    HW215948   3.052   1.489  13.981  1.2758 -0.6281  0.1551
 1496SOL     OW15949   3.301   2.706   0.012 -0.3144  0.2004  0.2166
 1496SOL    HW115950   3.218   2.746   0.034  1.0309  1.7665  2.5008
 1496SOL    HW215951   3.316   2.757  17.631 -0.9842  1.7023  1.0540
 1497SOL     OW15952   0.655   3.338   3.417  0.5690  0.7691  0.6963
 1497SOL    HW115953   0.576   3.306   3.460  0.7696 -1.2411 -0.4397
 1497SOL    HW215954   0.705   3.261   3.388  0.8001  0.9076  0.7284
 1498SOL     OW15955   0.894   1.800   2.756  0.1166 -0.0642 -0.3348
 1498SOL    HW115956   0.923   1.797   2.665  0.6499 -1.6505 -0.1017
 1498SOL    HW215957   0.881   1.894   2.767  0.1773 -0.0740 -0.1759
 1499SOL     OW15958   0.428   0.461  13.833  0.2516  0.3981 -0.0776
 1499SOL    HW115959   0.389   0.418  13.757  4.5603 -3.0035 -0.3223
 1499SOL    HW215960   0.377   0.542  13.825  3.3904  2.6222  2.2281
 1500SOL     OW15961   0.699   0.474   7.717 -0.1900 -0.5201  0.3977
 1500SOL    HW115962   0.663   0.435   7.796  0.8922  3.3166  2.8399
 1500SOL    HW215963   0.750   0.408   7.670  1.2538 -0.3009  1.6503
 1501SOL     OW15964   1.213   3.816   5.374 -0.1295 -0.1062 -0.3568
 1501SOL    HW115965   1.222   3.722   5.387 -0.4524 -0.0202  0.5008
 1501SOL    HW215966   1.195   3.827   5.281  1.0644 -2.0192 -0.8003
 1502SOL     OW15967   2.830   2.901   4.401  0.3581 -0.2218 -0.2269
 1502SOL    HW115968   2.814   2.920   4.309  1.4286 -0.0570 -0.3726
 1502SOL    HW215969   2.909   2.953   4.413  0.9848 -1.5327  1.3869
 1503SOL     OW15970   1.844   3.891  17.009  0.3543 -0.3772 -0.2454
 1503SOL    HW115971   1.799   3.923  17.087 -1.2015 -1.6806 -0.6147
 1503SOL    HW215972   1.849   3.973  16.960  2.1262  0.2935  1.0666
 1504SOL     OW15973   3.316   1.033   9.532  0.3412 -0.7381  0.2496
 1504SOL    HW115974   3.286   0.962   9.475 -1.3010 -0.4251  0.7175
 1504SOL    HW215975   3.244   1.032   9.596 -0.2411  0.7491 -0.3922
 1505SOL     OW15976   4.610   3.762  11.200  0.0024  0.3261 -0.4063
 1505SOL    HW115977   4.653   3.824  11.142  1.7183 -2.4169 -2.0594
 1505SOL    HW215978   4.579   3.822  11.268  0.0280  0.7846 -0.8080
 1506SOL     OW15979   0.306   2.464   5.955  1.3365  0.1739 -0.3990
 1506SOL    HW115980   0.231   2.518   5.979  2.2662  1.3756 -0.1983
 1506SOL    HW215981   0.327   2.429   6.042 -0.6965  2.1899  0.9127
 1507SOL     OW15982   3.773   3.232   3.758  0.5361  0.1203 -0.3138
 1507SOL    HW115983   3.803   3.155   3.710 -1.2516 -1.0052  0.3416
 1507SOL    HW215984   3.690   3.251   3.715  1.0860  1.8451 -0.5981
 1508SOL     OW15985   4.682   0.211   6.430  0.8123  0.4659 -0.0260
 1508SOL    HW115986   4.596   0.171   6.417  2.1394 -2.2184 -0.4862
 1508SOL    HW215987   4.689   0.218   6.525 -4.3522 -0.6712  0.4508
 1509SOL     OW15988   4.462   2.532   1.786 -0.3407  0.2319 -0.1316
 1509SOL    HW115989   4.550   2.514   1.752 -0.8746 -0.6912 -1.0349
 1509SOL    HW215990   4.444   2.618   1.748  1.9679 -0.3806 -2.6540
 1510SOL     OW15991   0.983   4.237  17.325 -0.3443 -0.1530  0.1200
 1510SOL    HW115992   1.022   4.238  17.412 -1.6586  3.3428  0.6513
 1510SOL    HW215993   1.029   4.308  17.282 -1.4995  0.3490 -0.2969
 1511SOL     OW15994   4.471   2.760   8.982 -1.0867  0.3399 -0.5374
 1511SOL    HW115995   4.496   2.786   9.071  1.0542  0.5126 -1.1870
 1511SOL    HW215996   4.388   2.720   9.006  0.0847 -1.6868  0.0971
 1512SOL     OW15997   0.181   0.046  12.648 -0.4456  0.1345  0.0415
 1512SOL    HW115998   0.200   0.062  12.740 -0.0288 -1.2777  0.1969
 1512SOL    HW215999   0.138   4.685  12.649 -2.1825  1.0307  1.6379
 1513SOL     OW16000   1.963   3.958   7.417 -0.1460  0.1616  0.2452
 1513SOL    HW116001   1.905   3.970   7.341 -1.4853  2.3302  1.6240
 1513SOL    HW216002   1.981   3.864   7.416 -0.7694  0.0331  2.5586
 1514SOL     OW16003   2.532   1.143   6.400  0.4585  0.0701  0.0112
 1514SOL    HW116004   2.556   1.196   6.477 -3.2757  2.5311 -0.5009
 1514SOL    HW216005   2.551   1.054   6.431  0.4857  0.1003  0.0814
 1515SOL     OW16006   1.811   0.380   3.023 -0.4205 -0.4748  0.1549
 1515SOL    HW116007   1.826   0.459   2.971 -1.8046 -0.7902 -0.7225
 1515SOL    HW216008   1.769   0.419   3.100  0.5135  2.5974 -0.8970
 1516SOL     OW16009   4.142   3.694   6.894  0.3123  0.4429 -0.0927
 1516SOL    HW116010   4.087   3.711   6.818  1.5468 -1.1142 -1.3541
 1516SOL    HW216011   4.149   3.599   6.887 -0.8315  0.2425  1.6359
 1517SOL     OW16012   0.529   1.486   5.567  0.1400  0.0694 -0.6950
 1517SOL    HW116013   0.459   1.440   5.522  0.0216  0.4445 -0.8911
 1517SOL    HW216014   0.480   1.547   5.621  0.2173 -2.0037  1.7387
 1518SOL     OW16015   1.423   0.116   7.755 -0.4538 -0.0626 -0.1114
 1518SOL    HW116016   1.403   0.200   7.714 -1.8768 -0.2798  0.1148
 1518SOL    HW216017   1.518   0.114   7.764 -0.4467  0.3318 -0.0934
 1519SOL     OW16018   4.121   4.171   9.538  0.2753 -0.2507 -0.4414
 1519SOL    HW116019   4.146   4.120   9.460  0.3979  1.4131 -1.4762
 1519SOL    HW216020   4.027   4.182   9.527 -0.0089 -0.0199  2.1649
 1520SOL     OW16021   0.342   0.254   7.640 -0.2279  0.2774  0.0272
 1520SOL    HW116022   0.302   0.304   7.569 -0.7394  0.4992  0.4785
 1520SOL    HW216023   0.432   0.244   7.607 -0.4448  0.7431 -0.6961
 1521SOL     OW16024   2.776   0.766   2.446  0.6890  0.8202  0.3473
 1521SOL    HW116025   2.731   0.682   2.436 -2.1473  2.5472 -1.5458
 1521SOL    HW216026   2.858   0.728   2.477  0.5835 -1.0770 -1.7328
 1522SOL     OW16027   1.743   0.207   9.941 -0.9195  0.1190 -0.5515
 1522SOL    HW116028   1.822   0.166   9.904  1.0260  4.1980 -0.8616
 1522SOL    HW216029   1.694   0.132   9.975  1.7464 -0.6989  1.4807
 1523SOL     OW16030   0.896   3.615   0.296 -0.3356  0.0866  0.7577
 1523SOL    HW116031   0.904   3.539   0.239  0.4783  0.0808  0.8767
 1523SOL    HW216032   0.984   3.600   0.332  1.0768  3.8675 -1.1000
 1524SOL     OW16033   2.824   1.760   0.015  0.0172 -0.0547 -0.2589
 1524SOL    HW116034   2.881   1.799   0.081 -2.1950  3.7396 -0.5466
 1524SOL    HW216035   2.814   1.673   0.053  3.5113 -0.8240 -1.1069
 1525SOL     OW16036   3.646   1.973   6.820  0.0221  0.0155 -0.4080
 1525SOL    HW116037   3.562   1.958   6.777 -0.3980  1.1498  0.0144
 1525SOL    HW216038   3.662   1.885   6.853 -0.1191 -0.1959 -0.9143
 1526SOL     OW16039   1.845   0.616   4.996 -0.4002  0.1767  0.1124
 1526SOL    HW116040   1.800   0.696   5.025 -0.1006 -0.5673  2.6441
 1526SOL    HW216041   1.821   0.618   4.903  0.3491  1.1886 -0.0619
 1527SOL     OW16042   4.445   4.087   8.305 -0.1774 -0.0519 -0.2273
 1527SOL    HW116043   4.452   3.992   8.303  1.7900  0.0142  2.8510
 1527SOL    HW216044   4.538   4.102   8.285 -0.4938  0.8619 -0.9669
 1528SOL     OW16045   2.392   2.188   5.220  0.0530 -1.0955 -0.2522
 1528SOL    HW116046   2.368   2.271   5.179  0.6348 -0.7413  0.1111
 1528SOL    HW216047   2.371   2.120   5.156  1.7820  0.0370 -2.0384
 1529SOL     OW16048   1.584   1.204   7.871 -0.0164  0.0214 -0.6271
 1529SOL    HW116049   1.544   1.200   7.958  3.4846 -1.4768  0.9162
 1529SOL    HW216050   1.666   1.250   7.890  0.7384 -2.4006  2.0117
 1530SOL     OW16051   2.129   0.634   2.492 -0.2889  0.6591  0.6321
 1530SOL    HW116052   2.180   0.581   2.553 -1.0592 -1.5466 -0.6265
 1530SOL    HW216053   2.199   0.689   2.459 -1.3399 -0.1649 -2.9880
 1531SOL     OW16054   4.041   0.761   8.634  0.4682  0.0622 -0.3635
 1531SOL    HW116055   4.046   0.806   8.550  0.0559  1.7019  0.4966
 1531SOL    HW216056   4.132   0.735   8.650  0.0017 -1.8343 -0.7124
 1532SOL     OW16057   2.018   3.811   7.983  0.5711 -0.0753 -0.2869
 1532SOL    HW116058   1.993   3.720   7.996 -0.9644  0.3819 -0.0066
 1532SOL    HW216059   1.995   3.851   8.067 -1.1321 -0.8308 -0.3885
 1533SOL     OW16060   4.008   2.403   2.384  0.1882  0.1692  0.2920
 1533SOL    HW116061   4.059   2.431   2.460  1.1393  0.0995 -0.3351
 1533SOL    HW216062   3.982   2.316   2.414 -1.3060  0.3055 -0.5710
 1534SOL     OW16063   3.316   1.218  16.406  0.0321  0.1976  0.2922
 1534SOL    HW116064   3.276   1.214  16.493  2.4285 -0.6085  1.3734
 1534SOL    HW216065   3.263   1.293  16.379 -1.0606 -0.5139  0.4536
 1535SOL     OW16066   0.856   2.023  12.208  0.6847  0.1876 -0.1391
 1535SOL    HW116067   0.886   2.039  12.297  1.2925  1.2070 -0.5344
 1535SOL    HW216068   0.777   2.078  12.199  1.2182  1.0491  0.4100
 1536SOL     OW16069   0.654   2.022   4.784 -0.0733 -0.3396  0.1220
 1536SOL    HW116070   0.742   2.059   4.794 -0.0118 -0.1155 -1.1801
 1536SOL    HW216071   0.675   1.973   4.704 -0.4146  2.1036 -1.4488
 1537SOL     OW16072   0.528   4.695   6.632  0.0653  0.0531 -0.1558
 1537SOL    HW116073   0.511   4.604   6.654 -0.1087  0.2470  0.5264
 1537SOL    HW216074   0.595   4.680   6.566  0.2361  0.5450 -0.0972
 1538SOL     OW16075   3.589   2.556   5.646  0.2943  0.5160 -0.0742
 1538SOL    HW116076   3.675   2.590   5.670  0.1236 -1.9966  4.0148
 1538SOL    HW216077   3.603   2.466   5.676 -0.9663  0.0364 -0.9596
 1539SOL     OW16078   0.697   3.977   6.699 -0.0891 -0.7228 -0.3575
 1539SOL    HW116079   0.788   3.994   6.726 -0.2600  0.5413 -0.6207
 1539SOL    HW216080   0.679   4.060   6.655 -0.0306 -0.4171  0.1993
 1540SOL     OW16081   2.802   1.527   0.226 -0.4070 -0.7370 -0.3125
 1540SOL    HW116082   2.794   1.466   0.299  1.3676 -0.9565 -0.2989
 1540SOL    HW216083   2.882   1.578   0.242 -1.0689  0.7185 -1.6709
 1541SOL     OW16084   0.394   0.782   4.293 -0.2965 -0.3285  0.3291
 1541SOL    HW116085   0.392   0.876   4.279 -1.0341 -0.7008 -2.0610
 1541SOL    HW216086   0.301   0.757   4.296 -0.4631  0.1590 -0.9424
 1542SOL     OW16087   2.922   1.635  15.531  0.6731  0.1421  0.1113
 1542SOL    HW116088   2.974   1.599  15.602  0.3638  1.9080  1.2313
 1542SOL    HW216089   2.850   1.662  15.588  1.0054 -0.2691  0.7191
 1543SOL     OW16090   3.684   2.504   1.569  0.0965 -0.4499 -0.3440
 1543SOL    HW116091   3.732   2.584   1.551 -2.6173  1.0059 -1.0278
 1543SOL    HW216092   3.690   2.446   1.493  3.7174 -1.2476  0.5356
 1544SOL     OW16093   3.552   4.463   9.738  0.2292 -0.2969 -0.3273
 1544SOL    HW116094   3.476   4.418   9.701  0.0349 -0.3306  0.1150
 1544SOL    HW216095   3.517   4.552   9.742 -0.7416 -0.5970 -1.9955
 1545SOL     OW16096   0.796   1.319  10.492  0.2147  0.1691 -0.1677
 1545SOL    HW116097   0.738   1.371  10.436  0.9161  0.1247 -0.9385
 1545SOL    HW216098   0.736   1.303  10.565  0.7238 -0.2737  0.1495
 1546SOL     OW16099   4.243   3.831  11.648  0.4139  0.7355 -0.0239
 1546SOL    HW116100   4.259   3.897  11.580 -3.1332  2.8346  1.1911
 1546SOL    HW216101   4.324   3.783  11.629  0.2340  0.2809  0.3609
 1547SOL     OW16102   1.414   2.197  15.919  0.2706  0.1277 -0.1541
 1547SOL    HW116103   1.373   2.281  15.939 -0.7533 -0.6921  1.1700
 1547SOL    HW216104   1.337   2.140  15.918  0.7500 -0.5117 -1.0345
 1548SOL     OW16105   0.130   1.469   7.905 -0.5431 -0.0919 -0.0580
 1548SOL    HW116106   0.108   1.524   7.830  2.8278 -1.0412 -1.7292
 1548SOL    HW216107   0.142   1.532   7.976  1.7233 -0.2556 -0.2998
 1549SOL     OW16108   1.466   0.617   3.046 -0.4338  0.0306  0.4469
 1549SOL    HW116109   1.402   0.688   3.056  0.1821  0.6585 -0.0767
 1549SOL    HW216110   1.464   0.603   2.952  2.6325 -0.0146  0.4016
 1550SOL     OW16111   2.473   1.943  12.891  0.6312 -0.4758 -0.4153
 1550SOL    HW116112   2.398   1.984  12.934  2.9549  1.0664  2.1378
 1550SOL    HW216113   2.485   2.013  12.827  1.3883 -0.8305 -0.6538
 1551SOL     OW16114   2.317   2.635   5.093 -0.2026  0.4125 -0.1549
 1551SOL    HW116115   2.404   2.599   5.076 -0.5219  0.3886 -1.6795
 1551SOL    HW216116   2.321   2.722   5.053 -0.5082  0.9366  0.9390
 1552SOL     OW16117   3.525   3.291   1.379 -0.0832 -0.1046  0.2305
 1552SOL    HW116118   3.570   3.206   1.372  1.5227  0.7510  0.0358
 1552SOL    HW216119   3.450   3.268   1.433 -0.7085  0.3788 -0.4347
 1553SOL     OW16120   3.489   3.188   7.622 -0.1266  0.0898  0.3679
 1553SOL    HW116121   3.581   3.214   7.629 -0.8092  1.7545  3.0448
 1553SOL    HW216122   3.495   3.102   7.581  0.9828 -1.4254  3.7436
 1554SOL     OW16123   3.164   4.252   0.908 -0.1376  0.1818  0.4792
 1554SOL    HW116124   3.135   4.298   0.987 -1.1331 -1.8826  1.3351
 1554SOL    HW216125   3.218   4.179   0.939 -0.2451  0.2785  0.8957
 1555SOL     OW16126   0.967   4.584  17.022  0.4862  0.3994 -0.3237
 1555SOL    HW116127   0.913   4.573  16.944 -0.4256  0.2832  0.3308
 1555SOL    HW216128   1.054   4.596  16.984  0.0873 -0.9144 -1.6651
 1556SOL     OW16129   0.130   0.936   3.613 -0.0165 -0.2388 -0.4039
 1556SOL    HW116130   0.141   0.937   3.708 -2.0525 -2.1170 -0.1546
 1556SOL    HW216131   0.041   0.902   3.603  0.1611 -1.0659  0.9449
 1557SOL     OW16132   2.209   4.674   9.813  0.0566  0.2970  0.1686
 1557SOL    HW116133   2.252   4.672   9.898  1.6901  1.8514 -0.6181
 1557SOL    HW216134   2.121   4.709   9.829  0.5045  1.5265 -0.0781
 1558SOL     OW16135   1.811   1.419   0.301 -0.9251  0.1141  0.1641
 1558SOL    HW116136   1.894   1.372   0.306 -1.1693 -0.6552 -2.6873
 1558SOL    HW216137   1.813   1.474   0.379 -0.0149 -0.2161  0.3720
 1559SOL     OW16138   2.838   3.994   8.135 -0.1210  0.4999 -0.1105
 1559SOL    HW116139   2.921   4.026   8.170 -0.0571 -1.2819  1.3680
 1559SOL    HW216140   2.867   3.950   8.056 -1.2099 -0.6518  0.1347
 1560SOL     OW16141   3.634   2.765   7.614 -0.0878  0.9277  0.5767
 1560SOL    HW116142   3.705   2.765   7.549 -0.3232  0.6879  0.3194
 1560SOL    HW216143   3.576   2.832   7.579  0.5817  0.2003 -1.9679
 1561SOL     OW16144   1.468   3.465   2.334 -0.1233  0.2565 -0.5651
 1561SOL    HW116145   1.419   3.463   2.416 -1.4665  1.4074 -1.3324
 1561SOL    HW216146   1.436   3.384   2.295  1.2412 -0.3062 -0.5087
 1562SOL     OW16147   2.244   2.071   6.977 -0.1811 -0.6331 -0.4366
 1562SOL    HW116148   2.292   2.056   6.896 -0.5719 -0.4632 -0.6963
 1562SOL    HW216149   2.315   2.122   7.017 -0.7451 -0.3464  0.2039
 1563SOL     OW16150   0.794   0.954   0.376  0.2490  0.2411 -0.4320
 1563SOL    HW116151   0.765   0.969   0.466 -0.5451  1.7552 -0.9501
 1563SOL    HW216152   0.709   0.959   0.332 -0.6385  1.8351  1.4480
 1564SOL     OW16153   4.271   0.858   3.062 -0.2630 -0.7535 -0.0755
 1564SOL    HW116154   4.186   0.899   3.082 -1.0556 -2.1829 -0.4814
 1564SOL    HW216155   4.298   0.882   2.973 -0.8733 -1.3093 -0.4194
 1565SOL     OW16156   1.934   4.087   7.655  0.0950  0.0514  0.1841
 1565SOL    HW116157   1.941   4.050   7.567  0.8481 -0.3554  0.4115
 1565SOL    HW216158   1.855   4.039   7.680  0.7530  0.0619  2.2668
 1566SOL     OW16159   4.563   0.313   5.391  0.8205 -0.1671 -0.0464
 1566SOL    HW116160   4.658   0.305   5.392  0.8894  0.8877  1.3666
 1566SOL    HW216161   4.545   0.257   5.316  0.7675 -0.8806  0.5073
 1567SOL     OW16162   0.340   0.873   5.366 -0.6232  0.0772 -0.1049
 1567SOL    HW116163   0.431   0.853   5.342 -0.9417 -0.4289 -0.8664
 1567SOL    HW216164   0.312   0.910   5.283 -3.5066 -1.6020  0.1132
 1568SOL     OW16165   3.307   0.303  13.973  0.1343 -0.4656 -0.7735
 1568SOL    HW116166   3.257   0.233  13.931 -2.1552  1.1837 -0.7575
 1568SOL    HW216167   3.312   0.269  14.062  2.5418 -1.4502 -1.2935
 1569SOL     OW16168   3.988   0.328   7.869  0.5254  0.3163  0.5018
 1569SOL    HW116169   4.037   0.319   7.787 -1.1102  1.2910 -0.5794
 1569SOL    HW216170   4.052   0.362   7.932  0.3719 -0.0280  0.8387
 1570SOL     OW16171   4.474   2.790   3.714 -0.2093  0.5919 -0.1069
 1570SOL    HW116172   4.499   2.843   3.789 -0.8119  2.4965 -1.2351
 1570SOL    HW216173   4.484   2.849   3.639  0.6950 -0.3555 -0.7182
 1571SOL     OW16174   4.704   1.510   8.523  0.2535 -0.2272  0.3603
 1571SOL    HW116175   0.063   1.466   8.509 -0.2847 -0.3932 -2.2865
 1571SOL    HW216176   0.005   1.602   8.511 -1.7572  0.2142 -0.5069
 1572SOL     OW16177   4.007   2.403   5.084  0.6760 -0.1915 -0.1952
 1572SOL    HW116178   4.006   2.470   5.153 -1.9758 -0.0504 -0.3640
 1572SOL    HW216179   3.956   2.336   5.130 -2.0889  1.9740 -0.1178
 1573SOL     OW16180   2.298   1.144   3.789 -0.9582  0.1768  0.2988
 1573SOL    HW116181   2.360   1.172   3.856  0.8768  2.5557 -2.4233
 1573SOL    HW216182   2.314   1.212   3.725  1.3956  0.7998  1.5346
 1574SOL     OW16183   3.501   3.571  13.403  0.0116 -0.1905  0.4235
 1574SOL    HW116184   3.514   3.591  13.310 -3.7069  1.4979  0.2658
 1574SOL    HW216185   3.578   3.618  13.437  1.9219 -2.8091 -0.2931
 1575SOL     OW16186   2.540   2.722   4.640 -0.4705 -0.6992  0.2429
 1575SOL    HW116187   2.456   2.768   4.631 -2.0724 -3.5219  0.6931
 1575SOL    HW216188   2.605   2.792   4.635 -2.2222  1.0524  1.9381
 1576SOL     OW16189   4.469   2.489  15.728  0.0976  0.6456  0.2133
 1576SOL    HW116190   4.469   2.557  15.796 -2.3621  0.1365  0.6975
 1576SOL    HW216191   4.491   2.545  15.653 -0.2106  2.5482  1.5338
 1577SOL     OW16192   4.502   2.508   9.432  0.1585  0.1524  0.3669
 1577SOL    HW116193   4.474   2.600   9.434 -1.7216 -0.4288  0.9002
 1577SOL    HW216194   4.547   2.490   9.514  0.9082 -0.9425 -0.2886
 1578SOL     OW16195   2.206   3.175   3.213  0.5737 -0.1756 -0.1397
 1578SOL    HW116196   2.184   3.123   3.136  0.3922 -2.1474  1.2501
 1578SOL    HW216197   2.257   3.112   3.264  1.1126  0.4246  0.0735
 1579SOL     OW16198   2.996   3.267   2.011 -0.1773  0.0139  0.1251
 1579SOL    HW116199   3.034   3.312   1.936 -0.7715 -0.5525 -0.5226
 1579SOL    HW216200   2.963   3.188   1.967 -0.7616 -0.1344  0.8291
 1580SOL     OW16201   3.508   4.181   6.032  0.3335  0.0300  0.7674
 1580SOL    HW116202   3.580   4.158   6.090  1.2848 -0.7289 -0.7038
 1580SOL    HW216203   3.530   4.272   6.009  0.8940 -0.0190  1.1164
 1581SOL     OW16204   1.689   0.307   9.354 -0.3601  0.0677  0.0178
 1581SOL    HW116205   1.776   0.269   9.351 -0.4460 -0.2129  0.9830
 1581SOL    HW216206   1.640   0.234   9.394  0.2933 -0.6224 -0.4373
 1582SOL     OW16207   2.988   2.960   0.676 -0.2711  0.4544  0.2538
 1582SOL    HW116208   2.931   2.928   0.746  0.4585  1.7854  1.4814
 1582SOL    HW216209   3.070   2.916   0.699  0.3451  2.1375  1.3004
 1583SOL     OW16210   3.536   4.303   7.756  0.0280 -0.2256 -0.0615
 1583SOL    HW116211   3.577   4.231   7.708 -0.7652  0.5130 -1.8481
 1583SOL    HW216212   3.569   4.279   7.842  0.1298  1.9878  0.5300
 1584SOL     OW16213   2.801   1.393   8.334  0.0399 -0.2329 -0.0285
 1584SOL    HW116214   2.840   1.313   8.368 -1.7833 -1.3244 -0.4910
 1584SOL    HW216215   2.740   1.414   8.405 -0.0541  1.5459 -0.6220
 1585SOL     OW16216   2.315   1.382  15.148  0.5380 -0.5440 -0.1205
 1585SOL    HW116217   2.396   1.346  15.184 -0.5979 -1.1321  1.8516
 1585SOL    HW216218   2.350   1.409  15.063 -1.1491 -0.9251 -0.9403
 1586SOL     OW16219   3.142   2.864   6.350 -0.5653  0.5052  0.2529
 1586SOL    HW116220   3.085   2.821   6.286 -0.1153  0.5183 -0.1563
 1586SOL    HW216221   3.167   2.947   6.311 -0.3297  0.4342  0.2521
 1587SOL     OW16222   1.834   4.522   7.339 -0.7668 -0.6112  0.1785
 1587SOL    HW116223   1.869   4.465   7.408  1.3423  0.4790  0.0179
 1587SOL    HW216224   1.916   4.565   7.314 -0.1737 -0.4888  2.3250
 1588SOL     OW16225   1.036   3.379   7.714  0.1467 -0.0442 -0.4017
 1588SOL    HW116226   1.028   3.345   7.803 -0.0429 -1.0880 -0.8203
 1588SOL    HW216227   1.115   3.331   7.689 -0.9449 -1.1630 -1.7133
 1589SOL     OW16228   0.107   0.380  10.550  0.1072  0.0224  0.3151
 1589SOL    HW116229   0.093   0.355  10.459  0.0416  3.5076 -0.6185
 1589SOL    HW216230   0.055   0.460  10.549 -3.6671 -2.4135  2.1898
 1590SOL     OW16231   2.808   1.077   8.356 -0.3372 -0.6078 -0.3147
 1590SOL    HW116232   2.863   1.001   8.376  0.2147  0.1644  1.0395
 1590SOL    HW216233   2.822   1.091   8.262 -0.4135  0.0757 -0.2198
 1591SOL     OW16234   0.176   2.175  12.459 -0.4923  0.1373  0.0660
 1591SOL    HW116235   0.213   2.096  12.420  1.0878  0.7606  0.3139
 1591SOL    HW216236   0.172   2.238  12.387 -1.9677 -0.7257 -0.5996
 1592SOL     OW16237   1.947   3.977   5.704 -0.2168  0.0012  0.7331
 1592SOL    HW116238   1.856   4.006   5.707  0.3396  1.9811 -1.7205
 1592SOL    HW216239   1.996   4.059   5.710  0.4844 -0.3406 -0.2641
 1593SOL     OW16240   0.419   3.184   0.100  0.4614 -0.3283  0.5246
 1593SOL    HW116241   0.422   3.277   0.125  0.5419 -0.1151 -0.2984
 1593SOL    HW216242   0.395   3.192   0.008 -1.2768 -4.0132  0.6768
 1594SOL     OW16243   2.055   3.711   1.896 -0.2059  0.1093 -0.3002
 1594SOL    HW116244   2.142   3.675   1.877 -0.2244  0.1062 -0.3800
 1594SOL    HW216245   2.071   3.769   1.970  0.4779 -2.3123  1.4509
 1595SOL     OW16246   3.994   3.048   6.874  0.3248 -0.0964  0.1613
 1595SOL    HW116247   3.926   3.087   6.928  2.9342  2.0211  1.9170
 1595SOL    HW216248   3.976   2.957   6.900  0.4343 -0.1407  0.0869
 1596SOL     OW16249   0.585   4.427   6.729 -0.9075  0.2202  0.2052
 1596SOL    HW116250   0.617   4.350   6.682  0.1154 -0.3114  1.7606
 1596SOL    HW216251   0.669   4.460   6.762  0.0633 -0.5842 -1.4408
 1597SOL     OW16252   3.151   1.965   0.735  0.4696 -0.2278 -0.2878
 1597SOL    HW116253   3.096   1.999   0.664 -0.2365  1.0191  0.8538
 1597SOL    HW216254   3.168   2.045   0.784 -0.4104 -0.4317  0.3569
 1598SOL     OW16255   1.579   1.776   9.612 -0.1875  0.2452 -0.2056
 1598SOL    HW116256   1.514   1.707   9.604  1.1881 -1.1732  0.8393
 1598SOL    HW216257   1.535   1.845   9.661 -0.6098 -0.7667  0.8421
 1599SOL     OW16258   0.601   2.894   0.841 -0.3997 -0.1964  0.6817
 1599SOL    HW116259   0.693   2.884   0.867 -0.1087 -1.9394 -0.9854
 1599SOL    HW216260   0.593   2.812   0.792  1.9372  0.5929 -1.0196
 1600SOL     OW16261   3.801   3.413  12.625  1.1349 -0.5629 -0.4696
 1600SOL    HW116262   3.830   3.372  12.543  1.7228  0.4865 -0.7921
 1600SOL    HW216263   3.806   3.340  12.686  0.5284 -1.5803 -1.6198
 1601SOL     OW16264   1.245   0.881   6.361  0.2858 -0.0679  1.0411
 1601SOL    HW116265   1.296   0.927   6.295 -0.0873 -2.9949 -1.3300
 1601SOL    HW216266   1.212   0.808   6.308  1.8346  1.1580 -1.6170
 1602SOL     OW16267   0.298   0.664  10.596 -0.1415 -0.4448 -0.1809
 1602SOL    HW116268   0.253   0.586  10.564 -3.0953  1.5126 -0.6840
 1602SOL    HW216269   0.351   0.617  10.661  0.8270  1.4888  0.4417
 1603SOL     OW16270   0.184   2.085   3.967 -0.1319 -0.1453  0.2649
 1603SOL    HW116271   0.244   2.141   3.919  1.9526 -1.7700  0.9808
 1603SOL    HW216272   0.113   2.073   3.904  0.1265  0.4536 -0.1381
 1604SOL     OW16273   2.633   3.099  14.833  0.8045  0.2049  0.1284
 1604SOL    HW116274   2.622   3.110  14.738 -1.1717 -1.0851  0.2038
 1604SOL    HW216275   2.547   3.071  14.863  0.8000 -0.1234 -0.1963
 1605SOL     OW16276   3.314   2.619   7.883 -0.2596  0.0137 -0.6404
 1605SOL    HW116277   3.308   2.562   7.960 -0.2622  0.1384 -0.5479
 1605SOL    HW216278   3.283   2.559   7.815 -1.0530  0.9085 -1.0667
 1606SOL     OW16279   1.673   4.613   6.497  0.3754  0.3138  0.1728
 1606SOL    HW116280   1.700   4.592   6.407 -1.1962 -0.8964 -0.0187
 1606SOL    HW216281   1.684   4.708   6.500  1.1614  0.2219  0.2710
 1607SOL     OW16282   1.013   3.168  17.167  0.2297 -0.7472  0.0649
 1607SOL    HW116283   0.927   3.140  17.199 -0.2288  0.1852 -0.3562
 1607SOL    HW216284   1.030   3.099  17.103  0.4764 -0.3213 -0.3264
 1608SOL     OW16285   2.639   0.569  15.995 -0.4322  0.0050 -0.8644
 1608SOL    HW116286   2.679   0.634  16.053  1.5203 -2.5600  0.6579
 1608SOL    HW216287   2.686   0.488  16.013  0.4888  1.0429  1.3945
 1609SOL     OW16288   2.573   1.862   6.425 -0.2044  0.0770  0.0251
 1609SOL    HW116289   2.654   1.910   6.409  0.1848 -0.3382  0.7333
 1609SOL    HW216290   2.569   1.871   6.520  0.2503 -2.8960  0.3309
 1610SOL     OW16291   3.599   0.847   3.123 -0.2599 -0.2760  0.4451
 1610SOL    HW116292   3.680   0.804   3.096  0.7326  0.8317  1.6649
 1610SOL    HW216293   3.547   0.854   3.043  1.9581  0.5091 -0.9302
 1611SOL     OW16294   4.599   1.056   8.120  0.4705  0.0729  0.1518
 1611SOL    HW116295   4.662   1.003   8.169 -0.8175  0.0216  1.7495
 1611SOL    HW216296   4.657   1.117   8.075  1.8528  0.2412  2.1440
 1612SOL     OW16297   0.865   3.487   5.353  0.0786  0.2521  0.2323
 1612SOL    HW116298   0.890   3.566   5.304  0.5170  1.0936  1.8212
 1612SOL    HW216299   0.878   3.421   5.285  0.8123  0.6742 -0.0432
 1613SOL     OW16300   0.965   4.667   9.000 -0.1773  0.6707 -0.1427
 1613SOL    HW116301   0.928   4.635   9.082 -2.1032  1.4474 -0.7271
 1613SOL    HW216302   0.887   4.678   8.946 -0.6254  0.6320  0.4947
 1614SOL     OW16303   0.938   4.711   2.766  0.4847  0.3537 -0.6372
 1614SOL    HW116304   0.961   0.027   2.849 -2.2390 -2.6044  1.5346
 1614SOL    HW216305   0.924   4.620   2.791  1.4188  0.0945 -1.0649
 1615SOL     OW16306   1.100   3.094   3.114 -0.2537  0.2225 -0.0138
 1615SOL    HW116307   1.191   3.104   3.145 -0.2472  0.2057 -0.0275
 1615SOL    HW216308   1.062   3.038   3.182  0.0643 -1.3209 -1.0929
 1616SOL     OW16309   3.658   0.794   1.756  0.7194  0.1788 -0.2812
 1616SOL    HW116310   3.647   0.713   1.706 -1.2394  0.2679  0.0283
 1616SOL    HW216311   3.740   0.770   1.799  0.8226  2.9877  1.0855
 1617SOL     OW16312   3.531   2.867   6.360 -0.6013 -0.3736  0.1903
 1617SOL    HW116313   3.461   2.932   6.361  0.5266  0.8506  0.3503
 1617SOL    HW216314   3.590   2.922   6.412 -0.3244 -0.8154  0.3434
 1618SOL     OW16315   3.973   1.190   4.529 -0.4160 -0.4585  0.2376
 1618SOL    HW116316   4.052   1.174   4.580 -0.5461 -1.2457  0.2047
 1618SOL    HW216317   4.003   1.231   4.448 -0.8301 -0.2346  0.1983
 1619SOL     OW16318   2.973   1.848   2.965  0.1951 -0.5982 -0.3398
 1619SOL    HW116319   2.891   1.845   2.917 -0.1984  0.1784  0.2938
 1619SOL    HW216320   3.010   1.766   2.932  1.9163 -0.4482  1.1644
 1620SOL     OW16321   1.161   0.003  16.347  1.3468  0.2836 -0.1201
 1620SOL    HW116322   1.162   0.097  16.365 -1.6254 -0.0560  1.9041
 1620SOL    HW216323   1.253   4.706  16.359  1.4382  0.9355  0.3257
 1621SOL     OW16324   3.399   3.259   6.692 -0.0386  0.3876 -0.0027
 1621SOL    HW116325   3.485   3.301   6.691 -0.5649  1.4012 -1.5385
 1621SOL    HW216326   3.351   3.312   6.756 -1.2259 -0.2991 -0.3173
 1622SOL     OW16327   3.994   3.265   2.481  0.0076 -0.0662  0.8737
 1622SOL    HW116328   4.084   3.297   2.480 -0.1634  0.4231  1.2409
 1622SOL    HW216329   3.996   3.214   2.400 -2.0021 -1.0846  1.4529
 1623SOL     OW16330   4.649   0.072   1.245  0.1562 -0.6888 -0.6747
 1623SOL    HW116331   4.571   0.023   1.269  1.4333 -2.7282 -0.6533
 1623SOL    HW216332   4.678   0.116   1.325  1.0228 -0.4294 -1.1261
 1624SOL     OW16333   3.672   4.419   2.843  0.2389  0.4336  0.0876
 1624SOL    HW116334   3.706   4.485   2.783  2.3864 -1.0959 -0.4004
 1624SOL    HW216335   3.626   4.477   2.904  0.6960 -0.0128  0.8686
 1625SOL     OW16336   4.548   4.493  13.380  0.0493 -0.1556 -0.1550
 1625SOL    HW116337   4.547   4.585  13.408 -0.1821  0.5316 -2.4570
 1625SOL    HW216338   4.583   4.504  13.292  1.6689 -0.3114  0.4626
 1626SOL     OW16339   1.571   4.655   6.737  0.1772  0.4744 -0.1435
 1626SOL    HW116340   1.630   4.638   6.663 -0.0928  1.5294 -0.5990
 1626SOL    HW216341   1.552   4.564   6.763 -1.5253  1.0450  0.6191
 1627SOL     OW16342   2.701   1.756  15.166 -0.6910 -0.4289  0.1527
 1627SOL    HW116343   2.735   1.677  15.208 -1.2282 -0.7495 -0.0197
 1627SOL    HW216344   2.687   1.815  15.240  0.6622  0.8185 -0.5683
 1628SOL     OW16345   1.258   3.640  14.066  0.5642 -0.1786  0.2684
 1628SOL    HW116346   1.234   3.604  13.981 -1.6492  1.9856 -0.0316
 1628SOL    HW216347   1.213   3.724  14.062 -0.9936 -0.9593  1.3342
 1629SOL     OW16348   0.170   4.509   8.113 -0.3025  0.5559 -0.3157
 1629SOL    HW116349   0.253   4.483   8.074 -0.2452  0.9402 -0.4518
 1629SOL    HW216350   0.169   4.599   8.081  1.3941  0.9868  0.8945
 1630SOL     OW16351   3.072   0.789   2.956  0.0694  0.1599 -0.4122
 1630SOL    HW116352   3.034   0.760   2.873 -1.6778  0.2427  0.3568
 1630SOL    HW216353   3.072   0.707   3.006  1.8132  2.0373  2.6814
 1631SOL     OW16354   2.601   1.992   7.270 -0.0163 -0.1053  0.3980
 1631SOL    HW116355   2.695   1.978   7.281 -0.2224 -2.2187 -0.6526
 1631SOL    HW216356   2.565   1.904   7.272 -0.6585  0.1527  0.3257
 1632SOL     OW16357   4.555   3.265  17.504  0.2631 -0.3318  0.5252
 1632SOL    HW116358   4.566   3.171  17.511 -2.5567 -0.6683  0.5063
 1632SOL    HW216359   4.473   3.278  17.552 -0.4888 -0.0240 -0.8440
 1633SOL     OW16360   4.092   1.652   7.194  0.4193  0.0460  0.3840
 1633SOL    HW116361   4.113   1.707   7.269 -0.1604  1.6778 -0.6410
 1633SOL    HW216362   4.164   1.590   7.201 -1.1354 -1.9688 -1.2070
 1634SOL     OW16363   0.735   0.785   5.572 -0.3403 -0.7717  0.0613
 1634SOL    HW116364   0.716   0.720   5.640 -1.1809 -0.8533 -0.2541
 1634SOL    HW216365   0.823   0.811   5.598 -0.1797 -0.4466 -0.8111
 1635SOL     OW16366   0.943   4.073  12.707  0.3414 -0.3826  0.4124
 1635SOL    HW116367   0.960   3.983  12.733  0.8180 -0.6440 -0.7860
 1635SOL    HW216368   0.948   4.116  12.793  1.1615  2.3847 -1.0135
 1636SOL     OW16369   4.661   4.377   2.668  0.3944 -0.1068 -0.3253
 1636SOL    HW116370   4.677   4.341   2.755 -1.3673 -1.2515 -0.5024
 1636SOL    HW216371   4.636   4.465   2.696  1.1300  0.2633 -0.8102
 1637SOL     OW16372   4.335   3.778   2.688  0.1909  0.4256  0.2841
 1637SOL    HW116373   4.403   3.764   2.621  1.4886  0.1013  1.6612
 1637SOL    HW216374   4.298   3.690   2.696  0.9232 -0.0832 -1.9186
 1638SOL     OW16375   0.791   0.960   3.573 -0.1437 -0.9342 -0.0530
 1638SOL    HW116376   0.820   0.953   3.664  0.2329  0.4826 -0.0580
 1638SOL    HW216377   0.872   0.927   3.534  0.4924  0.7647 -0.1784
 1639SOL     OW16378   0.309   3.343   2.248  0.5087 -0.0709 -0.3425
 1639SOL    HW116379   0.259   3.420   2.275 -0.4427 -0.6765 -0.3850
 1639SOL    HW216380   0.389   3.375   2.290 -0.5615 -0.7711  2.2415
 1640SOL     OW16381   2.961   3.107   3.675  0.2576 -0.4603  0.0015
 1640SOL    HW116382   2.948   3.097   3.581  1.3055 -0.5959 -0.1218
 1640SOL    HW216383   3.049   3.072   3.687 -0.6289 -2.3928  0.8348
 1641SOL     OW16384   0.820   2.050  11.797  0.1838 -0.6423  0.1942
 1641SOL    HW116385   0.757   1.983  11.773 -0.6653 -0.5995  2.2741
 1641SOL    HW216386   0.774   2.119  11.846  1.4232  0.3362 -0.0200
 1642SOL     OW16387   2.190   0.491   4.215  0.3526  0.1907 -0.2980
 1642SOL    HW116388   2.112   0.517   4.264 -0.0546  0.9261 -1.3219
 1642SOL    HW216389   2.158   0.420   4.158  1.2291 -2.4705  2.5360
 1643SOL     OW16390   2.167   0.470   7.982  0.2198  0.1237 -0.0113
 1643SOL    HW116391   2.204   0.551   8.017 -1.5939  1.0111 -0.1589
 1643SOL    HW216392   2.202   0.406   8.043  0.6903  1.1140  0.7591
 1644SOL     OW16393   1.765   1.578  16.249 -0.4783  0.0441  0.3230
 1644SOL    HW116394   1.767   1.571  16.154  0.2960 -0.9088  0.4085
 1644SOL    HW216395   1.670   1.589  16.254 -0.7222 -2.3232  1.1337
 1645SOL     OW16396   1.316   3.955  14.165 -0.3993 -0.1364 -0.8697
 1645SOL    HW116397   1.309   4.050  14.167  0.5342 -0.0895  0.2836
 1645SOL    HW216398   1.232   3.930  14.126  0.3566 -3.0704 -0.6328
 1646SOL     OW16399   4.719   1.670   3.019  0.3272  0.2911 -0.7632
 1646SOL    HW116400   4.657   1.625   3.077  1.1229 -1.2108 -1.0797
 1646SOL    HW216401   0.065   1.605   3.029  1.3113  1.2826 -1.2694
 1647SOL     OW16402   2.739   3.654   2.333  0.4842  0.2497 -0.0823
 1647SOL    HW116403   2.718   3.591   2.265 -0.5894  1.0385 -0.4984
 1647SOL    HW216404   2.740   3.739   2.289 -1.6994 -0.8485 -2.2783
 1648SOL     OW16405   2.011   3.340   6.085 -0.0023 -0.3293  0.0978
 1648SOL    HW116406   2.006   3.435   6.087  2.3200 -0.1958 -0.3524
 1648SOL    HW216407   2.036   3.324   6.176  0.1118 -1.9770 -0.2203
 1649SOL     OW16408   3.299   4.495  12.366  0.3137  0.1578 -0.1818
 1649SOL    HW116409   3.205   4.509  12.354  0.9054  2.2659 -2.1193
 1649SOL    HW216410   3.321   4.558  12.435 -1.0752  1.3903 -0.8734
 1650SOL     OW16411   4.406   3.005  16.041 -0.3443 -0.6323  0.5163
 1650SOL    HW116412   4.454   3.086  16.061 -0.3833 -0.7782  1.2006
 1650SOL    HW216413   4.323   3.022  16.085 -1.0006  1.4972 -1.5196
 1651SOL     OW16414   0.990   4.108  12.344  0.2534 -0.0355  0.1633
 1651SOL    HW116415   0.958   4.136  12.258 -1.2114 -1.5301  0.2105
 1651SOL    HW216416   1.084   4.104  12.326  0.1120 -2.9590  0.0391
 1652SOL     OW16417   4.552   4.509   3.197 -0.8839 -0.2586  0.1620
 1652SOL    HW116418   4.527   4.570   3.266 -1.3645 -0.5721  0.2653
 1652SOL    HW216419   4.515   4.424   3.222 -0.5853  0.2129  2.2261
 1653SOL     OW16420   2.777   1.178   4.294  0.6363 -0.0201  0.2729
 1653SOL    HW116421   2.802   1.089   4.271 -0.5612 -0.4865  0.7884
 1653SOL    HW216422   2.735   1.162   4.379 -0.3872  0.5019 -0.1342
 1654SOL     OW16423   1.191   3.670   8.357  0.2976 -0.6565  0.1119
 1654SOL    HW116424   1.256   3.739   8.345  0.0881 -0.4172  0.3538
 1654SOL    HW216425   1.153   3.699   8.440  1.0056  0.9302 -0.1339
 1655SOL     OW16426   3.068   1.780   3.631  0.1503  0.6302  0.3723
 1655SOL    HW116427   3.155   1.813   3.609  0.4863 -1.0211 -0.7599
 1655SOL    HW216428   3.090   1.704   3.684 -1.1491  1.6129  2.3332
 1656SOL     OW16429   0.796   2.122   6.865 -0.2075  1.0955 -0.0850
 1656SOL    HW116430   0.719   2.109   6.921  1.1331  1.6837  1.9079
 1656SOL    HW216431   0.767   2.191   6.805  0.8055  1.2553 -0.3946
 1657SOL     OW16432   2.612   1.783  10.178  0.6878 -0.6333 -0.2255
 1657SOL    HW116433   2.538   1.724  10.166 -1.7818  2.2975  0.6839
 1657SOL    HW216434   2.613   1.801  10.272  1.1712 -3.3328  0.2811
 1658SOL     OW16435   0.310   3.453  15.167  0.6708 -0.3099  0.0690
 1658SOL    HW116436   0.220   3.472  15.192  0.3549  0.1876 -1.4344
 1658SOL    HW216437   0.325   3.382  15.229  4.9210  1.4283  1.0668
 1659SOL     OW16438   3.480   3.397  11.104  0.1101  0.1474 -0.5750
 1659SOL    HW116439   3.389   3.423  11.113  0.5050  1.5534 -0.5999
 1659SOL    HW216440   3.514   3.418  11.191  2.0873  0.6295 -1.4573
 1660SOL     OW16441   0.734   1.063   8.220  0.3547  0.2760 -0.2092
 1660SOL    HW116442   0.719   0.969   8.226 -3.3125  0.7538 -1.7662
 1660SOL    HW216443   0.655   1.108   8.248  0.1128 -0.2701 -0.0224
 1661SOL     OW16444   1.695   3.224   5.775 -0.0707  0.5889 -0.2212
 1661SOL    HW116445   1.714   3.131   5.787  0.5892  0.8149  0.5046
 1661SOL    HW216446   1.637   3.246   5.849 -2.6770 -0.7518 -1.8709
 1662SOL     OW16447   3.743   4.232   7.376 -0.4499 -0.0781 -0.3517
 1662SOL    HW116448   3.656   4.205   7.406 -0.2935  1.5273  1.5550
 1662SOL    HW216449   3.803   4.237   7.451  2.5320 -0.7323 -2.6633
 1663SOL     OW16450   4.704   4.301   8.463  0.2789 -0.1114 -0.2166
 1663SOL    HW116451   4.612   4.309   8.488  0.7371  1.1937  1.0600
 1663SOL    HW216452   4.695   4.252   8.382 -1.2707  0.1561 -0.1985
 1664SOL     OW16453   0.886   2.296  12.025  0.0567 -0.3735  0.1398
 1664SOL    HW116454   0.809   2.299  11.968 -1.1270  0.6609  1.7971
 1664SOL    HW216455   0.853   2.261  12.108 -0.5009  0.4205  0.2430
 1665SOL     OW16456   3.809   4.006   2.361  0.2633 -0.0869  0.2537
 1665SOL    HW116457   3.772   4.028   2.276 -2.8849 -2.8995  0.8757
 1665SOL    HW216458   3.807   4.092   2.402  2.3675 -0.3080  0.8039
 1666SOL     OW16459   1.931   3.814   3.094  0.0074  0.4522  0.0841
 1666SOL    HW116460   1.941   3.719   3.092 -1.8948  0.2366  0.0476
 1666SOL    HW216461   2.007   3.851   3.049  0.1718 -0.0140 -0.0160
 1667SOL     OW16462   0.337   0.422   3.905  0.2719  0.2826  0.3583
 1667SOL    HW116463   0.383   0.495   3.864  2.6117 -0.9022  0.8989
 1667SOL    HW216464   0.282   0.393   3.832 -0.5665  0.4081  0.9410
 1668SOL     OW16465   3.824   2.339  13.881  0.4260  0.0511  0.1713
 1668SOL    HW116466   3.860   2.407  13.936  1.3013 -1.7188  1.7928
 1668SOL    HW216467   3.746   2.319  13.933  1.5997 -0.6420  1.6376
 1669SOL     OW16468   2.600   4.596   8.646  0.2729 -0.2984 -0.0173
 1669SOL    HW116469   2.582   4.552   8.563  1.4348 -1.6665  0.4669
 1669SOL    HW216470   2.658   4.666   8.617 -1.3622  0.3118 -1.8267
 1670SOL     OW16471   4.074   1.734   1.848  0.2591 -0.1096  0.0007
 1670SOL    HW116472   4.168   1.717   1.838  0.5857  1.6508  0.0520
 1670SOL    HW216473   4.053   1.768   1.761  0.6665 -0.3200 -0.1833
 1671SOL     OW16474   1.089   2.696   7.458  0.4286  0.5138 -0.0455
 1671SOL    HW116475   1.025   2.663   7.521  2.5023  0.6873  2.1356
 1671SOL    HW216476   1.057   2.784   7.441 -1.2018 -0.0684  0.0076
 1672SOL     OW16477   4.117   4.680   6.153 -0.1471  0.6268  0.0280
 1672SOL    HW116478   4.208   4.671   6.180 -0.7277  0.4141  1.9724
 1672SOL    HW216479   4.127   0.023   6.086 -0.2308  1.9732  1.3343
 1673SOL     OW16480   3.314   1.742  17.554 -0.3898  0.1650  0.2097
 1673SOL    HW116481   3.231   1.729  17.508 -0.4671  1.1847  0.0764
 1673SOL    HW216482   3.286   1.814  17.610  0.8292  2.0354 -1.5796
 1674SOL     OW16483   2.643   3.818   3.278 -0.8223  0.5384  0.0140
 1674SOL    HW116484   2.625   3.890   3.218  1.5450 -0.2005 -1.5550
 1674SOL    HW216485   2.566   3.768   3.250 -0.6490  0.4111 -0.2328
 1675SOL     OW16486   0.232   0.298   4.984 -0.0938 -0.0114  0.1953
 1675SOL    HW116487   0.237   0.393   4.991  0.9277  0.0722 -1.6930
 1675SOL    HW216488   0.326   0.282   4.992  0.3090  2.0766 -0.2995
 1676SOL     OW16489   0.292   1.621   1.132  0.4730  0.1342  0.5911
 1676SOL    HW116490   0.306   1.533   1.097  1.1223  0.0732  1.0179
 1676SOL    HW216491   0.369   1.613   1.187  0.9109  3.3264  0.4505
 1677SOL     OW16492   3.833   3.647   4.356  0.1590 -0.4344  0.0659
 1677SOL    HW116493   3.806   3.678   4.270 -1.5700 -1.3230  0.2776
 1677SOL    HW216494   3.893   3.718   4.379  0.2908 -0.3307 -0.5979
 1678SOL     OW16495   1.872   4.268   9.027 -0.4840 -0.6167  0.2889
 1678SOL    HW116496   1.870   4.291   8.934  1.3673 -0.0953  0.3750
 1678SOL    HW216497   1.890   4.349   9.076 -2.8360 -0.4635  0.8819
 1679SOL     OW16498   4.073   2.959   1.038 -0.6558  0.2816 -0.2405
 1679SOL    HW116499   4.135   2.917   0.979  1.2679  1.3176  1.0475
 1679SOL    HW216500   4.083   3.052   1.019 -0.9870 -0.1264 -2.4249
 1680SOL     OW16501   3.972   3.145  17.662 -0.4501  0.1055  0.3321
 1680SOL    HW116502   3.906   3.150   0.033 -0.1220 -1.4134  0.7498
 1680SOL    HW216503   3.975   3.057  17.624  0.9436  0.0807  0.5136
 1681SOL     OW16504   2.622   0.484  14.508 -0.2745 -0.6945  0.1390
 1681SOL    HW116505   2.683   0.520  14.572  0.8283 -0.7761 -0.8652
 1681SOL    HW216506   2.542   0.534  14.497  1.0291  1.1301 -1.0050
 1682SOL     OW16507   3.831   1.514   2.407  0.6563  0.0322  0.3890
 1682SOL    HW116508   3.768   1.575   2.446 -0.3195 -1.3863  1.0386
 1682SOL    HW216509   3.788   1.476   2.330  3.4565  0.5898 -1.4651
 1683SOL     OW16510   2.432   0.717   3.181  0.0051 -0.1163  0.4160
 1683SOL    HW116511   2.454   0.628   3.152 -1.7439  0.2967 -2.1504
 1683SOL    HW216512   2.337   0.715   3.175  0.0486 -0.1522 -0.2889
 1684SOL     OW16513   0.794   1.167   3.879 -0.4301  0.1025  0.1788
 1684SOL    HW116514   0.803   1.227   3.805  0.6315  2.0856  1.9162
 1684SOL    HW216515   0.870   1.111   3.867  1.8098  3.1732 -0.1396
 1685SOL     OW16516   2.291   3.233   1.327  0.3076 -0.6331  0.0829
 1685SOL    HW116517   2.246   3.156   1.292 -0.4327 -1.1934  2.2811
 1685SOL    HW216518   2.226   3.293   1.363  0.7702  0.5680 -1.1173
 1686SOL     OW16519   3.721   3.361   7.170 -0.5170 -0.0100 -0.2410
 1686SOL    HW116520   3.783   3.434   7.181 -0.2941 -0.3710  0.8524
 1686SOL    HW216521   3.649   3.386   7.228 -0.4671  1.0203 -0.6093
 1687SOL     OW16522   2.203   1.617   6.262 -0.0107 -0.4048  0.1718
 1687SOL    HW116523   2.132   1.678   6.279 -0.6343 -0.8183 -0.9239
 1687SOL    HW216524   2.255   1.630   6.341  1.6162 -1.0041 -0.7791
 1688SOL     OW16525   1.027   4.355  13.812  0.2846  0.0305 -0.1675
 1688SOL    HW116526   0.980   4.422  13.762 -2.4482 -1.2757  0.6126
 1688SOL    HW216527   1.113   4.347  13.772  1.0713  1.4258  1.2525
 1689SOL     OW16528   0.240   1.391  16.236  0.7170 -0.1175  0.0235
 1689SOL    HW116529   0.285   1.473  16.215 -0.1214  1.0274  2.7139
 1689SOL    HW216530   0.152   1.430  16.229 -0.3444 -2.3683  1.0455
 1690SOL     OW16531   1.419   4.279  13.468  0.2480 -0.3495  0.0003
 1690SOL    HW116532   1.506   4.260  13.504  0.1216  0.1763  0.5721
 1690SOL    HW216533   1.429   4.256  13.375  2.2450 -1.0317  0.3738
 1691SOL     OW16534   4.153   0.084   5.050  0.2216 -0.1399  0.0634
 1691SOL    HW116535   4.074   0.046   5.010  0.0110 -0.3925  0.7148
 1691SOL    HW216536   4.204   0.109   4.973 -0.7589  1.6127 -0.0210
 1692SOL     OW16537   4.006   2.367   8.593 -0.1691  0.1765  0.1989
 1692SOL    HW116538   4.036   2.284   8.630 -1.2538 -0.8367 -1.1358
 1692SOL    HW216539   4.024   2.434   8.658 -0.2844 -2.4938  3.0091
 1693SOL     OW16540   1.418   4.633   6.377  0.2020 -0.0917  0.2598
 1693SOL    HW116541   1.486   4.613   6.441  1.0519  0.8771 -0.3395
 1693SOL    HW216542   1.382   4.545   6.365 -0.2362  0.4160 -2.2298
 1694SOL     OW16543   2.138   2.307   4.008  0.0701  0.2537  0.3568
 1694SOL    HW116544   2.128   2.263   4.093  0.8530 -0.2464  0.1961
 1694SOL    HW216545   2.218   2.259   3.985  1.2346  0.7682  3.3214
 1695SOL     OW16546   4.199   1.573  10.566 -0.3669 -0.1108  0.0429
 1695SOL    HW116547   4.247   1.624  10.501 -1.0953  2.8903  1.8375
 1695SOL    HW216548   4.203   1.486  10.525  0.8446 -0.8469  1.7191
 1696SOL     OW16549   3.230   0.100   5.343 -0.4962 -0.1903  0.4117
 1696SOL    HW116550   3.222   0.195   5.340  2.0301  0.1293  2.8836
 1696SOL    HW216551   3.311   0.101   5.395 -0.1462  0.1548 -0.1354
 1697SOL     OW16552   1.879   2.815  15.938  0.2877  0.2676 -0.1127
 1697SOL    HW116553   1.818   2.889  15.942 -1.5487 -1.1967 -1.2756
 1697SOL    HW216554   1.902   2.812  15.845  0.6420  3.3072 -0.1314
 1698SOL     OW16555   3.572   2.559   6.511 -0.3306  0.3913  0.2113
 1698SOL    HW116556   3.547   2.540   6.420  0.2065  1.7484 -0.2225
 1698SOL    HW216557   3.491   2.603   6.536 -0.9473 -2.1310  2.5758
 1699SOL     OW16558   0.070   3.606   5.553  0.2999 -0.2151  0.3588
 1699SOL    HW116559   0.047   3.590   5.644  0.9849  2.8239  1.0599
 1699SOL    HW216560   0.163   3.582   5.553  0.2299 -0.4887 -1.3954
 1700SOL     OW16561   0.516   3.733   3.886 -0.0037 -0.0795 -0.1436
 1700SOL    HW116562   0.448   3.671   3.911 -0.7408  1.0794  0.7730
 1700SOL    HW216563   0.559   3.680   3.820 -0.0616  2.7917 -2.4995
 1701SOL     OW16564   1.145   4.164   2.167 -0.6991 -0.2243  0.5191
 1701SOL    HW116565   1.209   4.131   2.229  2.1718  2.4079 -1.0460
 1701SOL    HW216566   1.183   4.248   2.140  0.5357 -1.2097 -0.7637
 1702SOL     OW16567   3.528   2.494   6.264  0.1958  0.6086 -0.0482
 1702SOL    HW116568   3.436   2.502   6.238  0.3056 -0.2701 -0.7182
 1702SOL    HW216569   3.579   2.564   6.223 -0.8737  0.3160 -1.8765
 1703SOL     OW16570   2.524   1.145   8.378 -0.1153  0.4182  0.1678
 1703SOL    HW116571   2.611   1.107   8.362  0.3651  1.5458  0.0485
 1703SOL    HW216572   2.532   1.197   8.458  2.0356 -0.4471  0.5362
 1704SOL     OW16573   4.285   0.921  17.502  0.0858  0.1466  0.2171
 1704SOL    HW116574   4.356   0.859  17.516 -0.1180 -0.4566 -1.4249
 1704SOL    HW216575   4.279   0.938  17.408  0.2839  2.8155  0.6712
 1705SOL     OW16576   3.669   0.883   7.352  0.4109 -0.1828 -0.7287
 1705SOL    HW116577   3.625   0.816   7.299 -2.7801  0.9053  0.5853
 1705SOL    HW216578   3.647   0.965   7.308  0.3616  0.4955  0.5937
 1706SOL     OW16579   2.004   0.705   6.985 -0.0548 -0.0869 -0.1232
 1706SOL    HW116580   1.974   0.698   6.895 -1.5516 -0.4495  0.4068
 1706SOL    HW216581   1.917   0.731   7.016  0.1366  0.9533 -0.4596
 1707SOL     OW16582   3.609   2.498   3.853 -0.2899 -0.1227  0.2101
 1707SOL    HW116583   3.609   2.535   3.764 -0.8903 -2.2905 -0.6965
 1707SOL    HW216584   3.691   2.449   3.846  0.7555  1.4686  1.2362
 1708SOL     OW16585   0.474   3.637   9.245  0.1673  0.2066  0.3411
 1708SOL    HW116586   0.422   3.629   9.164 -0.1924  0.1592  0.5786
 1708SOL    HW216587   0.554   3.619   9.195 -0.3240 -2.4600  0.5307
 1709SOL     OW16588   3.714   2.150   5.017 -0.5225 -0.3282  0.0388
 1709SOL    HW116589   3.722   2.070   5.069 -0.2536 -0.3014  0.0368
 1709SOL    HW216590   3.751   2.223   5.067  1.5620  0.7284 -2.9941
 1710SOL     OW16591   2.211   1.574   9.257 -0.3951 -0.5615  0.7769
 1710SOL    HW116592   2.153   1.510   9.298 -1.9951  0.1595 -0.3980
 1710SOL    HW216593   2.226   1.525   9.176  1.1233 -0.1146  0.7745
 1711SOL     OW16594   1.969   3.020   3.659  0.1999 -0.0327  0.0978
 1711SOL    HW116595   1.998   3.111   3.664  0.2807 -0.0510 -0.0227
 1711SOL    HW216596   1.878   3.041   3.638 -0.5587 -1.0140  2.4608
 1712SOL     OW16597   3.600   1.021   8.379  0.3833 -0.2738 -0.4157
 1712SOL    HW116598   3.509   1.041   8.360  0.3743 -0.3688 -0.4733
 1712SOL    HW216599   3.598   0.927   8.393  1.6403 -0.6147 -2.3618
 1713SOL     OW16600   4.472   3.755   2.437  0.0763 -0.1677  0.2249
 1713SOL    HW116601   4.531   3.687   2.406 -0.7513 -0.7478 -0.0762
 1713SOL    HW216602   4.389   3.740   2.391  0.3105  0.3506 -0.3621
 1714SOL     OW16603   4.543   1.909   9.374 -0.0145  0.3066 -0.0189
 1714SOL    HW116604   4.529   2.001   9.351  2.7360  0.3113 -1.8157
 1714SOL    HW216605   4.462   1.874   9.337 -0.8748  0.5391  1.6711
 1715SOL     OW16606   1.770   0.899  14.386 -0.2066 -0.0527 -0.5058
 1715SOL    HW116607   1.779   0.994  14.378  1.1750 -0.1759 -0.3921
 1715SOL    HW216608   1.832   0.881  14.456 -1.4410 -2.8903 -0.1387
 1716SOL     OW16609   3.362   1.092   7.404 -0.1852 -0.3519 -0.0693
 1716SOL    HW116610   3.373   1.076   7.498 -0.6868  0.2282  0.0942
 1716SOL    HW216611   3.396   1.181   7.402 -1.1006 -0.0076 -0.5466
 1717SOL     OW16612   0.212   0.590   3.058  0.2081  0.0097  0.3151
 1717SOL    HW116613   0.218   0.512   3.003 -0.8173 -0.8989  1.5008
 1717SOL    HW216614   0.145   0.640   3.012  1.0931  2.0317  1.2064
 1718SOL     OW16615   3.962   0.013   8.924  0.6995 -0.0163 -0.0655
 1718SOL    HW116616   3.901   0.087   8.915 -0.4391 -0.9584 -0.1517
 1718SOL    HW216617   3.926   4.697   8.845  3.6928  1.8859 -2.3578
 1719SOL     OW16618   1.553   4.561   3.982 -0.1211 -0.3083  0.2593
 1719SOL    HW116619   1.627   4.582   4.040 -0.4740 -0.5789  0.8013
 1719SOL    HW216620   1.493   4.627   4.017  0.6018  1.0265 -1.0400
 1720SOL     OW16621   4.415   4.259  14.454  0.6431 -0.0336  0.3489
 1720SOL    HW116622   4.497   4.288  14.494  1.8558 -3.0214  0.0003
 1720SOL    HW216623   4.456   4.189  14.403  1.9099 -0.0527  1.3835
 1721SOL     OW16624   2.665   1.011  13.182 -0.3275  0.0301  0.4983
 1721SOL    HW116625   2.754   1.041  13.165 -0.3975 -1.0281 -1.7006
 1721SOL    HW216626   2.615   1.048  13.110 -1.1700 -0.4197  0.8527
 1722SOL     OW16627   2.548   0.278   2.409  0.4201 -0.3895  0.2051
 1722SOL    HW116628   2.461   0.286   2.370  0.2893  0.0317  0.5993
 1722SOL    HW216629   2.577   0.203   2.356  2.5773  0.2212  0.5027
 1723SOL     OW16630   4.540   1.622  11.223  0.0437 -0.3030 -0.1043
 1723SOL    HW116631   4.494   1.694  11.180 -0.1907 -1.6386 -2.0882
 1723SOL    HW216632   4.605   1.672  11.272 -1.6909 -0.3050  2.2522
 1724SOL     OW16633   3.867   0.407   4.930 -0.1022  0.3996 -0.4752
 1724SOL    HW116634   3.951   0.383   4.891  0.2694 -1.5972  1.5803
 1724SOL    HW216635   3.888   0.442   5.017  1.7859 -0.5666 -0.5584
 1725SOL     OW16636   4.588   4.216   5.748  0.0868 -0.4796  0.6103
 1725SOL    HW116637   4.584   4.293   5.804  1.1898 -2.0192  2.8126
 1725SOL    HW216638   4.637   4.248   5.672 -0.7795  0.1078  0.2995
 1726SOL     OW16639   4.421   0.163   4.266  0.1597 -0.3521 -0.1146
 1726SOL    HW116640   4.417   0.227   4.336  1.4814  1.1759 -1.4283
 1726SOL    HW216641   4.395   0.218   4.192 -0.0950  0.6051  0.6965
 1727SOL     OW16642   0.688   0.476   1.822  0.3027 -0.0042  0.6884
 1727SOL    HW116643   0.783   0.472   1.828  0.3768  1.1264  0.1424
 1727SOL    HW216644   0.667   0.480   1.729 -1.7598 -4.8789  0.9242
 1728SOL     OW16645   4.182   2.926   5.881 -0.2707  0.0014 -0.1071
 1728SOL    HW116646   4.230   2.895   5.958 -0.3705  0.5996  0.2020
 1728SOL    HW216647   4.159   2.844   5.837 -3.0617  0.6168  0.2071
 1729SOL     OW16648   0.723   2.099   7.456  0.4213 -0.1314 -0.1635
 1729SOL    HW116649   0.669   2.167   7.495 -0.9000 -1.6652  0.6787
 1729SOL    HW216650   0.656   2.030   7.454  0.2018  0.1276 -1.6626
 1730SOL     OW16651   1.738   4.598   3.093  0.2601  0.0204 -0.1031
 1730SOL    HW116652   1.793   4.535   3.140  0.2339 -0.5761 -0.8656
 1730SOL    HW216653   1.733   4.567   3.002  1.5636  1.0675 -0.5351
 1731SOL     OW16654   0.697   3.843  13.188  0.2546  0.6826  0.3152
 1731SOL    HW116655   0.706   3.788  13.266  2.2403 -1.0638 -1.1596
 1731SOL    HW216656   0.673   3.928  13.226 -0.5750  0.3911  0.4470
 1732SOL     OW16657   2.960   0.009   7.630  0.4646  0.1535  0.3414
 1732SOL    HW116658   2.923   0.093   7.658  0.7001  0.7347 -1.1384
 1732SOL    HW216659   2.971   4.701   7.720 -0.4530  0.2727  0.5010
 1733SOL     OW16660   4.318   2.366   4.692  0.1191 -0.4051 -0.2049
 1733SOL    HW116661   4.227   2.345   4.671 -0.5927  0.7244  1.8036
 1733SOL    HW216662   4.363   2.320   4.621  2.6762 -1.1787  1.9162
 1734SOL     OW16663   1.771   4.212   4.411  0.0905  0.5060 -0.5371
 1734SOL    HW116664   1.860   4.243   4.394 -0.3016  2.0287  0.1639
 1734SOL    HW216665   1.782   4.125   4.449  2.2774  1.8098  1.7931
 1735SOL     OW16666   4.271   3.039   7.828  0.1761  0.2564 -0.0414
 1735SOL    HW116667   4.314   2.960   7.860 -2.6107 -0.2756  2.3618
 1735SOL    HW216668   4.323   3.069   7.753  2.3641  2.8188  2.5306
 1736SOL     OW16669   4.517   3.290   3.381  0.1537 -0.1820 -0.4178
 1736SOL    HW116670   4.543   3.203   3.351  0.7355 -0.0647 -0.2449
 1736SOL    HW216671   4.435   3.271   3.427 -0.0997  0.7256 -0.4914
 1737SOL     OW16672   0.015   2.561   7.027  0.0956 -0.1498  0.7220
 1737SOL    HW116673   4.695   2.609   6.957  1.0950 -0.1740  0.0771
 1737SOL    HW216674   0.052   2.633   7.079 -0.0579  0.7235 -0.3880
 1738SOL     OW16675   4.606   2.379   5.826  0.6901 -0.2972 -0.4791
 1738SOL    HW116676   4.663   2.403   5.753  1.0920  0.1686 -0.0148
 1738SOL    HW216677   4.650   2.303   5.864 -0.0461 -0.1262  0.7471
 1739SOL     OW16678   1.846   1.642   4.509 -0.1383 -0.1480  0.0058
 1739SOL    HW116679   1.886   1.565   4.469 -1.0282 -0.9917  0.7348
 1739SOL    HW216680   1.795   1.675   4.435 -2.3380 -1.5897  0.8928
 1740SOL     OW16681   3.235   1.834   5.882  0.2306 -0.1944  0.0457
 1740SOL    HW116682   3.255   1.800   5.970 -0.1982  0.7132  0.4977
 1740SOL    HW216683   3.155   1.785   5.865 -0.7870  0.2465  3.4597
 1741SOL     OW16684   1.685   3.313   7.000 -0.4116 -0.2147  0.3596
 1741SOL    HW116685   1.744   3.242   7.024 -0.5655 -0.0503  1.2461
 1741SOL    HW216686   1.646   3.290   6.916 -0.8605 -1.6964  0.9878
 1742SOL     OW16687   1.533   1.667   1.041  0.2843  0.0801 -0.6914
 1742SOL    HW116688   1.516   1.607   1.114  1.7175  3.1156  2.1245
 1742SOL    HW216689   1.625   1.693   1.050  0.2725 -0.8936  2.2664
 1743SOL     OW16690   0.799   3.345   3.052 -0.1089  0.0414 -0.0991
 1743SOL    HW116691   0.815   3.325   2.960 -1.4682 -1.9376  0.0790
 1743SOL    HW216692   0.858   3.418   3.066 -1.4724  1.4230 -1.6023
 1744SOL     OW16693   1.815   4.168  11.145  0.2386 -0.3364 -0.2954
 1744SOL    HW116694   1.857   4.095  11.191  1.4895 -0.0956 -1.0618
 1744SOL    HW216695   1.888   4.213  11.104  0.5893 -1.0713 -0.4816
 1745SOL     OW16696   1.863   3.952   0.044  0.2325 -0.6349 -0.5011
 1745SOL    HW116697   1.803   3.994   0.104 -1.8261 -1.5640 -1.8989
 1745SOL    HW216698   1.923   4.019   0.011 -0.6187  1.1810  1.6786
 1746SOL     OW16699   0.408   2.026   3.589 -0.0836  0.0697 -0.1403
 1746SOL    HW116700   0.334   1.965   3.587  1.4212 -1.8259  3.2240
 1746SOL    HW216701   0.428   2.044   3.497  1.2722 -0.5240  0.0456
 1747SOL     OW16702   0.835   2.255   0.332 -0.3745  0.1253  0.3864
 1747SOL    HW116703   0.774   2.325   0.313 -2.2336 -1.1798  1.5797
 1747SOL    HW216704   0.851   2.215   0.247  0.0830  0.0608  0.4996
 1748SOL     OW16705   1.571   2.209  14.931  0.6681 -0.2511  0.1626
 1748SOL    HW116706   1.624   2.130  14.932  2.3255  0.8418 -0.7969
 1748SOL    HW216707   1.504   2.179  14.992  2.7010 -1.1669  1.9105
 1749SOL     OW16708   3.317   0.306   0.344  0.1785  0.0012  0.4707
 1749SOL    HW116709   3.336   0.396   0.316 -2.7266  0.5540  0.3260
 1749SOL    HW216710   3.363   0.325   0.425  0.6964 -1.8437  0.6079
 1750SOL     OW16711   3.003   2.094   4.641 -0.2805  0.6044  0.0283
 1750SOL    HW116712   3.032   2.142   4.718  2.6085 -0.8756 -0.1242
 1750SOL    HW216713   3.069   2.124   4.578  1.4756 -0.9167  1.1605
 1751SOL     OW16714   1.230   2.973   7.630  0.7754 -0.0762  0.2277
 1751SOL    HW116715   1.323   2.949   7.634  0.8549  0.3434  0.9818
 1751SOL    HW216716   1.198   2.928   7.708  0.3680  2.0481  1.2874
 1752SOL     OW16717   0.323   0.426  14.357  0.3171 -0.3938 -0.0648
 1752SOL    HW116718   0.279   0.508  14.333 -1.2840 -0.7362  1.7385
 1752SOL    HW216719   0.243   0.388  14.391  0.7357  0.3481  1.7339
 1753SOL     OW16720   3.591   0.374   9.183  0.7806 -0.6907 -0.4930
 1753SOL    HW116721   3.580   0.466   9.160  0.6743 -0.2930  1.1901
 1753SOL    HW216722   3.661   0.388   9.247  0.0718  1.1349 -0.1217
 1754SOL     OW16723   1.586   0.915   4.109  0.4700  0.1059 -0.0432
 1754SOL    HW116724   1.615   0.890   4.196 -2.4422 -0.9414  0.6529
 1754SOL    HW216725   1.502   0.959   4.121  1.2713  1.2744  1.1759
 1755SOL     OW16726   2.140   0.049  14.866  0.2823 -0.5755 -0.3724
 1755SOL    HW116727   2.055   0.077  14.898  0.4782 -1.1644  0.6586
 1755SOL    HW216728   2.189   0.126  14.896  0.7992 -1.0219 -0.0734
 1756SOL     OW16729   2.516   3.628   6.342 -0.0280 -0.6529 -0.0836
 1756SOL    HW116730   2.432   3.581   6.338 -0.6450  0.4358  0.0470
 1756SOL    HW216731   2.510   3.690   6.269  3.4988 -0.8324 -0.5224
 1757SOL     OW16732   3.393   4.070   1.662 -0.3934  0.0810  0.3225
 1757SOL    HW116733   3.298   4.077   1.653 -0.5208  0.9772  2.3170
 1757SOL    HW216734   3.429   4.153   1.628  0.5800 -0.2526  0.5243
 1758SOL     OW16735   1.305   0.643   9.573 -0.1409 -0.1815 -0.3955
 1758SOL    HW116736   1.361   0.642   9.651 -3.5403  0.1710  2.0841
 1758SOL    HW216737   1.224   0.676   9.611  0.1941  0.0321  0.1362
 1759SOL     OW16738   3.568   0.507   7.908 -0.1650  0.3440 -0.0229
 1759SOL    HW116739   3.606   0.420   7.897 -0.5553  0.0161  1.2245
 1759SOL    HW216740   3.518   0.525   7.829 -0.2875  0.6385  0.1225
 1760SOL     OW16741   3.514   1.671   5.394  0.0462 -0.2318 -0.4958
 1760SOL    HW116742   3.527   1.752   5.345  1.9002 -0.4024 -0.3198
 1760SOL    HW216743   3.439   1.688   5.450  1.1471  0.7329  0.7125
 1761SOL     OW16744   1.830   4.677   8.117 -0.3980  0.3045 -0.8723
 1761SOL    HW116745   1.826   4.583   8.132  1.1113  0.2686 -0.6122
 1761SOL    HW216746   1.747   4.712   8.148 -0.7120  0.7554 -2.2186
 1762SOL     OW16747   2.934   2.883   2.007 -0.5553  0.1668  0.3194
 1762SOL    HW116748   2.900   2.957   1.957 -1.4629 -0.2530  0.3125
 1762SOL    HW216749   2.877   2.811   1.980  1.1870 -0.5521 -1.3753
 1763SOL     OW16750   0.990   0.960   8.149 -0.1152 -0.7665 -0.2309
 1763SOL    HW116751   0.908   1.000   8.177  0.7631  0.3860  0.7293
 1763SOL    HW216752   0.975   0.964   8.054 -0.3836 -2.8682 -0.2804
 1764SOL     OW16753   2.625   0.835   5.618 -0.2670 -0.1782 -0.6353
 1764SOL    HW116754   2.656   0.745   5.605 -0.4950 -0.4393  0.6633
 1764SOL    HW216755   2.626   0.851   5.713  0.6907  0.0253 -0.6809
 1765SOL     OW16756   2.178   2.793   7.622  0.4471  0.0271  0.2502
 1765SOL    HW116757   2.184   2.709   7.667  0.4814  0.1511  0.4760
 1765SOL    HW216758   2.266   2.809   7.588 -0.7097  1.4238 -2.0737
 1766SOL     OW16759   1.729   3.110   3.545 -0.2370  0.6879  0.1250
 1766SOL    HW116760   1.718   3.197   3.506 -1.8277  0.1046 -0.7191
 1766SOL    HW216761   1.697   3.046   3.481  0.2571  0.1400  0.4275
 1767SOL     OW16762   2.481   4.072   6.178  0.5747  0.1424 -0.1067
 1767SOL    HW116763   2.502   4.000   6.119 -1.1898 -0.3085 -0.1826
 1767SOL    HW216764   2.502   4.024   6.259 -0.6850 -0.0824  0.0733
 1768SOL     OW16765   1.021   4.258   3.282  0.1185 -0.0274 -0.5496
 1768SOL    HW116766   1.021   4.177   3.231 -2.3867 -0.2568 -0.1734
 1768SOL    HW216767   1.050   4.322   3.218  0.6778 -0.8753 -1.1450
 1769SOL     OW16768   2.891   3.533   7.435  0.0036 -0.2557 -0.7779
 1769SOL    HW116769   2.866   3.446   7.404 -0.4710  0.3818 -2.1735
 1769SOL    HW216770   2.822   3.579   7.388  1.1217  2.1970 -0.0069
 1770SOL     OW16771   0.163   4.200   3.143 -0.5212  0.0669 -0.3866
 1770SOL    HW116772   0.120   4.183   3.227 -3.7548  1.6804 -1.7552
 1770SOL    HW216773   0.099   4.247   3.090 -1.5315 -0.3406  0.4618
 1771SOL     OW16774   1.412   0.148  16.889  0.3083 -0.2092 -0.6221
 1771SOL    HW116775   1.442   0.149  16.798 -1.0872 -1.6029 -1.0895
 1771SOL    HW216776   1.319   0.125  16.885  0.4142 -0.3842 -2.3830
 1772SOL     OW16777   2.678   4.686   8.279 -0.1391  0.3093  0.1410
 1772SOL    HW116778   2.671   0.055   8.255  1.4791  0.8579  1.7589
 1772SOL    HW216779   2.767   4.665   8.251 -1.0266 -0.9484 -1.6578
 1773SOL     OW16780   0.688   2.121  11.495 -0.0601  0.4051  0.3769
 1773SOL    HW116781   0.653   2.046  11.543 -0.0580  0.0470 -0.1911
 1773SOL    HW216782   0.767   2.127  11.549  1.0581 -0.5178 -1.1854
 1774SOL     OW16783   0.310   3.627   9.036  0.3866  0.0216  0.1887
 1774SOL    HW116784   0.368   3.616   8.961  2.4323  1.1409  1.5963
 1774SOL    HW216785   0.267   3.704   8.999  1.9001  1.5802  1.7055
 1775SOL     OW16786   3.737   2.960   6.003 -0.6020  0.0339 -0.0768
 1775SOL    HW116787   3.765   2.956   6.094  0.1365  3.5739 -0.1675
 1775SOL    HW216788   3.801   3.020   5.964 -0.1481  1.1381  2.3765
 1776SOL     OW16789   3.559   1.009   2.638  0.1438  0.3457 -0.4273
 1776SOL    HW116790   3.492   1.069   2.669 -0.5672 -0.3492 -0.6256
 1776SOL    HW216791   3.521   0.921   2.636  1.7871 -0.4318  2.7588
 1777SOL     OW16792   2.809   3.598  12.168 -0.5674 -0.2410  0.1618
 1777SOL    HW116793   2.796   3.665  12.236 -0.7955 -0.0070 -0.1144
 1777SOL    HW216794   2.777   3.646  12.092  0.7557  1.7679  0.8567
 1778SOL     OW16795   0.124   4.261   8.039  0.3352  0.2814 -0.2527
 1778SOL    HW116796   0.136   4.352   8.067  3.0542 -0.1754  0.0919
 1778SOL    HW216797   0.064   4.273   7.966  0.2452 -2.2456 -0.5767
 1779SOL     OW16798   1.259   1.677   4.214 -0.1936 -0.9916  0.3302
 1779SOL    HW116799   1.251   1.762   4.257 -1.9434 -1.3612  0.7650
 1779SOL    HW216800   1.170   1.680   4.179 -0.1051  0.1243  0.1834
 1780SOL     OW16801   1.570   3.179  11.387  0.6689 -0.1883 -0.1779
 1780SOL    HW116802   1.482   3.144  11.397  0.9267 -0.7025  0.3261
 1780SOL    HW216803   1.616   3.115  11.442 -0.5550  0.8542  2.0911
 1781SOL     OW16804   3.963   0.025  12.973 -0.3882  0.1795 -0.0432
 1781SOL    HW116805   4.051   0.009  13.008  0.8893  2.0693 -2.4081
 1781SOL    HW216806   3.934   0.109  13.008 -2.2172 -1.0139  1.3282
 1782SOL     OW16807   3.167   4.122   3.895  1.1244  0.2222 -0.3633
 1782SOL    HW116808   3.095   4.182   3.879 -0.3155 -0.8538  2.1269
 1782SOL    HW216809   3.199   4.159   3.977  0.9021 -1.5179  0.5089
 1783SOL     OW16810   2.455   4.385   4.420  0.1755 -0.2436  0.3558
 1783SOL    HW116811   2.505   4.450   4.470  0.3282 -0.5069  0.5496
 1783SOL    HW216812   2.527   4.323   4.408  1.6367  1.1726  1.8312
 1784SOL     OW16813   2.664   1.890   6.682  0.2405  0.6794  0.1026
 1784SOL    HW116814   2.652   1.843   6.764  0.1024 -1.3110 -1.0281
 1784SOL    HW216815   2.753   1.858   6.669 -0.9094 -2.4205 -0.1050
 1785SOL     OW16816   3.475   1.005   4.954  0.3760  0.1380  0.3990
 1785SOL    HW116817   3.564   0.993   4.922  0.2627  0.1973  0.0688
 1785SOL    HW216818   3.473   0.938   5.023  0.2348  1.0643  1.2910
 1786SOL     OW16819   1.639   4.095  11.453  0.0531  0.2302  0.3094
 1786SOL    HW116820   1.726   4.081  11.488  0.0150  0.4401  0.4907
 1786SOL    HW216821   1.600   4.008  11.462 -0.1838  0.2783 -0.2758
 1787SOL     OW16822   2.226   2.749   5.344 -0.3401  0.5430  0.9974
 1787SOL    HW116823   2.258   2.736   5.255 -1.2989  0.5210  0.6556
 1787SOL    HW216824   2.208   2.659   5.368 -4.7229  0.9312 -0.8611
 1788SOL     OW16825   1.667   1.231  13.678 -0.0637 -0.1127  0.3741
 1788SOL    HW116826   1.674   1.264  13.768  2.2140 -0.1250  0.2099
 1788SOL    HW216827   1.759   1.250  13.656 -0.6976  1.6045 -0.7967
 1789SOL     OW16828   0.204   1.396   8.374  0.1601  0.0555  0.5399
 1789SOL    HW116829   0.128   1.402   8.316  1.4666  0.7980 -1.0969
 1789SOL    HW216830   0.261   1.456   8.326 -1.4431  2.4215  1.6035
 1790SOL     OW16831   3.812   0.673   4.816  0.2684  0.2822 -0.2284
 1790SOL    HW116832   3.846   0.665   4.726  0.6440 -2.1747  0.1506
 1790SOL    HW216833   3.861   0.601   4.855 -2.4816 -0.8416  1.1604
 1791SOL     OW16834   0.651   1.804   6.287 -0.0848  0.0911  0.0480
 1791SOL    HW116835   0.746   1.816   6.290 -0.1740  1.1756 -1.2606
 1791SOL    HW216836   0.657   1.737   6.219  2.2999  2.9584 -2.5555
 1792SOL     OW16837   3.153   2.109   3.341 -0.1076  0.6593 -0.6751
 1792SOL    HW116838   3.145   2.111   3.246  0.7371  2.3663 -0.7162
 1792SOL    HW216839   3.063   2.098   3.371  0.5663  0.6434  1.3849
 1793SOL     OW16840   4.393   3.794   6.722 -0.1282  0.6333  0.1935
 1793SOL    HW116841   4.328   3.859   6.748  0.4169  0.2021  2.5949
 1793SOL    HW216842   4.416   3.830   6.636 -0.7364 -0.7261 -0.5296
 1794SOL     OW16843   0.170   1.150   5.967  0.7832 -0.3195 -0.1803
 1794SOL    HW116844   0.226   1.160   5.890  1.3166  0.0971  0.2633
 1794SOL    HW216845   0.118   1.082   5.924 -2.4191  1.6864  0.5361
 1795SOL     OW16846   3.852   1.882   7.125 -0.2274  0.0003 -0.3417
 1795SOL    HW116847   3.916   1.820   7.089  0.5563  0.5406  0.1075
 1795SOL    HW216848   3.775   1.825   7.115 -1.2901  1.5783 -1.1081
 1796SOL     OW16849   3.524   3.906   5.166  0.5923  0.2893  0.0445
 1796SOL    HW116850   3.599   3.858   5.201  0.5744 -0.8611 -1.5077
 1796SOL    HW216851   3.456   3.880   5.228 -0.8456  0.5900 -1.4082
 1797SOL     OW16852   0.925   4.027   5.407 -0.9729  0.2058 -0.1939
 1797SOL    HW116853   0.939   4.119   5.385  2.4233  0.4083  2.9399
 1797SOL    HW216854   1.017   4.003   5.415 -1.4660 -1.4057  0.5911
 1798SOL     OW16855   0.746   1.866   7.811  0.2630  0.0370  0.2670
 1798SOL    HW116856   0.789   1.883   7.727 -1.4087 -1.6943 -0.9520
 1798SOL    HW216857   0.692   1.943   7.829 -1.5079 -0.4708 -2.8883
 1799SOL     OW16858   1.453   3.235   8.120 -0.5633 -0.3212  0.2848
 1799SOL    HW116859   1.378   3.294   8.119 -0.5412 -0.2784  1.0248
 1799SOL    HW216860   1.515   3.294   8.163  0.4826  0.5646 -2.4586
 1800SOL     OW16861   1.399   0.698   1.558 -0.0192 -0.7622 -0.3769
 1800SOL    HW116862   1.342   0.764   1.597  0.9492  0.8903 -1.7565
 1800SOL    HW216863   1.400   0.634   1.629  0.2165  0.8488  1.0679
 1801SOL     OW16864   1.717   3.703   1.292 -0.9784  0.3629 -0.4122
 1801SOL    HW116865   1.770   3.638   1.337  1.7104  1.7884 -1.5246
 1801SOL    HW216866   1.631   3.688   1.333 -0.4738 -0.3765  0.3570
 1802SOL     OW16867   2.020   1.275   1.877 -0.5361 -0.7025  0.1321
 1802SOL    HW116868   2.028   1.192   1.924 -2.5540 -0.6792  0.5314
 1802SOL    HW216869   1.935   1.261   1.836 -1.1312  3.0660  0.0887
 1803SOL     OW16870   0.543   3.517   6.112 -0.8441  0.1080  0.0629
 1803SOL    HW116871   0.500   3.576   6.174 -1.3969  0.9609 -1.1349
 1803SOL    HW216872   0.515   3.433   6.149  0.0757 -1.0437 -1.8523
 1804SOL     OW16873   0.782   2.788  17.506  0.2575  0.3219  0.6212
 1804SOL    HW116874   0.752   2.857  17.565  3.8018  3.7731 -1.5835
 1804SOL    HW216875   0.714   2.722  17.500 -0.2155  1.1752 -4.0546
 1805SOL     OW16876   1.249   3.995  15.802  0.1102 -0.1508  0.9219
 1805SOL    HW116877   1.213   3.914  15.837  1.1651 -0.1094  2.0987
 1805SOL    HW216878   1.337   3.960  15.786 -0.6308 -0.8536 -1.6466
 1806SOL     OW16879   3.090   4.395   8.497  0.1246  0.1834  0.2415
 1806SOL    HW116880   3.172   4.361   8.461  1.3034 -1.0141  3.9836
 1806SOL    HW216881   3.107   4.386   8.591 -1.1167 -0.3297  0.4188
 1807SOL     OW16882   1.273   2.852  13.814 -0.0912 -0.6013  0.2823
 1807SOL    HW116883   1.267   2.937  13.770  1.6721 -1.1012 -0.9288
 1807SOL    HW216884   1.183   2.822  13.826  0.3061 -1.6517  0.6771
 1808SOL     OW16885   0.339   1.236  15.535 -0.2632 -0.5368  0.3480
 1808SOL    HW116886   0.422   1.237  15.487  1.0389 -0.0972  2.5924
 1808SOL    HW216887   0.342   1.329  15.558  1.8262 -0.8139  1.2641
 1809SOL     OW16888   2.749   4.283  10.171 -0.3198 -0.7661 -0.0307
 1809SOL    HW116889   2.707   4.362  10.205 -0.1564 -1.9136  2.7674
 1809SOL    HW216890   2.838   4.317  10.160 -1.1968  1.2544 -0.7886
 1810SOL     OW16891   4.467   0.877   3.991 -0.2256 -0.2666  0.1968
 1810SOL    HW116892   4.483   0.828   4.072 -6.0483  1.8213  2.6915
 1810SOL    HW216893   4.424   0.812   3.935 -0.6769 -0.2494  0.5204
 1811SOL     OW16894   2.783   2.650   8.711  0.4264  1.2885  0.5045
 1811SOL    HW116895   2.796   2.667   8.618  0.5060 -0.6413  0.1631
 1811SOL    HW216896   2.790   2.556   8.724  1.3118  1.0534 -1.7377
 1812SOL     OW16897   3.553   0.914  16.134 -0.5934 -0.0213 -0.6439
 1812SOL    HW116898   3.525   1.002  16.160 -0.2785  0.5439 -2.2062
 1812SOL    HW216899   3.637   0.942  16.099  0.3889 -1.0102  0.9704
 1813SOL     OW16900   2.722   1.845   8.359  0.7515  0.3002  0.2738
 1813SOL    HW116901   2.727   1.817   8.267 -2.0435  0.3642  0.0941
 1813SOL    HW216902   2.628   1.856   8.375  0.5214 -0.2636 -0.6384
 1814SOL     OW16903   0.329   2.664   6.214 -0.0569  0.9666 -0.5099
 1814SOL    HW116904   0.390   2.618   6.156  0.5769  1.9806 -0.6490
 1814SOL    HW216905   0.245   2.654   6.169 -0.3786 -1.1146  0.5306
 1815SOL     OW16906   3.042   3.897   8.484 -0.5668  0.1483  0.1129
 1815SOL    HW116907   2.986   3.849   8.546 -1.8771  1.5632  0.0281
 1815SOL    HW216908   3.106   3.930   8.547 -0.1333 -0.5821  0.0494
 1816SOL     OW16909   0.131   4.433   4.065  0.1752 -0.3860  0.2250
 1816SOL    HW116910   0.094   4.387   3.990 -1.4058 -0.4862  1.0542
 1816SOL    HW216911   0.147   4.520   4.030 -0.8488  0.4696  1.8634
 1817SOL     OW16912   1.620   4.279   8.658  0.0833 -0.6965 -0.1668
 1817SOL    HW116913   1.646   4.272   8.566 -0.6914 -1.6512 -0.3081
 1817SOL    HW216914   1.526   4.263   8.654 -0.0849  0.5326 -1.4332
 1818SOL     OW16915   1.137   4.536   6.557 -0.4839 -0.6106  0.6374
 1818SOL    HW116916   1.088   4.461   6.589  0.8007 -0.7822  2.1594
 1818SOL    HW216917   1.220   4.494   6.536 -0.5423 -1.4879  2.1609
 1819SOL     OW16918   2.179   0.097   0.732  0.0790  0.4118  0.7192
 1819SOL    HW116919   2.213   0.089   0.643  0.7371  0.2867  0.9885
 1819SOL    HW216920   2.201   0.188   0.754  0.2666  0.6281 -0.3693
 1820SOL     OW16921   2.006   3.922  17.223  0.5362  0.6931  0.1062
 1820SOL    HW116922   2.086   3.953  17.181  0.1241  0.3426 -0.9405
 1820SOL    HW216923   1.953   3.905  17.144  1.9362 -3.0048 -0.0487
 1821SOL     OW16924   0.386   0.455   8.623  0.0478  0.1391 -0.1000
 1821SOL    HW116925   0.338   0.452   8.706  0.8248 -1.2599  0.3036
 1821SOL    HW216926   0.326   0.515   8.580  0.5166 -1.0504 -2.3918
 1822SOL     OW16927   3.954   4.688   4.868  0.5502 -0.0831 -0.9628
 1822SOL    HW116928   3.994   4.663   4.784  1.1156 -0.5425 -0.5499
 1822SOL    HW216929   3.865   4.703   4.835  0.3002  0.7439  0.0832
 1823SOL     OW16930   3.912   1.847  14.219 -0.6990  0.1177  0.5352
 1823SOL    HW116931   4.007   1.839  14.223 -0.7990 -0.7034  1.0807
 1823SOL    HW216932   3.888   1.912  14.284 -1.6697 -1.4276  1.7109
 1824SOL     OW16933   3.374   4.142   6.270 -0.4865 -0.4147  0.0797
 1824SOL    HW116934   3.404   4.175   6.185 -1.2502  1.2850  0.4635
 1824SOL    HW216935   3.440   4.076   6.289 -1.0883 -0.3371  2.4104
 1825SOL     OW16936   0.719   0.988   4.071  0.4673  0.3186  0.6070
 1825SOL    HW116937   0.721   1.064   4.013 -3.5578  0.1311  0.2331
 1825SOL    HW216938   0.655   0.942   4.017  0.1106 -0.1390  1.4249
 1826SOL     OW16939   3.431   2.519   2.954 -0.3918  0.2705 -0.6196
 1826SOL    HW116940   3.369   2.588   2.978  0.1216  0.1340  1.1619
 1826SOL    HW216941   3.442   2.554   2.866  2.6938  0.9920  0.0403
 1827SOL     OW16942   0.973   0.700   4.907  0.1678 -0.5652  0.0775
 1827SOL    HW116943   0.934   0.733   4.826 -0.9779  1.0924  1.3001
 1827SOL    HW216944   1.065   0.687   4.884  0.3622  1.1529 -0.1023
 1828SOL     OW16945   3.472   3.346  11.704 -0.5209 -0.3943  0.4005
 1828SOL    HW116946   3.406   3.406  11.737 -2.3217 -2.2015  0.1330
 1828SOL    HW216947   3.411   3.273  11.690  0.5069 -1.3337  0.8242
 1829SOL     OW16948   1.717   1.006   3.161  0.3047 -0.1875 -0.3350
 1829SOL    HW116949   1.636   1.000   3.212  1.0487  2.0491  1.0867
 1829SOL    HW216950   1.781   1.010   3.232  1.3633  0.0697 -1.3034
 1830SOL     OW16951   1.683   0.766   1.179 -0.1963 -0.5235  0.1060
 1830SOL    HW116952   1.652   0.677   1.192 -3.3332  0.2906 -1.9050
 1830SOL    HW216953   1.774   0.760   1.209  0.1092  1.0149 -0.4894
 1831SOL     OW16954   0.721   4.630   4.368  0.2724  0.2332  0.5512
 1831SOL    HW116955   0.723   4.548   4.418 -1.2448 -0.0847  0.0959
 1831SOL    HW216956   0.785   4.616   4.299 -1.9618 -1.1106 -1.2381
 1832SOL     OW16957   0.230   2.989   2.552  0.7090 -0.9023 -0.2837
 1832SOL    HW116958   0.173   3.059   2.519  2.1954 -0.7498 -2.5063
 1832SOL    HW216959   0.244   2.933   2.476 -2.6085 -1.3338 -0.5746
 1833SOL     OW16960   3.991   4.177  12.036  0.7827  0.3390 -0.3311
 1833SOL    HW116961   4.005   4.109  11.970  0.7072 -1.3268  1.3750
 1833SOL    HW216962   3.909   4.210  11.998  0.0094 -0.1144  0.9151
 1834SOL     OW16963   4.091   0.365  16.498  0.1737 -0.7259  0.2571
 1834SOL    HW116964   4.117   0.311  16.572  0.5538 -0.5338  0.2606
 1834SOL    HW216965   4.141   0.438  16.533 -0.5009  0.1919 -0.7003
 1835SOL     OW16966   4.128   2.020  10.591  0.1557  0.0466  0.6087
 1835SOL    HW116967   4.083   2.103  10.572 -0.5749 -0.4596  0.1180
 1835SOL    HW216968   4.061   1.955  10.611  1.4834 -2.2574 -2.4824
 1836SOL     OW16969   3.417   2.040   8.562  0.3936 -0.5079 -0.1455
 1836SOL    HW116970   3.342   2.094   8.535 -0.0379 -1.1742 -0.3004
 1836SOL    HW216971   3.379   1.952   8.552  0.6704 -0.7082  0.5708
 1837SOL     OW16972   3.140   4.362   7.835 -0.7880 -0.3458 -0.5247
 1837SOL    HW116973   3.157   4.288   7.893  1.5188  1.4976  1.1763
 1837SOL    HW216974   3.048   4.383   7.852  0.1781  3.1130  0.5716
 1838SOL     OW16975   1.577   0.824   8.497 -0.4033 -0.0406  0.7671
 1838SOL    HW116976   1.535   0.743   8.470  0.8544 -0.2176 -0.6596
 1838SOL    HW216977   1.661   0.797   8.533 -0.8766 -1.2148  0.9856
 1839SOL     OW16978   4.068   1.597   2.549 -0.0438 -0.3345  0.0452
 1839SOL    HW116979   4.093   1.643   2.469 -0.3351 -0.4027 -0.0847
 1839SOL    HW216980   3.979   1.569   2.527 -0.2998  0.7091 -0.2533
 1840SOL     OW16981   1.028   4.445   5.859 -0.2264 -0.0895 -0.0314
 1840SOL    HW116982   1.005   4.509   5.791 -1.5431  0.9308  1.3654
 1840SOL    HW216983   1.054   4.370   5.805  1.4846  0.6973 -0.2973
 1841SOL     OW16984   0.755   1.642   4.462 -0.6766 -0.3924  0.2384
 1841SOL    HW116985   0.726   1.568   4.515  0.2298 -0.4391  0.6628
 1841SOL    HW216986   0.848   1.649   4.481 -0.3447 -2.3095 -0.7209
 1842SOL     OW16987   0.304   3.552   3.568  0.1664  0.1210  0.1212
 1842SOL    HW116988   0.269   3.464   3.577 -0.1104  0.2071 -0.0972
 1842SOL    HW216989   0.390   3.538   3.529  0.3850 -0.2623  0.7392
 1843SOL     OW16990   0.469   2.430   7.062 -0.2389  0.3731  0.5073
 1843SOL    HW116991   0.389   2.408   7.110  0.4286 -0.2884  1.3113
 1843SOL    HW216992   0.476   2.520   7.092 -1.8607  1.7463 -3.3247
 1844SOL     OW16993   2.137   0.659   3.441  0.1849  0.0509 -0.1118
 1844SOL    HW116994   2.151   0.566   3.422  0.5577  0.2314 -0.7006
 1844SOL    HW216995   2.099   0.648   3.529  0.7628 -2.7814 -0.2223
 1845SOL     OW16996   2.310   1.366   7.306 -0.3005 -0.2918 -0.2781
 1845SOL    HW116997   2.264   1.299   7.357 -0.5529  1.1056  1.3573
 1845SOL    HW216998   2.243   1.406   7.250 -1.0108 -0.7834  0.2143
 1846SOL     OW16999   4.599   1.275  11.850  0.3805  0.5353  0.7463
 1846SOL    HW117000   4.614   1.183  11.828 -0.5353  0.3257  0.9649
 1846SOL    HW217001   4.532   1.296  11.784 -0.2909 -0.4782  1.0975
 1847SOL     OW17002   3.255   0.333  13.368  0.0918 -0.1324  0.4016
 1847SOL    HW117003   3.224   0.257  13.416 -3.5286  1.0556 -0.0412
 1847SOL    HW217004   3.175   0.354  13.319 -0.8184 -1.1621  1.4602
 1848SOL     OW17005   0.184   3.597  15.998 -0.0686  0.3026 -0.2038
 1848SOL    HW117006   0.235   3.518  15.979 -0.1242  0.2015  0.0713
 1848SOL    HW217007   0.120   3.566  16.063  2.3100 -0.9182  1.5590
 1849SOL     OW17008   3.453   3.649  10.194  0.4851  0.2945  0.3038
 1849SOL    HW117009   3.380   3.595  10.161  3.3899 -2.2810 -1.8878
 1849SOL    HW217010   3.516   3.577  10.202  0.5970  0.3408 -0.1838
 1850SOL     OW17011   2.429   4.343   6.237 -0.0751 -0.5833 -0.4294
 1850SOL    HW117012   2.458   4.252   6.226  0.9543 -0.3883  0.6266
 1850SOL    HW217013   2.458   4.384   6.155  1.0083  1.3169  0.8976
 1851SOL     OW17014   3.076   3.086  12.102 -0.8118  0.6304 -0.7072
 1851SOL    HW117015   3.170   3.100  12.090 -0.7319 -0.0958 -0.9049
 1851SOL    HW217016   3.043   3.151  12.164 -1.3025 -1.3715  1.1268
 1852SOL     OW17017   0.782   0.651   4.148  0.1913 -0.1530  0.1247
 1852SOL    HW117018   0.787   0.558   4.171 -0.3030  0.2337  1.8113
 1852SOL    HW217019   0.818   0.699   4.223  1.5274  0.2572 -0.7907
 1853SOL     OW17020   0.139   2.144   8.246  0.5619 -0.0630 -0.1383
 1853SOL    HW117021   0.101   2.191   8.320 -0.7135 -0.3548 -0.6193
 1853SOL    HW217022   0.139   2.201   8.169  0.5578 -0.0502 -0.1287
 1854SOL     OW17023   0.604   2.564   7.795  0.7107  0.4025  0.2522
 1854SOL    HW117024   0.670   2.507   7.757 -0.4446 -0.0100 -1.1320
 1854SOL    HW217025   0.620   2.649   7.753 -0.0624  0.2405 -0.3798
 1855SOL     OW17026   4.446   4.683   2.910  0.3086 -0.3186  0.0022
 1855SOL    HW117027   4.536   4.700   2.937  0.1380  0.0003  0.3625
 1855SOL    HW217028   4.457   4.691   2.815 -1.3893 -1.8952 -0.3254
 1856SOL     OW17029   0.586   3.455   5.379  0.7759 -0.5347  0.0046
 1856SOL    HW117030   0.575   3.447   5.284 -0.1633 -2.0223  0.2289
 1856SOL    HW217031   0.671   3.499   5.375  0.7195 -0.4692 -0.4575
 1857SOL     OW17032   2.467   1.401  13.544 -0.8122 -0.5337 -0.4468
 1857SOL    HW117033   2.430   1.489  13.556 -0.3766 -0.1780 -1.6701
 1857SOL    HW217034   2.554   1.427  13.513 -0.2674 -1.0788  0.6068
 1858SOL     OW17035   2.070   1.355   0.367  0.0923 -0.5733  0.1053
 1858SOL    HW117036   2.137   1.370   0.434  0.8430  0.6981 -0.9190
 1858SOL    HW217037   2.113   1.277   0.332  0.3163 -0.4604  0.1246
 1859SOL     OW17038   1.705   1.530  17.670 -0.0168 -0.5424  0.3268
 1859SOL    HW117039   1.725   1.592   0.041  1.1886 -1.2908  0.6582
 1859SOL    HW217040   1.719   1.572  17.585  0.0126 -2.1317 -0.4555
 1860SOL     OW17041   4.148   2.050  15.033 -0.1027 -0.1595 -0.3624
 1860SOL    HW117042   4.133   1.979  15.095  0.4484 -0.0895 -0.1456
 1860SOL    HW217043   4.090   2.114  15.074  0.3115 -1.3716  2.1328
 1861SOL     OW17044   4.193   4.020   6.698 -0.2483 -0.6302  0.3235
 1861SOL    HW117045   4.220   4.111   6.688  1.8174 -1.0848  1.6576
 1861SOL    HW217046   4.126   4.017   6.767 -0.3664 -3.7974  0.0997
 1862SOL     OW17047   1.190   0.473  11.802 -0.1603  0.6319  0.2034
 1862SOL    HW117048   1.246   0.398  11.818  0.5477  0.7041 -1.9411
 1862SOL    HW217049   1.138   0.438  11.729 -1.7981  0.6493  1.3484
 1863SOL     OW17050   2.343   2.979   8.449 -0.0199 -0.0943 -0.5086
 1863SOL    HW117051   2.281   2.947   8.515  0.1976 -0.2818 -0.3962
 1863SOL    HW217052   2.304   3.066   8.437  1.2564  0.3180 -1.7125
 1864SOL     OW17053   4.209   0.271  15.763 -0.4018 -0.0174  0.4161
 1864SOL    HW117054   4.287   0.229  15.798  0.4231  0.1328 -1.2209
 1864SOL    HW217055   4.141   0.229  15.815  0.2388 -1.5284  0.0391
 1865SOL     OW17056   4.683   3.943   2.437  0.9466 -0.8659 -0.0433
 1865SOL    HW117057   4.673   3.949   2.532 -0.9196 -0.3691 -0.2724
 1865SOL    HW217058   4.600   3.897   2.422  1.8113 -2.4741  0.1059
 1866SOL     OW17059   2.912   4.545   4.535  0.3403  0.2840 -0.1390
 1866SOL    HW117060   2.915   4.451   4.516  2.2452  0.1409  0.8770
 1866SOL    HW217061   2.821   4.548   4.565  0.7807 -0.2952  1.2764
 1867SOL     OW17062   3.075   1.106   4.998 -0.0702 -1.0616 -0.6147
 1867SOL    HW117063   2.995   1.088   5.048 -0.8536 -0.6945 -1.7511
 1867SOL    HW217064   3.091   1.199   5.012  1.7509 -1.3654 -0.6118
 1868SOL     OW17065   0.773   1.279   7.292  0.1764 -0.0594  0.1340
 1868SOL    HW117066   0.820   1.361   7.308  2.8353 -1.3147 -1.3863
 1868SOL    HW217067   0.822   1.215   7.343 -0.4590  0.1074  0.9505
 1869SOL     OW17068   2.109   3.794   9.583  0.4473 -0.7116 -0.3463
 1869SOL    HW117069   2.121   3.718   9.525 -0.3884 -0.1596 -1.2317
 1869SOL    HW217070   2.141   3.757   9.665 -0.3580 -0.5255  0.0537
 1870SOL     OW17071   2.268   3.185   7.860 -0.4282  0.4837 -0.5635
 1870SOL    HW117072   2.327   3.125   7.906  1.7203  2.7077 -0.3787
 1870SOL    HW217073   2.239   3.227   7.941 -0.7633  2.0823 -1.5222
 1871SOL     OW17074   1.874   0.914   3.389 -0.4158 -0.2617 -0.2275
 1871SOL    HW117075   1.901   0.877   3.472  1.7682  1.7498 -0.0555
 1871SOL    HW217076   1.954   0.965   3.375 -1.6901  1.3954 -1.5308
 1872SOL     OW17077   3.814   4.287  14.549  0.3424  0.6998 -0.0414
 1872SOL    HW117078   3.808   4.359  14.485 -2.5261 -2.2489 -3.1052
 1872SOL    HW217079   3.823   4.214  14.489  0.0846  1.7603 -1.3802
 1873SOL     OW17080   0.380   2.780  14.722  0.4050  0.0816  0.7348
 1873SOL    HW117081   0.390   2.722  14.798  2.4295  0.6262  0.9007
 1873SOL    HW217082   0.292   2.813  14.736 -0.5129 -2.2542  0.4131
 1874SOL     OW17083   4.321   3.863   7.576 -0.5993  0.2291 -0.1424
 1874SOL    HW117084   4.237   3.842   7.534  0.3633 -0.2688 -1.8151
 1874SOL    HW217085   4.308   3.829   7.664  1.5732  0.1316  0.1455
 1875SOL     OW17086   4.722   2.431   1.224 -0.1875  0.8285  0.1763
 1875SOL    HW117087   4.661   2.447   1.296 -0.0261 -1.1955  0.7631
 1875SOL    HW217088   0.003   2.336   1.217 -2.7657  0.8376 -1.9329
 1876SOL     OW17089   0.429   3.346  10.949 -0.4323 -0.0094 -0.1326
 1876SOL    HW117090   0.440   3.251  10.938  1.2848 -0.0636  2.0269
 1876SOL    HW217091   0.357   3.373  10.892 -1.8566  0.0489  1.7017
 1877SOL     OW17092   2.157   1.330   5.912  0.7217  0.2599 -0.0667
 1877SOL    HW117093   2.205   1.358   5.834 -1.8573 -0.1643 -1.7766
 1877SOL    HW217094   2.130   1.240   5.894  2.3672 -0.4495  0.9408
 1878SOL     OW17095   2.119   4.325   5.957 -0.3757  0.3775  0.8961
 1878SOL    HW117096   2.196   4.380   5.938 -0.2956  0.3022  1.0038
 1878SOL    HW217097   2.072   4.337   5.875 -1.0826  0.1152  1.2682
 1879SOL     OW17098   3.333   1.716  12.854  0.6806  0.1041  0.3436
 1879SOL    HW117099   3.344   1.762  12.771 -2.3429 -0.7487 -0.5528
 1879SOL    HW217100   3.284   1.779  12.907 -0.2109  0.0025 -0.3662
 1880SOL     OW17101   1.187   0.800   5.895  0.2061 -0.2807 -0.1293
 1880SOL    HW117102   1.262   0.793   5.836  0.7381 -0.6147  0.5939
 1880SOL    HW217103   1.202   0.729   5.957  0.1658 -0.3128 -0.1568
 1881SOL     OW17104   3.014   1.919   7.742 -0.0368  0.1023 -0.0781
 1881SOL    HW117105   2.923   1.892   7.759  1.9183 -4.4317  3.1201
 1881SOL    HW217106   3.034   1.949   7.831  1.6897  1.0443 -0.7975
 1882SOL     OW17107   0.547   1.005   4.604 -0.1083 -0.2386 -0.0087
 1882SOL    HW117108   0.618   1.017   4.668  0.5596  0.7303 -0.9399
 1882SOL    HW217109   0.578   0.919   4.576  0.8529  0.3074 -0.6162
 1883SOL     OW17110   1.273   3.775  12.688  0.1056 -0.2710 -0.0699
 1883SOL    HW117111   1.264   3.789  12.782  0.8661  0.1413 -0.0603
 1883SOL    HW217112   1.286   3.680  12.682 -2.5605 -0.6754  0.3229
 1884SOL     OW17113   4.171   3.567   3.396  1.1004  0.1363 -0.4390
 1884SOL    HW117114   4.096   3.564   3.337 -0.0424 -3.6989  1.2161
 1884SOL    HW217115   4.139   3.533   3.479 -1.9454  2.7837 -0.5362
 1885SOL     OW17116   4.089   2.029   5.281 -0.3893  0.7233 -0.6821
 1885SOL    HW117117   4.097   1.980   5.199 -0.6275 -0.5523  0.0554
 1885SOL    HW217118   4.007   2.000   5.320  1.2381 -2.6961  0.1727
 1886SOL     OW17119   1.178   2.876   5.175  0.1738  0.5257  0.4313
 1886SOL    HW117120   1.127   2.842   5.249  2.2042 -0.4393  1.3982
 1886SOL    HW217121   1.182   2.796   5.124  3.8346  1.4424 -0.6565
 1887SOL     OW17122   0.750   2.468   3.870  0.5210  0.9584  0.1284
 1887SOL    HW117123   0.698   2.464   3.950  0.7970 -0.2571  0.2476
 1887SOL    HW217124   0.696   2.524   3.814 -2.6292 -0.9375  1.1931
 1888SOL     OW17125   3.260   3.056   2.140  0.4216 -0.8289  0.0509
 1888SOL    HW117126   3.333   2.993   2.137  2.2025  1.2945 -0.7989
 1888SOL    HW217127   3.287   3.113   2.068 -1.8913 -1.3368 -1.2335
 1889SOL     OW17128   0.923   0.190   9.249 -0.3284 -0.2252  0.1739
 1889SOL    HW117129   0.925   0.211   9.156 -1.6414 -1.1194 -0.0530
 1889SOL    HW217130   0.828   0.183   9.252 -0.3546 -0.7479 -1.9481
 1890SOL     OW17131   2.138   4.687   5.200 -0.0345  0.7671  0.2495
 1890SOL    HW117132   2.145   0.056   5.220 -1.0437  0.7243  0.8269
 1890SOL    HW217133   2.112   4.687   5.108 -0.7998 -2.2508  0.4722
 1891SOL     OW17134   0.316   3.316  15.409  0.4275 -0.1742 -0.6886
 1891SOL    HW117135   0.411   3.317  15.423  0.1812 -1.5458  1.1323
 1891SOL    HW217136   0.288   3.242  15.463 -2.2987 -0.0848 -2.0144
 1892SOL     OW17137   0.111   1.884   1.310 -0.0100  0.1969 -0.3464
 1892SOL    HW117138   0.176   1.853   1.247 -1.8304  0.1880 -2.2170
 1892SOL    HW217139   0.044   1.912   1.249  0.4473 -0.0968 -0.9782
 1893SOL     OW17140   1.508   1.435   6.637  0.3218 -0.2426 -0.2458
 1893SOL    HW117141   1.466   1.349   6.634  0.6225 -0.4478  1.6763
 1893SOL    HW217142   1.558   1.430   6.719  1.7185 -1.4766 -1.1658
 1894SOL     OW17143   4.121   0.043   6.589 -0.3909  0.6010  0.2203
 1894SOL    HW117144   4.095   0.114   6.648 -1.2967  1.1790 -0.8812
 1894SOL    HW217145   4.118   0.091   6.507 -1.5557 -1.2600 -0.8137
 1895SOL     OW17146   2.862   2.996   9.550  0.6935 -0.3118 -0.3273
 1895SOL    HW117147   2.861   2.976   9.643 -1.3797  4.0031  0.6110
 1895SOL    HW217148   2.793   3.062   9.545 -1.9425 -3.0318  0.2530
 1896SOL     OW17149   0.554   0.526   7.176 -0.5257 -0.1403  0.2851
 1896SOL    HW117150   0.577   0.464   7.107 -1.3654 -0.9724  0.7612
 1896SOL    HW217151   0.633   0.521   7.231 -0.9944 -1.7384  0.8134
 1897SOL     OW17152   1.074   1.215   8.808  0.5444 -0.4540  0.2118
 1897SOL    HW117153   1.028   1.175   8.882 -1.2910 -1.4225 -1.4462
 1897SOL    HW217154   1.014   1.276   8.765 -1.0936 -2.0308  0.2535
 1898SOL     OW17155   3.082   4.610   5.895 -0.1011  0.2978 -0.7756
 1898SOL    HW117156   3.017   4.543   5.871  0.0589  0.0746 -0.5866
 1898SOL    HW217157   3.071   4.672   5.823 -0.3318 -0.7746 -1.6639
 1899SOL     OW17158   0.612   2.710   9.206  0.3564  0.8453 -0.0347
 1899SOL    HW117159   0.700   2.697   9.170 -0.3822  0.2644 -1.5950
 1899SOL    HW217160   0.626   2.772   9.278 -1.8447 -1.7753  2.6230
 1900SOL     OW17161   2.787   0.694   5.065  0.1844  0.3505  0.0096
 1900SOL    HW117162   2.755   0.633   4.998  1.4703  0.9749 -1.1773
 1900SOL    HW217163   2.718   0.759   5.057  0.7184  0.8621 -0.4707
 1901SOL     OW17164   0.701   3.639   3.163  0.1822 -0.2471 -0.2219
 1901SOL    HW117165   0.686   3.594   3.080  0.9723 -0.8414 -0.0473
 1901SOL    HW217166   0.724   3.726   3.129  0.4250 -0.3718 -0.3779
 1902SOL     OW17167   0.261   0.653  15.620  0.1750 -0.4100  0.0006
 1902SOL    HW117168   0.207   0.623  15.547 -1.8707  2.0796  0.5132
 1902SOL    HW217169   0.218   0.738  15.628  1.8403  0.4173  0.1326
 1903SOL     OW17170   1.227   1.857   2.796 -0.3371 -0.3055  0.0434
 1903SOL    HW117171   1.204   1.873   2.704  0.3221  1.1965  0.1368
 1903SOL    HW217172   1.280   1.778   2.788  0.3382  0.1166  0.3839
 1904SOL     OW17173   4.069   3.073   2.911 -0.1836  0.6740  0.1638
 1904SOL    HW117174   4.078   3.000   2.851  2.1163 -0.1493  1.5304
 1904SOL    HW217175   4.138   3.128   2.873  0.7521  0.4376  1.5236
 1905SOL     OW17176   0.996   0.142   2.129  0.2579 -0.9734  0.8947
 1905SOL    HW117177   0.907   0.118   2.106 -0.6446  2.5168  0.8014
 1905SOL    HW217178   1.010   0.216   2.070 -0.8514 -1.5983 -0.1546
 1906SOL     OW17179   2.595   0.454   5.625 -0.3396  0.0688  0.6467
 1906SOL    HW117180   2.578   0.407   5.543 -0.6567  1.0139  0.1745
 1906SOL    HW217181   2.690   0.455   5.619 -0.3548  0.5092  0.4703
 1907SOL     OW17182   2.748   0.225   8.963  0.3378  0.3785  0.3701
 1907SOL    HW117183   2.788   0.145   8.929  0.1807 -0.6059  2.4797
 1907SOL    HW217184   2.709   0.184   9.040  2.4928  1.7952  2.2368
 1908SOL     OW17185   1.843   0.957   9.325 -0.9330 -0.4883  0.5522
 1908SOL    HW117186   1.787   0.998   9.260  0.5673 -0.6461 -0.8288
 1908SOL    HW217187   1.783   0.891   9.358 -1.1331  0.8678  2.9354
 1909SOL     OW17188   1.376   2.312   4.891 -0.2511  0.2738  0.5421
 1909SOL    HW117189   1.381   2.248   4.963  0.8752  2.5676  2.4955
 1909SOL    HW217190   1.441   2.275   4.831  1.2039 -0.4056  2.5390
 1910SOL     OW17191   1.144   0.422  12.362  0.1391 -0.2197  0.4248
 1910SOL    HW117192   1.157   0.398  12.270  0.5167  0.6134  0.2639
 1910SOL    HW217193   1.232   0.430  12.400  0.1512 -1.2718  0.6287
 1911SOL     OW17194   4.451   2.549   5.585 -0.4393 -0.1399  0.1265
 1911SOL    HW117195   4.484   2.602   5.513 -0.2198 -0.4331  0.0090
 1911SOL    HW217196   4.482   2.464   5.553  1.3365  1.1204 -1.4652
 1912SOL     OW17197   2.150   0.669   4.994  0.1134  0.1289 -0.3448
 1912SOL    HW117198   2.057   0.683   5.015 -0.0075  0.4527 -1.0967
 1912SOL    HW217199   2.199   0.730   5.048 -0.6052 -0.2425  0.7372
 1913SOL     OW17200   0.642   1.655   7.387 -0.3542  0.0768 -0.2309
 1913SOL    HW117201   0.673   1.609   7.466 -0.8881  1.1956  0.6289
 1913SOL    HW217202   0.722   1.669   7.338 -2.2079  1.5171 -2.8099
 1914SOL     OW17203   3.976   2.028   3.986  0.6036  0.3025  0.2258
 1914SOL    HW117204   3.927   2.048   4.066  1.1946 -1.0177  0.9225
 1914SOL    HW217205   3.937   1.954   3.940 -2.3711  2.4393 -0.6757
 1915SOL     OW17206   3.769   4.348   4.822  0.1768  0.5071  0.0095
 1915SOL    HW117207   3.722   4.360   4.905 -0.9138  1.1946 -0.7040
 1915SOL    HW217208   3.759   4.434   4.780 -0.8896 -1.1007 -3.0301
 1916SOL     OW17209   2.596   4.217   3.426  0.4739  0.1379 -0.1473
 1916SOL    HW117210   2.541   4.292   3.402  1.1627  0.5838 -0.3436
 1916SOL    HW217211   2.664   4.230   3.360 -0.9677  0.9527 -1.4647
 1917SOL     OW17212   2.375   4.621  11.566 -0.1356 -0.3336  0.4597
 1917SOL    HW117213   2.296   4.667  11.595 -1.0277  0.9435 -3.9235
 1917SOL    HW217214   2.379   4.645  11.474  3.2840  0.3782  0.7937
 1918SOL     OW17215   4.111   3.488   4.634 -0.1542  0.3165 -0.1641
 1918SOL    HW117216   4.051   3.463   4.704 -0.8384  0.4223 -0.7235
 1918SOL    HW217217   4.165   3.552   4.681 -0.2844  1.4652 -1.5928
 1919SOL     OW17218   1.086   2.506   6.426 -0.0796 -0.2835  0.5234
 1919SOL    HW117219   1.011   2.446   6.430  0.6602 -1.3291 -1.1007
 1919SOL    HW217220   1.107   2.505   6.519 -0.7889 -1.7853  0.6767
 1920SOL     OW17221   2.742   0.574   2.891  0.1522  0.9945  0.5203
 1920SOL    HW117222   2.830   0.592   2.857 -0.6209  2.5727 -0.6960
 1920SOL    HW217223   2.683   0.619   2.830 -0.2466  1.2458  1.0949
 1921SOL     OW17224   2.754   2.073  15.510 -0.6702 -0.3989  0.4142
 1921SOL    HW117225   2.846   2.049  15.507 -0.3394  0.7461  1.3189
 1921SOL    HW217226   2.713   1.988  15.498 -3.8221  1.1261  0.3534
 1922SOL     OW17227   3.373   3.629   7.493  0.0257  0.1684  0.7434
 1922SOL    HW117228   3.300   3.654   7.437 -0.9798  3.1439  3.4070
 1922SOL    HW217229   3.337   3.564   7.553 -1.2095  1.7985  1.7729
 1923SOL     OW17230   4.418   4.644   7.603 -0.4029 -0.0625  0.1182
 1923SOL    HW117231   4.426   4.567   7.659 -0.2984 -0.1834 -0.0608
 1923SOL    HW217232   4.502   4.650   7.558 -1.2173  0.4116 -1.3639
 1924SOL     OW17233   1.292   1.541  11.410 -0.9903 -0.3028  0.0664
 1924SOL    HW117234   1.342   1.555  11.330 -0.9747  0.2933  0.1839
 1924SOL    HW217235   1.254   1.456  11.388  1.8353 -1.5672  0.1189
 1925SOL     OW17236   0.323   2.063  14.059  0.0360  0.3241 -0.7252
 1925SOL    HW117237   0.256   2.130  14.068  0.9592  0.8688  2.1251
 1925SOL    HW217238   0.315   2.020  14.145 -0.4845  0.0159 -0.9302
 1926SOL     OW17239   2.847   3.936   7.556  0.3657  0.4949  0.2081
 1926SOL    HW117240   2.779   3.982   7.606 -0.8725  0.7498 -1.7374
 1926SOL    HW217241   2.792   3.871   7.512 -0.1610  1.2162 -0.1809
 1927SOL     OW17242   0.397   4.478   5.328 -0.0593  0.1384  0.6950
 1927SOL    HW117243   0.339   4.464   5.254  1.3847  0.1339 -0.4346
 1927SOL    HW217244   0.335   4.478   5.401  1.2699  2.9467  1.8569
 1928SOL     OW17245   4.082   0.006   0.626 -0.3077  0.3991 -0.3408
 1928SOL    HW117246   4.090   4.650   0.573 -0.3067  0.2450 -0.1073
 1928SOL    HW217247   4.151   4.715   0.690 -0.1171 -0.7702 -0.8044
 1929SOL     OW17248   0.803   2.801   2.936  0.1951  0.0262 -0.8729
 1929SOL    HW117249   0.808   2.708   2.916 -0.3613 -0.4167  1.0994
 1929SOL    HW217250   0.835   2.832   2.851 -0.8799  0.2286 -1.2049
 1930SOL     OW17251   0.028   0.831   4.719  0.0692  0.0618 -0.0564
 1930SOL    HW117252   4.676   0.777   4.699  0.3612 -0.4009  0.0755
 1930SOL    HW217253   0.007   0.912   4.673  0.6157  1.2297  1.7643
 1931SOL     OW17254   3.156   2.302   2.653 -0.3188  0.2025 -0.4765
 1931SOL    HW117255   3.151   2.359   2.731 -0.5734  0.5318 -0.7343
 1931SOL    HW217256   3.233   2.339   2.611  0.2376 -0.6110 -0.1815
 1932SOL     OW17257   0.317   3.836   5.373  0.1219 -0.5519 -0.0940
 1932SOL    HW117258   0.221   3.835   5.379 -0.0387  2.0227 -2.5358
 1932SOL    HW217259   0.330   3.831   5.279 -1.2834 -0.3035 -0.2951
 1933SOL     OW17260   1.466   0.455   1.394 -0.0737 -0.3094  0.5854
 1933SOL    HW117261   1.389   0.399   1.399 -0.4818  0.3948  2.2997
 1933SOL    HW217262   1.436   0.532   1.442 -2.1506 -0.4887 -0.4375
 1934SOL     OW17263   2.666   0.437   0.593  0.4115  0.0445  0.3396
 1934SOL    HW117264   2.714   0.359   0.564  0.0424  0.0188 -0.2048
 1934SOL    HW217265   2.701   0.425   0.681 -0.3569  2.3649  0.9613
 1935SOL     OW17266   3.678   3.996  13.928 -0.0523 -0.1347  0.3128
 1935SOL    HW117267   3.685   3.903  13.904 -1.9537 -0.6844  1.9543
 1935SOL    HW217268   3.604   4.013  13.870 -0.8831  0.4096  1.5345
 1936SOL     OW17269   1.295   3.201  13.419  0.0451  0.2020 -0.7198
 1936SOL    HW117270   1.336   3.281  13.384  1.2644 -0.3759 -0.6162
 1936SOL    HW217271   1.283   3.150  13.339  2.8007  0.6399 -1.4401
 1937SOL     OW17272   3.788   0.095   7.240  0.5374  0.9933 -0.1311
 1937SOL    HW117273   3.719   0.029   7.248  0.7822  0.3589 -3.1500
 1937SOL    HW217274   3.763   0.142   7.320 -1.3282  0.9230 -0.6752
 1938SOL     OW17275   0.613   0.175  13.120 -0.7826  0.6951 -0.3209
 1938SOL    HW117276   0.647   0.132  13.199  0.3388 -0.6466 -1.5301
 1938SOL    HW217277   0.688   0.166  13.061 -1.7592  2.5861 -1.8273
 1939SOL     OW17278   2.859   2.341  13.602  0.1763 -0.6996  0.4949
 1939SOL    HW117279   2.838   2.254  13.638 -0.1105  0.0304  2.0766
 1939SOL    HW217280   2.948   2.326  13.570 -0.1756 -0.5821 -0.5311
 1940SOL     OW17281   2.097   1.713   5.676  0.4098 -0.4013  1.2085
 1940SOL    HW117282   2.024   1.714   5.738  0.5564 -1.0093  1.3958
 1940SOL    HW217283   2.087   1.798   5.633  1.5598 -2.1801 -2.5701
 1941SOL     OW17284   0.773   1.629   6.523  0.3767 -0.9574 -0.0921
 1941SOL    HW117285   0.702   1.641   6.586  0.8722  1.7333 -0.0219
 1941SOL    HW217286   0.842   1.669   6.577  1.3496  0.0013 -2.0509
 1942SOL     OW17287   0.830   2.489   7.648  0.0567 -0.0208  0.0129
 1942SOL    HW117288   0.835   2.478   7.553  0.3334 -1.7236  0.2172
 1942SOL    HW217289   0.870   2.408   7.682  0.1313  1.0836  2.4824
 1943SOL     OW17290   0.580   0.894  16.291  0.7551  0.1534 -0.4039
 1943SOL    HW117291   0.671   0.868  16.279 -0.1247 -2.8369 -0.5042
 1943SOL    HW217292   0.557   0.914  16.201 -0.1367  0.6600 -0.0717
 1944SOL     OW17293   4.217   1.868   2.124  0.3868  0.4592 -0.6956
 1944SOL    HW117294   4.199   1.911   2.040  0.1848 -1.7058 -1.7720
 1944SOL    HW217295   4.297   1.819   2.102 -1.0036 -1.7955 -0.7835
 1945SOL     OW17296   2.408   2.271   3.140  0.2303 -0.3238 -0.2120
 1945SOL    HW117297   2.500   2.294   3.145  0.4345 -0.9360 -1.0889
 1945SOL    HW217298   2.422   2.177   3.151  0.0836 -0.3434 -0.1897
 1946SOL     OW17299   1.689   3.827  10.650 -0.0838 -0.1532 -0.1759
 1946SOL    HW117300   1.782   3.807  10.663 -0.4518 -1.0371  1.0542
 1946SOL    HW217301   1.657   3.737  10.659 -1.2519  0.1782 -1.0204
 1947SOL     OW17302   2.345   1.022   9.072 -0.6327 -0.7059  0.3993
 1947SOL    HW117303   2.298   0.978   9.143 -2.5679 -2.2452 -1.8057
 1947SOL    HW217304   2.400   0.949   9.044 -0.2697 -0.4320  0.4141
 1948SOL     OW17305   1.789   0.762   6.245 -0.6404  0.3447  0.2166
 1948SOL    HW117306   1.868   0.716   6.275  0.2625  0.2274 -2.3306
 1948SOL    HW217307   1.762   0.706   6.172 -2.8031 -0.2840  1.4887
 1949SOL     OW17308   0.095   4.578  14.896 -0.1411  0.1657  0.1840
 1949SOL    HW117309   0.122   4.503  14.950 -0.8867 -1.6582 -1.9733
 1949SOL    HW217310   0.005   4.554  14.874 -0.0989  0.1413  0.0434
 1950SOL     OW17311   3.381   1.864   8.225  0.0827 -0.1470  0.1742
 1950SOL    HW117312   3.451   1.806   8.256  0.6650  1.5128  1.9535
 1950SOL    HW217313   3.301   1.818   8.248 -1.0544  2.3299  1.1043
 1951SOL     OW17314   3.837   1.950   5.705  0.1607  0.4405  0.1389
 1951SOL    HW117315   3.839   2.044   5.727  1.7089  0.3974  0.1556
 1951SOL    HW217316   3.742   1.937   5.708  0.5477 -2.2095  0.4438
 1952SOL     OW17317   0.824   0.224   2.683  0.2519  1.0873  0.2910
 1952SOL    HW117318   0.883   0.168   2.733  0.1567  0.3274 -0.4576
 1952SOL    HW217319   0.838   0.197   2.592  1.0840  0.2190  0.6764
 1953SOL     OW17320   3.257   1.507   0.964 -0.1287 -0.2336  0.2638
 1953SOL    HW117321   3.182   1.468   1.008 -0.7438 -0.9252 -1.4492
 1953SOL    HW217322   3.295   1.426   0.930 -2.3804 -2.2362  2.4895
 1954SOL     OW17323   3.808   1.579   5.716 -0.2704  0.1900 -0.0595
 1954SOL    HW117324   3.885   1.613   5.762 -0.8202 -1.2293  1.9400
 1954SOL    HW217325   3.831   1.565   5.624  0.3459  0.4226  0.0564
 1955SOL     OW17326   3.087   4.502   1.099 -0.1524  0.2936 -0.3526
 1955SOL    HW117327   3.063   4.592   1.123 -0.3478 -0.2770  1.5567
 1955SOL    HW217328   3.132   4.467   1.176 -3.3912  1.9663  2.3132
 1956SOL     OW17329   1.928   3.902  16.367 -0.0366 -0.0163 -0.3780
 1956SOL    HW117330   1.990   3.882  16.297 -0.1534  0.7571 -0.7038
 1956SOL    HW217331   1.858   3.839  16.351  0.3716 -0.0738 -1.9598
 1957SOL     OW17332   1.900   0.791   7.832 -0.2568  0.1537 -1.1234
 1957SOL    HW117333   1.836   0.731   7.793 -0.5270  0.9678 -1.9244
 1957SOL    HW217334   1.854   0.874   7.833  2.1705  1.5170 -1.9704
 1958SOL     OW17335   3.508   3.251   3.132 -0.1740 -0.0029  0.0146
 1958SOL    HW117336   3.525   3.219   3.044 -1.8031 -0.2448 -0.2164
 1958SOL    HW217337   3.535   3.342   3.126 -1.7775  0.5564  1.2997
 1959SOL     OW17338   3.156   4.390   9.830 -0.0084 -0.8102 -0.8044
 1959SOL    HW117339   3.156   4.317   9.892 -0.5278  0.5289  0.7724
 1959SOL    HW217340   3.065   4.420   9.833  0.8068  1.5111  0.7828
 1960SOL     OW17341   3.145   0.271   3.914 -0.9274  0.0537  0.6525
 1960SOL    HW117342   3.069   0.313   3.875 -0.2463  2.2501  1.6972
 1960SOL    HW217343   3.104   0.203   3.968  2.0268 -0.2927  2.4728
 1961SOL     OW17344   0.862   3.275   5.154 -0.3956 -0.3766  0.4819
 1961SOL    HW117345   0.780   3.226   5.156 -0.7790  0.3018  1.6992
 1961SOL    HW217346   0.921   3.210   5.117 -2.2440 -0.8868 -1.5863
 1962SOL     OW17347   3.007   1.936   4.037 -0.0963 -0.3975  0.5594
 1962SOL    HW117348   3.016   1.965   3.946  0.9189  0.0586  0.8047
 1962SOL    HW217349   3.008   1.840   4.033 -0.4282 -0.3835  0.0836
 1963SOL     OW17350   2.353   3.444   5.605  0.7718  0.3154  0.1070
 1963SOL    HW117351   2.443   3.470   5.626  0.6630 -0.4544  1.5225
 1963SOL    HW217352   2.369   3.365   5.555 -0.2880  0.9694 -1.2484
 1964SOL     OW17353   2.227   1.965   9.931 -0.2263  0.2142  0.7640
 1964SOL    HW117354   2.254   1.931  10.016 -0.3859 -0.5574  0.5065
 1964SOL    HW217355   2.311   2.008   9.915 -0.4216 -0.0335 -0.9202
 1965SOL     OW17356   0.416   4.315   6.284  0.5132  0.3646 -0.0660
 1965SOL    HW117357   0.495   4.267   6.308  0.1485 -0.2659 -0.1340
 1965SOL    HW217358   0.452   4.384   6.228  2.7009 -1.4340 -0.8715
 1966SOL     OW17359   0.719   0.552   5.772 -0.1058  0.2945  0.4351
 1966SOL    HW117360   0.757   0.606   5.841  0.0485  0.5564  0.1453
 1966SOL    HW217361   0.628   0.556   5.802 -0.2646  0.8467 -0.1079
 1967SOL     OW17362   2.770   1.252   4.556 -0.6068  0.7538 -0.0070
 1967SOL    HW117363   2.769   1.326   4.617  2.1737  1.2640 -0.6043
 1967SOL    HW217364   2.862   1.227   4.548 -0.4550  1.3084  0.0041
 1968SOL     OW17365   4.148   4.033  14.493  0.3254 -0.2864 -0.2714
 1968SOL    HW117366   4.200   4.113  14.497  2.3128 -1.6411  1.0135
 1968SOL    HW217367   4.168   3.997  14.406  3.2291 -0.2816  0.3839
 1969SOL     OW17368   0.793   3.791   9.357 -0.2286  0.3490  0.0583
 1969SOL    HW117369   0.842   3.717   9.393 -0.8303  1.1690  2.5328
 1969SOL    HW217370   0.702   3.760   9.350  1.0108 -3.1419 -0.5200
 1970SOL     OW17371   1.896   2.246   3.424  0.3640  0.0115 -0.3972
 1970SOL    HW117372   1.836   2.311   3.387 -0.5432 -0.9030 -0.5304
 1970SOL    HW217373   1.827   2.194   3.466  1.9607  1.0557  3.5093
 1971SOL     OW17374   2.362   3.352   6.219 -0.2073  0.7062  0.2627
 1971SOL    HW117375   2.268   3.357   6.233 -0.2200  1.0451  0.0506
 1971SOL    HW217376   2.390   3.297   6.293 -0.4193  2.1395  1.4094
 1972SOL     OW17377   4.610   4.637  17.129 -0.2705  0.2979  0.2594
 1972SOL    HW117378   4.630   4.583  17.053  0.4926 -1.0192  1.3983
 1972SOL    HW217379   4.662   4.715  17.110  1.2243 -0.7133  0.2306
 1973SOL     OW17380   4.231   1.987   1.867  0.0061  0.3873  0.1373
 1973SOL    HW117381   4.278   1.909   1.836 -2.9061 -1.3575  0.1746
 1973SOL    HW217382   4.205   2.039   1.791  1.4306 -0.4345 -0.9321
 1974SOL     OW17383   3.423   3.939  13.359 -0.2754 -0.1015 -0.1725
 1974SOL    HW117384   3.518   3.943  13.366 -0.4104  1.3372  0.8873
 1974SOL    HW217385   3.397   4.030  13.373  0.5541 -0.1389  1.6190
 1975SOL     OW17386   0.591   3.681   7.637 -0.4861  0.4703  0.1033
 1975SOL    HW117387   0.569   3.688   7.544 -0.8337 -0.7861  0.0965
 1975SOL    HW217388   0.687   3.676   7.635 -0.5704 -0.1700 -2.3727
 1976SOL     OW17389   3.334   1.267   8.505  0.5145 -0.1893 -0.1055
 1976SOL    HW117390   3.266   1.226   8.559 -0.7384  0.0714 -1.4877
 1976SOL    HW217391   3.398   1.274   8.576  0.2458 -0.9996  0.2178
 1977SOL     OW17392   3.648   4.521   7.590  0.0950 -0.5034 -0.5828
 1977SOL    HW117393   3.576   4.542   7.530 -0.2958  1.5671  0.6055
 1977SOL    HW217394   3.621   4.440   7.633  0.0929 -1.1528 -1.8200
 1978SOL     OW17395   4.217   1.008   6.830  0.2402  0.3004  0.1470
 1978SOL    HW117396   4.237   0.994   6.922  1.2477  1.5778  0.1217
 1978SOL    HW217397   4.154   0.936   6.818  0.5232 -0.2831  2.3260
 1979SOL     OW17398   2.237   2.569   7.744 -0.1752 -0.3958 -0.1972
 1979SOL    HW117399   2.279   2.622   7.812 -0.7837 -0.6725  0.3921
 1979SOL    HW217400   2.226   2.487   7.792 -0.7162  1.2086  2.4238
 1980SOL     OW17401   0.838   2.644   3.456 -0.2285 -0.4521  0.3073
 1980SOL    HW117402   0.747   2.617   3.469 -0.2389 -1.0010 -0.8295
 1980SOL    HW217403   0.849   2.614   3.365 -2.2479 -0.8630  0.1864
 1981SOL     OW17404   0.270   3.389   7.537 -0.1043  0.0885 -0.5934
 1981SOL    HW117405   0.349   3.434   7.565 -1.2772  1.5612  0.3584
 1981SOL    HW217406   0.303   3.300   7.524 -0.4334  0.0024 -0.8708
 1982SOL     OW17407   4.095   0.749  15.597  0.1240 -0.0828  0.7907
 1982SOL    HW117408   4.165   0.757  15.533  1.6443 -1.6154  2.2656
 1982SOL    HW217409   4.036   0.688  15.552  1.2615 -1.6226  1.4038
 1983SOL     OW17410   3.305   3.027   8.478 -0.0923 -0.3937 -0.0371
 1983SOL    HW117411   3.388   3.073   8.466  1.3212 -2.8371  0.2733
 1983SOL    HW217412   3.254   3.063   8.406 -1.5957  0.7996  1.6544
 1984SOL     OW17413   0.294   0.086   0.718  0.8389  0.6225  0.2554
 1984SOL    HW117414   0.332   0.032   0.649  1.5457  0.9195  0.4150
 1984SOL    HW217415   0.257   0.159   0.668  2.8898  0.8397 -0.9671
 1985SOL     OW17416   2.335   3.898   5.507  0.5940  0.4162 -0.6709
 1985SOL    HW117417   2.309   3.954   5.434  2.7433  0.7344 -1.1729
 1985SOL    HW217418   2.257   3.843   5.519  0.3107  0.4772 -2.1659
 1986SOL     OW17419   3.355   1.989  15.978  0.3999  0.2937 -0.9190
 1986SOL    HW117420   3.317   2.053  15.917  0.1796  1.5741  0.5766
 1986SOL    HW217421   3.427   1.948  15.930  0.1397  0.3656 -1.3770
 1987SOL     OW17422   4.240   4.339   4.469  0.3592 -0.1258 -0.0320
 1987SOL    HW117423   4.235   4.268   4.405  3.0647 -1.4934  1.2671
 1987SOL    HW217424   4.171   4.312   4.530  2.7550 -3.1511  1.3519
 1988SOL     OW17425   0.148   2.374   3.666  0.2124 -0.3994  0.2228
 1988SOL    HW117426   0.234   2.332   3.665  0.9669  1.2042 -1.9602
 1988SOL    HW217427   0.132   2.378   3.572  0.4076  2.8134  0.3434
 1989SOL     OW17428   2.241   2.017   9.342  0.0156 -0.4599 -0.3553
 1989SOL    HW117429   2.236   2.013   9.438  1.6204 -0.8421 -0.2867
 1989SOL    HW217430   2.313   2.079   9.330  0.2005 -0.6119 -0.0237
 1990SOL     OW17431   2.299   2.304   5.803  0.0329  0.2916  1.0723
 1990SOL    HW117432   2.282   2.297   5.897 -2.1288 -2.1222  0.5238
 1990SOL    HW217433   2.394   2.318   5.801 -0.1262  1.3838  1.1701
 1991SOL     OW17434   3.362   2.509   0.868  0.3131 -0.0585  0.0288
 1991SOL    HW117435   3.295   2.546   0.925 -1.6037 -3.1350 -0.2398
 1991SOL    HW217436   3.379   2.430   0.920 -0.1975 -0.5938 -0.6116
 1992SOL     OW17437   4.343   3.694   6.319 -0.0022  0.4207  0.4125
 1992SOL    HW117438   4.349   3.779   6.276  1.0176 -1.1188 -2.5019
 1992SOL    HW217439   4.261   3.708   6.367 -1.2751 -0.9375 -1.3648
 1993SOL     OW17440   2.167   1.601  10.100 -0.0380  0.3127  0.5203
 1993SOL    HW117441   2.088   1.553  10.125 -1.7294  3.4948  1.2953
 1993SOL    HW217442   2.142   1.629  10.012  0.3819 -0.5668  0.1238
 1994SOL     OW17443   0.073   3.966   2.005  0.1815  0.0354 -0.2158
 1994SOL    HW117444   0.076   3.998   1.915  2.0491  1.0243  0.2107
 1994SOL    HW217445   0.160   3.930   2.019  0.1089  0.4979  1.4482
 1995SOL     OW17446   0.764   1.146  16.612  0.7016  0.2740  0.5300
 1995SOL    HW117447   0.670   1.138  16.599  0.7426 -1.9287  1.5858
 1995SOL    HW217448   0.797   1.077  16.555 -0.6589 -1.0382  1.3187
 1996SOL     OW17449   1.984   0.016   7.447  0.0571 -0.7494  0.1606
 1996SOL    HW117450   1.992   0.109   7.424 -0.9188 -0.7108 -0.0276
 1996SOL    HW217451   2.031   0.005   7.529 -0.4864 -0.0065  0.5808
 1997SOL     OW17452   3.925   0.935   5.377 -0.6365 -0.2248  0.0533
 1997SOL    HW117453   3.935   1.026   5.404  2.6893 -1.0227  1.4621
 1997SOL    HW217454   4.014   0.903   5.363  0.2471  1.8705  0.8001
 1998SOL     OW17455   4.398   3.044   7.527 -0.2821  0.2967 -0.3847
 1998SOL    HW117456   4.332   3.056   7.458  0.6190 -0.1559 -1.3195
 1998SOL    HW217457   4.428   3.132   7.551 -1.5725 -0.0962  2.7919
 1999SOL     OW17458   1.553   1.327   1.460  0.3000 -0.2532 -0.1139
 1999SOL    HW117459   1.626   1.280   1.501 -0.0183  0.4510  1.2533
 1999SOL    HW217460   1.527   1.380   1.535 -0.9211  2.1067 -2.1962
 2000SOL     OW17461   0.748   0.801  13.504  0.4060 -0.5682  0.1462
 2000SOL    HW117462   0.785   0.877  13.457 -1.0157  0.7296  1.1419
 2000SOL    HW217463   0.826   0.750  13.480 -1.4957 -2.7491 -1.3972
 2001SOL     OW17464   0.489   3.208  12.000 -0.1441  0.3960 -0.3209
 2001SOL    HW117465   0.552   3.143  11.971 -0.2176  0.0493  0.2800
 2001SOL    HW217466   0.514   3.231  12.090  1.7113 -3.2174  0.0466
 2002SOL     OW17467   1.843   0.625   3.893 -0.7765 -0.0117 -0.2736
 2002SOL    HW117468   1.795   0.549   3.860  0.0874 -0.8244  0.3392
 2002SOL    HW217469   1.793   0.700   3.859  0.0568  0.6059 -0.1328
 2003SOL     OW17470   1.035   3.873   4.906 -0.1866 -0.4616 -0.7467
 2003SOL    HW117471   1.057   3.815   4.833  0.4285  0.0314 -0.9545
 2003SOL    HW217472   0.979   3.934   4.859 -1.5858  1.7184  3.7641
 2004SOL     OW17473   3.804   1.860   3.871 -0.1929 -0.1377 -0.1191
 2004SOL    HW117474   3.713   1.874   3.897 -0.7228 -1.0799 -1.4309
 2004SOL    HW217475   3.799   1.796   3.799  0.4034  0.3709 -0.6094
 2005SOL     OW17476   2.579   1.271   2.319 -0.0365  0.6022  0.7793
 2005SOL    HW117477   2.602   1.299   2.407 -0.1553  1.3792  0.5674
 2005SOL    HW217478   2.641   1.324   2.270 -0.8181  1.1917  0.4221
 2006SOL     OW17479   3.587   2.730   8.895  0.1614 -0.0149 -0.4622
 2006SOL    HW117480   3.518   2.665   8.878 -1.0846  1.6750 -1.8301
 2006SOL    HW217481   3.545   2.765   8.973  0.1478 -0.6707 -0.1740
 2007SOL     OW17482   1.735   0.375  13.477 -1.1502 -0.0511  0.2859
 2007SOL    HW117483   1.790   0.433  13.531 -2.8321  0.0230  1.9190
 2007SOL    HW217484   1.775   0.372  13.390  0.3246 -1.3849  0.9955
 2008SOL     OW17485   4.515   1.010   2.168 -0.3625 -0.1205 -0.7640
 2008SOL    HW117486   4.425   1.043   2.177 -0.0665 -0.4429  3.4298
 2008SOL    HW217487   4.498   0.965   2.085  1.1877 -0.1691 -1.0391
 2009SOL     OW17488   1.231   2.919   4.831 -0.2858  0.1016 -0.1753
 2009SOL    HW117489   1.168   2.990   4.847  0.2472  0.1554  1.6943
 2009SOL    HW217490   1.218   2.887   4.742  1.9863  1.1769 -0.8941
 2010SOL     OW17491   3.100   2.609   8.328  0.5142 -0.3270  0.0664
 2010SOL    HW117492   3.100   2.690   8.276 -1.8933 -0.4465 -0.1199
 2010SOL    HW217493   3.155   2.549   8.278  0.7324  0.9366 -1.2081
 2011SOL     OW17494   1.514   3.845  11.481 -0.0959  0.2042  0.3968
 2011SOL    HW117495   1.507   3.806  11.569  0.7686 -2.5300 -0.7417
 2011SOL    HW217496   1.428   3.826  11.444 -0.0049  1.4358 -0.4345
 2012SOL     OW17497   3.715   1.822   9.195 -0.1113  0.4031 -0.1764
 2012SOL    HW117498   3.799   1.856   9.163 -1.4201  2.0223 -1.9222
 2012SOL    HW217499   3.708   1.869   9.278 -1.4959  0.4597 -0.3273
 2013SOL     OW17500   2.681   2.127  13.657  0.0582 -0.5461  0.6602
 2013SOL    HW117501   2.643   2.126  13.569  0.0085 -0.5246  0.6815
 2013SOL    HW217502   2.710   2.038  13.676 -1.0124 -1.0723 -0.1565
 2014SOL     OW17503   4.137   0.219   1.928 -0.8568 -0.1317  0.2205
 2014SOL    HW117504   4.130   0.124   1.927  1.3146 -0.2848 -1.4990
 2014SOL    HW217505   4.213   0.217   1.986 -1.1494 -1.4552  0.5437
 2015SOL     OW17506   1.368   1.750   8.123  0.3129  0.3573  0.0763
 2015SOL    HW117507   1.443   1.782   8.173  0.0751  1.2700 -0.1606
 2015SOL    HW217508   1.392   1.658   8.110 -2.1440 -0.3117  0.3718
 2016SOL     OW17509   3.980   0.245   2.368 -0.2158  0.4835  0.3415
 2016SOL    HW117510   3.985   0.216   2.277  0.5723 -0.5283  0.7023
 2016SOL    HW217511   3.972   0.340   2.362  0.9922  0.6681  1.8619
 2017SOL     OW17512   2.877   3.468   5.213 -0.0957  0.4637 -0.1681
 2017SOL    HW117513   2.884   3.376   5.235 -0.8401  0.7473  1.2877
 2017SOL    HW217514   2.964   3.473   5.174  0.0924  0.2436  0.2297
 2018SOL     OW17515   3.677   1.713   2.482 -0.4724  0.5996 -0.0507
 2018SOL    HW117516   3.748   1.772   2.506  0.8728 -1.4417  0.9888
 2018SOL    HW217517   3.617   1.734   2.553  0.3841  0.9612  0.5710
 2019SOL     OW17518   2.938   1.906   5.957  0.0557 -0.3577 -0.1843
 2019SOL    HW117519   2.933   1.826   5.904  0.8833 -0.7087  0.2685
 2019SOL    HW217520   2.846   1.930   5.972  0.5672  1.5649 -0.1230
 2020SOL     OW17521   4.620   0.788   0.643  0.0853  0.4677 -0.1190
 2020SOL    HW117522   4.592   0.748   0.561 -3.1787 -0.4089  1.4103
 2020SOL    HW217523   4.537   0.800   0.688  0.7494  1.5239  0.8178
 2021SOL     OW17524   2.729   2.139   4.143 -0.4265  0.2325 -0.2238
 2021SOL    HW117525   2.762   2.086   4.215  2.0951 -0.2172 -1.7150
 2021SOL    HW217526   2.655   2.178   4.189  0.0856 -0.8536  1.5028
 2022SOL     OW17527   2.743   4.531   4.248 -0.1212  0.4883 -0.0968
 2022SOL    HW117528   2.681   4.458   4.252 -0.1260  0.5437  0.7538
 2022SOL    HW217529   2.772   4.537   4.338  1.0993  1.7970 -0.5731
 2023SOL     OW17530   3.930   3.344   8.875  0.4702  0.0989 -0.4476
 2023SOL    HW117531   3.908   3.395   8.953  1.8539 -1.1214  0.7351
 2023SOL    HW217532   3.968   3.413   8.821  1.5522 -0.7733 -0.8069
 2024SOL     OW17533   2.296   3.866   6.341  0.0435  0.5458  0.3741
 2024SOL    HW117534   2.289   3.867   6.437  2.9776 -0.1942  0.5972
 2024SOL    HW217535   2.232   3.937   6.329 -1.1525 -0.4277  1.0019
 2025SOL     OW17536   0.296   1.934   8.415 -0.2427 -0.2049 -0.2324
 2025SOL    HW117537   0.246   1.996   8.363  0.0056 -0.5295 -0.8527
 2025SOL    HW217538   0.331   1.990   8.485 -0.7500 -0.8716  0.5650
 2026SOL     OW17539   4.042   2.817   4.955 -0.6143 -0.5404  0.0529
 2026SOL    HW117540   4.064   2.867   5.034  0.5582  1.3989 -1.5013
 2026SOL    HW217541   3.966   2.772   4.992  0.0235  2.0113  4.5282
 2027SOL     OW17542   3.738   1.435   9.947 -0.0758 -0.2062 -0.5759
 2027SOL    HW117543   3.759   1.475  10.031  0.5879  0.4678 -1.0696
 2027SOL    HW217544   3.823   1.423   9.906  0.8123  3.8049  0.1257
 2028SOL     OW17545   4.640   3.773  11.979  0.4769  0.4493  0.0026
 2028SOL    HW117546   4.585   3.828  11.924 -0.2258 -0.5957 -0.3411
 2028SOL    HW217547   4.569   3.717  12.008  0.8755 -0.6503 -1.1255
 2029SOL     OW17548   3.138   2.590  11.856 -0.6275  0.4585  0.3320
 2029SOL    HW117549   3.074   2.634  11.913  1.5016  0.8044  2.4308
 2029SOL    HW217550   3.089   2.593  11.774  0.2361 -1.7236 -0.2446
 2030SOL     OW17551   0.376   1.604  16.067 -0.1368 -0.2215  0.5890
 2030SOL    HW117552   0.354   1.538  16.001  1.4764 -1.7395  1.5572
 2030SOL    HW217553   0.297   1.656  16.051 -0.1053  0.1238  1.5698
 2031SOL     OW17554   2.683   1.431  14.545  0.0680 -0.5156 -0.3550
 2031SOL    HW117555   2.720   1.511  14.583  0.7121 -0.8687 -0.2250
 2031SOL    HW217556   2.679   1.450  14.451  0.7869 -0.3962 -0.3625
 2032SOL     OW17557   3.927   2.241  17.333 -0.5009  0.1344 -0.0619
 2032SOL    HW117558   3.882   2.189  17.266 -1.3525 -0.5620  1.0456
 2032SOL    HW217559   3.870   2.317  17.326 -3.3022 -1.6881  2.9084
 2033SOL     OW17560   4.551   2.238   8.875  0.5043  0.6792  0.4414
 2033SOL    HW117561   4.493   2.314   8.880  0.6511  0.8121  0.1100
 2033SOL    HW217562   4.491   2.163   8.875 -0.3121  1.3190 -0.1938
 2034SOL     OW17563   1.072   3.654   9.218 -0.2389  0.4245 -0.6933
 2034SOL    HW117564   1.098   3.602   9.143  0.2349  0.2461 -0.4025
 2034SOL    HW217565   1.147   3.635   9.275  0.2601 -0.3985 -1.6369
 2035SOL     OW17566   2.164   3.360   7.480 -0.4055 -0.0367 -0.4304
 2035SOL    HW117567   2.238   3.301   7.468 -0.5390 -0.0231 -1.2926
 2035SOL    HW217568   2.209   3.438   7.513  0.0899 -0.1821 -0.7704
 2036SOL     OW17569   1.412   2.525   6.895  0.0290  0.1150 -0.0572
 2036SOL    HW117570   1.344   2.460   6.912 -0.2437  0.7940  1.4417
 2036SOL    HW217571   1.401   2.527   6.800  0.9187 -1.5639 -0.1925
 2037SOL     OW17572   2.319   1.929   2.846  0.1221 -0.3528  0.2737
 2037SOL    HW117573   2.375   1.865   2.802  1.6341  1.0082  0.2363
 2037SOL    HW217574   2.243   1.875   2.871 -1.0012 -0.0323 -2.5058
 2038SOL     OW17575   2.972   2.041   5.727 -0.0688 -0.2341  0.0492
 2038SOL    HW117576   2.893   2.089   5.701  1.4528  1.4435 -1.4938
 2038SOL    HW217577   2.949   2.031   5.820  0.5962 -0.8550  0.1483
 2039SOL     OW17578   4.424   3.241   3.756 -0.2342  0.0768 -0.4704
 2039SOL    HW117579   4.392   3.156   3.723 -0.7586  0.5888 -1.2831
 2039SOL    HW217580   4.420   3.232   3.851 -1.9213  1.0657 -0.4484
 2040SOL     OW17581   1.767   0.752   5.287  0.2982 -0.9673 -0.1654
 2040SOL    HW117582   1.771   0.733   5.381 -1.9745 -1.5658 -0.1855
 2040SOL    HW217583   1.816   0.831   5.267 -0.9448 -0.3644 -0.8106
 2041SOL     OW17584   3.498   1.628   0.381  0.1749 -0.0141  0.3776
 2041SOL    HW117585   3.590   1.624   0.356  0.4330  0.3157  1.2515
 2041SOL    HW217586   3.497   1.703   0.440 -2.0569 -0.9041  1.4893
 2042SOL     OW17587   0.066   2.217  11.276  0.7358  0.4232 -0.4063
 2042SOL    HW117588   0.155   2.197  11.247 -0.0176 -0.7279 -1.9330
 2042SOL    HW217589   0.079   2.296  11.329 -1.3210 -0.0845  0.8535
 2043SOL     OW17590   3.818   3.971   4.302  0.0740  1.0142  0.1759
 2043SOL    HW117591   3.726   3.991   4.288 -0.3298 -1.1583 -0.2215
 2043SOL    HW217592   3.828   3.922   4.384 -0.6371 -0.5678 -0.6847
 2044SOL     OW17593   3.651   3.767   9.732  0.5143 -0.3638 -0.0582
 2044SOL    HW117594   3.724   3.733   9.680  1.6708  2.0714 -0.0001
 2044SOL    HW217595   3.604   3.685   9.748  0.9402 -1.1343 -2.8199
 2045SOL     OW17596   2.452   0.788  11.855 -0.0535  0.0884 -0.1544
 2045SOL    HW117597   2.455   0.695  11.837 -2.0951  0.0176 -0.1717
 2045SOL    HW217598   2.368   0.811  11.896  0.6702  2.5060  0.0083
 2046SOL     OW17599   1.083   4.328   2.982  0.4478  0.1250 -0.0221
 2046SOL    HW117600   1.132   4.389   3.037  0.6769  0.7552 -0.9323
 2046SOL    HW217601   1.153   4.274   2.945 -0.9915 -1.0455 -1.0256
 2047SOL     OW17602   0.916   1.253   2.554 -0.0854 -0.4216 -0.4338
 2047SOL    HW117603   0.851   1.307   2.510  0.0307 -2.3617 -2.9588
 2047SOL    HW217604   0.932   1.307   2.632  2.5112  0.2389 -1.4300
 2048SOL     OW17605   3.765   1.588   8.150  0.0221 -0.1584 -0.2168
 2048SOL    HW117606   3.751   1.612   8.058  0.3009  0.4410 -0.0993
 2048SOL    HW217607   3.802   1.669   8.184  1.8931  0.2938 -3.3064
 2049SOL     OW17608   2.792   3.298   7.315  0.1564  0.7400  0.3804
 2049SOL    HW117609   2.837   3.213   7.319  0.3311  0.7874 -0.8706
 2049SOL    HW217610   2.764   3.303   7.224 -0.2694 -0.9888  0.4143
 2050SOL     OW17611   4.211   1.587   4.780  0.1560  0.7425 -0.7188
 2050SOL    HW117612   4.162   1.511   4.750  0.7603 -0.6587  1.9027
 2050SOL    HW217613   4.217   1.630   4.694 -0.5585 -0.5925 -1.4396
 2051SOL     OW17614   0.437   2.527  17.319  0.0313 -0.1670  0.5122
 2051SOL    HW117615   0.488   2.582  17.259  1.2480 -0.2154  1.4906
 2051SOL    HW217616   0.362   2.508  17.263  3.4179 -3.3995 -2.9367
 2052SOL     OW17617   3.352   4.548   8.821 -0.0828 -0.5655  0.7186
 2052SOL    HW117618   3.362   4.607   8.746 -0.5613  0.0537  1.1481
 2052SOL    HW217619   3.378   4.463   8.783 -0.3796  0.9127 -2.8452
 2053SOL     OW17620   2.008   4.497   1.837  0.0260  0.7661  0.3374
 2053SOL    HW117621   2.029   4.517   1.928 -1.6127 -1.0375  1.1159
 2053SOL    HW217622   1.914   4.516   1.839 -0.2651 -0.7181  0.6662
 2054SOL     OW17623   0.425   2.368   7.451  0.0007  0.3183  0.0610
 2054SOL    HW117624   0.368   2.439   7.420  1.1546  0.8506 -0.8626
 2054SOL    HW217625   0.383   2.338   7.531 -1.9061  0.2493 -0.9529
 2055SOL     OW17626   2.412   1.174   8.104 -0.1365  0.1613  0.1836
 2055SOL    HW117627   2.475   1.123   8.155 -3.7371 -3.1599  1.3529
 2055SOL    HW217628   2.468   1.250   8.086 -0.0751  0.0710 -0.0001
 2056SOL     OW17629   3.754   2.052   4.735 -0.4724 -0.1775  0.2285
 2056SOL    HW117630   3.831   1.996   4.736 -1.2934 -1.2983 -0.1131
 2056SOL    HW217631   3.748   2.081   4.827  0.3771 -0.2336  0.3037
 2057SOL     OW17632   0.945   4.216   8.287 -0.1708 -0.1042  0.4311
 2057SOL    HW117633   0.907   4.129   8.278  0.4042 -0.1451 -1.4629
 2057SOL    HW217634   0.896   4.266   8.352  1.0498  0.6684  0.7701
 2058SOL     OW17635   0.611   2.212  14.124 -0.1068 -0.0090  0.1939
 2058SOL    HW117636   0.580   2.302  14.113  2.4190  1.1354  2.4266
 2058SOL    HW217637   0.555   2.168  14.060 -1.0527  0.3169  0.7856
 2059SOL     OW17638   3.080   1.450   7.846  0.2729  0.3452  0.5510
 2059SOL    HW117639   3.123   1.365   7.834 -0.0522  0.1195  0.9632
 2059SOL    HW217640   3.012   1.426   7.909  1.2326 -2.2093  0.6389
 2060SOL     OW17641   3.986   1.405   6.692 -0.1744 -0.2494 -0.0473
 2060SOL    HW117642   4.067   1.355   6.679 -1.2422 -1.1820 -3.2099
 2060SOL    HW217643   3.945   1.382   6.608  1.7605  1.3440 -1.4278
 2061SOL     OW17644   1.166   0.731   6.840 -0.4057  0.0322 -0.2235
 2061SOL    HW117645   1.094   0.759   6.783  1.2117  3.8270 -0.3636
 2061SOL    HW217646   1.242   0.752   6.785 -1.1597  1.0889 -0.8535
 2062SOL     OW17647   3.208   3.272   0.797 -0.1852  0.0149  0.0883
 2062SOL    HW117648   3.183   3.195   0.848  1.5720 -1.8656 -1.8279
 2062SOL    HW217649   3.274   3.234   0.738 -0.2897  0.9888 -0.6450
 2063SOL     OW17650   2.781   2.919   4.131  0.1963 -0.4409 -0.0588
 2063SOL    HW117651   2.848   2.854   4.107  0.0908  0.2448 -2.2110
 2063SOL    HW217652   2.796   2.988   4.067 -1.7158 -1.1345 -1.2549
 2064SOL     OW17653   0.878   2.911   3.609 -0.1041  0.3110  0.1950
 2064SOL    HW117654   0.879   2.875   3.520  0.4200  2.7138 -0.7825
 2064SOL    HW217655   0.791   2.951   3.607 -0.1086  0.3306  0.8164
 2065SOL     OW17656   4.690   2.830   3.920  0.1237 -0.3546  0.2972
 2065SOL    HW117657   4.702   2.897   3.853 -1.3213  0.8099  1.2235
 2065SOL    HW217658   0.016   2.758   3.880  0.5937 -0.6618  1.4196
 2066SOL     OW17659   3.540   1.278   9.763 -0.2469 -0.3360 -0.6505
 2066SOL    HW117660   3.615   1.284   9.704  1.4408  2.4810  1.7672
 2066SOL    HW217661   3.591   1.307   9.839 -1.1082 -0.3179 -0.0875
 2067SOL     OW17662   3.252   1.358   3.568 -0.5003  0.0446 -0.4017
 2067SOL    HW117663   3.217   1.321   3.487  0.0339 -0.3493 -0.4490
 2067SOL    HW217664   3.338   1.317   3.578 -1.6831 -2.8073 -2.0875
 2068SOL     OW17665   1.198   3.484  15.527  0.0548  0.1000 -0.0829
 2068SOL    HW117666   1.230   3.426  15.596  1.9741 -0.1654 -1.2143
 2068SOL    HW217667   1.141   3.426  15.476 -0.5880 -0.4257  1.2214
 2069SOL     OW17668   0.014   2.441   9.174 -0.2149 -0.6013 -0.0968
 2069SOL    HW117669   0.050   2.356   9.146  1.2181 -0.3975  1.1613
 2069SOL    HW217670   0.040   2.446   9.265  0.8280 -0.2575 -0.4137
 2070SOL     OW17671   3.880   1.050   2.314 -0.1587 -0.0348 -0.2022
 2070SOL    HW117672   3.918   1.120   2.368  0.0603  0.3214 -0.8182
 2070SOL    HW217673   3.862   0.989   2.385 -0.9943 -0.0257 -0.4034
 2071SOL     OW17674   0.214   3.517   5.261  0.5479  0.0996  0.1979
 2071SOL    HW117675   0.263   3.448   5.217 -0.6560 -1.5475  1.4424
 2071SOL    HW217676   0.252   3.527   5.348  2.4512 -0.0175 -0.6326
 2072SOL     OW17677   3.444   4.578   4.277 -0.9533  0.6132 -0.3087
 2072SOL    HW117678   3.476   4.518   4.209 -1.1546  2.5437 -2.0814
 2072SOL    HW217679   3.416   4.654   4.228 -3.7807  0.5639  1.2222
 2073SOL     OW17680   0.298   3.394   9.176  0.3016 -0.0303 -0.3056
 2073SOL    HW117681   0.213   3.360   9.206 -0.2216  1.3217 -0.2403
 2073SOL    HW217682   0.287   3.481   9.138 -0.8256  0.1578  0.4334
 2074SOL     OW17683   2.932   3.045   7.259  0.0806  0.0217  0.2437
 2074SOL    HW117684   2.920   3.023   7.352  0.2540 -0.6976  0.0954
 2074SOL    HW217685   2.946   2.960   7.219 -2.0393 -0.1109 -0.2449
 2075SOL     OW17686   3.837   2.274   6.317 -0.2461 -0.4141 -0.2180
 2075SOL    HW117687   3.801   2.203   6.264 -0.5252 -0.0886 -0.4603
 2075SOL    HW217688   3.757   2.326   6.321  0.0354  0.1683 -2.1990
 2076SOL     OW17689   3.967   3.396   6.698 -0.3248  0.4101  0.3671
 2076SOL    HW117690   4.000   3.480   6.665  0.9797 -0.0497  0.4663
 2076SOL    HW217691   3.927   3.435   6.776 -0.3080 -0.7594  0.9565
 2077SOL     OW17692   4.593   2.597   2.914  0.7943  0.5152 -1.2259
 2077SOL    HW117693   4.578   2.688   2.940 -0.0996  0.5033 -1.7210
 2077SOL    HW217694   4.685   2.607   2.889  2.1765 -3.3345  2.3503
 2078SOL     OW17695   4.195   2.321  14.749  0.1857  0.2052  0.1546
 2078SOL    HW117696   4.193   2.329  14.844  1.0711  2.2830  0.0036
 2078SOL    HW217697   4.287   2.341  14.729  0.0669 -0.1349 -0.7341
 2079SOL     OW17698   3.362   3.290   3.824 -0.4449 -0.2054 -0.1025
 2079SOL    HW117699   3.291   3.353   3.830 -1.6518 -1.7103  1.6599
 2079SOL    HW217700   3.387   3.278   3.916  0.6764  0.1716 -0.3603
 2080SOL     OW17701   2.661   3.221  17.568 -0.1814  0.2847 -0.0701
 2080SOL    HW117702   2.701   3.297  17.609  2.5852 -1.1442 -0.0909
 2080SOL    HW217703   2.665   3.161  17.643  0.9518  0.8044  0.2894
 2081SOL     OW17704   0.132   0.405  13.474  0.3674 -0.3581 -0.9084
 2081SOL    HW117705   0.038   0.422  13.481  0.5885 -0.2467  1.6577
 2081SOL    HW217706   0.164   0.491  13.500  0.4056 -1.1334  1.5883
 2082SOL     OW17707   2.055   2.325   9.458  0.2463  0.0284  0.4620
 2082SOL    HW117708   2.066   2.315   9.553  0.2663 -0.8531  0.3602
 2082SOL    HW217709   1.975   2.275   9.445  1.1374 -1.2339 -0.1314
 2083SOL     OW17710   0.036   4.237  15.761 -0.0894 -0.4523  0.1364
 2083SOL    HW117711   0.019   4.143  15.755  2.4119 -0.8280 -1.2767
 2083SOL    HW217712   0.109   4.242  15.699 -1.2258 -0.7111 -1.2387
 2084SOL     OW17713   1.786   3.197   4.954 -0.4681 -0.2029  0.2599
 2084SOL    HW117714   1.828   3.137   4.894  1.2384 -0.2605  1.5017
 2084SOL    HW217715   1.698   3.174   4.925 -0.1115 -0.9842 -0.1728
 2085SOL     OW17716   1.181   2.695   4.972  0.2626  0.4746 -0.0174
 2085SOL    HW117717   1.226   2.653   4.899 -0.2818 -0.3328  0.1195
 2085SOL    HW217718   1.182   2.786   4.942  1.2680  0.6582  0.5501
 2086SOL     OW17719   0.872   1.906   7.556 -0.3728 -0.6859  0.2606
 2086SOL    HW117720   0.961   1.930   7.581 -0.6859  0.9310 -0.1641
 2086SOL    HW217721   0.833   1.992   7.543 -0.5594 -0.8684 -0.3741
 2087SOL     OW17722   0.116   0.099   6.230 -0.2808 -0.3984  0.0759
 2087SOL    HW117723   0.200   0.073   6.268 -0.1811 -0.2205 -0.0231
 2087SOL    HW217724   0.060   0.133   6.300 -2.6396 -2.6867 -0.6971
 2088SOL     OW17725   2.274   2.995   8.740 -0.4794 -0.0042  0.2420
 2088SOL    HW117726   2.336   2.930   8.707 -0.3413  0.5319 -0.5747
 2088SOL    HW217727   2.320   3.079   8.748 -1.3138  0.4110  0.6911
 2089SOL     OW17728   0.148   2.121   1.040 -0.5043 -0.3257  0.2028
 2089SOL    HW117729   0.067   2.129   1.091 -0.1013  1.0156  0.6336
 2089SOL    HW217730   0.163   2.027   1.047 -2.9468 -0.6914  0.5031
 2090SOL     OW17731   0.234   0.927   2.553 -0.0105  0.3108 -0.3393
 2090SOL    HW117732   0.250   0.902   2.462 -0.7890  0.4294 -0.5061
 2090SOL    HW217733   0.141   0.906   2.558  0.1912 -0.5581 -0.2459
 2091SOL     OW17734   3.915   0.985   8.110 -0.4889  0.4653 -0.5344
 2091SOL    HW117735   3.996   0.966   8.064 -0.0585  2.1243 -0.4386
 2091SOL    HW217736   3.908   1.080   8.110 -1.8704  0.3629 -0.2362
 2092SOL     OW17737   3.966   1.573   2.053 -0.1232 -0.4793  0.1938
 2092SOL    HW117738   3.909   1.517   1.999 -0.2058 -0.2217  0.0151
 2092SOL    HW217739   3.997   1.637   1.990 -1.8839 -1.0478 -1.2681
 2093SOL     OW17740   4.517   3.046   3.304 -0.0539  0.2531  0.8611
 2093SOL    HW117741   4.501   3.052   3.209 -0.1926 -3.3726  0.6417
 2093SOL    HW217742   4.552   2.957   3.304 -0.5139  0.0528 -1.4116
 2094SOL     OW17743   2.079   3.328   1.891  0.1093 -0.3383 -0.3641
 2094SOL    HW117744   2.006   3.333   1.952 -0.1611  0.5426 -0.7542
 2094SOL    HW217745   2.147   3.383   1.931 -1.1199  1.6198 -1.0112
 2095SOL     OW17746   2.175   0.450   9.570  0.3795 -0.4534  0.2992
 2095SOL    HW117747   2.082   0.431   9.565  0.2289  0.2731  0.3991
 2095SOL    HW217748   2.187   0.366   9.613  0.0511 -1.4781 -1.6011
 2096SOL     OW17749   1.962   1.522   7.462  0.0537  0.6551 -0.1631
 2096SOL    HW117750   1.995   1.519   7.551 -1.8760 -1.2069  0.4918
 2096SOL    HW217751   2.044   1.514   7.414 -0.2983 -0.0013 -0.6557
 2097SOL     OW17752   2.030   0.183   2.139 -0.0133 -0.5951 -0.0814
 2097SOL    HW117753   2.035   0.144   2.052  1.8303  0.8127 -0.5951
 2097SOL    HW217754   2.019   0.109   2.198 -0.6244  0.0459  0.6117
 2098SOL     OW17755   0.596   1.076  10.536  0.1317  0.2693 -0.2912
 2098SOL    HW117756   0.534   1.094  10.466 -0.2550  1.8525  0.4463
 2098SOL    HW217757   0.675   1.067  10.483  0.9411 -0.9546  1.1075
 2099SOL     OW17758   1.359   3.813   1.086 -0.1538 -0.1672  0.3352
 2099SOL    HW117759   1.399   3.880   1.031 -0.2706  0.7101  1.3064
 2099SOL    HW217760   1.265   3.823   1.071 -0.6082 -1.2659  2.4149
 2100SOL     OW17761   3.038   2.107   6.252  1.0068 -0.7980 -0.0321
 2100SOL    HW117762   3.099   2.104   6.178 -0.3588 -1.2655 -1.1289
 2100SOL    HW217763   2.967   2.161   6.220 -0.1487 -0.1208  3.6113
 2101SOL     OW17764   4.342   3.067   7.060  0.5651 -0.1297 -0.2064
 2101SOL    HW117765   4.431   3.032   7.068 -0.0318 -1.5648  0.0265
 2101SOL    HW217766   4.302   3.029   6.982 -1.8180 -3.2098  2.5325
 2102SOL     OW17767   2.018   2.732   9.777  0.0147  0.2831 -0.2164
 2102SOL    HW117768   2.012   2.804   9.839 -0.6854 -0.0748  0.1332
 2102SOL    HW217769   1.950   2.760   9.715  2.8176  1.7763 -2.6132
 2103SOL     OW17770   4.124   3.182   0.913  0.2430 -0.2269  0.1153
 2103SOL    HW117771   4.200   3.239   0.907  0.0576 -0.0094 -0.1610
 2103SOL    HW217772   4.121   3.164   0.820  1.7003 -1.5511  0.3415
 2104SOL     OW17773   1.164   1.073   5.364  0.3081  0.2499  0.1905
 2104SOL    HW117774   1.135   1.159   5.335 -2.3875  0.1150  2.4968
 2104SOL    HW217775   1.192   1.042   5.278  1.6409 -0.3678  0.8471
 2105SOL     OW17776   2.000   1.960   9.238  0.2890 -0.2396 -0.0422
 2105SOL    HW117777   1.951   2.010   9.303 -0.9463 -1.4686 -0.0379
 2105SOL    HW217778   2.090   1.982   9.261 -0.3361  0.9351  1.2477
 2106SOL     OW17779   0.009   1.488   8.217 -0.1195 -0.0825 -0.3651
 2106SOL    HW117780   0.009   1.582   8.201 -0.8251 -0.5254 -2.8852
 2106SOL    HW217781   4.649   1.473   8.262 -0.3861  2.7994  0.1058
 2107SOL     OW17782   0.077   0.637   1.772  0.1397 -0.4946  0.1659
 2107SOL    HW117783   0.075   0.662   1.679 -0.7832 -0.1781  0.2683
 2107SOL    HW217784   0.057   0.543   1.774 -1.5796 -0.2091 -3.0830
 2108SOL     OW17785   4.506   2.246   2.706  0.0970  0.6035 -0.0061
 2108SOL    HW117786   4.590   2.231   2.750 -0.3944 -1.3276  0.2982
 2108SOL    HW217787   4.448   2.183   2.748  1.6467  0.4889  1.9723
 2109SOL     OW17788   2.971   1.112   9.438 -0.1148 -1.0295  0.1095
 2109SOL    HW117789   2.916   1.162   9.498 -0.1120 -0.0265 -0.7086
 2109SOL    HW217790   2.994   1.037   9.492  0.9106 -0.7901  0.0151
 2110SOL     OW17791   0.627   4.216   2.231  0.3590  0.0919 -0.3789
 2110SOL    HW117792   0.546   4.205   2.280 -0.7692  1.1262 -2.0288
 2110SOL    HW217793   0.626   4.142   2.171  0.4404 -0.2755  0.0723
 2111SOL     OW17794   2.252   3.521  14.477 -0.0241  0.5163 -0.5473
 2111SOL    HW117795   2.202   3.564  14.408 -3.8298  0.5395  2.2109
 2111SOL    HW217796   2.309   3.592  14.509  1.7145 -1.8769  1.7304
 2112SOL     OW17797   2.784   3.223   8.613 -0.1497 -0.0798  0.3364
 2112SOL    HW117798   2.811   3.135   8.640 -0.7058 -0.0522  1.0057
 2112SOL    HW217799   2.836   3.277   8.672  0.2811 -0.6206  0.4440
 2113SOL     OW17800   2.027   2.895   9.999  0.8595  0.1230 -0.2492
 2113SOL    HW117801   2.084   2.836  10.049  1.8393  1.4582  0.2186
 2113SOL    HW217802   1.982   2.944  10.068  0.4956 -1.0344  0.3324
 2114SOL     OW17803   3.313   4.397   5.144 -0.9366  0.0273 -0.0252
 2114SOL    HW117804   3.285   4.324   5.198 -0.9215  0.0283 -0.0161
 2114SOL    HW217805   3.233   4.449   5.154 -0.2708  1.3255 -1.5126
 2115SOL     OW17806   2.668   2.053  12.024  0.2856  0.0457 -0.0762
 2115SOL    HW117807   2.706   2.053  11.936 -1.1292  3.0300 -0.6869
 2115SOL    HW217808   2.574   2.057  12.008  0.5605  2.5431 -1.0370
 2116SOL     OW17809   1.800   3.283   1.323 -0.3792  0.3150  0.2370
 2116SOL    HW117810   1.890   3.302   1.351  1.0576 -1.8282 -2.8852
 2116SOL    HW217811   1.773   3.256   1.411  0.4601  0.1466  0.4446
 2117SOL     OW17812   1.597   1.077   4.542 -0.3469 -0.0989 -0.1191
 2117SOL    HW117813   1.623   1.137   4.471 -4.6799 -1.3474 -2.7874
 2117SOL    HW217814   1.583   1.146   4.607 -0.8133 -1.2198  0.9559
 2118SOL     OW17815   4.635   2.784   3.344 -0.4563 -0.3944 -0.0105
 2118SOL    HW117816   4.720   2.742   3.362  0.2901  1.4920  0.8425
 2118SOL    HW217817   4.586   2.724   3.399  1.2235 -0.8364  1.0110
 2119SOL     OW17818   3.068   3.868   3.139 -0.0320  0.0120  0.7165
 2119SOL    HW117819   3.150   3.820   3.135 -1.6834 -2.8149  0.3511
 2119SOL    HW217820   3.017   3.816   3.201 -0.9829 -2.1488 -1.8595
 2120SOL     OW17821   1.279   3.438   0.533  0.8628 -0.3417 -0.3516
 2120SOL    HW117822   1.328   3.375   0.481 -0.0014 -0.7552 -0.6729
 2120SOL    HW217823   1.271   3.379   0.608  1.3200  1.6703  1.2798
 2121SOL     OW17824   2.438   3.768   6.111  0.5910 -0.2849  0.3575
 2121SOL    HW117825   2.417   3.695   6.053 -1.7013 -0.2510  1.1428
 2121SOL    HW217826   2.362   3.779   6.168  0.5049  1.2912 -0.0485
 2122SOL     OW17827   1.258   1.506   7.655 -0.6230  0.4548  0.0835
 2122SOL    HW117828   1.260   1.478   7.564  0.1807  0.7074  0.0204
 2122SOL    HW217829   1.273   1.422   7.698  1.2189  0.0781 -1.2733
 2123SOL     OW17830   3.252   0.730   7.611  0.0310 -0.4681  0.0264
 2123SOL    HW117831   3.333   0.679   7.611  1.5422  1.9508 -4.9605
 2123SOL    HW217832   3.251   0.780   7.529  0.2964 -0.4098  0.0598
 2124SOL     OW17833   1.875   0.659   6.752  0.1400 -0.2723  0.1415
 2124SOL    HW117834   1.834   0.719   6.689  0.6649  0.4990  0.5303
 2124SOL    HW217835   1.819   0.582   6.740  1.8212 -1.1571 -1.8499
 2125SOL     OW17836   0.276   2.542   4.814 -0.3282  0.4414 -0.7157
 2125SOL    HW117837   0.257   2.449   4.823 -0.7593  0.7724  1.7931
 2125SOL    HW217838   0.280   2.561   4.908  0.4275  0.2071 -0.7032
 2126SOL     OW17839   0.521   0.713   9.071 -0.3096  0.2144  0.9988
 2126SOL    HW117840   0.534   0.800   9.108 -0.2285 -0.0300  1.5506
 2126SOL    HW217841   0.431   0.735   9.047 -0.6015 -1.5852  0.4112
 2127SOL     OW17842   1.811   4.126  16.862  0.1235 -0.4340  0.0911
 2127SOL    HW117843   1.717   4.117  16.849  0.0771  0.1599  0.0147
 2127SOL    HW217844   1.840   4.113  16.771 -0.1909 -0.4496 -0.0044
 2128SOL     OW17845   1.678   3.818  16.246  0.6472 -0.1781 -0.3381
 2128SOL    HW117846   1.647   3.883  16.183  1.6313 -1.0687 -1.7479
 2128SOL    HW217847   1.642   3.848  16.329  2.1025 -0.1565  0.2935
 2129SOL     OW17848   2.235   2.200  14.170  0.0727 -0.1039 -0.0031
 2129SOL    HW117849   2.206   2.169  14.256  0.4960 -1.9938 -0.5441
 2129SOL    HW217850   2.257   2.292  14.186 -0.4033  0.1051 -0.5575
 2130SOL     OW17851   0.721   2.151   4.066 -0.2224 -0.1366  0.2172
 2130SOL    HW117852   0.810   2.121   4.048 -0.5967  0.1594 -2.1320
 2130SOL    HW217853   0.672   2.079   4.027 -1.1946  0.6302  0.0345
 2131SOL     OW17854   4.534   2.111   1.470  0.1707  0.2095  0.1548
 2131SOL    HW117855   4.484   2.177   1.421 -0.3019 -0.0207  0.3182
 2131SOL    HW217856   4.465   2.060   1.512  1.6434 -0.9900  1.0983
 2132SOL     OW17857   0.695   2.263  12.250 -0.4932 -0.5658  0.0728
 2132SOL    HW117858   0.602   2.284  12.251 -0.0991  1.0951  3.2021
 2132SOL    HW217859   0.735   2.347  12.272 -1.5673 -0.2520  0.8072
 2133SOL     OW17860   0.230   2.376   7.143  0.0989 -0.0022 -0.1810
 2133SOL    HW117861   0.187   2.354   7.060 -1.6527 -2.1442  1.3231
 2133SOL    HW217862   0.207   2.301   7.197 -0.3853 -0.8288 -1.5209
 2134SOL     OW17863   3.482   2.756   5.477 -0.2603  0.2420  0.3912
 2134SOL    HW117864   3.513   2.690   5.539  1.5445 -0.3319 -1.1277
 2134SOL    HW217865   3.406   2.795   5.520  0.0363 -1.3719  2.3569
 2135SOL     OW17866   2.660   0.328   8.266 -0.3096 -0.4279  0.0841
 2135SOL    HW117867   2.646   0.342   8.172 -0.0346  0.6596  0.2092
 2135SOL    HW217868   2.734   0.268   8.271  2.6569  3.3119  0.9059
 2136SOL     OW17869   3.495   3.226   2.368  0.8117 -0.1187 -0.4210
 2136SOL    HW117870   3.514   3.180   2.286 -2.5225 -1.1827 -0.5647
 2136SOL    HW217871   3.582   3.256   2.395  0.1140  0.4711  1.1838
 2137SOL     OW17872   0.824   0.633   6.939  0.6857 -0.3082  0.0397
 2137SOL    HW117873   0.731   0.652   6.926  0.7783  1.2429  1.6091
 2137SOL    HW217874   0.837   0.678   7.023 -0.7602  0.4779 -0.1570
 2138SOL     OW17875   2.651   2.597   3.150  0.4836 -0.2648 -0.1438
 2138SOL    HW117876   2.743   2.607   3.127  0.5673 -0.9640 -0.1313
 2138SOL    HW217877   2.641   2.508   3.115 -2.8670  0.1873 -0.3688
 2139SOL     OW17878   2.209   3.628   6.224 -0.0155 -0.0826 -0.1958
 2139SOL    HW117879   2.211   3.701   6.286 -0.0110 -0.5398  0.3475
 2139SOL    HW217880   2.121   3.593   6.242  0.3851  0.2950  2.5410
 2140SOL     OW17881   2.987   2.738   7.773  0.0761  0.5663  0.2293
 2140SOL    HW117882   3.017   2.793   7.846 -1.7064  0.8511  0.7566
 2140SOL    HW217883   2.960   2.660   7.821 -0.4918 -0.7428 -2.2213
 2141SOL     OW17884   4.326   2.739   6.958  0.4990  0.2601 -0.4243
 2141SOL    HW117885   4.399   2.743   6.897  0.1643 -0.3702 -0.8648
 2141SOL    HW217886   4.300   2.647   6.953 -0.4408  0.4645  0.8381
 2142SOL     OW17887   0.052   1.775   8.482 -0.0402 -0.1867 -0.8691
 2142SOL    HW117888   0.123   1.832   8.454 -1.0694  0.9649 -1.1355
 2142SOL    HW217889   0.006   1.823   8.550 -2.3440 -1.7270 -1.3340
 2143SOL     OW17890   2.998   4.533  14.833  0.4303 -0.8590 -0.0657
 2143SOL    HW117891   3.024   4.523  14.924 -0.8274  0.4263  0.4414
 2143SOL    HW217892   2.913   4.488  14.829  0.4959 -0.9602 -0.3779
 2144SOL     OW17893   3.037   4.193   1.177  0.0459  0.3230 -0.5481
 2144SOL    HW117894   3.105   4.238   1.227  0.8026 -1.6381  0.1831
 2144SOL    HW217895   2.977   4.154   1.240  0.4353 -1.6410 -1.3957
 2145SOL     OW17896   2.003   0.719   1.710  0.0847 -0.2410  0.1672
 2145SOL    HW117897   2.047   0.737   1.626  1.1476 -1.2469  0.5139
 2145SOL    HW217898   1.962   0.634   1.695 -0.3295 -0.3292  1.8139
 2146SOL     OW17899   1.433   4.297   7.423  0.6438 -0.2610 -0.1955
 2146SOL    HW117900   1.473   4.308   7.510  0.5060 -0.2295 -0.1356
 2146SOL    HW217901   1.445   4.387   7.394  0.5939  0.2050  1.2359
 2147SOL     OW17902   0.166   1.247   3.856 -0.1398 -0.0523  0.4659
 2147SOL    HW117903   0.081   1.231   3.814 -0.6700  3.4578  0.1603
 2147SOL    HW217904   0.187   1.155   3.870  0.9023 -0.1886 -2.1036
 2148SOL     OW17905   0.264   1.462   2.710  0.2557 -0.1253  0.1565
 2148SOL    HW117906   0.183   1.502   2.679  1.6815  3.3016  0.8367
 2148SOL    HW217907   0.272   1.387   2.652  0.1198 -0.3676  0.4522
 2149SOL     OW17908   1.056   1.412   4.822 -0.1709 -0.2682 -0.0126
 2149SOL    HW117909   0.991   1.480   4.806  0.5601 -0.1023 -2.2475
 2149SOL    HW217910   1.142   1.452   4.837  0.1721 -1.8016  2.2092
 2150SOL     OW17911   1.429   0.308   7.548  0.5206  0.4384 -0.1505
 2150SOL    HW117912   1.347   0.267   7.518  0.7833 -1.2596  1.4084
 2150SOL    HW217913   1.485   0.249   7.499  0.4688 -0.1526  0.4951
 2151SOL     OW17914   3.590   2.588   9.257  0.2068 -0.1349 -0.6817
 2151SOL    HW117915   3.675   2.592   9.300 -0.3161  1.3025  0.2012
 2151SOL    HW217916   3.577   2.677   9.224  0.1828  0.0636 -0.1407
 2152SOL     OW17917   2.545   0.881  13.776 -0.0224  0.3969  0.7567
 2152SOL    HW117918   2.504   0.939  13.711  0.6717 -0.5610 -0.5320
 2152SOL    HW217919   2.590   0.812  13.727 -1.7713  0.1705 -0.5312
 2153SOL     OW17920   3.552   4.323   6.813  0.3123  0.2778  0.5898
 2153SOL    HW117921   3.503   4.290   6.889  1.8066 -1.4377  0.7997
 2153SOL    HW217922   3.477   4.357   6.764  1.2862 -0.3219 -1.3030
 2154SOL     OW17923   0.306   3.824   1.946 -0.3576  0.0511  0.4421
 2154SOL    HW117924   0.331   3.738   1.978 -4.3044 -0.7329  1.4065
 2154SOL    HW217925   0.319   3.812   1.852  1.3819 -0.4029  0.7521
 2155SOL     OW17926   1.501   4.486   3.342  0.0155  0.1258 -0.7385
 2155SOL    HW117927   1.579   4.439   3.313  1.5634  1.5377  1.1115
 2155SOL    HW217928   1.533   4.560   3.394 -2.4597 -0.5929  1.7913
 2156SOL     OW17929   1.472   2.186   8.100 -0.3397  0.3648 -0.3419
 2156SOL    HW117930   1.420   2.261   8.127 -1.4113 -0.2970 -0.5660
 2156SOL    HW217931   1.464   2.139   8.183 -0.6106 -1.7445 -1.5585
 2157SOL     OW17932   3.935   3.404   1.248 -0.3654  0.2801  0.1183
 2157SOL    HW117933   3.856   3.416   1.300  0.1430 -2.1082  1.4459
 2157SOL    HW217934   3.907   3.374   1.162 -0.5734 -0.0242  0.2928
 2158SOL     OW17935   2.416   4.214   2.729  0.0821  0.2897 -0.1513
 2158SOL    HW117936   2.508   4.209   2.705  0.1278 -0.0695  0.0964
 2158SOL    HW217937   2.410   4.133   2.779 -1.5672  1.2306  1.1696
 2159SOL     OW17938   4.417   1.891   4.353 -0.0702 -0.0947 -0.4845
 2159SOL    HW117939   4.375   1.831   4.291 -2.4927 -0.4371  1.4845
 2159SOL    HW217940   4.342   1.947   4.371 -0.8681 -1.8378  1.6805
 2160SOL     OW17941   2.337   1.421   4.977 -0.4836  0.6796 -0.1235
 2160SOL    HW117942   2.286   1.471   5.041 -0.3959  2.0790 -1.1420
 2160SOL    HW217943   2.319   1.332   5.007  0.4402  0.8417  0.9292
 2161SOL     OW17944   3.695   2.087   4.473 -0.6638  0.4869 -0.7086
 2161SOL    HW117945   3.714   2.069   4.566  0.4990  0.9407 -0.8555
 2161SOL    HW217946   3.614   2.136   4.481 -0.9875 -0.3536  1.3863
 2162SOL     OW17947   0.447   1.485  10.786  0.1186  0.2933 -0.5275
 2162SOL    HW117948   0.457   1.487  10.691  1.9459  0.4632 -0.3390
 2162SOL    HW217949   0.536   1.471  10.820  0.3104 -2.4162 -2.2006
 2163SOL     OW17950   1.238   4.638   7.843  0.1603  0.5601  0.3235
 2163SOL    HW117951   1.169   4.689   7.885 -1.4124 -0.4379 -1.0543
 2163SOL    HW217952   1.287   4.712   7.809 -1.9571  1.6990 -0.2446
 2164SOL     OW17953   1.945   4.003   8.971 -0.4010 -0.1459 -0.1669
 2164SOL    HW117954   2.020   3.961   9.013  1.1006  0.6208 -2.0619
 2164SOL    HW217955   1.946   4.083   9.022  1.5509 -0.4052  0.1893
 2165SOL     OW17956   4.569   3.714   5.404 -0.3042  0.1826 -0.1638
 2165SOL    HW117957   4.623   3.677   5.474 -0.0522  0.2612 -0.3185
 2165SOL    HW217958   4.501   3.760   5.454  0.4627 -0.2687  1.3059
 2166SOL     OW17959   4.101   2.668   7.622 -0.0191 -0.8695  0.4639
 2166SOL    HW117960   4.035   2.608   7.587  0.1251  0.5961 -2.2481
 2166SOL    HW217961   4.056   2.750   7.641 -0.8339 -0.8506 -1.6413
 2167SOL     OW17962   0.759   4.394   2.496  0.1774 -0.3304 -0.0285
 2167SOL    HW117963   0.696   4.461   2.469  0.6494  0.6330  1.3003
 2167SOL    HW217964   0.708   4.334   2.551 -0.1557  0.2585  0.3034
 2168SOL     OW17965   1.778   0.791   8.172  0.1589 -0.3887 -0.7728
 2168SOL    HW117966   1.855   0.775   8.227 -1.6787 -1.7058  1.4084
 2168SOL    HW217967   1.717   0.742   8.227 -2.7405  0.4373 -3.2294
 2169SOL     OW17968   0.789   1.566   9.078  0.1022  0.2484  0.1315
 2169SOL    HW117969   0.765   1.650   9.038 -0.9576  0.2929  0.8788
 2169SOL    HW217970   0.876   1.592   9.110 -0.2582  0.9552  0.5445
 2170SOL     OW17971   3.945   2.729   6.093  0.1313 -0.3307 -0.5192
 2170SOL    HW117972   3.913   2.771   6.014 -2.8212  0.2533  0.9883
 2170SOL    HW217973   3.953   2.640   6.060  0.7800 -0.0464 -1.1207
 2171SOL     OW17974   2.068   2.610   8.757 -0.1322  1.0220 -0.6219
 2171SOL    HW117975   1.985   2.596   8.711  0.7245  3.2180 -2.8585
 2171SOL    HW217976   2.084   2.703   8.738 -1.7603  1.6071  0.9072
 2172SOL     OW17977   2.626   2.096   8.999  0.4748  0.5987 -0.2669
 2172SOL    HW117978   2.714   2.113   9.031  0.6541 -0.5974 -0.1014
 2172SOL    HW217979   2.642   2.010   8.959 -0.4220 -0.0272  0.7029
 2173SOL     OW17980   1.817   4.451  12.750 -0.0518 -0.1726 -0.0817
 2173SOL    HW117981   1.876   4.524  12.732  0.6891 -0.7807 -0.1206
 2173SOL    HW217982   1.774   4.460  12.665 -0.5509 -2.1421 -0.0415
 2174SOL     OW17983   4.165   1.022   2.271  0.0100  0.1428  0.8149
 2174SOL    HW117984   4.148   1.019   2.176  0.8539  0.5559  0.6470
 2174SOL    HW217985   4.086   0.982   2.306 -0.1408  0.6320  1.0333
 2175SOL     OW17986   0.478   2.471  14.075  0.3425 -0.4669  0.1996
 2175SOL    HW117987   0.421   2.450  14.001  0.8777 -2.0829  0.2444
 2175SOL    HW217988   0.510   2.559  14.056 -1.1616 -0.4315 -2.1132
 2176SOL     OW17989   4.700   2.755  14.906  0.1519 -0.2564  0.4338
 2176SOL    HW117990   4.694   2.702  14.826  0.7302 -1.3936  1.1631
 2176SOL    HW217991   4.679   2.843  14.874  1.0873  0.1223  0.8702
 2177SOL     OW17992   1.059   3.770   1.126 -0.1294 -0.2111 -0.2466
 2177SOL    HW117993   1.015   3.807   1.203  0.9960 -1.0941  0.8380
 2177SOL    HW217994   1.032   3.828   1.055 -2.0109 -1.6737 -0.7250
 2178SOL     OW17995   1.082   2.914   5.989  0.3150  0.6526 -0.0702
 2178SOL    HW117996   1.028   2.881   6.060  0.4985  2.4542  0.9079
 2178SOL    HW217997   1.158   2.933   6.044 -0.7209 -1.0823  1.9341
 2179SOL     OW17998   0.938   2.805   2.693  0.1837 -0.1188  0.9318
 2179SOL    HW117999   0.985   2.870   2.641 -1.9781  0.0641 -0.7841
 2179SOL    HW218000   1.001   2.733   2.697 -1.3049 -1.5295 -1.1709
 2180SOL     OW18001   1.882   3.385   5.664 -0.7918 -0.4765 -0.4787
 2180SOL    HW118002   1.902   3.346   5.579  1.9660 -0.8411  0.3518
 2180SOL    HW218003   1.826   3.317   5.702  0.0648 -0.1249  1.4255
 2181SOL     OW18004   3.389   0.204   8.792  0.3637  0.3931 -0.0247
 2181SOL    HW118005   3.424   0.119   8.766 -1.6617  0.4165 -2.8117
 2181SOL    HW218006   3.336   0.232   8.717  0.3206  0.6216  0.0901
 2182SOL     OW18007   2.932   3.908   9.302  0.1849  0.7277 -0.1310
 2182SOL    HW118008   2.865   3.907   9.371 -0.5760  0.2665 -0.8672
 2182SOL    HW218009   3.010   3.940   9.347 -0.7705  1.9299  0.6625
 2183SOL     OW18010   3.756   3.922  14.539 -1.0693  0.0065 -0.1168
 2183SOL    HW118011   3.712   3.974  14.606  1.1258  0.1285  1.2238
 2183SOL    HW218012   3.766   3.979  14.462  0.5431  1.0958  0.9165
 2184SOL     OW18013   1.594   4.332  14.077  0.1337  0.2801  0.9063
 2184SOL    HW118014   1.545   4.413  14.093  0.2845  0.6999 -0.7454
 2184SOL    HW218015   1.670   4.348  14.132  1.5158 -1.2283 -0.5522
 2185SOL     OW18016   0.896   2.084  11.304  0.1724 -0.3497 -0.4479
 2185SOL    HW118017   0.949   2.051  11.232 -0.6173 -3.0644  0.2391
 2185SOL    HW218018   0.807   2.090  11.269  0.5819 -2.1069 -1.7757
 2186SOL     OW18019   2.874   1.711   0.988 -0.2310  0.6681 -0.3370
 2186SOL    HW118020   2.941   1.744   0.928  1.3149  1.1280  1.6470
 2186SOL    HW218021   2.932   1.658   1.042 -2.2588 -0.0029  1.1922
 2187SOL     OW18022   3.954   1.078   1.834 -0.0112 -0.2726 -0.0570
 2187SOL    HW118023   3.970   1.028   1.754 -0.5511 -0.2985 -0.1450
 2187SOL    HW218024   3.943   1.166   1.797  1.7588  0.2821  0.7088
 2188SOL     OW18025   4.536   2.421   3.690 -0.5169  0.2298  0.0601
 2188SOL    HW118026   4.540   2.328   3.667  1.3764  0.3847 -0.2601
 2188SOL    HW218027   4.503   2.412   3.780  1.3978  2.1070  0.9564
 2189SOL     OW18028   0.788   3.485   4.742  0.0584  0.2884 -0.2123
 2189SOL    HW118029   0.758   3.408   4.790 -1.3726  0.2531 -1.1464
 2189SOL    HW218030   0.732   3.481   4.664  0.0202  0.0700 -0.1728
 2190SOL     OW18031   0.749   0.303   5.268  0.0531 -0.9852  0.4638
 2190SOL    HW118032   0.821   0.307   5.205 -0.9418 -0.7921 -0.6670
 2190SOL    HW218033   0.733   0.396   5.285  1.3537 -0.9611  1.4988
 2191SOL     OW18034   2.539   4.316   4.000 -0.7847  0.0591 -0.5257
 2191SOL    HW118035   2.528   4.229   4.040 -0.5095  0.3507  0.1909
 2191SOL    HW218036   2.486   4.302   3.922 -0.2355  1.2226 -1.0977
 2192SOL     OW18037   3.666   3.052  12.846  0.3135 -0.0644  0.1033
 2192SOL    HW118038   3.679   3.028  12.937  1.0608 -0.8283 -0.2107
 2192SOL    HW218039   3.637   2.970  12.806 -2.1160  1.6080 -1.5728
 2193SOL     OW18040   4.364   0.708   5.186 -0.3022 -0.0097 -0.3905
 2193SOL    HW118041   4.387   0.769   5.116 -1.5940  0.6999 -0.1903
 2193SOL    HW218042   4.269   0.700   5.181 -0.3757  1.2700 -1.0894
 2194SOL     OW18043   4.550   3.416   7.828  0.5263 -0.3901  0.4176
 2194SOL    HW118044   4.612   3.451   7.892 -0.7115  0.8085  0.9555
 2194SOL    HW218045   4.481   3.386   7.888 -0.2697  1.5936  0.4763
 2195SOL     OW18046   0.827   0.832  16.227 -0.1779  0.1530 -0.1165
 2195SOL    HW118047   0.896   0.776  16.263  0.1639  0.5991 -0.0800
 2195SOL    HW218048   0.844   0.838  16.133 -0.4116  2.1847 -0.0331
 2196SOL     OW18049   3.223   4.637   3.246  0.1740 -0.3303 -0.5322
 2196SOL    HW118050   3.214   4.613   3.338 -1.5444  0.7112 -0.4364
 2196SOL    HW218051   3.317   4.658   3.246  0.1304 -0.1356  0.6852
 2197SOL     OW18052   0.213   0.375  11.284  0.0116  0.2468  0.3981
 2197SOL    HW118053   0.139   0.344  11.231  0.7764 -0.7347 -0.0887
 2197SOL    HW218054   0.187   0.456  11.328  0.8856  0.4892  0.4570
 2198SOL     OW18055   2.544   2.183   2.066  0.0512  0.0528  0.8506
 2198SOL    HW118056   2.490   2.258   2.042 -0.2427 -0.5016 -0.2285
 2198SOL    HW218057   2.611   2.228   2.116 -0.8211  1.3496  0.8360
 2199SOL     OW18058   0.873   3.856   1.300  0.1282 -0.3219  0.3282
 2199SOL    HW118059   0.781   3.861   1.274 -0.7437  0.1416  3.5719
 2199SOL    HW218060   0.863   3.855   1.395  1.1181  1.6291  0.4598
 2200SOL     OW18061   4.391   4.382   2.505  0.2191 -0.7555  0.1384
 2200SOL    HW118062   4.377   4.287   2.514 -1.4282 -0.7059 -2.0464
 2200SOL    HW218063   4.468   4.402   2.558 -0.1864  0.2606  0.3416
 2201SOL     OW18064   4.407   1.723   7.021  0.5727 -0.5979  0.4602
 2201SOL    HW118065   4.451   1.699   7.103  0.8122 -2.3402 -0.1804
 2201SOL    HW218066   4.369   1.807   7.046  0.4996 -0.7972  1.0138
 2202SOL     OW18067   1.494   0.817   5.326 -0.1675  0.0598  0.0025
 2202SOL    HW118068   1.585   0.787   5.323  0.6625  2.7775 -2.3021
 2202SOL    HW218069   1.504   0.912   5.336 -2.2233  0.1618  1.0515
 2203SOL     OW18070   0.046   2.463   6.547 -0.2314  0.5836  0.1692
 2203SOL    HW118071   0.058   2.424   6.461 -0.2778 -1.9229  1.3036
 2203SOL    HW218072   0.138   2.459   6.573 -0.2681  3.1597  0.7168
 2204SOL     OW18073   2.367   3.897   9.822  0.1315 -0.0183  0.2265
 2204SOL    HW118074   2.315   3.970   9.857  1.5034  0.1368  1.9253
 2204SOL    HW218075   2.390   3.861   9.907  0.0055  1.9811  1.1204
 2205SOL     OW18076   2.410   3.291  10.825 -0.9530 -0.5156 -0.5442
 2205SOL    HW118077   2.387   3.378  10.792  0.2619 -0.1746 -0.4647
 2205SOL    HW218078   2.391   3.238  10.747 -0.8415 -0.6460 -0.4827
 2206SOL     OW18079   1.852   1.575  17.089  0.4224 -0.2407  0.1598
 2206SOL    HW118080   1.822   1.582  17.179  2.8136  0.0320  0.9286
 2206SOL    HW218081   1.930   1.523  17.104  0.3978 -0.7720 -1.4995
 2207SOL     OW18082   1.724   3.280   4.089  0.2940 -0.4872 -0.2006
 2207SOL    HW118083   1.735   3.356   4.031 -0.8625  1.0252  1.5551
 2207SOL    HW218084   1.660   3.314   4.152  0.3688  1.6770 -1.2895
 2208SOL     OW18085   1.855   0.362  13.212 -0.9186 -0.6141 -0.3055
 2208SOL    HW118086   1.847   0.268  13.195 -1.8618 -0.6439  0.3142
 2208SOL    HW218087   1.894   0.400  13.133 -2.9948  0.6820 -0.7030
 2209SOL     OW18088   0.903   2.587   8.017 -0.0131 -0.1324 -0.5856
 2209SOL    HW118089   0.826   2.530   8.011  0.8057 -1.4989  1.6213
 2209SOL    HW218090   0.870   2.648   8.083 -1.1442 -0.8598 -0.4632
 2210SOL     OW18091   2.287   3.537  11.428  0.3866 -0.0073 -0.4820
 2210SOL    HW118092   2.195   3.561  11.437  0.5782  0.8685 -0.8263
 2210SOL    HW218093   2.275   3.445  11.406  2.0051 -0.3174 -0.0556
 2211SOL     OW18094   2.620   2.657   2.559 -0.5201  0.2462  0.1328
 2211SOL    HW118095   2.678   2.581   2.555 -1.9738 -0.8815  0.6228
 2211SOL    HW218096   2.651   2.691   2.643  0.7928  1.9131 -1.0266
 2212SOL     OW18097   3.866   2.894   0.328  0.2460 -0.5691 -0.1530
 2212SOL    HW118098   3.883   2.813   0.279  1.4317 -0.5210  0.1683
 2212SOL    HW218099   3.798   2.862   0.387  0.1876  1.2954  0.8096
 2213SOL     OW18100   2.827   2.157   3.669 -0.0776  0.4614  0.0599
 2213SOL    HW118101   2.751   2.213   3.650 -0.0863  0.4134 -0.0481
 2213SOL    HW218102   2.805   2.124   3.756  2.7315  0.7551  0.8807
 2214SOL     OW18103   1.285   3.073  13.648 -0.1059  0.0915 -0.1362
 2214SOL    HW118104   1.351   3.007  13.626 -0.5050 -1.4485  3.2917
 2214SOL    HW218105   1.275   3.121  13.566  0.4446 -0.3494 -0.4685
 2215SOL     OW18106   2.268   2.699   9.616  0.4710  0.0088  0.1975
 2215SOL    HW118107   2.311   2.768   9.668 -0.5291 -1.5736  3.0711
 2215SOL    HW218108   2.192   2.690   9.673  1.5786  0.4723  1.7438
 2216SOL     OW18109   0.840   3.151   3.306  0.3522 -0.3117  0.0187
 2216SOL    HW118110   0.823   3.062   3.275 -2.2547 -0.0583  0.7428
 2216SOL    HW218111   0.872   3.188   3.224  2.5018 -0.7414  0.6725
 2217SOL     OW18112   1.192   0.164  15.570 -0.0385  0.0349 -0.2883
 2217SOL    HW118113   1.261   0.221  15.538  0.9881 -0.0088  1.8644
 2217SOL    HW218114   1.165   0.216  15.645  0.3086  1.3723 -1.0972
 2218SOL     OW18115   3.491   3.479   8.051 -0.3844 -0.1861  0.1499
 2218SOL    HW118116   3.525   3.433   8.127 -0.1676  0.3583  0.3814
 2218SOL    HW218117   3.576   3.504   8.016 -0.5162 -0.5727 -0.4559
 2219SOL     OW18118   3.144   3.425   6.587 -0.2217  0.4147 -0.2754
 2219SOL    HW118119   3.239   3.431   6.577 -0.5076  1.8473 -2.2556
 2219SOL    HW218120   3.114   3.473   6.509  1.4652  0.5312 -0.8449
 2220SOL     OW18121   3.427   0.020  10.158  0.4567  0.1266  0.6073
 2220SOL    HW118122   3.338   0.012  10.122  1.2787 -1.9196 -1.0012
 2220SOL    HW218123   3.481   4.682  10.109  0.9619 -0.4465  1.8820
 2221SOL     OW18124   0.036   1.413   5.609  0.1888  0.9710 -0.0874
 2221SOL    HW118125   0.002   1.334   5.566 -2.2522  2.4038 -0.7573
 2221SOL    HW218126   0.128   1.405   5.584  0.6710  0.3560  1.8934
 2222SOL     OW18127   0.435   1.108   2.999 -0.0296 -0.1147  0.1937
 2222SOL    HW118128   0.479   1.057   2.931  1.5530 -0.4242  1.4425
 2222SOL    HW218129   0.362   1.049   3.016  0.6819 -0.9104  0.4933
 2223SOL     OW18130   1.095   0.602   7.846 -0.4216  0.1071  0.7893
 2223SOL    HW118131   1.155   0.551   7.901 -0.6888  0.9174  1.8299
 2223SOL    HW218132   1.039   0.651   7.905 -1.0982 -0.7403  0.8436
 2224SOL     OW18133   1.246   3.265   0.735  0.5857  0.1283 -0.0532
 2224SOL    HW118134   1.184   3.201   0.769  0.7138  0.3660  0.6529
 2224SOL    HW218135   1.300   3.274   0.814 -0.7513 -0.1373  0.8996
 2225SOL     OW18136   3.894   3.916   8.502 -0.0576  0.1218  0.2339
 2225SOL    HW118137   3.891   3.842   8.441  0.2316  0.1301  0.2135
 2225SOL    HW218138   3.902   3.865   8.582  3.0870 -0.1695 -0.2970
 2226SOL     OW18139   3.155   3.749   8.983  0.0281  0.7388 -0.1496
 2226SOL    HW118140   3.069   3.784   9.005  0.3367  2.1274 -1.1410
 2226SOL    HW218141   3.169   3.691   9.058  1.7511  1.1672 -0.1290
 2227SOL     OW18142   1.622   2.885   4.281  0.2441 -0.1621  0.2638
 2227SOL    HW118143   1.576   2.938   4.215  1.5979  0.1911 -0.3949
 2227SOL    HW218144   1.660   2.955   4.333 -0.0105 -1.2611  1.9241
 2228SOL     OW18145   2.548   0.636  14.823 -0.0923 -0.2665  0.6348
 2228SOL    HW118146   2.594   0.659  14.742 -0.7369 -0.6820  0.1539
 2228SOL    HW218147   2.505   0.553  14.802  0.8963  0.3563 -3.9304
 2229SOL     OW18148   1.784   3.434   8.398 -0.2440 -0.3368  0.4731
 2229SOL    HW118149   1.842   3.388   8.458 -0.4302 -0.2925  0.6845
 2229SOL    HW218150   1.852   3.487   8.356 -2.0799  0.0199 -2.0363
 2230SOL     OW18151   4.227   2.558  11.246  0.1703  0.6185  0.1849
 2230SOL    HW118152   4.158   2.502  11.282  0.6228 -2.5230 -3.8296
 2230SOL    HW218153   4.303   2.503  11.263 -0.4907  0.1080  1.5008
 2231SOL     OW18154   0.951   3.074   4.435 -0.2742 -0.0205 -0.1419
 2231SOL    HW118155   0.876   3.094   4.380 -0.4987 -2.0444 -0.5462
 2231SOL    HW218156   0.907   3.016   4.497 -0.6938  0.3976 -0.0465
 2232SOL     OW18157   4.639   3.335   3.114  0.2654  0.0820 -0.0767
 2232SOL    HW118158   4.578   3.300   3.180 -0.7390  1.0159 -0.5010
 2232SOL    HW218159   4.708   3.382   3.161 -1.7107  1.5114  1.4133
 2233SOL     OW18160   1.945   3.770  14.383 -0.0477  0.1188  0.1538
 2233SOL    HW118161   2.003   3.700  14.352  1.2631  1.1317  0.3041
 2233SOL    HW218162   1.934   3.818  14.301 -1.4597 -1.2534 -0.4452
 2234SOL     OW18163   4.462   1.768   6.698  0.1274 -0.4862 -0.8150
 2234SOL    HW118164   4.385   1.738   6.746  1.8408  0.3413  2.4540
 2234SOL    HW218165   4.532   1.714   6.736 -0.4119 -1.1337 -0.7347
 2235SOL     OW18166   2.853   4.238   5.524 -0.6800 -0.3373 -0.0016
 2235SOL    HW118167   2.803   4.318   5.507 -2.3590 -1.3602  0.1176
 2235SOL    HW218168   2.925   4.266   5.581  0.2366 -0.6116 -1.0237
 2236SOL     OW18169   4.243   1.925   6.542 -0.0004  0.1485  0.0649
 2236SOL    HW118170   4.236   1.939   6.637  0.0923  0.8445 -0.0275
 2236SOL    HW218171   4.166   1.975   6.513  0.3951  0.6350 -0.1390
 2237SOL     OW18172   3.369   2.005   4.607  0.4178 -0.2916  0.1476
 2237SOL    HW118173   3.325   2.053   4.537 -0.7824  0.6802  1.5612
 2237SOL    HW218174   3.291   1.961   4.643 -1.2474  1.1634 -1.7234
 2238SOL     OW18175   0.223   3.411   7.221  0.2114 -0.3439  0.1833
 2238SOL    HW118176   0.136   3.432   7.254  0.3735  1.6747 -0.6924
 2238SOL    HW218177   0.228   3.316   7.221  0.4509 -0.3315  0.9014
 2239SOL     OW18178   0.202   0.301   6.815  0.9900 -0.7506  0.2840
 2239SOL    HW118179   0.201   0.395   6.832  0.0439 -0.8309  0.6681
 2239SOL    HW218180   0.123   0.270   6.772  2.0280 -4.0325  0.7207
 2240SOL     OW18181   1.806   1.736   0.735  0.3916 -0.7911 -0.0716
 2240SOL    HW118182   1.840   1.797   0.800 -3.3476  1.8025 -0.5347
 2240SOL    HW218183   1.827   1.791   0.659  0.7638 -1.1860 -0.2520
 2241SOL     OW18184   3.837   4.312   5.176 -0.1268  0.2318 -0.3184
 2241SOL    HW118185   3.792   4.396   5.176  0.2782  0.4772  2.5623
 2241SOL    HW218186   3.842   4.306   5.272  0.9200  1.2281 -0.3200
 2242SOL     OW18187   1.875   1.003   4.490  0.1368 -0.3119  0.3015
 2242SOL    HW118188   1.787   1.036   4.506  1.6502  3.8341  0.1110
 2242SOL    HW218189   1.862   0.921   4.443 -1.6427 -0.3919  0.9709
 2243SOL     OW18190   0.408   1.490  12.698 -0.3618  0.0954  0.1682
 2243SOL    HW118191   0.315   1.508  12.689 -0.6330 -1.3590  0.0749
 2243SOL    HW218192   0.407   1.508  12.792 -3.5770  1.8952 -0.2344
 2244SOL     OW18193   0.149   2.887   2.777 -0.2018 -0.7692 -0.6134
 2244SOL    HW118194   0.212   2.931   2.833 -1.2477  1.2897 -1.0555
 2244SOL    HW218195   0.200   2.889   2.696 -1.5520 -0.4282 -1.4554
 2245SOL     OW18196   3.516   3.184   0.226  0.1990  0.8648 -0.4923
 2245SOL    HW118197   3.446   3.243   0.197  0.9031  1.8914 -0.0932
 2245SOL    HW218198   3.560   3.247   0.283 -0.3294  2.4106 -1.7885
 2246SOL     OW18199   2.105   0.775   9.942  0.2112 -0.6592 -0.2571
 2246SOL    HW118200   2.152   0.856   9.962 -0.2774 -0.0837 -1.4171
 2246SOL    HW218201   2.179   0.721   9.916  0.7700 -1.1536  2.3900
 2247SOL     OW18202   3.862   3.505   9.095  0.1296 -0.6320 -0.0564
 2247SOL    HW118203   3.781   3.485   9.142  1.0346 -0.8588  1.4002
 2247SOL    HW218204   3.908   3.557   9.160 -0.6861  0.0437 -0.0337
 2248SOL     OW18205   3.972   1.745  12.230 -0.1050  0.4059 -0.1508
 2248SOL    HW118206   3.949   1.716  12.319 -1.0744 -1.1108 -0.9002
 2248SOL    HW218207   3.929   1.830  12.234  0.4190  0.6037  1.3418
 2249SOL     OW18208   3.557   4.220   0.618  0.3202  0.3367  0.3263
 2249SOL    HW118209   3.627   4.178   0.566 -0.1097 -0.2979  0.2561
 2249SOL    HW218210   3.506   4.139   0.624  1.1121 -0.0545  1.7979
 2250SOL     OW18211   3.075   4.514   7.272 -0.4099 -0.2536  0.5830
 2250SOL    HW118212   2.997   4.541   7.321 -1.0129 -0.6959 -0.1351
 2250SOL    HW218213   3.034   4.438   7.231  0.1106  1.3209 -2.8605
 2251SOL     OW18214   3.333   3.144   6.330  0.1175 -0.3270 -0.8059
 2251SOL    HW118215   3.275   3.213   6.299 -0.3812 -1.4406 -2.3075
 2251SOL    HW218216   3.366   3.174   6.415  0.9437 -2.5077 -0.3395
 2252SOL     OW18217   3.401   2.736  10.250  0.2980  0.2860 -0.2852
 2252SOL    HW118218   3.440   2.739  10.338  0.7627  2.6807 -0.5709
 2252SOL    HW218219   3.473   2.777  10.201 -0.5454  0.2856 -1.5309
 2253SOL     OW18220   2.556   0.840   4.993  0.2456  0.0574 -0.3117
 2253SOL    HW118221   2.476   0.799   5.026  0.7320 -0.1647  0.6049
 2253SOL    HW218222   2.520   0.898   4.926 -0.5903 -0.5474 -0.3845
 2254SOL     OW18223   0.439   2.140   2.333 -0.0863 -0.2610  0.1362
 2254SOL    HW118224   0.459   2.050   2.308 -1.3396 -0.0127 -1.7766
 2254SOL    HW218225   0.438   2.179   2.245 -1.0159 -1.1859 -0.2736
 2255SOL     OW18226   0.796   2.207   3.165  0.7054 -0.4039 -0.1433
 2255SOL    HW118227   0.760   2.121   3.143 -0.8992  0.4379 -0.7526
 2255SOL    HW218228   0.778   2.212   3.258 -0.1086  1.2912 -0.4126
 2256SOL     OW18229   0.950   0.110   0.324 -0.7791  0.1437  0.2175
 2256SOL    HW118230   0.942   0.069   0.238 -2.9151 -2.0898  1.4995
 2256SOL    HW218231   0.860   0.133   0.348 -0.4766  1.3614  0.2212
 2257SOL     OW18232   0.940   0.763   6.474 -0.3698 -0.3465 -0.6860
 2257SOL    HW118233   0.931   0.726   6.562  1.9303  0.7743 -0.0092
 2257SOL    HW218234   0.923   0.854   6.497  2.3838  0.5035 -1.9887
 2258SOL     OW18235   1.150   2.428   6.723 -0.4866 -0.4511  0.1301
 2258SOL    HW118236   1.151   2.340   6.760  3.3296 -0.9700 -1.1491
 2258SOL    HW218237   1.093   2.473   6.785 -1.3630 -1.0739 -0.2342
 2259SOL     OW18238   0.620   1.670  10.389 -0.3681 -0.1274  0.1064
 2259SOL    HW118239   0.669   1.673  10.307 -0.0106 -2.4220  0.2310
 2259SOL    HW218240   0.566   1.748  10.379  0.1352  0.2258  0.2069
 2260SOL     OW18241   4.231   1.931  11.749 -0.4935 -0.0324 -0.0341
 2260SOL    HW118242   4.236   2.024  11.731 -0.1593  0.1293  0.9034
 2260SOL    HW218243   4.299   1.891  11.694  0.2590 -0.2723  1.0704
 2261SOL     OW18244   4.606   2.726   9.242  0.0353 -0.7215  0.6018
 2261SOL    HW118245   4.689   2.704   9.201 -0.6279 -0.3887 -0.9439
 2261SOL    HW218246   4.625   2.749   9.333  1.2507 -1.2362  0.4732
 2262SOL     OW18247   1.689   3.989  17.224  0.2832  0.2631  1.0914
 2262SOL    HW118248   1.668   3.906  17.266  1.2732  0.1585  1.3623
 2262SOL    HW218249   1.755   4.017  17.287 -0.5447  0.5343  1.8423
 2263SOL     OW18250   0.950   4.323   5.387 -0.2717 -0.0994 -0.2767
 2263SOL    HW118251   0.872   4.364   5.424 -1.0033 -1.4248 -0.3657
 2263SOL    HW218252   0.970   4.391   5.322  0.3087 -0.3900 -0.3980
 2264SOL     OW18253   0.651   3.137   1.316  0.0853  0.1441 -0.1551
 2264SOL    HW118254   0.739   3.168   1.293  0.6570 -1.1685  0.2531
 2264SOL    HW218255   0.664   3.043   1.332 -0.6774  0.1807  0.6957
 2265SOL     OW18256   0.560   1.963   3.945 -0.3279 -1.0365 -0.0636
 2265SOL    HW118257   0.525   1.886   3.899  2.2608 -0.7687 -2.4368
 2265SOL    HW218258   0.504   1.968   4.023  1.1190 -2.8605  1.0924
 2266SOL     OW18259   4.041   4.133   4.368  0.0404 -0.1010  0.6288
 2266SOL    HW118260   4.084   4.160   4.287  0.8951  0.7096  1.3580
 2266SOL    HW218261   3.967   4.081   4.338  0.3752  0.3163 -0.9392
 2267SOL     OW18262   2.090   0.957   3.764 -0.2216  0.1314 -0.0134
 2267SOL    HW118263   2.142   1.034   3.784 -0.9274  0.7939 -0.7227
 2267SOL    HW218264   2.135   0.921   3.687  1.8578  0.0417  1.2626
 2268SOL     OW18265   1.188   0.107   4.949  0.2351  0.6235 -0.7082
 2268SOL    HW118266   1.120   0.090   4.884 -1.1675 -1.2405  1.2534
 2268SOL    HW218267   1.236   0.028   4.925 -2.4097 -1.1132 -0.2991
 2269SOL     OW18268   2.077   3.873  13.038 -0.7500 -0.2567  0.0085
 2269SOL    HW118269   2.116   3.835  12.960  0.0272 -0.9636  0.7409
 2269SOL    HW218270   2.073   3.795  13.093 -1.6153  1.6984  2.7059
 2270SOL     OW18271   0.785   0.246   8.029 -0.1394  0.1885  0.1412
 2270SOL    HW118272   0.852   0.268   8.093 -0.2213 -1.5063  0.8200
 2270SOL    HW218273   0.843   0.276   7.959  0.5674 -0.1850  0.5697
 2271SOL     OW18274   3.848   3.788   5.569  0.0256  0.1228 -0.6209
 2271SOL    HW118275   3.852   3.697   5.540  0.2018 -0.0444 -0.0777
 2271SOL    HW218276   3.817   3.838   5.493 -0.2977  0.9210  0.0355
 2272SOL     OW18277   3.514   0.463   0.111 -0.1879  0.7088 -0.0002
 2272SOL    HW118278   3.475   0.391   0.063  0.3165  0.1122  0.4830
 2272SOL    HW218279   3.458   0.539   0.097  0.5580  1.6837  2.2503
 2273SOL     OW18280   4.623   0.008   3.402 -0.4079 -0.5712 -0.2584
 2273SOL    HW118281   4.651   0.017   3.311 -0.2101  2.4939  0.0966
 2273SOL    HW218282   4.708   0.003   3.445 -1.4058 -1.2004  1.6511
 2274SOL     OW18283   4.677   3.820   3.577 -0.1182 -0.3708 -0.0227
 2274SOL    HW118284   0.045   3.831   3.600 -0.9419  1.1127  2.5840
 2274SOL    HW218285   4.646   3.735   3.606 -0.8982 -0.2640 -0.5435
 2275SOL     OW18286   3.236   2.822   3.242 -0.7057 -0.4319 -0.3668
 2275SOL    HW118287   3.193   2.780   3.317  0.8041 -1.4575 -0.0579
 2275SOL    HW218288   3.269   2.905   3.277  1.4084 -0.8085 -1.4739
 2276SOL     OW18289   3.738   1.725   6.497  0.2950  0.7578 -0.2867
 2276SOL    HW118290   3.754   1.669   6.422  1.8648  0.1137  0.5079
 2276SOL    HW218291   3.701   1.793   6.441 -0.8536 -0.0575 -0.5022
 2277SOL     OW18292   3.591   3.956   9.992  0.1022  0.0678  0.6253
 2277SOL    HW118293   3.610   3.896   9.920 -0.0011  0.8490 -0.0582
 2277SOL    HW218294   3.598   4.041   9.948 -0.0681 -0.5926 -0.7005
 2278SOL     OW18295   2.985   1.590  16.829 -0.1741 -0.1152  0.0618
 2278SOL    HW118296   2.933   1.511  16.845 -1.0863  0.3664 -0.5258
 2278SOL    HW218297   3.066   1.543  16.808 -1.3677 -1.1441 -2.2882
 2279SOL     OW18298   1.835   4.640   5.971 -0.4688 -0.1000  0.3122
 2279SOL    HW118299   1.910   4.679   5.925  0.9716 -0.8143  2.0142
 2279SOL    HW218300   1.764   4.697   5.942 -1.6410 -0.0374  3.3340
 2280SOL     OW18301   4.642   1.208   6.642 -0.2199 -0.8939  0.3147
 2280SOL    HW118302   4.721   1.173   6.601  0.2296  0.0575  0.3765
 2280SOL    HW218303   4.619   1.141   6.706  0.4661 -0.4901  0.9874
 2281SOL     OW18304   1.976   4.724   4.622 -0.6531  0.5047 -0.1942
 2281SOL    HW118305   2.000   0.086   4.587 -2.1151  1.2619  0.7039
 2281SOL    HW218306   1.938   0.024   4.706 -0.0829 -0.2804  0.2942
 2282SOL     OW18307   0.318   4.025   5.701  0.1037 -0.8050 -0.2208
 2282SOL    HW118308   0.405   3.993   5.724 -0.8397 -2.6144  0.8614
 2282SOL    HW218309   0.256   3.957   5.729 -0.8259  0.7167  1.4430
 2283SOL     OW18310   3.406   1.369   9.193 -0.5458 -0.3295 -0.2532
 2283SOL    HW118311   3.412   1.402   9.282  1.7656  0.9805 -0.8965
 2283SOL    HW218312   3.450   1.441   9.148  3.1621 -2.9949 -0.8786
 2284SOL     OW18313   1.089   4.610   7.171  0.1828 -0.4692 -0.2405
 2284SOL    HW118314   1.167   4.654   7.204  0.0622 -0.7276  0.3893
 2284SOL    HW218315   1.099   4.601   7.076 -0.0948  1.2273 -0.4211
 2285SOL     OW18316   2.331   0.895  16.657 -0.0476 -0.2543  0.6139
 2285SOL    HW118317   2.385   0.870  16.582  1.0454  2.7166  0.4021
 2285SOL    HW218318   2.252   0.933  16.617  0.9744  1.1861 -0.0288
 2286SOL     OW18319   0.351   2.970  15.791 -0.2431 -0.2585 -0.1408
 2286SOL    HW118320   0.336   3.040  15.855 -1.0185 -0.6220  0.0780
 2286SOL    HW218321   0.358   2.896  15.851 -0.4695 -1.8388 -2.0776
 2287SOL     OW18322   2.304   4.105   8.977  0.0088  0.0588  0.4196
 2287SOL    HW118323   2.369   4.131   9.043 -0.0630  1.0939  0.0752
 2287SOL    HW218324   2.238   4.172   8.997  0.2268  0.4522 -0.1628
 2288SOL     OW18325   0.632   3.410  17.005  0.3654  0.8173  0.5418
 2288SOL    HW118326   0.622   3.443  17.094 -0.2336  0.0985  0.7405
 2288SOL    HW218327   0.559   3.464  16.974 -1.0387 -0.9597  0.6893
 2289SOL     OW18328   0.361   3.583   5.489 -0.0642  0.2207 -0.3738
 2289SOL    HW118329   0.438   3.543   5.449  0.0842 -0.5278  0.6625
 2289SOL    HW218330   0.381   3.671   5.455  1.7413 -1.0551 -2.6436
 2290SOL     OW18331   2.778   4.236   4.884  0.1972 -0.0441 -0.3718
 2290SOL    HW118332   2.709   4.171   4.894  0.9422 -0.4378  2.4980
 2290SOL    HW218333   2.730   4.318   4.876 -0.7147 -0.5303  0.1519
 2291SOL     OW18334   3.731   0.328   2.436 -0.2058  0.1251 -0.1086
 2291SOL    HW118335   3.766   0.271   2.369 -1.7865 -0.7132 -0.2247
 2291SOL    HW218336   3.691   0.260   2.491  0.6157  0.6638  1.1523
 2292SOL     OW18337   1.920   1.309  13.604 -0.4175  0.2191  0.2988
 2292SOL    HW118338   1.948   1.366  13.533  0.0736  0.8203  0.9690
 2292SOL    HW218339   1.970   1.339  13.680 -0.3696 -0.6465  0.6104
 2293SOL     OW18340   1.149   1.456   5.525  0.2238  0.3717  0.0826
 2293SOL    HW118341   1.079   1.432   5.586  2.1914 -1.4063  1.6639
 2293SOL    HW218342   1.186   1.531   5.571 -0.8394 -0.2949  2.0595
 2294SOL     OW18343   0.775   3.391   2.685 -0.2133 -0.5526  0.0600
 2294SOL    HW118344   0.700   3.343   2.720 -0.8686  0.7395  0.4337
 2294SOL    HW218345   0.819   3.324   2.632  0.3486  1.2463 -1.7403
 2295SOL     OW18346   3.950   3.604  16.694  0.3693 -0.1706  0.3756
 2295SOL    HW118347   4.000   3.684  16.678 -1.0509  0.9348  1.4325
 2295SOL    HW218348   3.883   3.609  16.626  0.4302  0.2278  0.3418
 2296SOL     OW18349   2.273   0.415   7.729 -0.0003  0.0615  1.2497
 2296SOL    HW118350   2.224   0.413   7.812  0.8519 -2.8605  1.6804
 2296SOL    HW218351   2.236   0.341   7.681  2.5572  0.2294 -0.9195
 2297SOL     OW18352   3.340   1.907   7.745  0.2319  0.3004 -0.1320
 2297SOL    HW118353   3.283   1.935   7.817 -0.5733  0.6386 -0.8928
 2297SOL    HW218354   3.276   1.913   7.673  1.4796  0.7113 -1.1978
 2298SOL     OW18355   2.503   1.260  15.333 -0.3353 -0.3488  0.2260
 2298SOL    HW118356   2.498   1.171  15.367  0.5937 -0.3677  0.3188
 2298SOL    HW218357   2.556   1.313  15.393  0.7080 -0.2742 -0.7551
 2299SOL     OW18358   1.526   1.312  13.933  0.4365  0.3857  0.0943
 2299SOL    HW118359   1.620   1.308  13.949  0.3997 -1.2419 -0.1498
 2299SOL    HW218360   1.487   1.235  13.975 -0.3838  0.7900  0.0807
 2300SOL     OW18361   2.316   2.032   0.551  0.0452 -0.4739 -0.2692
 2300SOL    HW118362   2.286   1.964   0.612 -0.0114 -1.0271 -0.9189
 2300SOL    HW218363   2.239   2.029   0.494  1.0578 -1.4814 -1.5514
 2301SOL     OW18364   2.536   1.489   7.390 -0.2931 -0.6129  0.6712
 2301SOL    HW118365   2.599   1.418   7.405  0.4946 -0.0030  0.1905
 2301SOL    HW218366   2.467   1.443   7.341 -2.9764  0.1250  3.7534
 2302SOL     OW18367   1.609   2.125   9.329  0.1770  0.0290 -0.4754
 2302SOL    HW118368   1.546   2.171   9.383  0.2644 -1.5064  0.9188
 2302SOL    HW218369   1.582   2.034   9.339  0.0160  0.3152  1.6564
 2303SOL     OW18370   3.914   4.200   8.977 -0.8002 -0.3008 -0.0470
 2303SOL    HW118371   3.934   4.130   9.039  1.8084  0.2067 -0.3095
 2303SOL    HW218372   3.989   4.259   8.982 -1.5155  0.7045 -1.2225
 2304SOL     OW18373   3.900   1.424   8.309  0.2412  0.4229 -0.3542
 2304SOL    HW118374   3.861   1.486   8.247 -0.7480  2.1498  1.9835
 2304SOL    HW218375   3.871   1.449   8.397  0.7279  0.5286 -0.2223
 2305SOL     OW18376   1.944   4.722  10.227  0.1204  0.5454 -0.3024
 2305SOL    HW118377   1.895   0.039  10.155  3.3531  2.3109 -1.5039
 2305SOL    HW218378   1.962   0.070  10.286  2.6732 -1.2892  1.1632
 2306SOL     OW18379   1.022   3.279  12.561 -0.0022  0.3110  0.3130
 2306SOL    HW118380   1.026   3.364  12.606 -1.1199  1.6869 -2.1947
 2306SOL    HW218381   0.942   3.255  12.607  0.5308  1.2651  1.7366
 2307SOL     OW18382   2.135   2.813   2.798  0.1275 -0.6785  0.4688
 2307SOL    HW118383   2.229   2.830   2.806  0.1279 -0.3714 -0.1020
 2307SOL    HW218384   2.122   2.828   2.704 -0.5650 -0.6852  0.5655
 2308SOL     OW18385   4.069   2.743   3.370  0.1075  0.1910 -0.6452
 2308SOL    HW118386   4.014   2.768   3.296  1.4528 -1.4885 -2.2193
 2308SOL    HW218387   4.115   2.666   3.338  1.3796  0.0305  1.5470
 2309SOL     OW18388   2.677   3.580   2.583  0.4560 -0.2229  0.3903
 2309SOL    HW118389   2.581   3.584   2.582  0.3360 -1.4480  3.7454
 2309SOL    HW218390   2.690   3.611   2.494  1.0885  1.3470  1.0260
 2310SOL     OW18391   3.200   3.585  10.137  0.0022  0.4671  0.5321
 2310SOL    HW118392   3.158   3.504  10.106 -0.2654  1.6694 -2.2199
 2310SOL    HW218393   3.135   3.651  10.114 -0.8344 -0.3555  0.5506
 2311SOL     OW18394   2.501   4.503   2.665 -0.1393  0.8792 -0.0608
 2311SOL    HW118395   2.589   4.542   2.671  0.4647 -0.5318  0.2497
 2311SOL    HW218396   2.533   4.415   2.683 -1.4962  0.5300  0.5885
 2312SOL     OW18397   4.236   4.485  17.489 -0.2063  0.3065  0.3620
 2312SOL    HW118398   4.187   4.541  17.429  1.5025 -1.8910 -3.0805
 2312SOL    HW218399   4.300   4.450  17.427  1.0871  3.1775  0.0611
 2313SOL     OW18400   1.371   1.993   5.820 -0.3222 -0.5428  0.7196
 2313SOL    HW118401   1.325   1.938   5.757  0.8476 -0.0283 -0.5832
 2313SOL    HW218402   1.461   1.967   5.802 -0.6735 -0.4005 -1.2820
 2314SOL     OW18403   2.770   3.907   9.502  0.2181  0.2849 -0.1713
 2314SOL    HW118404   2.802   3.832   9.552  1.4285  1.2283  0.4646
 2314SOL    HW218405   2.708   3.934   9.569  1.2557 -0.7915  1.2044
 2315SOL     OW18406   2.830   3.717  13.836 -0.0152 -0.5087  0.6093
 2315SOL    HW118407   2.925   3.704  13.837  0.2435  1.4109  3.0146
 2315SOL    HW218408   2.805   3.667  13.759 -1.5136  0.7794  0.2729
 2316SOL     OW18409   0.529   2.527   6.422  0.0964 -0.0370  0.5275
 2316SOL    HW118410   0.547   2.584   6.347  0.8984 -0.2932  0.5147
 2316SOL    HW218411   0.618   2.502   6.449  0.3968 -1.6004 -1.9037
 2317SOL     OW18412   1.365   3.555   1.199 -0.0047  0.0824 -0.1324
 2317SOL    HW118413   1.403   3.468   1.185 -0.4869 -0.4293  1.7622
 2317SOL    HW218414   1.408   3.602   1.127 -0.9934 -0.8586 -1.3357
 2318SOL     OW18415   1.865   2.771  16.909 -0.1873  0.2107 -0.3149
 2318SOL    HW118416   1.921   2.807  16.840  1.6171 -0.0288  1.0366
 2318SOL    HW218417   1.835   2.692  16.863  0.7800  0.2987 -1.0876
 2319SOL     OW18418   1.190   3.569   0.311  0.0999  0.3571 -0.7140
 2319SOL    HW118419   1.216   3.657   0.336 -1.6961  0.2425  1.5438
 2319SOL    HW218420   1.212   3.519   0.390  0.7710  0.4701 -0.8289
 2320SOL     OW18421   0.950   2.256   4.985 -0.1870 -0.3637 -0.3078
 2320SOL    HW118422   0.931   2.344   5.018 -0.2995 -0.2690 -0.6170
 2320SOL    HW218423   1.002   2.235   5.063 -0.6389  1.3376  0.4373
 2321SOL     OW18424   3.528   2.099   7.440  0.1567  0.1505 -0.8501
 2321SOL    HW118425   3.498   2.009   7.446 -0.1578  0.2995 -0.1170
 2321SOL    HW218426   3.448   2.148   7.461  1.4499  1.4123  1.1617
 2322SOL     OW18427   0.502   1.926  13.896  0.2197  0.1605 -0.0278
 2322SOL    HW118428   0.436   1.966  13.953  1.7925 -0.8565  2.4903
 2322SOL    HW218429   0.569   1.902  13.960  0.4862 -1.8241 -1.0621
 2323SOL     OW18430   0.162   3.916  11.783 -0.1756  0.1565 -0.2284
 2323SOL    HW118431   0.142   4.008  11.770  0.5309  0.0924 -1.8450
 2323SOL    HW218432   0.157   3.881  11.693 -0.0267 -0.1634 -0.1133
 2324SOL     OW18433   3.623   0.811   9.296  0.2233 -0.1329 -0.4818
 2324SOL    HW118434   3.530   0.805   9.315  0.6211 -1.2169  1.1215
 2324SOL    HW218435   3.644   0.885   9.353 -0.6716  1.0396 -1.6925
 2325SOL     OW18436   3.250   3.350   2.482  0.3660 -0.2580 -0.2919
 2325SOL    HW118437   3.303   3.293   2.426  0.6537 -0.4038  0.1300
 2325SOL    HW218438   3.168   3.332   2.435  1.7533 -0.4630 -2.6313
 2326SOL     OW18439   1.186   3.100   5.365 -0.2974  0.2795  0.7687
 2326SOL    HW118440   1.103   3.103   5.413 -0.9170 -2.2944 -0.1679
 2326SOL    HW218441   1.160   3.057   5.284  1.6630  1.1274 -0.2960
 2327SOL     OW18442   1.792   3.813   8.771  0.4215 -0.1657 -0.5685
 2327SOL    HW118443   1.837   3.803   8.854  0.8108  2.9371 -0.4159
 2327SOL    HW218444   1.820   3.734   8.724 -1.4409 -1.6859  0.8344
 2328SOL     OW18445   3.536   2.304   8.114  0.0340  0.3248  0.0484
 2328SOL    HW118446   3.507   2.214   8.098 -1.1908  0.9408 -1.2582
 2328SOL    HW218447   3.598   2.314   8.042 -0.3092 -0.0835 -0.3064
 2329SOL     OW18448   2.115   1.945   3.598 -0.7942  0.1323  0.2374
 2329SOL    HW118449   2.114   1.849   3.603 -0.2745 -0.0724 -3.4178
 2329SOL    HW218450   2.152   1.970   3.513  0.2653 -0.6681  0.4586
 2330SOL     OW18451   0.899   3.494   6.862 -0.0280 -0.1880 -0.0780
 2330SOL    HW118452   0.953   3.477   6.938  1.0575 -0.4408 -0.9098
 2330SOL    HW218453   0.906   3.413   6.811 -1.7444 -0.1040 -0.4475
 2331SOL     OW18454   0.838   0.638   1.642  0.7851  0.3069 -0.1537
 2331SOL    HW118455   0.868   0.622   1.731 -2.0857 -0.2496  0.7000
 2331SOL    HW218456   0.914   0.664   1.589  1.2168 -1.5958 -0.4706
 2332SOL     OW18457   3.299   4.619   8.472  0.1388  0.2415  0.0402
 2332SOL    HW118458   3.279   4.525   8.472 -2.1020  0.7142 -1.4118
 2332SOL    HW218459   3.338   4.625   8.385 -3.5632 -0.9974 -1.7083
 2333SOL     OW18460   4.600   0.922   8.428  0.4607  0.3530 -0.0579
 2333SOL    HW118461   4.605   0.988   8.497 -3.0126 -0.0618  0.5584
 2333SOL    HW218462   4.636   0.973   8.355  2.1353  0.8965  1.1328
 2334SOL     OW18463   1.867   1.438   6.579  0.1929  0.0139 -0.8218
 2334SOL    HW118464   1.791   1.489   6.550 -0.6314 -1.2443 -0.8655
 2334SOL    HW218465   1.908   1.422   6.494  2.0819 -2.0218  0.4811
 2335SOL     OW18466   0.049   4.352   2.410  0.0056  0.1715 -0.5196
 2335SOL    HW118467   0.007   4.381   2.491 -0.0336 -1.0756 -0.1014
 2335SOL    HW218468   4.703   4.298   2.376  1.3463 -1.5531 -0.5517
 2336SOL     OW18469   4.060   0.106  15.374 -0.2731 -0.3962  0.0035
 2336SOL    HW118470   4.026   0.150  15.297 -1.9078  0.8033  1.3985
 2336SOL    HW218471   4.115   0.177  15.407 -1.3999  0.5504 -0.1532
 2337SOL     OW18472   4.444   0.257   2.451  0.1233  0.3360  0.2438
 2337SOL    HW118473   4.411   0.346   2.446 -0.5606 -0.0158 -1.5613
 2337SOL    HW218474   4.405   0.234   2.535 -1.2976  0.5399 -0.3684
 2338SOL     OW18475   2.957   2.208  17.134  0.5877 -0.3066  0.2794
 2338SOL    HW118476   2.987   2.283  17.083 -0.1418 -1.1260 -1.3513
 2338SOL    HW218477   2.894   2.172  17.072  0.3392  1.8893 -0.7409
 2339SOL     OW18478   4.173   4.621   3.267 -0.1165  0.7035  0.4398
 2339SOL    HW118479   4.223   4.672   3.203 -1.3679  2.2929  0.7330
 2339SOL    HW218480   4.157   4.682   3.339  0.6136  0.9374  0.4025
 2340SOL     OW18481   2.845   2.438   6.859 -0.0467 -0.2809  0.0501
 2340SOL    HW118482   2.889   2.497   6.798  1.7863 -1.2098  0.4840
 2340SOL    HW218483   2.803   2.386   6.791 -0.4608  0.1101  0.0091
 2341SOL     OW18484   1.171   1.686   6.480 -0.3188 -0.0066  0.0711
 2341SOL    HW118485   1.241   1.696   6.545 -0.0808  0.7038 -0.2917
 2341SOL    HW218486   1.110   1.739   6.532  1.1052  1.4934  0.2173
 2342SOL     OW18487   2.335   2.211   4.817  0.5790  0.6265  0.8852
 2342SOL    HW118488   2.415   2.230   4.866 -0.7867 -2.0393  4.1617
 2342SOL    HW218489   2.342   2.116   4.805  0.0380  0.5340  1.3070
 2343SOL     OW18490   2.240   4.357   9.175  0.4327 -0.5677  0.2389
 2343SOL    HW118491   2.283   4.400   9.100  1.8568  0.0957  1.4438
 2343SOL    HW218492   2.150   4.386   9.159  0.9574 -0.5507 -2.7671
 2344SOL     OW18493   1.368   4.355   6.586 -0.3437 -0.7548 -0.0093
 2344SOL    HW118494   1.334   4.265   6.577  1.0404 -1.2906  0.1834
 2344SOL    HW218495   1.447   4.346   6.533 -0.6064 -0.2815 -0.4725
 2345SOL     OW18496   2.769   2.622   5.953 -0.8150 -1.0115 -0.3389
 2345SOL    HW118497   2.761   2.712   5.985  3.4384 -0.3059 -1.2890
 2345SOL    HW218498   2.690   2.626   5.899  0.3895  3.2910 -1.7436
 2346SOL     OW18499   2.331   3.643   6.607  0.0057  0.4450 -0.0347
 2346SOL    HW118500   2.367   3.722   6.646 -0.9563  1.0918 -0.4539
 2346SOL    HW218501   2.404   3.581   6.596 -0.0894 -0.2181  3.1076
 2347SOL     OW18502   3.417   3.716   4.186 -0.8870  0.5862  0.3542
 2347SOL    HW118503   3.386   3.734   4.097  0.5071  1.8013  0.1161
 2347SOL    HW218504   3.426   3.622   4.200  1.0421  0.7180  0.1164
 2348SOL     OW18505   3.930   2.647   0.194 -0.4550  0.1521 -0.1542
 2348SOL    HW118506   3.877   2.568   0.187 -3.5724  2.0885  1.7144
 2348SOL    HW218507   3.940   2.678   0.104  1.2842  1.2483  0.4132
 2349SOL     OW18508   2.493   4.250   3.716  0.3212 -0.0064  0.1421
 2349SOL    HW118509   2.418   4.202   3.752 -1.6917  2.6193 -0.5673
 2349SOL    HW218510   2.533   4.183   3.660  1.9935  0.9765  0.1425
 2350SOL     OW18511   4.201   1.595   6.551 -0.2716  0.0343  0.2158
 2350SOL    HW118512   4.169   1.670   6.602  0.1664  1.0690 -1.0296
 2350SOL    HW218513   4.264   1.553   6.609  0.5816 -0.5004 -1.0981
 2351SOL     OW18514   0.353   2.598   9.182  0.0765  0.1362  0.5761
 2351SOL    HW118515   0.440   2.634   9.197  0.6551 -1.4570  0.9986
 2351SOL    HW218516   0.379   2.520   9.133 -1.3245 -0.1084  0.2250
 2352SOL     OW18517   4.277   2.883   4.806  0.1632  0.3633 -0.2126
 2352SOL    HW118518   4.187   2.875   4.838 -0.1968  0.2642 -1.2297
 2352SOL    HW218519   4.293   2.793   4.780  1.3200  0.7375 -0.8196
 2353SOL     OW18520   4.258   2.743   1.741  0.6208  0.3691 -0.0999
 2353SOL    HW118521   4.169   2.720   1.714  1.2923  0.7368 -2.6644
 2353SOL    HW218522   4.257   2.838   1.753  0.6965  0.0969  1.9746
 2354SOL     OW18523   4.556   3.943  11.769  0.0606 -0.3516 -0.3659
 2354SOL    HW118524   4.533   3.982  11.684 -0.4858 -1.0405 -0.5343
 2354SOL    HW218525   4.649   3.928  11.758  0.1577  1.4168 -1.8456
 2355SOL     OW18526   3.837   0.840   3.498  0.0656 -0.6195 -0.4052
 2355SOL    HW118527   3.909   0.886   3.541 -0.2971  0.0131 -0.4629
 2355SOL    HW218528   3.757   0.883   3.530 -0.2248 -1.7620  0.3801
 2356SOL     OW18529   0.483   1.651   7.675 -0.5527  0.5628 -0.8247
 2356SOL    HW118530   0.450   1.593   7.607  1.0600 -0.4663 -0.7477
 2356SOL    HW218531   0.578   1.637   7.681 -0.5430  0.5383 -1.0384
 2357SOL     OW18532   0.423   3.766   6.717 -0.2307 -1.0303  0.8636
 2357SOL    HW118533   0.503   3.790   6.670 -2.0511  0.6379 -1.3366
 2357SOL    HW218534   0.354   3.770   6.652  1.5776  1.2991 -0.8958
 2358SOL     OW18535   4.553   3.739   7.707 -0.5371 -0.0307  0.0674
 2358SOL    HW118536   4.509   3.702   7.783 -2.2877  1.1693 -0.3374
 2358SOL    HW218537   4.486   3.731   7.639 -0.9901 -0.3576  0.5576
 2359SOL     OW18538   1.902   0.627  12.433 -0.2977  0.3684 -0.6222
 2359SOL    HW118539   1.980   0.651  12.382 -1.0660  1.6915 -1.1713
 2359SOL    HW218540   1.942   0.613  12.519  1.8747  2.0940 -1.3278
 2360SOL     OW18541   3.155   3.002   1.836  0.4526 -0.3515  0.3348
 2360SOL    HW118542   3.185   3.088   1.866  1.1420 -1.1207  1.8582
 2360SOL    HW218543   3.061   3.008   1.848  0.3056 -1.3079 -0.3050
 2361SOL     OW18544   2.294   4.129   8.233 -0.1597 -0.7405  0.4604
 2361SOL    HW118545   2.310   4.046   8.186 -3.4748  0.0470 -2.0670
 2361SOL    HW218546   2.318   4.102   8.321  0.5987  0.8435  0.7342
 2362SOL     OW18547   2.871   2.398   9.571  0.2169 -0.2730  0.1191
 2362SOL    HW118548   2.792   2.384   9.624 -0.9105 -1.6823 -1.9665
 2362SOL    HW218549   2.865   2.357   9.485 -1.6216 -0.6900  0.4347
 2363SOL     OW18550   4.437   0.351   6.073 -0.6097  0.3642 -0.4857
 2363SOL    HW118551   4.473   0.341   5.985 -0.5492 -1.9623 -0.1943
 2363SOL    HW218552   4.354   0.387   6.042 -0.1166  2.1764  0.3152
 2364SOL     OW18553   1.688   1.201  16.288  0.0831 -0.4712  0.8230
 2364SOL    HW118554   1.642   1.150  16.354 -0.9134 -0.5593  0.0671
 2364SOL    HW218555   1.734   1.268  16.339  1.7437  1.4192 -3.1157
 2365SOL     OW18556   2.803   3.635   6.832 -0.1579 -0.4219  0.0773
 2365SOL    HW118557   2.757   3.569   6.780  1.7795  0.3739 -2.5971
 2365SOL    HW218558   2.753   3.714   6.811  0.5107 -0.3228 -1.1244
 2366SOL     OW18559   2.887   1.908  12.892  0.6341 -0.3298 -0.2873
 2366SOL    HW118560   2.927   1.890  12.806  1.7901  0.0005  0.1796
 2366SOL    HW218561   2.929   1.984  12.931  1.3519 -0.2665 -1.1640
 2367SOL     OW18562   3.511   0.721  13.522 -0.9991 -0.0171 -0.7576
 2367SOL    HW118563   3.607   0.714  13.530 -0.9068  0.2742 -1.6295
 2367SOL    HW218564   3.486   0.654  13.458  0.3229  0.2700 -1.5811
 2368SOL     OW18565   2.489   4.146   1.997  0.3507  0.1214 -0.0679
 2368SOL    HW118566   2.515   4.195   2.075 -0.0756  0.0839  0.1003
 2368SOL    HW218567   2.431   4.208   1.951 -0.8927  0.5662  2.0718
 2369SOL     OW18568   1.042   1.945  12.044 -0.0822 -0.2199 -0.5177
 2369SOL    HW118569   0.964   1.985  12.081  0.1349  0.1563 -0.4660
 2369SOL    HW218570   1.026   1.860  12.086  0.3762 -0.7705 -1.4394
 2370SOL     OW18571   4.130   1.674  14.789  0.1825 -0.6314 -0.4408
 2370SOL    HW118572   4.092   1.605  14.843 -2.9378 -0.3431 -2.2414
 2370SOL    HW218573   4.055   1.728  14.761  0.6365 -0.2781 -0.9709
 2371SOL     OW18574   3.849   3.697   3.700  0.3543 -0.0067 -0.3967
 2371SOL    HW118575   3.819   3.735   3.618 -1.3668  0.0046  0.2259
 2371SOL    HW218576   3.907   3.768   3.727 -0.0387  0.5903 -1.1136
 2372SOL     OW18577   4.689   1.298  17.310  0.9711  0.1806  0.1393
 2372SOL    HW118578   0.046   1.341  17.282  0.0969  1.3454 -0.5773
 2372SOL    HW218579   4.705   1.216  17.263 -0.5148  1.5180 -2.6302
 2373SOL     OW18580   2.247   4.618  16.094  0.2308 -0.0510 -0.1995
 2373SOL    HW118581   2.177   4.661  16.143  0.6332  0.4576 -0.0683
 2373SOL    HW218582   2.191   4.589  16.022  0.1028 -2.0407  0.6778
 2374SOL     OW18583   0.628   0.014   3.405 -0.5062 -0.0498  0.6698
 2374SOL    HW118584   0.702   0.012   3.465  1.4053 -1.7408 -1.7758
 2374SOL    HW218585   0.585   4.653   3.416  0.6825 -0.5995  1.0572
 2375SOL     OW18586   2.154   4.097   6.082 -0.2393 -0.2928  0.4667
 2375SOL    HW118587   2.248   4.109   6.099 -0.2877  0.9601 -0.1150
 2375SOL    HW218588   2.142   4.185   6.047  1.3220  1.3054  3.9848
 2376SOL     OW18589   3.256   2.923   4.611  0.4549  0.2089 -0.0014
 2376SOL    HW118590   3.282   2.999   4.559  2.9571 -0.2409  0.5921
 2376SOL    HW218591   3.236   2.873   4.532 -3.8153  0.2104  1.1058
 2377SOL     OW18592   4.239   1.988   7.088  0.0082  0.3933 -0.0591
 2377SOL    HW118593   4.155   1.971   7.131  0.0802 -2.0528 -0.8980
 2377SOL    HW218594   4.283   2.017   7.168  0.1344 -3.2511  1.1710
 2378SOL     OW18595   3.065   1.716   0.173  0.0735  0.1570 -0.2884
 2378SOL    HW118596   3.120   1.638   0.164 -0.2539 -0.1602  0.4195
 2378SOL    HW218597   3.082   1.743   0.263 -0.9576 -2.9355  0.8252
 2379SOL     OW18598   2.623   2.419   2.231 -0.7638  0.4920 -0.2000
 2379SOL    HW118599   2.669   2.503   2.235  0.9438 -0.4509 -0.1546
 2379SOL    HW218600   2.536   2.458   2.239 -1.3885 -0.5220 -2.2369
 2380SOL     OW18601   2.803   1.365   3.269 -0.0579  0.0147  0.6080
 2380SOL    HW118602   2.869   1.296   3.280 -1.1559 -1.4612 -2.1388
 2380SOL    HW218603   2.742   1.330   3.334  0.6092 -1.1981  0.5911
 2381SOL     OW18604   4.699   1.746   3.412 -0.6521 -0.4457  0.8203
 2381SOL    HW118605   4.691   1.680   3.343  2.7094  0.9698 -0.9112
 2381SOL    HW218606   4.624   1.730   3.470 -0.7461 -0.9376  0.5635
 2382SOL     OW18607   2.896   4.090  11.443  0.7634 -0.5756 -0.6149
 2382SOL    HW118608   2.864   4.172  11.405  0.8610  0.2203  1.0568
 2382SOL    HW218609   2.989   4.112  11.444  0.9005 -1.1318 -0.6703
 2383SOL     OW18610   0.445   1.696   3.873 -0.4035  0.3672  0.3085
 2383SOL    HW118611   0.393   1.617   3.854 -1.3520  1.2066 -0.5984
 2383SOL    HW218612   0.482   1.701   3.785 -1.6844  2.0083 -0.1407
 2384SOL     OW18613   1.202   0.822   4.428 -0.1267  0.1279 -0.3492
 2384SOL    HW118614   1.173   0.905   4.464  0.0907  0.1032 -0.1217
 2384SOL    HW218615   1.211   0.763   4.502 -1.0734  1.0376  0.4879
 2385SOL     OW18616   4.198   3.533   2.736  0.0200 -0.3346  0.3508
 2385SOL    HW118617   4.123   3.561   2.682  1.6847 -0.0751 -1.8230
 2385SOL    HW218618   4.183   3.439   2.741 -0.0787 -0.5533 -4.1599
 2386SOL     OW18619   0.925   3.726  11.808 -0.9091  0.4955 -0.4819
 2386SOL    HW118620   0.877   3.734  11.890  1.2493  0.9481  0.7209
 2386SOL    HW218621   0.919   3.634  11.782  0.8228  0.2907 -0.1207
 2387SOL     OW18622   0.656   3.859   2.536 -0.2639  0.1745  0.4148
 2387SOL    HW118623   0.628   3.841   2.625  2.0073  2.7688  1.6504
 2387SOL    HW218624   0.680   3.952   2.533  0.0363 -0.0329 -4.7359
 2388SOL     OW18625   1.450   3.438   7.364 -0.3968 -0.0755  0.1266
 2388SOL    HW118626   1.445   3.426   7.269  1.5921  0.7337 -0.0836
 2388SOL    HW218627   1.380   3.502   7.370 -0.4043 -0.0372 -0.3245
 2389SOL     OW18628   2.393   1.198   2.072 -0.0175 -0.4953 -0.4059
 2389SOL    HW118629   2.472   1.214   2.124  0.5291  0.9011 -1.6688
 2389SOL    HW218630   2.362   1.117   2.113  1.1821 -0.0424  1.3960
 2390SOL     OW18631   4.093   4.409   2.168 -0.3227  0.0557 -0.2911
 2390SOL    HW118632   4.174   4.394   2.119  0.4497  2.8036  0.1152
 2390SOL    HW218633   4.119   4.497   2.197 -1.5602 -0.3313  1.9905
 2391SOL     OW18634   2.603   4.251   8.798  1.1267 -0.6561 -0.2171
 2391SOL    HW118635   2.602   4.244   8.893 -0.5456 -2.4766 -0.3678
 2391SOL    HW218636   2.511   4.231   8.780  0.9072 -1.5205  1.8335
 2392SOL     OW18637   0.696   1.316   6.013 -0.4341  0.0846  0.4075
 2392SOL    HW118638   0.709   1.224   5.988 -0.4522  0.7524 -2.0589
 2392SOL    HW218639   0.640   1.309   6.090  0.4509  3.2395  1.2979
 2393SOL     OW18640   0.834   3.115   6.598 -0.2578 -0.1757  0.0404
 2393SOL    HW118641   0.744   3.141   6.581 -0.0933  1.4150  1.6173
 2393SOL    HW218642   0.878   3.198   6.616 -0.3247 -0.2840  0.7203
 2394SOL     OW18643   1.524   3.599   3.747  0.1366  0.3857 -0.0785
 2394SOL    HW118644   1.480   3.679   3.775  1.4455  0.9457  0.3609
 2394SOL    HW218645   1.467   3.583   3.672 -0.0272  1.1234 -0.1088
 2395SOL     OW18646   3.832   4.396   3.702  0.2502 -0.1502 -0.1196
 2395SOL    HW118647   3.757   4.446   3.736 -0.6569 -1.3824 -0.3036
 2395SOL    HW218648   3.892   4.411   3.775  1.1249  0.3268 -0.9514
 2396SOL     OW18649   4.600   1.966   8.577 -0.3898  0.0233  0.5436
 2396SOL    HW118650   4.632   2.055   8.590  1.4983 -0.7440  1.2278
 2396SOL    HW218651   4.508   1.977   8.600 -0.5474 -0.7954  0.3289
 2397SOL     OW18652   0.307   2.163   6.536  0.1527 -0.2481 -0.9103
 2397SOL    HW118653   0.348   2.202   6.614  0.9194 -0.5363 -1.1654
 2397SOL    HW218654   0.237   2.120   6.586  0.8996 -1.7412 -1.1473
 2398SOL     OW18655   0.847   1.011   8.570 -0.2304 -0.2620 -0.2719
 2398SOL    HW118656   0.907   1.079   8.540 -1.7038  1.9600  1.9175
 2398SOL    HW218657   0.790   1.063   8.625 -1.0524 -0.6869 -0.7234
 2399SOL     OW18658   4.053   2.748   8.011 -0.1755  0.1312 -0.4307
 2399SOL    HW118659   4.015   2.660   8.006  0.2558 -0.1281  0.8315
 2399SOL    HW218660   3.981   2.809   7.998  0.1745  0.8446  0.9451
 2400SOL     OW18661   4.316   2.874   6.111 -0.0653 -0.3220  0.0161
 2400SOL    HW118662   4.346   2.964   6.106 -0.3656 -0.2845 -1.0863
 2400SOL    HW218663   4.260   2.881   6.188  0.8653  1.1354  0.5565
 2401SOL     OW18664   2.865   2.026   5.357 -0.5226 -0.5513  0.2017
 2401SOL    HW118665   2.929   2.090   5.389 -0.7186 -0.6085  0.7036
 2401SOL    HW218666   2.904   1.952   5.402  0.0370  0.6213  1.6502
 2402SOL     OW18667   0.016   2.313   6.893 -0.2745  0.2394 -0.1028
 2402SOL    HW118668   0.014   2.406   6.917 -1.9136  0.2070 -0.1646
 2402SOL    HW218669   4.650   2.284   6.904 -0.5312  0.1202 -2.6257
 2403SOL     OW18670   3.603   3.902  12.674  0.1390 -0.3610  0.4576
 2403SOL    HW118671   3.607   3.822  12.622 -1.3807 -0.3544  0.3207
 2403SOL    HW218672   3.676   3.948  12.633  0.1959 -2.6651 -2.0983
 2404SOL     OW18673   2.856   4.641   4.904  0.7432 -0.1293 -0.5115
 2404SOL    HW118674   2.837   0.006   4.875  2.2336  0.2483 -0.3233
 2404SOL    HW218675   2.922   4.662   4.970 -1.5712  1.2315  1.3432
 2405SOL     OW18676   4.496   1.216   2.985  0.0623  0.4124 -0.0957
 2405SOL    HW118677   4.524   1.219   2.894  4.5370  0.2523  1.2603
 2405SOL    HW218678   4.413   1.264   2.983 -0.1429  0.1590  1.8753
 2406SOL     OW18679   3.108   1.822   0.414  0.0348  0.5248  0.1351
 2406SOL    HW118680   3.019   1.847   0.440  0.3807  1.7073  0.1458
 2406SOL    HW218681   3.150   1.907   0.420  2.3466 -0.5616 -0.7538
 2407SOL     OW18682   0.386   3.651   9.501  0.1994 -0.4133  0.3780
 2407SOL    HW118683   0.307   3.598   9.486 -0.8270  0.2483  3.5057
 2407SOL    HW218684   0.421   3.661   9.412 -2.1551 -2.6116 -0.7899
 2408SOL     OW18685   2.409   3.386  16.648  0.1351  0.0639 -0.6193
 2408SOL    HW118686   2.476   3.451  16.628  0.9104 -0.7045 -0.5367
 2408SOL    HW218687   2.382   3.419  16.734 -0.8485 -1.5660 -0.2945
 2409SOL     OW18688   1.806   0.640   2.881  0.8424 -0.1322  0.4540
 2409SOL    HW118689   1.713   0.619   2.888  0.4053  1.9796  0.9703
 2409SOL    HW218690   1.822   0.629   2.787 -0.1661 -0.7473  0.3590
 2410SOL     OW18691   3.232   4.592   8.116  0.2919 -0.0494  0.2025
 2410SOL    HW118692   3.252   4.500   8.127  1.2952  0.2939  1.2767
 2410SOL    HW218693   3.316   4.633   8.138  1.3248 -1.7682 -0.5765
 2411SOL     OW18694   2.996   2.790   8.930 -0.0060 -0.1798  0.4326
 2411SOL    HW118695   3.027   2.754   8.847  0.6612  0.5651  0.3604
 2411SOL    HW218696   2.922   2.734   8.954 -0.2597 -0.0990 -0.1525
 2412SOL     OW18697   1.457   2.418   5.714  0.4872  0.0016  0.3980
 2412SOL    HW118698   1.393   2.489   5.702  1.0423  0.5527  0.7386
 2412SOL    HW218699   1.530   2.464   5.755 -0.1257  2.1219 -0.8670
 2413SOL     OW18700   1.355   1.153   7.700 -0.5378  0.9531 -0.3310
 2413SOL    HW118701   1.437   1.165   7.747  0.3166  2.7805 -2.2727
 2413SOL    HW218702   1.290   1.127   7.766 -0.4296 -2.9655 -1.8036
 2414SOL     OW18703   0.659   3.913   1.571 -0.2645 -0.1577 -0.1420
 2414SOL    HW118704   0.602   3.859   1.515 -0.1972 -1.4179  1.0155
 2414SOL    HW218705   0.701   3.839   1.614  1.9282  0.9885 -0.2889
 2415SOL     OW18706   1.173   0.589   6.066 -0.2914  0.1449  0.0500
 2415SOL    HW118707   1.125   0.601   6.148  0.9293  1.6071  0.5522
 2415SOL    HW218708   1.175   0.494   6.057  2.3353  0.2346 -0.3636
 2416SOL     OW18709   0.240   4.391   3.457  0.6648  0.0176  0.6148
 2416SOL    HW118710   0.273   4.304   3.480 -0.1125  0.4198  3.2588
 2416SOL    HW218711   0.165   4.367   3.402 -1.3773  2.2296  2.4163
 2417SOL     OW18712   2.976   1.599   4.362 -0.6449 -0.1406  0.6838
 2417SOL    HW118713   2.984   1.556   4.277 -0.8391 -1.2921  1.2543
 2417SOL    HW218714   3.033   1.555   4.424  0.5891 -0.0679 -0.3785
 2418SOL     OW18715   1.601   1.267   7.091 -0.0729 -0.0553  0.1582
 2418SOL    HW118716   1.693   1.242   7.087  0.9846  3.7522  0.8329
 2418SOL    HW218717   1.566   1.193   7.140 -1.8382  0.9169  0.3562
 2419SOL     OW18718   2.700   1.171  11.693  0.6794  0.3933 -0.4946
 2419SOL    HW118719   2.718   1.101  11.755  0.0582  0.7400  0.0687
 2419SOL    HW218720   2.787   1.212  11.692  0.7066  0.3624  1.2270
 2420SOL     OW18721   2.285   1.213  13.227  0.7957 -0.0710  0.2205
 2420SOL    HW118722   2.221   1.285  13.223  0.3850 -0.4393  0.2423
 2420SOL    HW218723   2.271   1.189  13.319 -0.4143  2.2970  0.6564
 2421SOL     OW18724   4.571   2.971   3.030 -0.1778 -0.2520  0.0884
 2421SOL    HW118725   4.665   2.985   3.038 -0.1902  0.7319 -1.4338
 2421SOL    HW218726   4.569   2.935   2.941 -3.4450 -1.5820  0.7149
 2422SOL     OW18727   2.884   4.523   9.644 -0.3904 -0.4021 -0.1748
 2422SOL    HW118728   2.942   4.599   9.644 -1.4176  0.3835  0.0132
 2422SOL    HW218729   2.866   4.510   9.737  0.9978  2.6827  0.5358
 2423SOL     OW18730   2.573   4.016   9.681  0.0799 -0.0096  0.3050
 2423SOL    HW118731   2.488   3.973   9.670  0.5581 -1.3568  1.9561
 2423SOL    HW218732   2.568   4.026   9.776  1.7465 -0.1570  0.4125
 2424SOL     OW18733   3.165   4.530   0.749 -0.5778  0.3548  0.0930
 2424SOL    HW118734   3.247   4.541   0.797 -1.3716 -0.8030  1.7166
 2424SOL    HW218735   3.154   4.436   0.758 -1.2611  0.4089 -0.1227
 2425SOL     OW18736   1.371   2.262   5.154  0.2168 -0.6770 -0.7952
 2425SOL    HW118737   1.385   2.227   5.242 -0.1482 -1.1956 -0.9423
 2425SOL    HW218738   1.394   2.352   5.174 -2.5425 -0.1825  0.1841
 2426SOL     OW18739   3.139   0.695   0.609 -0.4157 -0.8414  0.7702
 2426SOL    HW118740   3.134   0.599   0.608  0.3691 -0.8445 -3.7363
 2426SOL    HW218741   3.063   0.715   0.554  0.5779 -0.4754 -0.4594
 2427SOL     OW18742   2.818   1.380  16.883  0.2120 -0.2852 -0.0694
 2427SOL    HW118743   2.724   1.373  16.864  0.1738 -1.1060  0.4630
 2427SOL    HW218744   2.831   1.414  16.971  1.2096  0.6997 -0.5817
 2428SOL     OW18745   2.592   3.334   8.199  0.5132  0.3198  0.3009
 2428SOL    HW118746   2.512   3.386   8.198 -0.7337 -1.5986  0.1467
 2428SOL    HW218747   2.638   3.381   8.269 -0.6526  1.4311  0.3192
 2429SOL     OW18748   3.967   4.281   0.160  0.3293  0.6718 -0.4657
 2429SOL    HW118749   3.879   4.251   0.182  1.2801 -1.5605  0.3090
 2429SOL    HW218750   3.962   4.267   0.066  0.4547 -0.8763 -0.2411
 2430SOL     OW18751   4.021   1.995   7.316  0.0738 -0.3847  0.1772
 2430SOL    HW118752   3.954   1.981   7.250  0.5171 -0.5378 -0.2455
 2430SOL    HW218753   3.965   2.036   7.381  0.0345 -0.2064  0.0312
 2431SOL     OW18754   0.075   0.127   2.626 -0.2849 -0.5671  0.7733
 2431SOL    HW118755   0.005   0.167   2.678 -0.0137 -1.5572  1.9007
 2431SOL    HW218756   0.090   0.188   2.554  0.8237 -0.4183  1.1366
 2432SOL     OW18757   4.244   1.778   8.757 -0.2356  0.1089 -0.1567
 2432SOL    HW118758   4.324   1.726   8.751 -0.0819  0.3040  0.1965
 2432SOL    HW218759   4.189   1.725   8.815 -0.2977  1.5438  1.0776
 2433SOL     OW18760   3.598   2.333  13.402 -0.3437 -0.2808 -0.3444
 2433SOL    HW118761   3.621   2.373  13.319  3.1394 -1.4853  0.0094
 2433SOL    HW218762   3.565   2.250  13.367 -0.3641 -1.1876  1.7633
 2434SOL     OW18763   1.344   1.849   2.015 -0.4583 -0.3226  0.0156
 2434SOL    HW118764   1.418   1.792   2.037 -0.3126 -0.3708 -0.5870
 2434SOL    HW218765   1.277   1.811   2.072  0.3659  1.6578  2.3098
 2435SOL     OW18766   3.462   1.551   4.643  0.0033 -0.0415 -0.3247
 2435SOL    HW118767   3.483   1.644   4.651  0.8983 -0.3334  0.6961
 2435SOL    HW218768   3.430   1.537   4.732  1.1758 -0.4011  0.0456
 2436SOL     OW18769   1.431   3.034   2.991  0.1664  0.4271  0.5564
 2436SOL    HW118770   1.517   3.060   3.024 -0.0016  1.1291  0.4440
 2436SOL    HW218771   1.386   3.045   3.075 -0.2045  0.4304  0.3564
 2437SOL     OW18772   0.612   0.184  15.362  0.9288  0.0481  0.2722
 2437SOL    HW118773   0.540   0.146  15.312 -1.1272  0.2994  3.0409
 2437SOL    HW218774   0.661   0.216  15.286 -1.2406  1.8731 -0.3982
 2438SOL     OW18775   3.271   1.723   6.149  0.5593 -0.1060 -0.0125
 2438SOL    HW118776   3.304   1.798   6.198  0.9533  0.6438 -1.4001
 2438SOL    HW218777   3.339   1.659   6.168  0.9947  0.2398 -0.3962
 2439SOL     OW18778   3.648   4.291   8.944 -0.1405 -0.2525  0.0473
 2439SOL    HW118779   3.723   4.233   8.954  2.3133  2.9117  0.2460
 2439SOL    HW218780   3.685   4.377   8.965 -1.7347 -0.3378  3.1921
 2440SOL     OW18781   4.549   2.184   9.361 -0.5449 -0.4765  0.3938
 2440SOL    HW118782   4.632   2.225   9.386  0.3139 -2.0004  0.0985
 2440SOL    HW218783   4.513   2.248   9.299 -2.0074 -0.1680  1.5650
 2441SOL     OW18784   2.803   4.252   3.251  0.2221  0.3901  0.0504
 2441SOL    HW118785   2.841   4.340   3.248 -0.8325  0.9281  2.9427
 2441SOL    HW218786   2.887   4.205   3.251 -0.4460 -0.8029 -1.0161
 2442SOL     OW18787   2.161   4.506   7.156 -0.0850 -0.1731 -0.1372
 2442SOL    HW118788   2.176   4.570   7.087 -2.5302 -0.0116 -0.5305
 2442SOL    HW218789   2.164   4.562   7.234 -1.0287 -0.7091  0.2859
 2443SOL     OW18790   3.836   4.635  12.526  0.4706  0.5977  0.7887
 2443SOL    HW118791   3.753   4.587  12.521  1.2446 -0.8235  1.6858
 2443SOL    HW218792   3.808   4.707  12.583  0.7850  2.2271 -1.1113
 2444SOL     OW18793   1.919   0.923  11.476  0.3659 -0.3921 -0.7077
 2444SOL    HW118794   1.931   0.902  11.569 -0.8482 -1.3296 -0.7484
 2444SOL    HW218795   1.975   0.999  11.464  1.7013 -1.4574 -1.2365
 2445SOL     OW18796   1.239   3.468   2.082 -0.0645 -0.0956  0.0392
 2445SOL    HW118797   1.301   3.422   2.026 -1.1792 -0.4670 -0.8767
 2445SOL    HW218798   1.252   3.423   2.166 -0.8423  0.5819  0.5298
 2446SOL     OW18799   3.736   2.490   1.964  0.5639 -0.3632 -0.2403
 2446SOL    HW118800   3.807   2.431   1.992  0.1621  0.0603  1.6484
 2446SOL    HW218801   3.795   2.561   1.941  2.0482 -1.4483  0.2118
 2447SOL     OW18802   1.794   2.102   2.716  0.7842 -0.1698  0.2185
 2447SOL    HW118803   1.827   2.152   2.642  0.2710  0.0212  0.1192
 2447SOL    HW218804   1.762   2.175   2.769 -1.4953 -0.5689 -0.5978
 2448SOL     OW18805   0.223   3.848   2.477 -0.2936 -0.3785  0.4613
 2448SOL    HW118806   0.147   3.882   2.429  0.1601 -1.2477 -0.8594
 2448SOL    HW218807   0.180   3.778   2.526 -1.4267 -0.6724 -0.9342
 2449SOL     OW18808   3.099   3.375   3.122 -0.0423  0.3066  0.2547
 2449SOL    HW118809   3.102   3.366   3.217  1.6032  0.5587  0.2281
 2449SOL    HW218810   3.018   3.328   3.100  0.3867 -0.0738 -0.5173
 2450SOL     OW18811   2.621   3.755  10.965  0.9203  0.1773 -0.4562
 2450SOL    HW118812   2.612   3.722  11.054 -0.0030  0.4607 -0.4436
 2450SOL    HW218813   2.557   3.704  10.916 -1.2309  2.1401  0.3065
 2451SOL     OW18814   2.520   1.124   4.489  0.2700  0.0047 -0.1043
 2451SOL    HW118815   2.577   1.107   4.564  0.5206 -0.4805 -0.4018
 2451SOL    HW218816   2.524   1.218   4.476  0.2303 -0.1820 -1.5024
 2452SOL     OW18817   2.699   0.148   9.506  0.3675  0.7028 -0.2545
 2452SOL    HW118818   2.678   0.109   9.591  0.0603  0.9227 -0.2299
 2452SOL    HW218819   2.618   0.190   9.478  0.2794  0.7783  0.1099
 2453SOL     OW18820   0.178   2.661   0.786  0.0589  0.2290  0.0781
 2453SOL    HW118821   0.105   2.684   0.729 -1.8589  0.9349  2.7981
 2453SOL    HW218822   0.129   2.612   0.852  0.0987 -0.4526 -0.4021
 2454SOL     OW18823   2.272   4.710   3.258 -0.7464 -0.1434 -0.1699
 2454SOL    HW118824   2.201   4.646   3.257 -0.2920 -0.6475 -0.0239
 2454SOL    HW218825   2.274   0.007   3.351 -1.0409 -1.1717  0.0637
 2455SOL     OW18826   3.796   1.137   1.469  0.8338 -0.1646  0.2750
 2455SOL    HW118827   3.846   1.150   1.388  1.2664 -2.5485  0.1343
 2455SOL    HW218828   3.825   1.047   1.487  0.5253 -0.0927  1.1300
 2456SOL     OW18829   3.218   0.374  13.642 -0.3171 -0.3392 -0.2026
 2456SOL    HW118830   3.293   0.333  13.684 -1.8033 -0.2806  2.5050
 2456SOL    HW218831   3.260   0.391  13.558  1.5635 -1.3214  0.5329
 2457SOL     OW18832   4.203   0.315  15.501  0.0222 -0.2104 -0.8290
 2457SOL    HW118833   4.297   0.324  15.488  0.0280  1.7743  0.5555
 2457SOL    HW218834   4.191   0.309  15.596 -2.1706 -0.1793 -1.0993
 2458SOL     OW18835   2.866   2.720   8.467  0.1677  0.0741  0.1764
 2458SOL    HW118836   2.858   2.807   8.427 -1.1168  0.5892  1.5657
 2458SOL    HW218837   2.911   2.680   8.392 -0.7129  2.9501 -1.9165
 2459SOL     OW18838   2.560   0.083   4.636 -0.4615  0.2728  0.0039
 2459SOL    HW118839   2.509   0.156   4.670 -0.6462  0.2059 -0.1300
 2459SOL    HW218840   2.637   0.132   4.608 -0.9687  0.1428 -1.5835
 2460SOL     OW18841   0.544   3.356   8.504 -0.0462 -0.2690  0.0230
 2460SOL    HW118842   0.545   3.320   8.593  3.0033 -1.1504 -0.3675
 2460SOL    HW218843   0.462   3.317   8.476  0.2159 -0.5746 -0.3056
 2461SOL     OW18844   4.293   0.379  10.145 -0.3499  0.2884 -0.0753
 2461SOL    HW118845   4.320   0.418  10.228  2.1753 -0.7558 -0.3960
 2461SOL    HW218846   4.351   0.303  10.136 -1.0600 -0.2105 -0.4642
 2462SOL     OW18847   2.982   3.595  16.277 -0.3794  0.0679  0.2194
 2462SOL    HW118848   2.988   3.602  16.373 -2.3358 -1.0581  0.4373
 2462SOL    HW218849   2.894   3.558  16.277 -0.6919  0.7998  0.7923
 2463SOL     OW18850   3.235   2.026  17.468  0.0194 -0.5182  0.2055
 2463SOL    HW118851   3.217   2.002  17.559 -0.3459 -1.2417 -0.0523
 2463SOL    HW218852   3.147   2.046  17.435 -1.3028 -1.5317  3.1315
 2464SOL     OW18853   2.195   0.406   5.132 -0.1601 -0.4786 -0.0729
 2464SOL    HW118854   2.144   0.484   5.155  0.2610 -0.6524  1.4414
 2464SOL    HW218855   2.163   0.403   5.042  0.1702 -0.6691 -0.1827
 2465SOL     OW18856   2.874   1.034   5.196  0.5825  0.6805 -0.3515
 2465SOL    HW118857   2.823   1.016   5.275  0.0684  0.4796 -0.7313
 2465SOL    HW218858   2.834   1.114   5.161  0.2530 -0.4142 -2.4628
 2466SOL     OW18859   3.805   3.486   3.872  0.2503 -0.1885  0.2228
 2466SOL    HW118860   3.812   3.565   3.820 -1.6026 -0.8189 -0.9948
 2466SOL    HW218861   3.800   3.419   3.804  1.0374  1.6492 -1.6063
 2467SOL     OW18862   0.705   3.924   0.835  0.0970 -0.0829  0.3863
 2467SOL    HW118863   0.651   3.846   0.823 -0.4153  0.1947  0.9064
 2467SOL    HW218864   0.760   3.910   0.758 -0.0173 -1.6745  0.5949
 2468SOL     OW18865   2.479   2.203   1.614  0.3433  0.5509 -0.2713
 2468SOL    HW118866   2.427   2.284   1.623 -0.2951 -0.0561  1.4314
 2468SOL    HW218867   2.442   2.182   1.528 -3.0485  0.7444  1.1142
 2469SOL     OW18868   1.223   2.528   5.986  0.0944  0.4432 -0.1269
 2469SOL    HW118869   1.239   2.464   5.917 -0.7258  0.2421 -0.1328
 2469SOL    HW218870   1.202   2.474   6.063 -0.9559  1.6738  0.4515
 2470SOL     OW18871   1.175   2.837   7.856  0.3458  0.1445 -0.2840
 2470SOL    HW118872   1.094   2.809   7.813 -0.8261 -1.4418  2.9118
 2470SOL    HW218873   1.134   2.837   7.943  1.4167  0.5373  0.2141
 2471SOL     OW18874   2.420   3.726   1.973  0.1167 -0.3670  0.2260
 2471SOL    HW118875   2.514   3.738   1.982  0.1634 -1.0881  0.7166
 2471SOL    HW218876   2.398   3.818   1.981 -1.0450 -0.6045 -0.2414
 2472SOL     OW18877   0.640   3.176   7.434  0.2019 -0.2515  0.8924
 2472SOL    HW118878   0.583   3.193   7.360  1.6923  0.6622 -0.0403
 2472SOL    HW218879   0.701   3.247   7.413 -0.5316  1.2269  3.6473
 2473SOL     OW18880   2.362   0.531   6.289 -0.1520  0.2057 -0.3897
 2473SOL    HW118881   2.422   0.543   6.362 -0.5722 -0.7472  0.1140
 2473SOL    HW218882   2.421   0.472   6.242 -0.3280 -1.3951  1.4354
 2474SOL     OW18883   1.219   1.424   4.286  0.0848  0.0492  0.2010
 2474SOL    HW118884   1.134   1.409   4.244  0.3406  0.8991 -0.6125
 2474SOL    HW218885   1.230   1.516   4.262 -1.1474 -0.2869 -1.7310
 2475SOL     OW18886   0.490   1.454   5.901 -0.6137  0.1763  0.1331
 2475SOL    HW118887   0.564   1.395   5.914  0.9001  1.8051 -1.0615
 2475SOL    HW218888   0.425   1.388   5.876  1.0088 -1.5231  0.3325
 2476SOL     OW18889   0.288   2.983   4.876  0.2260  0.3798  0.0365
 2476SOL    HW118890   0.241   3.040   4.815 -1.4784 -2.4663 -1.3054
 2476SOL    HW218891   0.240   2.901   4.864 -0.3776  0.5000  1.6436
 2477SOL     OW18892   0.816   4.686   5.991 -0.2081  0.7285  0.0159
 2477SOL    HW118893   0.808   0.015   5.912  1.2897  2.1618  0.8113
 2477SOL    HW218894   0.828   0.034   6.053  0.6248 -1.0464  1.9482
 2478SOL     OW18895   1.214   0.124   7.488  0.2152 -0.1703  1.2873
 2478SOL    HW118896   1.254   0.038   7.497  0.2797 -0.3648 -0.9253
 2478SOL    HW218897   1.210   0.124   7.393  0.0396  1.8277  1.2977
 2479SOL     OW18898   4.304   2.463   0.659  0.1804  0.2932 -0.9841
 2479SOL    HW118899   4.370   2.457   0.590  0.8486  1.4430 -0.4554
 2479SOL    HW218900   4.241   2.525   0.622  0.6547  0.2227 -1.9157
 2480SOL     OW18901   2.298   3.235   9.119  0.3389 -0.2982 -0.3641
 2480SOL    HW118902   2.325   3.226   9.027 -1.4667  1.2925 -1.0580
 2480SOL    HW218903   2.287   3.142   9.142  0.1751 -0.7470 -2.2072
 2481SOL     OW18904   2.928   2.108  11.013  1.0912  0.0973  0.1877
 2481SOL    HW118905   2.992   2.127  10.944  0.3854 -0.8954 -0.7258
 2481SOL    HW218906   2.990   2.067  11.073  1.3117 -0.4155 -0.3854
 2482SOL     OW18907   0.898   0.773   7.178 -0.5025  0.5196 -0.0320
 2482SOL    HW118908   0.992   0.778   7.165 -0.4069  0.0503  0.4379
 2482SOL    HW218909   0.890   0.855   7.227 -4.7246  0.1233 -0.0025
 2483SOL     OW18910   2.793   2.864   5.255 -0.1613  0.4981 -0.5303
 2483SOL    HW118911   2.789   2.803   5.329  1.3702  0.6962 -0.2794
 2483SOL    HW218912   2.714   2.842   5.206 -1.1964  1.2543  0.8058
 2484SOL     OW18913   4.718   3.323   4.707  0.4096 -0.8077  0.5121
 2484SOL    HW118914   4.628   3.338   4.676  1.0262  1.6457 -0.0813
 2484SOL    HW218915   0.022   3.261   4.639 -0.8080 -0.6705 -0.1292
 2485SOL     OW18916   4.701   3.106   4.944 -0.0014  0.1220 -0.4451
 2485SOL    HW118917   4.692   3.046   5.019  3.3551 -0.6391 -0.6211
 2485SOL    HW218918   4.620   3.110   4.894  0.3909 -1.0679 -1.1930
 2486SOL     OW18919   1.922   3.988   5.999  0.3880 -0.2762 -0.6826
 2486SOL    HW118920   2.014   4.017   6.002  0.2199 -0.1597  2.8784
 2486SOL    HW218921   1.942   3.899   5.970  0.5395 -0.4431 -0.0628
 2487SOL     OW18922   3.502   3.652   1.295 -0.2916  0.7051  0.6724
 2487SOL    HW118923   3.438   3.619   1.230 -0.4019 -0.4698  1.3680
 2487SOL    HW218924   3.524   3.742   1.271 -0.4258  0.1141 -1.7247
 2488SOL     OW18925   1.152   1.990  10.060 -0.2303 -0.4519 -0.1871
 2488SOL    HW118926   1.127   2.083  10.054 -1.4601 -0.7226  0.7770
 2488SOL    HW218927   1.191   1.980   9.973 -1.1720  0.7338 -0.7483
 2489SOL     OW18928   2.062   2.222   8.204 -0.1693  0.1801  0.5400
 2489SOL    HW118929   2.121   2.193   8.273  1.6434 -1.6986 -1.7667
 2489SOL    HW218930   2.115   2.192   8.129  0.3036  1.3510  0.4065
 2490SOL     OW18931   2.324   3.729   3.678 -0.2315  0.3732  0.0740
 2490SOL    HW118932   2.377   3.713   3.756 -0.4010 -0.5193  0.0031
 2490SOL    HW218933   2.385   3.792   3.637 -0.5935  1.1562  0.7447
 2491SOL     OW18934   1.039   3.298   2.294 -0.3073 -0.7083 -0.1013
 2491SOL    HW118935   0.967   3.282   2.233 -1.2704 -2.3313  1.4632
 2491SOL    HW218936   1.028   3.393   2.302  0.7262 -0.7548  1.8064
 2492SOL     OW18937   4.470   1.343   8.444 -0.4258  1.2941 -0.4781
 2492SOL    HW118938   4.529   1.385   8.507 -0.4037  0.5708 -0.0205
 2492SOL    HW218939   4.392   1.396   8.461 -1.3530  0.5617 -2.5266
 2493SOL     OW18940   0.694   1.472  10.900  0.1915  0.3037  0.5925
 2493SOL    HW118941   0.709   1.506  10.988  2.6216  0.6221  0.0479
 2493SOL    HW218942   0.763   1.521  10.856 -1.5963  0.6382 -1.8616
 2494SOL     OW18943   4.016   3.321   3.088 -0.1917 -0.0850 -0.1323
 2494SOL    HW118944   3.971   3.335   3.171  1.0322  2.2897  0.1041
 2494SOL    HW218945   3.978   3.235   3.067 -0.6349  0.4899 -1.6898
 2495SOL     OW18946   2.836   1.485   3.028  0.7886  0.3075  0.5102
 2495SOL    HW118947   2.924   1.449   3.019 -0.2079 -1.7223 -1.1471
 2495SOL    HW218948   2.816   1.449   3.114  1.1231 -0.9535  0.0546
 2496SOL     OW18949   0.193   2.702   8.857 -0.6259  0.5452 -0.0186
 2496SOL    HW118950   0.198   2.705   8.953  2.6386  2.1397 -0.2525
 2496SOL    HW218951   0.167   2.789   8.827  1.5641  1.0788 -0.3857
 2497SOL     OW18952   3.982   0.472  15.510  0.2738 -0.3397 -0.6445
 2497SOL    HW118953   3.914   0.406  15.516  0.5724 -0.5283  0.5691
 2497SOL    HW218954   4.058   0.414  15.503  0.9393  0.3669  0.7434
 2498SOL     OW18955   4.358   1.030  14.818 -0.2381 -0.0571  0.3705
 2498SOL    HW118956   4.329   0.970  14.749 -0.0245 -0.1577  0.3681
 2498SOL    HW218957   4.405   0.966  14.871  1.9935  0.1335 -1.3697
 2499SOL     OW18958   1.419   1.204   6.444  0.2621  0.6236 -0.3321
 2499SOL    HW118959   1.398   1.228   6.354 -1.4493 -1.9164 -0.6081
 2499SOL    HW218960   1.331   1.176   6.468  0.2303 -0.0444 -1.2019
 2500SOL     OW18961   4.273   4.269   6.646  0.6591  0.2193 -0.1770
 2500SOL    HW118962   4.351   4.249   6.595  1.4202 -0.8081  1.3678
 2500SOL    HW218963   4.256   4.359   6.618 -1.5404 -0.2719 -0.4158
 2501SOL     OW18964   3.450   0.486   8.641  0.2348  0.5952 -0.4375
 2501SOL    HW118965   3.401   0.559   8.605 -0.1940 -0.8288 -2.7437
 2501SOL    HW218966   3.385   0.466   8.709  1.6341 -1.8381  0.1861
 2502SOL     OW18967   1.656   3.469   5.411 -0.1377  0.0424  0.1217
 2502SOL    HW118968   1.569   3.435   5.434 -0.8997  1.5881 -0.4597
 2502SOL    HW218969   1.713   3.392   5.403  1.2924  1.2856 -1.5137
 2503SOL     OW18970   2.992   0.311   5.661  0.2214  0.2378  0.3109
 2503SOL    HW118971   2.943   0.258   5.598  4.1849 -0.3651 -2.2443
 2503SOL    HW218972   2.931   0.384   5.662 -0.0789 -0.0074 -1.5652
 2504SOL     OW18973   0.431   3.326   5.652 -0.4805  0.1891  0.3524
 2504SOL    HW118974   0.401   3.323   5.742  1.7221 -0.8487  1.0399
 2504SOL    HW218975   0.405   3.416   5.631  0.4282  0.5996  1.0314
 2505SOL     OW18976   4.467   1.984   8.120 -0.1922  0.0181 -0.6969
 2505SOL    HW118977   4.376   1.956   8.112  0.1653 -1.3780  0.1982
 2505SOL    HW218978   4.492   1.924   8.190  2.2530 -0.8376 -2.3152
 2506SOL     OW18979   0.310   3.089  15.555 -0.6818  0.0623  0.4701
 2506SOL    HW118980   0.291   3.013  15.500 -1.0479 -1.0017  2.0340
 2506SOL    HW218981   0.346   3.042  15.631  1.1417 -0.6984 -0.8716
 2507SOL     OW18982   1.185   3.610   8.798 -0.0375  0.0209  0.0486
 2507SOL    HW118983   1.242   3.628   8.723 -0.7560 -0.7164 -0.6668
 2507SOL    HW218984   1.182   3.700   8.833  1.5287  0.4658 -0.9783
 2508SOL     OW18985   1.847   1.223   3.805 -0.0683 -0.4430 -0.3424
 2508SOL    HW118986   1.902   1.158   3.848 -0.3667 -0.0257  0.6670
 2508SOL    HW218987   1.756   1.198   3.824  0.2727 -0.7940  0.8115
 2509SOL     OW18988   0.228   1.659   4.305 -0.3320 -0.4578  0.0040
 2509SOL    HW118989   0.302   1.621   4.353 -0.2943  2.1972  2.0390
 2509SOL    HW218990   0.194   1.700   4.384  0.2907 -1.9262  1.0396
 2510SOL     OW18991   4.505   1.011   3.712  0.1123  0.6860  0.0658
 2510SOL    HW118992   4.503   0.952   3.637  0.8312  1.1470 -0.3222
 2510SOL    HW218993   4.474   0.949   3.777 -3.4038  0.9727 -1.3527
 2511SOL     OW18994   3.307   0.236   7.967  0.4744 -0.0238 -0.3240
 2511SOL    HW118995   3.391   0.190   7.980  0.0110 -1.2178 -1.5199
 2511SOL    HW218996   3.266   0.183   7.898  0.6253 -0.2460 -0.2452
 2512SOL     OW18997   0.683   3.411   9.887 -0.1151 -0.3077  0.4733
 2512SOL    HW118998   0.632   3.401   9.807 -0.1574  3.0198  0.0749
 2512SOL    HW218999   0.706   3.504   9.882 -3.2731  0.4082 -0.8506
 2513SOL     OW19000   2.369   0.471   2.604  0.1779  0.1624 -0.2531
 2513SOL    HW119001   2.385   0.421   2.524  3.0691  0.4277  0.1891
 2513SOL    HW219002   2.415   0.420   2.670 -1.5173 -1.9236 -0.6724
 2514SOL     OW19003   4.112   2.672  12.753  0.3892 -0.0623 -0.3922
 2514SOL    HW119004   4.121   2.640  12.663 -0.6740 -2.3168  0.3122
 2514SOL    HW219005   4.017   2.682  12.763  0.2494 -0.3233 -1.4447
 2515SOL     OW19006   2.017   1.493  13.782  0.7642  0.1247 -0.0838
 2515SOL    HW119007   2.097   1.500  13.834 -0.6449  0.0277  2.0606
 2515SOL    HW219008   2.049   1.546  13.708  0.8086 -1.4362 -1.1780
 2516SOL     OW19009   3.271   3.670   5.210 -0.5248 -0.2559  0.3526
 2516SOL    HW119010   3.284   3.744   5.269 -0.4284  0.3742 -0.4724
 2516SOL    HW219011   3.277   3.700   5.120 -0.4577 -3.5823 -0.7779
 2517SOL     OW19012   3.532   2.375   8.429  0.2227 -0.1114  0.0809
 2517SOL    HW119013   3.523   2.321   8.351 -0.3119 -0.6651  0.5200
 2517SOL    HW219014   3.500   2.462   8.406  0.3394 -0.5523 -1.7067
 2518SOL     OW19015   1.226   2.364  11.769  0.3168  0.6237  0.6136
 2518SOL    HW119016   1.156   2.331  11.825  1.6562  0.4110  2.1883
 2518SOL    HW219017   1.279   2.409  11.836  1.2969 -0.6259  0.6860
 2519SOL     OW19018   1.557   1.358   4.671  0.4696  0.4260 -1.1719
 2519SOL    HW119019   1.641   1.405   4.672  1.6148 -1.6274 -1.9216
 2519SOL    HW219020   1.542   1.393   4.583  0.2114 -0.2552 -1.3906
 2520SOL     OW19021   2.811   4.635  17.141 -0.3931 -0.1581  0.2689
 2520SOL    HW119022   2.886   4.671  17.094 -0.9691 -1.2562 -1.5053
 2520SOL    HW219023   2.754   4.610  17.068 -0.5362  2.1519 -0.3999
 2521SOL     OW19024   3.256   0.319   6.651  0.3537  0.6404  0.3344
 2521SOL    HW119025   3.270   0.410   6.625 -0.0188  0.1977 -1.3919
 2521SOL    HW219026   3.290   0.275   6.574 -0.3860  2.8682 -1.2690
 2522SOL     OW19027   2.682   3.893   2.512  0.4508  0.5328  0.0117
 2522SOL    HW119028   2.634   3.814   2.538  1.6850  0.6253  2.6399
 2522SOL    HW219029   2.633   3.942   2.446  0.3266 -0.5063 -0.6739
 2523SOL     OW19030   2.839   2.621  14.888 -0.9670 -0.1965 -1.2149
 2523SOL    HW119031   2.872   2.662  14.808  1.2501  1.0501  0.3536
 2523SOL    HW219032   2.744   2.628  14.879 -1.3727 -1.4740  2.0110
 2524SOL     OW19033   2.437   1.214   8.826 -0.5926 -0.3328 -0.2145
 2524SOL    HW119034   2.490   1.169   8.760 -0.6661  0.8531 -1.0890
 2524SOL    HW219035   2.391   1.142   8.868 -2.3466  0.1358 -1.3229
 2525SOL     OW19036   3.828   4.201  12.786 -0.1106 -0.2955 -0.3914
 2525SOL    HW119037   3.853   4.113  12.815 -1.6380 -0.8640 -0.7725
 2525SOL    HW219038   3.911   4.239  12.757 -0.5121  0.2791 -0.7709
 2526SOL     OW19039   1.758   3.897   7.175  0.2855 -0.0482 -0.0178
 2526SOL    HW119040   1.676   3.879   7.221  0.4426 -1.7033 -0.3673
 2526SOL    HW219041   1.791   3.807   7.183 -3.3760 -1.7384 -3.6857
 2527SOL     OW19042   1.298   0.125   2.137 -0.2826 -0.8129 -0.2107
 2527SOL    HW119043   1.206   0.146   2.120  0.2960 -0.3990 -2.7461
 2527SOL    HW219044   1.305   0.138   2.232  0.6347 -1.9661 -0.1202
 2528SOL     OW19045   1.040   3.753   4.186 -0.0647  0.1258  0.4797
 2528SOL    HW119046   0.955   3.792   4.166 -0.4202 -1.9827 -2.1137
 2528SOL    HW219047   1.066   3.728   4.098  0.5736  0.6214  0.5258
 2529SOL     OW19048   0.316   0.405   2.662 -0.5824  0.8903 -0.5564
 2529SOL    HW119049   0.349   0.368   2.580  1.1290 -0.6895  0.8334
 2529SOL    HW219050   0.222   0.405   2.644 -0.5239 -3.1541 -0.8145
 2530SOL     OW19051   2.401   2.048  15.823  0.1806  0.0849 -0.1780
 2530SOL    HW119052   2.461   2.008  15.887 -0.6842  0.8316  1.0907
 2530SOL    HW219053   2.315   2.011  15.842  0.1364 -0.7877 -2.0236
 2531SOL     OW19054   2.633   0.874   5.894  0.2956  0.4626  0.1442
 2531SOL    HW119055   2.572   0.948   5.895  0.0117  0.2291 -0.5251
 2531SOL    HW219056   2.642   0.856   5.988 -0.7050 -1.6820 -0.1913
 2532SOL     OW19057   1.217   3.146  13.908  0.0116  0.6000 -0.4349
 2532SOL    HW119058   1.292   3.091  13.928 -0.1560  1.1981  1.8338
 2532SOL    HW219059   1.242   3.181  13.822  2.5172 -1.2439 -0.4669
 2533SOL     OW19060   3.247   3.490   5.706  0.1124 -0.2818  0.4091
 2533SOL    HW119061   3.328   3.521   5.665 -0.3123  1.1706  0.6802
 2533SOL    HW219062   3.183   3.486   5.635  2.3976 -0.0067 -1.6832
 2534SOL     OW19063   3.757   1.816   0.961  0.3852 -0.3137 -0.2102
 2534SOL    HW119064   3.760   1.733   1.010 -2.0118 -1.0873 -1.3684
 2534SOL    HW219065   3.766   1.780   0.873 -0.2088  0.2014 -0.4791
 2535SOL     OW19066   3.593   3.646   3.478  0.0038  0.2327  0.6690
 2535SOL    HW119067   3.660   3.705   3.444 -1.4088  0.5061 -1.6225
 2535SOL    HW219068   3.558   3.700   3.549  0.7156  2.0252 -0.3543
 2536SOL     OW19069   3.784   2.482  17.620  0.0119 -0.6555  0.1439
 2536SOL    HW119070   3.784   2.434   0.005  0.4985 -0.7939  0.0598
 2536SOL    HW219071   3.695   2.462  17.590  0.3348  0.8279 -1.8114
 2537SOL     OW19072   0.609   3.239   8.762 -0.4062  0.6483 -0.1808
 2537SOL    HW119073   0.647   3.275   8.842 -2.8138 -1.0756  1.7265
 2537SOL    HW219074   0.519   3.220   8.789 -0.9226  2.1813 -0.8083
 2538SOL     OW19075   2.355   0.837   8.270 -0.1231  0.7586 -0.5443
 2538SOL    HW119076   2.345   0.914   8.326 -2.2817 -0.2153  0.3984
 2538SOL    HW219077   2.419   0.864   8.204  0.6176  0.7078  0.1476
 2539SOL     OW19078   3.621   1.507  13.999 -0.1807 -0.4248  0.1781
 2539SOL    HW119079   3.582   1.575  14.053 -0.6738 -0.0068 -0.6995
 2539SOL    HW219080   3.712   1.537  14.004  0.8103 -3.4475  0.6092
 2540SOL     OW19081   0.916   4.641   8.313  0.5030 -0.3726 -0.0746
 2540SOL    HW119082   0.915   4.637   8.218 -0.3897 -1.5560 -0.0125
 2540SOL    HW219083   0.873   4.562   8.347 -0.8433  0.5841  0.4472
 2541SOL     OW19084   0.283   1.622   8.686  0.2041 -0.1557  0.1574
 2541SOL    HW119085   0.228   1.583   8.618 -0.5466 -2.0287  1.8580
 2541SOL    HW219086   0.223   1.612   8.760  0.4926  1.5832  0.6266
 2542SOL     OW19087   2.837   3.185   3.115  0.4358 -0.7538 -0.6382
 2542SOL    HW119088   2.891   3.106   3.109 -1.4125 -1.9888 -1.3666
 2542SOL    HW219089   2.781   3.185   3.037 -0.2976 -3.0279 -0.1256
 2543SOL     OW19090   3.284   3.355   7.909 -0.5200  0.1165 -0.1615
 2543SOL    HW119091   3.370   3.379   7.943  0.0992  0.3047 -1.8398
 2543SOL    HW219092   3.284   3.266   7.942  2.0585  0.1404 -0.0667
 2544SOL     OW19093   4.221   1.673   2.773  0.0735  0.1454  0.1987
 2544SOL    HW119094   4.175   1.713   2.847 -2.2053 -0.6604 -0.7752
 2544SOL    HW219095   4.155   1.669   2.704 -0.1092 -0.9948  0.4260
 2545SOL     OW19096   2.550   3.869   8.507  0.4620 -0.4658  0.1984
 2545SOL    HW119097   2.634   3.912   8.489  1.0693 -0.9689  1.8206
 2545SOL    HW219098   2.493   3.945   8.496 -0.7270 -1.2642  0.8414
 2546SOL     OW19099   0.844   3.056   9.437 -0.1287 -0.4720 -0.5698
 2546SOL    HW119100   0.815   3.066   9.527  0.6508  1.6333 -0.5513
 2546SOL    HW219101   0.760   3.062   9.392 -0.6428  1.5108  0.6452
 2547SOL     OW19102   2.669   3.666   7.884  0.3874  0.1270  0.2547
 2547SOL    HW119103   2.585   3.622   7.887  1.0330 -1.1239 -0.2174
 2547SOL    HW219104   2.714   3.614   7.818  0.5638  1.1776 -0.4653
 2548SOL     OW19105   2.357   4.280   8.716  0.0871 -0.5919 -0.2700
 2548SOL    HW119106   2.273   4.297   8.758  0.6508  0.9739  0.2340
 2548SOL    HW219107   2.372   4.369   8.684  1.6227  0.5081  3.4613
 2549SOL     OW19108   0.119   3.454   4.414  0.2306  0.1853  0.5809
 2549SOL    HW119109   0.078   3.367   4.412  0.1516  0.2446 -0.5567
 2549SOL    HW219110   0.039   3.505   4.428 -0.3485 -0.1828 -1.3322
 2550SOL     OW19111   3.875   4.670   5.285 -0.5269 -0.5631  0.0678
 2550SOL    HW119112   3.795   4.619   5.272 -1.3976  0.4581  1.4435
 2550SOL    HW219113   3.887   0.004   5.209  0.8113  0.0047  0.7091
 2551SOL     OW19114   3.049   0.783   5.486  0.0592 -0.9394  0.0953
 2551SOL    HW119115   3.019   0.843   5.554 -2.0967 -2.4852  0.5024
 2551SOL    HW219116   3.118   0.734   5.531  2.4587 -0.0831 -2.5994
 2552SOL     OW19117   1.826   2.209  10.979 -0.0809  0.2449 -0.1373
 2552SOL    HW119118   1.828   2.193  10.885 -0.8090 -3.5392  0.4944
 2552SOL    HW219119   1.800   2.121  11.005  0.1220 -0.0001 -0.7692
 2553SOL     OW19120   4.220   0.448   5.405 -0.1690 -0.0943 -0.2860
 2553SOL    HW119121   4.313   0.473   5.401  0.0599 -0.6345  1.6422
 2553SOL    HW219122   4.219   0.393   5.327  1.7054 -2.5508  1.4250
 2554SOL     OW19123   2.877   0.011   8.814  0.0419 -0.1336 -0.3600
 2554SOL    HW119124   2.955   4.681   8.825 -0.8803 -1.3352  0.2022
 2554SOL    HW219125   2.908   0.056   8.735 -2.0395  0.0037 -1.0917
 2555SOL     OW19126   3.231   2.985   3.662 -0.1065 -0.4249 -0.2461
 2555SOL    HW119127   3.235   2.921   3.591  1.2968 -1.8167  1.0943
 2555SOL    HW219128   3.257   3.065   3.615  0.3653 -0.0749  0.6162
 2556SOL     OW19129   0.866   0.822   9.098 -0.0809 -0.4412  0.3287
 2556SOL    HW119130   0.944   0.800   9.150  0.0696 -0.4227  0.1082
 2556SOL    HW219131   0.814   0.752   9.137  0.2745 -1.1030 -0.3925
 2557SOL     OW19132   3.700   4.536  10.274  0.4163 -0.3920  0.6259
 2557SOL    HW119133   3.714   4.442  10.279  2.9834  0.0234  1.5584
 2557SOL    HW219134   3.668   4.545  10.184 -0.1674 -0.3125  0.8442
 2558SOL     OW19135   0.933   3.571   2.825 -0.0608  0.0282  0.1930
 2558SOL    HW119136   0.879   3.650   2.832 -0.5977 -0.4179  1.1320
 2558SOL    HW219137   0.866   3.522   2.776 -1.3737 -0.1453  2.1586
 2559SOL     OW19138   0.182   2.778   5.703  1.0559 -0.0930 -0.6991
 2559SOL    HW119139   0.265   2.762   5.748  0.7849 -0.0841 -0.2005
 2559SOL    HW219140   0.190   2.872   5.685 -0.5173  0.1991  0.0827
 2560SOL     OW19141   0.066   0.709   5.674  0.3726  0.0736  0.0523
 2560SOL    HW119142   0.043   0.774   5.608 -0.7629 -0.5846 -0.2041
 2560SOL    HW219143   4.722   0.644   5.656  0.6546 -0.3246  0.4228
 2561SOL     OW19144   2.362   1.939   7.901  0.0127  0.0422  0.1648
 2561SOL    HW119145   2.299   2.006   7.927 -1.5134 -0.2911 -2.6806
 2561SOL    HW219146   2.334   1.861   7.949 -1.4454  1.2252  1.2455
 2562SOL     OW19147   3.511   1.147   5.687  0.1089 -0.1710 -0.0401
 2562SOL    HW119148   3.471   1.231   5.666  1.5243  0.4145 -0.3987
 2562SOL    HW219149   3.603   1.170   5.700 -0.8562  2.7417  1.6103
 2563SOL     OW19150   2.114   0.071   6.516  0.0376 -0.3873 -0.0238
 2563SOL    HW119151   2.147   0.155   6.550 -3.1811  0.4862  0.9680
 2563SOL    HW219152   2.037   0.092   6.462  0.9939 -0.5761 -1.4331
 2564SOL     OW19153   1.044   1.725   4.787  0.4365  0.3533  0.2624
 2564SOL    HW119154   1.050   1.722   4.691  0.4049 -2.7274  0.3420
 2564SOL    HW219155   1.090   1.807   4.802  0.2580  0.5484 -0.2493
 2565SOL     OW19156   1.275   1.915   5.555  0.4974  0.3663 -0.1071
 2565SOL    HW119157   1.276   1.870   5.470 -1.3835  1.1294 -0.5429
 2565SOL    HW219158   1.179   1.916   5.561  0.5084 -1.9266  0.3622
 2566SOL     OW19159   2.849   4.324   2.304  0.2075  0.1443 -0.5725
 2566SOL    HW119160   2.849   4.413   2.268  0.6862 -0.2628 -1.5765
 2566SOL    HW219161   2.863   4.343   2.397 -0.6423  1.4276 -0.6926
 2567SOL     OW19162   4.106   2.847   6.287 -0.3243 -0.7119 -0.5216
 2567SOL    HW119163   4.054   2.806   6.218 -0.5632 -1.7333  0.2481
 2567SOL    HW219164   4.072   2.808   6.368 -1.0708 -0.9955 -0.9675
 2568SOL     OW19165   4.073   0.732   5.133  0.1326 -0.0635 -0.2150
 2568SOL    HW119166   4.104   0.725   5.043  0.3175  1.0651 -0.2369
 2568SOL    HW219167   3.989   0.687   5.126 -0.7047  1.7049 -1.2990
 2569SOL     OW19168   1.816   3.814  14.637  0.1461  0.0660 -0.8273
 2569SOL    HW119169   1.831   3.797  14.544 -2.1634  1.5438 -1.4492
 2569SOL    HW219170   1.887   3.874  14.658  0.3292 -0.5670  0.3955
 2570SOL     OW19171   2.344   1.759   4.570  0.1338  0.6363  0.7426
 2570SOL    HW119172   2.270   1.728   4.622  0.5035 -3.3210 -1.0477
 2570SOL    HW219173   2.318   1.734   4.481  0.7290 -2.1782  1.3353
 2571SOL     OW19174   0.820   2.646   5.524 -0.2898  0.0298  0.1923
 2571SOL    HW119175   0.746   2.673   5.579 -1.6710 -0.5085 -1.3940
 2571SOL    HW219176   0.787   2.569   5.476  0.9768 -1.1165  1.1751
 2572SOL     OW19177   4.143   2.515   3.245  0.1385  0.3574  0.2965
 2572SOL    HW119178   4.112   2.463   3.171 -1.8112  2.8227 -0.5995
 2572SOL    HW219179   4.191   2.448   3.294 -1.7846  0.2913  2.1095
 2573SOL     OW19180   1.852   1.804   5.015  0.0064  0.1393  0.0744
 2573SOL    HW119181   1.879   1.766   4.931 -2.0536 -1.8258  0.2868
 2573SOL    HW219182   1.937   1.815   5.057  0.9296  0.4981 -1.8982
 2574SOL     OW19183   4.304   0.027  11.004  0.2427  0.5134  0.3212
 2574SOL    HW119184   4.345   0.065  11.082 -0.5701  0.3990  0.8019
 2574SOL    HW219185   4.249   0.099  10.973 -0.7013 -1.0547 -1.5778
 2575SOL     OW19186   3.182   2.855   0.454 -0.1839  0.0161 -0.2615
 2575SOL    HW119187   3.269   2.894   0.442 -0.7740  1.8252  1.3331
 2575SOL    HW219188   3.204   2.765   0.430  2.3744  0.8483 -1.0547
 2576SOL     OW19189   4.516   3.559   8.417  0.0021 -0.1256  0.2572
 2576SOL    HW119190   4.603   3.596   8.402  0.0958  0.5035  2.3921
 2576SOL    HW219191   4.530   3.483   8.473  0.8705  0.4589  0.8320
 2577SOL     OW19192   2.068   0.515   3.712  0.0656  0.3027  0.5268
 2577SOL    HW119193   2.146   0.564   3.738  0.2180  0.3650 -0.0562
 2577SOL    HW219194   1.999   0.568   3.751 -2.0372 -2.0494 -0.0214
 2578SOL     OW19195   3.515   1.384  10.277  0.1418 -0.2380 -0.5933
 2578SOL    HW119196   3.447   1.441  10.313 -0.7990 -0.0154 -2.7143
 2578SOL    HW219197   3.551   1.339  10.354  2.1725  0.0072 -1.4056
 2579SOL     OW19198   2.997   2.637  10.608  0.4302 -0.4263  0.0622
 2579SOL    HW119199   2.922   2.689  10.636 -1.1378 -1.5442 -2.0061
 2579SOL    HW219200   3.064   2.704  10.597 -0.8660  0.2256 -3.8639
 2580SOL     OW19201   0.818   2.858  12.164  0.5330  0.0002 -0.4544
 2580SOL    HW119202   0.803   2.776  12.117  1.5896  0.0007 -0.8123
 2580SOL    HW219203   0.897   2.897  12.125  0.0653  0.9806 -0.4273
 2581SOL     OW19204   3.310   3.218   1.932  0.0836  0.4141  0.2134
 2581SOL    HW119205   3.271   3.304   1.914  3.0857  1.5880 -0.5513
 2581SOL    HW219206   3.403   3.240   1.928  0.3006 -0.8850 -2.0775
 2582SOL     OW19207   1.583   3.930  12.872  0.2707  0.6262  0.3535
 2582SOL    HW119208   1.679   3.931  12.877  0.2769 -3.1117  1.0396
 2582SOL    HW219209   1.564   3.875  12.796 -2.1310  1.4190  0.3872
 2583SOL     OW19210   1.693   4.246   6.675 -0.6863  0.4955 -0.0232
 2583SOL    HW119211   1.667   4.300   6.750  2.3911  2.8275 -0.6836
 2583SOL    HW219212   1.672   4.301   6.599  0.4853 -0.9474 -1.3865
 2584SOL     OW19213   3.218   1.502   6.891 -0.2128 -0.3315  0.3576
 2584SOL    HW119214   3.225   1.470   6.801 -1.1294  0.6856 -0.0726
 2584SOL    HW219215   3.265   1.435   6.940  1.3473 -0.3289 -1.1554
 2585SOL     OW19216   1.635   0.495   3.213 -0.1811 -0.4887  0.2033
 2585SOL    HW119217   1.652   0.567   3.274 -0.6003  0.1506 -0.4484
 2585SOL    HW219218   1.573   0.538   3.154  2.7967  1.0445 -1.8016
 2586SOL     OW19219   3.957   3.958  15.070 -0.1131 -0.0600 -0.3047
 2586SOL    HW119220   3.953   4.036  15.124  0.4539  0.1120 -0.5079
 2586SOL    HW219221   4.023   3.906  15.116 -0.5039  0.8480  1.2600
 2587SOL     OW19222   0.846   0.035   3.570  0.4619 -0.7331 -0.3134
 2587SOL    HW119223   0.846   0.002   3.660 -0.5890 -2.4888 -0.9586
 2587SOL    HW219224   0.932   0.004   3.543  2.1359  1.1131  2.8636
 2588SOL     OW19225   0.264   2.429   8.144  0.0727  0.3670 -0.2195
 2588SOL    HW119226   0.224   2.488   8.207 -1.7799 -0.3794 -0.6939
 2588SOL    HW219227   0.303   2.484   8.075  1.1178  1.5083  1.2894
 2589SOL     OW19228   2.564   0.062   6.945  0.2338 -0.1186 -0.4000
 2589SOL    HW119229   2.479   0.024   6.965  0.4850 -0.2652  0.3966
 2589SOL    HW219230   2.614   4.713   6.908  0.1321 -0.3784 -0.0203
 2590SOL     OW19231   4.319   2.178  15.182 -0.3219  0.5613  0.0866
 2590SOL    HW119232   4.410   2.158  15.158  0.1307  0.0176  2.3254
 2590SOL    HW219233   4.264   2.139  15.114 -2.8209  0.7952  1.9714
 2591SOL     OW19234   0.120   1.874   4.970 -0.3016 -0.0558 -0.2134
 2591SOL    HW119235   0.162   1.925   5.038 -0.2912 -0.5838  0.1769
 2591SOL    HW219236   0.104   1.947   4.910 -2.4299  0.2897  0.7798
 2592SOL     OW19237   2.580   3.123  10.950 -0.1568 -0.2871  0.1712
 2592SOL    HW119238   2.516   3.052  10.952  0.2611 -0.7168 -2.2239
 2592SOL    HW219239   2.532   3.185  10.896 -0.6409 -0.7192  0.1019
 2593SOL     OW19240   0.322   1.551   8.186 -0.1155 -0.1006  0.4633
 2593SOL    HW119241   0.276   1.610   8.126 -0.2318 -0.0253  0.6263
 2593SOL    HW219242   0.367   1.610   8.247  1.1372  1.2348 -1.7675
 2594SOL     OW19243   3.743   1.360   4.269  0.2727 -0.1479  0.3116
 2594SOL    HW119244   3.822   1.399   4.308 -0.0426 -1.3293  2.1390
 2594SOL    HW219245   3.692   1.345   4.349 -0.5711 -2.1817 -0.6162
 2595SOL     OW19246   2.295   4.364  15.098 -0.0091 -0.1252 -0.1303
 2595SOL    HW119247   2.270   4.418  15.024 -0.4610  1.2297  1.0154
 2595SOL    HW219248   2.329   4.289  15.049 -0.3682 -0.2488 -0.1859
 2596SOL     OW19249   2.050   2.409   7.107  0.2133  0.5369  0.5056
 2596SOL    HW119250   2.146   2.411   7.102  0.2152  1.3728  0.8438
 2596SOL    HW219251   2.028   2.502   7.114  0.2297  0.6546 -0.9829
 2597SOL     OW19252   3.573   0.692   6.903 -0.1868  0.8158  0.0675
 2597SOL    HW119253   3.490   0.726   6.870  0.7341  1.1425 -1.8826
 2597SOL    HW219254   3.569   0.603   6.869 -1.3865  0.4412  1.1909
 2598SOL     OW19255   1.033   3.405   5.872  0.6954 -0.2071  0.5622
 2598SOL    HW119256   1.037   3.320   5.915  1.6257 -0.1086  0.6638
 2598SOL    HW219257   0.950   3.441   5.903  0.2878 -0.2640 -0.4627
 2599SOL     OW19258   3.680   0.162   4.341  0.5381  0.5949  0.5050
 2599SOL    HW119259   3.644   0.192   4.424 -0.0060  3.2324 -0.7111
 2599SOL    HW219260   3.705   0.078   4.380 -0.8652 -0.9455 -1.8652
 2600SOL     OW19261   2.854   4.019   1.798  0.5547  0.1486 -0.4249
 2600SOL    HW119262   2.904   4.099   1.783 -2.8509  2.2160 -0.7805
 2600SOL    HW219263   2.914   3.946   1.786  1.7492  0.8790  1.0674
 2601SOL     OW19264   2.063   1.670   9.867 -0.2335  0.0220  0.4396
 2601SOL    HW119265   2.080   1.748   9.813 -0.7429  0.1147  0.4131
 2601SOL    HW219266   1.968   1.677   9.873 -0.3129 -0.6152 -0.0649
 2602SOL     OW19267   4.665   3.518   5.775  0.7701 -0.7623  0.3282
 2602SOL    HW119268   4.570   3.531   5.768  1.0956  2.0468  1.2903
 2602SOL    HW219269   4.665   3.426   5.802  2.0804 -1.1431 -0.9443
 2603SOL     OW19270   2.659   2.315   8.482  0.9247  0.7174 -0.0311
 2603SOL    HW119271   2.671   2.244   8.545  0.5869 -0.5962 -1.4309
 2603SOL    HW219272   2.748   2.339   8.458  1.3832 -0.8972  0.0383
 2604SOL     OW19273   3.431   3.395  15.987  0.0138  0.0495  0.2202
 2604SOL    HW119274   3.410   3.424  15.898 -1.5864 -2.2776 -0.1552
 2604SOL    HW219275   3.371   3.445  16.043  1.7235  1.1780  1.0445
 2605SOL     OW19276   0.819   4.159   2.910 -0.1946 -0.1816 -0.1424
 2605SOL    HW119277   0.875   4.087   2.939 -0.8463 -0.2071  1.0575
 2605SOL    HW219278   0.805   4.147   2.816  1.5455  0.7578 -0.5169
 2606SOL     OW19279   0.625   2.517   8.693  0.4149  0.4586  0.2862
 2606SOL    HW119280   0.571   2.441   8.674 -0.6838  1.5647 -0.9982
 2606SOL    HW219281   0.635   2.520   8.788  0.7497  1.3104  0.2300
 2607SOL     OW19282   4.215   1.040   8.257 -0.1946 -0.1474  0.3375
 2607SOL    HW119283   4.283   1.100   8.228 -1.1777 -0.5795 -2.7982
 2607SOL    HW219284   4.152   1.102   8.294  0.5334  0.2896  0.8320
 2608SOL     OW19285   0.091   4.215   5.296 -0.5280  0.0340  0.0802
 2608SOL    HW119286   0.180   4.216   5.262 -0.2607 -0.3377  0.7693
 2608SOL    HW219287   0.041   4.198   5.216  0.3121  1.0742 -0.6546
 2609SOL     OW19288   0.717   4.107   1.365  0.2188  0.1713 -0.0701
 2609SOL    HW119289   0.808   4.134   1.360  0.6446 -1.5607 -1.6687
 2609SOL    HW219290   0.716   4.081   1.457 -1.3338 -0.9219 -0.3767
 2610SOL     OW19291   1.149   2.516   4.340  0.0149 -0.1267  0.2370
 2610SOL    HW119292   1.125   2.593   4.288 -1.0174  0.7803  2.0341
 2610SOL    HW219293   1.120   2.542   4.427  0.1624  1.9182 -0.3250
 2611SOL     OW19294   1.897   2.599  11.423 -0.2799 -0.1849  0.3881
 2611SOL    HW119295   1.916   2.507  11.407  1.2533  0.7415 -3.1282
 2611SOL    HW219296   1.963   2.608  11.492  1.2982 -1.1747 -1.0004
 2612SOL     OW19297   3.858   1.468   5.206  0.1625 -0.0332 -0.6588
 2612SOL    HW119298   3.896   1.503   5.126  1.0055 -0.2262 -0.3427
 2612SOL    HW219299   3.827   1.387   5.166 -3.0230  0.4813  0.8099
 2613SOL     OW19300   0.870   1.494   6.247 -0.4374  0.6094 -0.0875
 2613SOL    HW119301   0.944   1.441   6.274  1.1784  1.4464 -2.8188
 2613SOL    HW219302   0.805   1.482   6.316  0.5924  1.0142  0.9526
 2614SOL     OW19303   0.195   2.306   3.343  0.4093  0.8286 -0.7674
 2614SOL    HW119304   0.149   2.223   3.333  0.0822  0.8881  0.2089
 2614SOL    HW219305   0.186   2.352   3.260  1.1992 -0.0551 -1.3367
 2615SOL     OW19306   4.387   0.178   5.550  0.1161  0.0313  0.2835
 2615SOL    HW119307   4.312   0.196   5.493 -1.3809 -0.2052  2.1809
 2615SOL    HW219308   4.453   0.231   5.506  0.1884  1.0952  1.6641
 2616SOL     OW19309   0.538   4.236   5.748  0.1235 -1.1444 -0.0689
 2616SOL    HW119310   0.618   4.208   5.703 -1.5893 -0.7784 -3.3426
 2616SOL    HW219311   0.500   4.294   5.682  0.9798 -1.5109 -0.8858
 2617SOL     OW19312   2.691   0.358   5.345 -0.3017 -0.8465 -0.0922
 2617SOL    HW119313   2.651   0.273   5.365 -2.0868  0.1955  0.7775
 2617SOL    HW219314   2.651   0.376   5.260 -0.2476  1.0193  0.2653
 2618SOL     OW19315   2.834   3.316   5.993  0.2188  0.4345 -0.0227
 2618SOL    HW119316   2.873   3.395   5.955  1.6906 -1.5771 -2.7118
 2618SOL    HW219317   2.765   3.305   5.928 -0.9494  1.3191  1.0644
 2619SOL     OW19318   1.400   0.818   8.225 -0.1367 -0.2655 -0.0473
 2619SOL    HW119319   1.306   0.809   8.242 -0.1394 -1.6494 -0.8462
 2619SOL    HW219320   1.425   0.753   8.291  0.7512 -0.6254 -0.7521
 2620SOL     OW19321   1.824   3.727  12.790 -0.3285  0.2911 -0.2343
 2620SOL    HW119322   1.807   3.652  12.847 -1.6504  0.2237 -0.7287
 2620SOL    HW219323   1.919   3.738  12.787 -0.2978  0.2138  0.4293
 2621SOL     OW19324   2.686   3.908   5.275 -0.1018  0.1375 -0.4134
 2621SOL    HW119325   2.708   3.840   5.211 -4.1927  0.1005 -1.7386
 2621SOL    HW219326   2.670   3.859   5.356 -1.9476 -1.4595 -1.7396
 2622SOL     OW19327   3.509   0.106   5.674  0.4305  0.3008 -0.0435
 2622SOL    HW119328   3.508   0.104   5.770 -1.5339 -0.8490 -0.1004
 2622SOL    HW219329   3.443   0.166   5.639 -1.5701 -0.8663  1.7692
 2623SOL     OW19330   3.573   1.944   0.205 -0.1791 -0.0552  0.2825
 2623SOL    HW119331   3.517   1.885   0.255  3.3031 -1.2013  2.8171
 2623SOL    HW219332   3.578   1.897   0.121 -2.1179 -0.4067  0.3590
 2624SOL     OW19333   3.453   1.718   3.645 -0.3906 -0.5925  0.1765
 2624SOL    HW119334   3.371   1.685   3.682 -0.3526  0.4282  1.1667
 2624SOL    HW219335   3.470   1.672   3.563  0.9399  2.0621 -1.0103
 2625SOL     OW19336   1.577   0.839   8.015 -0.6009 -0.2711  0.2116
 2625SOL    HW119337   1.648   0.845   8.079  1.4839  3.7557 -2.4104
 2625SOL    HW219338   1.500   0.855   8.069 -1.2576 -1.1185 -0.4751
 2626SOL     OW19339   2.956   2.455   5.585 -0.3315  0.2377 -0.5003
 2626SOL    HW119340   2.965   2.534   5.637 -1.4972  0.4974 -0.6848
 2626SOL    HW219341   3.030   2.455   5.523  0.4921 -0.1729  0.4914
 2627SOL     OW19342   0.014   4.186   3.817  0.2042  0.3759  0.1237
 2627SOL    HW119343   0.104   4.216   3.806  0.6317 -0.2634  1.9056
 2627SOL    HW219344   4.707   4.172   3.728  3.7684 -1.4164 -0.8144
 2628SOL     OW19345   3.161   2.768   3.513  0.0661  0.1825 -0.2436
 2628SOL    HW119346   3.106   2.749   3.589 -0.3328 -2.3977 -1.1522
 2628SOL    HW219347   3.222   2.696   3.534 -0.3545 -1.1454 -3.5511
 2629SOL     OW19348   1.161   2.874  14.352  0.0472  0.0749 -0.0810
 2629SOL    HW119349   1.125   2.927  14.281  1.7281  0.9061 -0.3224
 2629SOL    HW219350   1.092   2.886  14.417  0.6287 -1.8680  0.9019
 2630SOL     OW19351   1.695   3.520   5.920  0.0646 -0.1279 -0.5547
 2630SOL    HW119352   1.737   3.604   5.933 -1.7871  1.2249 -3.3008
 2630SOL    HW219353   1.723   3.492   5.833  1.1396 -3.2175  0.7749
 2631SOL     OW19354   0.874   3.552   8.647  0.1616 -0.0534 -0.5785
 2631SOL    HW119355   0.832   3.631   8.613  0.2782 -0.7412 -2.2708
 2631SOL    HW219356   0.858   3.485   8.582  0.8901 -1.1652  0.3850
 2632SOL     OW19357   2.255   2.463   8.371 -0.9244  0.0959 -0.0254
 2632SOL    HW119358   2.173   2.511   8.364 -0.1646  1.4020 -0.0471
 2632SOL    HW219359   2.296   2.479   8.286  0.3081 -1.5942  0.2569
 2633SOL     OW19360   3.641   2.651   3.632 -0.3539 -0.3288 -0.3282
 2633SOL    HW119361   3.640   2.743   3.606 -0.8548  0.0427  0.9862
 2633SOL    HW219362   3.584   2.603   3.572 -0.5697  1.0044 -1.1850
 2634SOL     OW19363   0.887   3.617   4.940  0.5426  0.1408 -0.2652
 2634SOL    HW119364   0.858   3.569   4.862 -0.6661  1.8229 -0.8709
 2634SOL    HW219365   0.824   3.690   4.940 -0.3130 -0.6001 -0.6924
 2635SOL     OW19366   3.869   2.641   0.701 -0.1709  0.6498  0.0891
 2635SOL    HW119367   3.801   2.655   0.635 -0.9678 -1.3228  0.4805
 2635SOL    HW219368   3.905   2.557   0.671 -3.2455 -1.1538  1.4749
 2636SOL     OW19369   3.735   4.591   8.125  0.0468 -0.0233 -0.0649
 2636SOL    HW119370   3.762   4.516   8.073  2.2285  1.8563 -1.6310
 2636SOL    HW219371   3.792   4.656   8.083  1.6135 -1.2969  0.0908
 2637SOL     OW19372   2.622   3.900   1.940  0.0143 -0.9994  0.8809
 2637SOL    HW119373   2.683   3.910   1.867 -1.2440 -1.3799 -0.2272
 2637SOL    HW219374   2.607   3.994   1.951  1.4413 -0.6193 -0.4355
 2638SOL     OW19375   3.251   1.831  12.503 -0.4215 -0.9976 -0.1559
 2638SOL    HW119376   3.198   1.848  12.426  2.2055  0.7114 -1.5970
 2638SOL    HW219377   3.307   1.762  12.467 -0.1655 -2.5093  3.1794
 2639SOL     OW19378   2.999   2.717   1.261  0.1219  0.4458 -0.2893
 2639SOL    HW119379   3.060   2.666   1.315 -3.6159 -0.5488  2.9678
 2639SOL    HW219380   2.920   2.667   1.282  0.2998  0.6158  0.7609
 2640SOL     OW19381   3.661   4.501   5.232 -0.3300 -0.5010 -0.2295
 2640SOL    HW119382   3.589   4.481   5.291  0.7868 -2.0414  0.6303
 2640SOL    HW219383   3.620   4.518   5.148 -2.1605 -2.5594  0.2581
 2641SOL     OW19384   3.172   4.633   2.204 -0.2188 -0.5869  0.0260
 2641SOL    HW119385   3.175   4.540   2.183 -1.7640 -0.2533 -1.5768
 2641SOL    HW219386   3.078   4.647   2.193 -0.2335  0.6162  1.5381
 2642SOL     OW19387   3.232   1.657  16.275 -0.3444  0.2013 -0.0345
 2642SOL    HW119388   3.208   1.614  16.357 -0.1734  0.3089  0.0726
 2642SOL    HW219389   3.190   1.600  16.211  1.0083 -0.9771  0.1456
 2643SOL     OW19390   1.064   4.637   0.519 -0.1991  0.6825 -0.4053
 2643SOL    HW119391   1.085   4.648   0.426 -0.2297 -0.4172 -0.5396
 2643SOL    HW219392   1.107   4.711   0.563  0.1644  0.1947  0.0505
 2644SOL     OW19393   2.242   4.443   1.438  0.1447  0.1675  0.3753
 2644SOL    HW119394   2.241   4.347   1.441 -0.7886  0.2241  1.8043
 2644SOL    HW219395   2.183   4.463   1.365 -0.9584 -2.7252  0.4733
 2645SOL     OW19396   2.363   1.209   2.859  0.6314  0.6015 -0.0992
 2645SOL    HW119397   2.305   1.252   2.922 -2.7673 -1.8077 -1.5804
 2645SOL    HW219398   2.442   1.258   2.879  0.6287 -0.3417  2.2436
 2646SOL     OW19399   1.801   4.466   8.800 -0.6073 -0.0896 -0.0319
 2646SOL    HW119400   1.821   4.539   8.741  1.5717 -1.2980 -0.8244
 2646SOL    HW219401   1.752   4.415   8.735  1.2858 -1.0473 -0.7322
 2647SOL     OW19402   3.340   4.372   6.672 -0.5997 -0.0966 -0.8813
 2647SOL    HW119403   3.307   4.295   6.719 -0.8152 -0.2885 -1.3418
 2647SOL    HW219404   3.309   4.354   6.583 -1.7580 -1.5253 -0.1837
 2648SOL     OW19405   3.288   3.579  16.150  0.0325  0.9668 -0.4959
 2648SOL    HW119406   3.241   3.521  16.211  1.5939 -0.6340 -0.8056
 2648SOL    HW219407   3.294   3.656  16.205  1.7099 -0.3460  1.1495
 2649SOL     OW19408   0.896   2.038   8.917  0.4254 -0.5804 -0.0168
 2649SOL    HW119409   0.934   1.958   8.881  2.5165  1.5333 -2.4705
 2649SOL    HW219410   0.859   2.070   8.835  1.7520  2.1739  0.4727
 2650SOL     OW19411   4.359   1.508   0.675  0.0984 -0.1388 -0.3463
 2650SOL    HW119412   4.410   1.490   0.596 -0.6673 -0.7878 -0.6932
 2650SOL    HW219413   4.308   1.582   0.643 -0.8545  0.2814  2.0894
 2651SOL     OW19414   1.473   0.154   3.320 -0.7389  0.1834  0.4116
 2651SOL    HW119415   1.423   0.228   3.285 -1.2048 -1.4952 -2.4729
 2651SOL    HW219416   1.554   0.191   3.354 -0.9558  2.0439 -1.0790
 2652SOL     OW19417   2.243   4.543   8.386  0.0297 -0.3201  0.4715
 2652SOL    HW119418   2.172   4.554   8.323  0.0331  1.6672  0.8135
 2652SOL    HW219419   2.224   4.450   8.401  0.7062 -0.5427 -0.0520
 2653SOL     OW19420   1.504   2.294   1.881  0.3674 -0.5589  0.0815
 2653SOL    HW119421   1.534   2.266   1.795 -0.6948  1.3237 -0.9155
 2653SOL    HW219422   1.432   2.354   1.859  2.1258  2.4148  2.4126
 2654SOL     OW19423   3.412   1.072   3.140  0.4295  0.1559 -0.1130
 2654SOL    HW119424   3.451   1.148   3.097  1.2993  0.1763  0.6996
 2654SOL    HW219425   3.482   1.008   3.126 -1.0344 -0.6339 -3.9418
 2655SOL     OW19426   2.575   0.925   8.119  0.6463  0.2692 -0.0280
 2655SOL    HW119427   2.654   0.978   8.111  0.8764 -0.0532  0.0776
 2655SOL    HW219428   2.547   0.935   8.028 -1.5250  1.6060  0.7872
 2656SOL     OW19429   3.338   1.213   1.976 -0.1946 -0.8362  0.4077
 2656SOL    HW119430   3.356   1.296   1.932 -2.7030  0.4870  1.8712
 2656SOL    HW219431   3.366   1.234   2.065 -0.4187  3.8630 -0.5942
 2657SOL     OW19432   3.836   2.472  10.677 -0.0487  0.5255  0.6465
 2657SOL    HW119433   3.890   2.456  10.755  0.0105  0.1614  0.5351
 2657SOL    HW219434   3.745   2.473  10.704 -0.0242 -0.0097  0.7490
 2658SOL     OW19435   2.117   0.170  16.356  0.3848 -0.7565 -0.6488
 2658SOL    HW119436   2.129   0.100  16.420 -0.7494 -0.5764 -0.2503
 2658SOL    HW219437   2.045   0.223  16.388  1.3617  0.3728 -0.3051
 2659SOL     OW19438   2.834   0.771  11.490 -0.4360  0.6314 -0.2622
 2659SOL    HW119439   2.908   0.818  11.451 -1.5507  2.1085 -0.5901
 2659SOL    HW219440   2.751   0.815  11.474 -1.8468 -1.6343  0.7155
 2660SOL     OW19441   1.020   4.454   2.449  0.2969  0.2863  0.2069
 2660SOL    HW119442   0.950   4.412   2.498  0.7504  1.4371  1.8497
 2660SOL    HW219443   0.977   4.463   2.365  0.2628 -2.1849 -0.0475
 2661SOL     OW19444   3.741   4.289  13.502  0.0683 -0.6622  0.1335
 2661SOL    HW119445   3.702   4.309  13.417 -0.2396 -1.4113  0.1013
 2661SOL    HW219446   3.813   4.352  13.498  0.1087 -0.6917  0.3838
 2662SOL     OW19447   1.417   2.308  17.679 -0.2851  0.2286 -0.3557
 2662SOL    HW119448   1.473   2.386  17.677  0.7551 -0.5111  0.1386
 2662SOL    HW219449   1.388   2.321   0.071  0.5165  1.1213 -0.2186
 2663SOL     OW19450   2.768   1.768   9.295  0.3701 -0.0112 -0.2923
 2663SOL    HW119451   2.714   1.708   9.347 -0.7891 -1.2359 -2.8916
 2663SOL    HW219452   2.698   1.815   9.250 -0.5382  0.2489  1.3686
 2664SOL     OW19453   4.147   0.332   8.083 -0.2116 -0.2227 -0.1987
 2664SOL    HW119454   4.198   0.255   8.059  0.1037 -0.7911  2.2535
 2664SOL    HW219455   4.171   0.335   8.176  0.6515 -0.5133 -0.4221
 2665SOL     OW19456   3.547   3.720  15.851  0.2977 -0.3166 -0.1129
 2665SOL    HW119457   3.462   3.678  15.842 -0.8232  1.9234 -0.0072
 2665SOL    HW219458   3.516   3.795  15.903 -0.1992 -0.4420 -0.2340
 2666SOL     OW19459   2.334   3.070  14.803 -0.5109  0.3334 -0.0471
 2666SOL    HW119460   2.354   3.098  14.714 -0.0835 -3.5432 -1.1730
 2666SOL    HW219461   2.260   3.126  14.826 -2.5442 -1.9392 -1.0704
 2667SOL     OW19462   4.228   3.856  12.162  0.3194 -0.3793 -0.9351
 2667SOL    HW119463   4.258   3.768  12.140 -0.7018 -1.0383  0.3182
 2667SOL    HW219464   4.240   3.901  12.078 -0.7584 -0.5486 -1.1747
 2668SOL     OW19465   3.157   1.131   4.503 -0.6487 -0.3026 -0.1719
 2668SOL    HW119466   3.194   1.176   4.579 -1.0426 -0.1601 -0.0673
 2668SOL    HW219467   3.124   1.049   4.539  2.7144 -1.2118  0.8172
 2669SOL     OW19468   1.220   0.537   5.663 -0.5944  0.0378 -0.4418
 2669SOL    HW119469   1.140   0.485   5.667 -0.8818  0.3654 -1.9923
 2669SOL    HW219470   1.273   0.479   5.718 -0.0895  0.2671 -0.6807
 2670SOL     OW19471   2.438   3.887   7.306  0.3791  0.6091  0.2183
 2670SOL    HW119472   2.426   3.830   7.230  0.5969 -1.4341  1.7106
 2670SOL    HW219473   2.346   3.907   7.321 -0.3011 -1.2873 -1.4494
 2671SOL     OW19474   1.535   2.584  12.865 -0.1632 -0.6760  0.2266
 2671SOL    HW119475   1.626   2.595  12.839  0.4875 -0.4270  2.6256
 2671SOL    HW219476   1.499   2.573  12.777 -0.1178  0.9664  0.0056
 2672SOL     OW19477   3.847   1.252   8.647  0.1308  0.2922 -0.1494
 2672SOL    HW119478   3.845   1.227   8.555  4.2376 -1.1981  0.1621
 2672SOL    HW219479   3.802   1.336   8.653  2.8184  1.7092  0.5875
 2673SOL     OW19480   3.425   1.953   6.696  0.2295 -0.5259 -0.1857
 2673SOL    HW119481   3.350   2.011   6.705 -1.5993 -2.9778  0.2537
 2673SOL    HW219482   3.373   1.874   6.688  1.8359 -1.4629 -1.2563
 2674SOL     OW19483   2.959   0.202   1.662  0.5086  0.1710 -0.5209
 2674SOL    HW119484   2.971   0.125   1.718 -1.8520  0.6470  0.6239
 2674SOL    HW219485   2.969   0.266   1.733 -0.7687  0.1795 -0.3540
 2675SOL     OW19486   2.061   3.100   2.962 -0.3494 -0.1683  0.1406
 2675SOL    HW119487   1.989   3.137   2.911  0.1937 -1.7188 -1.7970
 2675SOL    HW219488   2.014   3.024   2.996 -1.0699  0.7762  1.2238
 2676SOL     OW19489   3.374   2.094  12.466  0.4053 -0.4073 -0.8123
 2676SOL    HW119490   3.469   2.095  12.475  0.5423 -0.6920 -2.1247
 2676SOL    HW219491   3.349   2.006  12.493  0.7635 -0.3258 -0.2288
 2677SOL     OW19492   2.509   2.054   0.278 -0.4385 -1.1020  0.2150
 2677SOL    HW119493   2.496   2.007   0.361  3.4229 -0.0062  1.4206
 2677SOL    HW219494   2.421   2.058   0.239  0.4161  2.6764 -1.2754
 2678SOL     OW19495   3.005   4.080   2.283 -0.2944 -0.1629 -0.4017
 2678SOL    HW119496   3.024   4.066   2.191 -2.2134 -2.2626 -0.5044
 2678SOL    HW219497   2.979   4.172   2.285 -0.7428 -0.2043 -4.0953
 2679SOL     OW19498   3.940   0.071  13.587 -0.0872 -0.6386  0.1272
 2679SOL    HW119499   3.986   0.134  13.644 -2.9825  1.6535 -0.0677
 2679SOL    HW219500   3.873   0.127  13.548  0.6018  0.0143 -0.1315
 2680SOL     OW19501   1.622   1.919  14.941 -0.1974  0.0489 -0.0810
 2680SOL    HW119502   1.698   1.883  14.896  0.8518  1.1153  0.8308
 2680SOL    HW219503   1.643   1.891  15.030  0.2514  1.0910  0.1394
 2681SOL     OW19504   0.390   1.334   4.731 -0.0395  0.7177  0.0789
 2681SOL    HW119505   0.462   1.395   4.710 -0.3548  0.7080 -1.0237
 2681SOL    HW219506   0.395   1.278   4.654 -0.7807 -1.2885  1.5063
 2682SOL     OW19507   0.669   1.416   8.463 -0.4341 -0.1578  0.2093
 2682SOL    HW119508   0.674   1.488   8.401 -1.6579  1.0173  1.4611
 2682SOL    HW219509   0.760   1.423   8.491 -0.2908  0.1016 -0.3348
 2683SOL     OW19510   2.963   1.600   8.385  0.9003  0.1137  0.6115
 2683SOL    HW119511   2.891   1.543   8.357  2.0832 -0.2353 -1.6864
 2683SOL    HW219512   2.948   1.587   8.479 -0.3901  0.6528  0.4780
 2684SOL     OW19513   3.139   4.590   4.770  0.2634  0.0629 -0.1713
 2684SOL    HW119514   3.137   4.508   4.820  1.8461  1.6624  2.4782
 2684SOL    HW219515   3.052   4.603   4.731 -0.2612  1.5190  1.5162
 2685SOL     OW19516   1.756   3.064   3.911  0.4857 -0.0844  0.1732
 2685SOL    HW119517   1.736   3.131   3.977  3.0775 -0.9860  1.8668
 2685SOL    HW219518   1.839   3.022   3.932  0.5662 -1.3052 -2.5758
 2686SOL     OW19519   2.800   2.302  10.218 -0.5070 -0.2512  0.0047
 2686SOL    HW119520   2.864   2.285  10.286  0.2693 -2.2188 -1.2478
 2686SOL    HW219521   2.856   2.332  10.146 -0.0274 -2.5039 -0.5340
 2687SOL     OW19522   4.058   1.306   4.307 -0.4124  0.2552 -0.2225
 2687SOL    HW119523   4.128   1.252   4.271 -0.9459 -0.7342  0.2474
 2687SOL    HW219524   4.102   1.391   4.313 -0.7439  0.4701 -0.7973
 2688SOL     OW19525   2.719   0.288   2.892  0.0524 -0.2930  0.3531
 2688SOL    HW119526   2.807   0.264   2.860  0.3813  0.7930  0.4319
 2688SOL    HW219527   2.723   0.381   2.915  0.0439 -0.1990 -0.0233
 2689SOL     OW19528   3.666   2.865   3.926 -0.0337  0.8779 -0.1968
 2689SOL    HW119529   3.757   2.833   3.925 -1.0901 -2.1332  1.5682
 2689SOL    HW219530   3.650   2.890   3.835  1.0040  1.5280 -0.2002
 2690SOL     OW19531   1.048   0.546  17.229 -0.2920  0.1931 -0.1118
 2690SOL    HW119532   1.127   0.491  17.228 -1.6201 -1.7480  0.8371
 2690SOL    HW219533   1.076   0.610  17.163 -1.0543  0.2734 -0.3570
 2691SOL     OW19534   3.900   1.013   5.888 -0.2108  0.2948  0.5243
 2691SOL    HW119535   3.820   0.969   5.859  1.2528 -2.8660  1.2618
 2691SOL    HW219536   3.868   1.078   5.951  2.3158 -0.7281  2.8464
 2692SOL     OW19537   1.230   4.425   2.102 -0.0602  0.0620  0.2572
 2692SOL    HW119538   1.152   4.480   2.088  2.0893  2.8934 -0.5985
 2692SOL    HW219539   1.291   4.498   2.117 -0.7984  0.3174  2.0812
 2693SOL     OW19540   3.154   2.543   5.352 -0.2445  0.2059  0.5340
 2693SOL    HW119541   3.192   2.511   5.270 -0.7502 -0.8553  0.7041
 2693SOL    HW219542   3.103   2.618   5.322  0.3589 -1.1506 -3.8790
 2694SOL     OW19543   1.597   0.060   2.713 -0.0452  0.4373 -1.1280
 2694SOL    HW119544   1.506   0.034   2.725  0.3825  0.5254  2.2993
 2694SOL    HW219545   1.624   0.090   2.800 -2.6621  0.3237 -0.2787
 2695SOL     OW19546   3.115   2.309  15.421 -0.2183 -0.2367  0.5163
 2695SOL    HW119547   3.156   2.231  15.458  0.5597 -0.3363 -0.5592
 2695SOL    HW219548   3.104   2.296  15.327  0.9005  0.2570  0.3171
 2696SOL     OW19549   1.232   3.008   4.310  0.5125  0.4163  0.1017
 2696SOL    HW119550   1.140   3.031   4.311  0.5356  0.5004  0.2849
 2696SOL    HW219551   1.262   3.090   4.270  2.3963 -0.9367 -1.3044
 2697SOL     OW19552   3.887   0.498  12.432 -0.0460 -0.2468 -0.5513
 2697SOL    HW119553   3.983   0.495  12.442  0.1624  0.5477 -2.1948
 2697SOL    HW219554   3.880   0.543  12.348  0.3467  1.4168  0.3069
 2698SOL     OW19555   2.267   2.632  16.027 -0.8615 -0.3970 -0.5765
 2698SOL    HW119556   2.348   2.670  16.062 -1.5874 -0.8093  1.5801
 2698SOL    HW219557   2.208   2.707  16.019  1.1142  1.5570  2.9509
 2699SOL     OW19558   3.649   0.197   8.101 -0.2045  0.2668  0.1756
 2699SOL    HW119559   3.687   0.156   8.023  1.1937 -1.7499  1.9394
 2699SOL    HW219560   3.698   0.279   8.108 -1.6517  1.2511 -1.0958
 2700SOL     OW19561   1.594   0.389   5.518  0.0610 -0.2942 -0.0927
 2700SOL    HW119562   1.508   0.360   5.487 -1.0773  2.2094  0.7211
 2700SOL    HW219563   1.628   0.443   5.447  0.6422 -0.6345 -0.0737
 2701SOL     OW19564   4.707   0.156  17.033 -0.3632  0.9027 -0.4001
 2701SOL    HW119565   0.078   0.150  17.027 -0.4361  0.4122 -0.9433
 2701SOL    HW219566   4.702   0.232  17.091  0.2438  0.6412 -0.0052
 2702SOL     OW19567   4.073   3.096   1.966 -0.3833  0.3708  0.0506
 2702SOL    HW119568   4.077   3.025   2.030 -2.5450  0.6399  0.4970
 2702SOL    HW219569   4.136   3.068   1.900  1.4561  1.5167  1.3363
 2703SOL     OW19570   4.190   0.562   7.337 -0.2486 -0.3437 -0.5520
 2703SOL    HW119571   4.128   0.519   7.396  0.4314  0.1169  0.4891
 2703SOL    HW219572   4.175   0.519   7.252  1.0760  0.0063 -0.9730
 2704SOL     OW19573   0.406   0.242   2.413  0.1252  0.1350 -0.1299
 2704SOL    HW119574   0.414   0.244   2.318  0.5915 -0.6681 -0.1156
 2704SOL    HW219575   0.500   0.243   2.431 -0.0945  1.3767  0.8964
 2705SOL     OW19576   1.957   4.179   9.978 -0.4580 -0.1262 -0.3087
 2705SOL    HW119577   2.011   4.124  10.034 -2.4430 -0.2868  1.4457
 2705SOL    HW219578   2.020   4.196   9.908  1.1596 -1.6670  0.7712
 2706SOL     OW19579   2.407   1.434   6.504 -0.5604  0.0459  0.3620
 2706SOL    HW119580   2.471   1.379   6.549 -0.6998 -1.3524 -1.1312
 2706SOL    HW219581   2.327   1.396   6.540 -0.1988  0.9617  2.1494
 2707SOL     OW19582   3.787   3.302   0.250  0.4743  0.2452  0.1028
 2707SOL    HW119583   3.770   3.223   0.199 -1.4728  0.7015  0.0341
 2707SOL    HW219584   3.766   3.282   0.342  1.9172 -0.7879  0.2136
 2708SOL     OW19585   1.465   3.048  10.548  0.3415  0.4514  0.5312
 2708SOL    HW119586   1.550   3.042  10.592 -0.5276  2.1326  2.4562
 2708SOL    HW219587   1.450   2.955  10.536 -1.5441  0.6124  1.6983
 2709SOL     OW19588   1.145   1.645   4.545  0.1110 -0.1411 -0.3387
 2709SOL    HW119589   1.239   1.655   4.564  0.1889  0.3001 -0.9432
 2709SOL    HW219590   1.147   1.633   4.450  1.3306  1.6817 -0.5431
 2710SOL     OW19591   1.863   4.114  17.403  0.2309  0.9019  0.2668
 2710SOL    HW119592   1.950   4.114  17.364  0.0477  0.0496 -0.1478
 2710SOL    HW219593   1.887   4.145  17.490  0.5409  0.3186  0.3887
 2711SOL     OW19594   3.543   1.325   0.105  0.3519  0.5091 -0.1835
 2711SOL    HW119595   3.583   1.408   0.080  0.5672 -0.0065 -1.5480
 2711SOL    HW219596   3.595   1.298   0.181 -0.1393  0.7073  0.2233
 2712SOL     OW19597   3.236   2.182   0.903 -0.0690 -0.4066 -0.0521
 2712SOL    HW119598   3.298   2.213   0.970  0.0811 -3.7858  1.3407
 2712SOL    HW219599   3.160   2.236   0.922  1.2076  1.5729 -0.4872
 2713SOL     OW19600   2.164   0.776   3.176  0.6195  0.1920  0.1545
 2713SOL    HW119601   2.075   0.791   3.145  0.2978 -3.2083 -0.5725
 2713SOL    HW219602   2.144   0.765   3.269 -0.0881 -0.4513 -0.0685
 2714SOL     OW19603   3.728   4.566  15.440  0.3211  0.0634  0.0979
 2714SOL    HW119604   3.783   4.635  15.478 -2.5297  2.7721 -0.7620
 2714SOL    HW219605   3.706   4.605  15.356 -1.5041 -0.1067  0.5122
 2715SOL     OW19606   2.229   1.672   3.225  0.1883 -0.3418  0.2343
 2715SOL    HW119607   2.233   1.757   3.268 -1.3598 -0.1514 -0.0029
 2715SOL    HW219608   2.135   1.652   3.221  0.1123  0.0712 -0.1196
 2716SOL     OW19609   3.379   1.784   1.605  0.4729 -0.2983  0.3421
 2716SOL    HW119610   3.356   1.786   1.698  0.8818 -1.1895  0.4659
 2716SOL    HW219611   3.364   1.694   1.576 -1.0057  0.0274  0.1200
 2717SOL     OW19612   3.873   1.507  14.448 -0.4199  0.4527  0.1835
 2717SOL    HW119613   3.854   1.437  14.386 -1.9166  1.1122 -0.1100
 2717SOL    HW219614   3.786   1.543  14.468  0.4427  1.1386  2.6834
 2718SOL     OW19615   2.146   2.590  10.685  0.6410 -0.4952  0.4936
 2718SOL    HW119616   2.135   2.519  10.622  0.7204  0.5017 -0.6635
 2718SOL    HW219617   2.058   2.589  10.724 -0.8000  0.5656 -2.7143
 2719SOL     OW19618   0.510   2.983   7.162  0.7927 -0.2754 -0.3241
 2719SOL    HW119619   0.587   2.929   7.142  0.7721  0.1557 -1.5672
 2719SOL    HW219620   0.548   3.071   7.159 -2.0782  0.9715  0.7951
 2720SOL     OW19621   3.074   0.119   0.742 -0.2552 -0.8215 -0.4429
 2720SOL    HW119622   3.078   0.153   0.832  0.0686  1.7000 -1.4160
 2720SOL    HW219623   3.129   0.040   0.743  1.6608  0.5066 -0.3525
 2721SOL     OW19624   4.070   1.654   5.520 -0.3836 -0.8400 -0.4484
 2721SOL    HW119625   4.059   1.749   5.532  0.6052 -0.7977  0.1766
 2721SOL    HW219626   4.109   1.658   5.433 -0.4801 -0.8951 -0.4932
 2722SOL     OW19627   4.592   0.248   2.781 -0.1447  0.2928  0.1718
 2722SOL    HW119628   4.564   0.339   2.785  1.3035  0.7415 -0.2621
 2722SOL    HW219629   4.517   0.206   2.823 -1.0799 -0.4681 -2.2598
 2723SOL     OW19630   2.342   0.212   3.842  0.2594  0.1027  0.1322
 2723SOL    HW119631   2.379   0.206   3.930  1.1666 -2.5731 -0.4326
 2723SOL    HW219632   2.397   0.283   3.807 -0.1509  0.5130  0.3219
 2724SOL     OW19633   3.666   4.106   7.611  0.3712 -0.0467  0.2124
 2724SOL    HW119634   3.619   4.024   7.596 -1.5211  1.0947 -0.0644
 2724SOL    HW219635   3.748   4.091   7.565  0.4435 -1.5535  0.8270
 2725SOL     OW19636   1.777   1.606   8.844 -0.3467 -0.0765 -0.2618
 2725SOL    HW119637   1.721   1.671   8.887 -3.7910 -2.2142 -1.5283
 2725SOL    HW219638   1.754   1.633   8.755  0.5475  1.2891 -0.0824
 2726SOL     OW19639   1.549   1.079   5.676 -0.3854  0.4237 -0.2822
 2726SOL    HW119640   1.493   1.147   5.638  0.5644  1.4835  0.2247
 2726SOL    HW219641   1.540   1.003   5.619 -2.0318  1.7246 -1.7716
 2727SOL     OW19642   3.478   1.854  16.416  0.3929 -0.2571 -0.0319
 2727SOL    HW119643   3.533   1.801  16.358  0.5696 -1.1243  0.9262
 2727SOL    HW219644   3.414   1.891  16.355  0.5790  1.1592  0.6429
 2728SOL     OW19645   4.718   1.547   4.135 -0.4187 -0.1250 -0.4448
 2728SOL    HW119646   4.711   1.604   4.211 -0.1252  1.3893 -1.5538
 2728SOL    HW219647   0.075   1.498   4.145 -0.7337 -1.1329 -2.8434
 2729SOL     OW19648   1.596   2.370   7.033  0.4641  0.0522  0.0580
 2729SOL    HW119649   1.508   2.363   7.070  0.7139  0.2767  0.6939
 2729SOL    HW219650   1.583   2.438   6.967  1.8125  0.5380  0.2878
 2730SOL     OW19651   4.087   0.902   1.163  0.2245 -0.4555  0.2572
 2730SOL    HW119652   4.107   0.984   1.209 -0.2113 -0.1886 -0.0291
 2730SOL    HW219653   4.023   0.936   1.101  0.4415 -0.0126  0.2777
 2731SOL     OW19654   0.476   3.958   6.292  0.0860 -1.0033 -0.1190
 2731SOL    HW119655   0.482   4.030   6.229  2.8770 -1.3384 -0.2362
 2731SOL    HW219656   0.421   3.898   6.241  0.5517  0.1684 -1.9868
 2732SOL     OW19657   4.356   2.508   2.736  0.0044  0.2944  0.1418
 2732SOL    HW119658   4.418   2.516   2.808  0.4480 -2.4841  0.0705
 2732SOL    HW219659   4.420   2.497   2.666 -0.3035  1.0733 -0.2638
 2733SOL     OW19660   4.659   2.279   2.967 -0.3138  0.1130  0.1819
 2733SOL    HW119661   4.621   2.367   2.969  0.4118  0.4129  0.6486
 2733SOL    HW219662   4.589   2.233   3.014  1.9097 -2.8098  0.6997
 2734SOL     OW19663   2.993   3.772   0.885 -0.1302 -0.4586 -0.3376
 2734SOL    HW119664   3.012   3.865   0.895 -0.9265 -0.0486 -2.8118
 2734SOL    HW219665   2.944   3.765   0.967 -0.5416  2.2937 -0.3560
 2735SOL     OW19666   0.854   4.191   0.736 -0.4182  0.5198  0.8483
 2735SOL    HW119667   0.835   4.235   0.653  1.6129 -0.1177  0.0616
 2735SOL    HW219668   0.934   4.151   0.703 -0.4896  1.1965 -0.1457
 2736SOL     OW19669   2.907   1.742   9.716 -0.0011  0.0464 -0.6627
 2736SOL    HW119670   2.875   1.686   9.645 -0.2974 -0.5201 -0.0929
 2736SOL    HW219671   2.892   1.826   9.673  0.2666  0.2903 -0.2763
 2737SOL     OW19672   2.499   4.304   6.495  0.6129  0.3880  0.2513
 2737SOL    HW119673   2.445   4.323   6.419 -2.2106 -2.7036  1.4868
 2737SOL    HW219674   2.471   4.363   6.564  0.2512 -0.4644  0.8283
 2738SOL     OW19675   1.552   4.407   1.949 -0.1612 -0.3495  0.3419
 2738SOL    HW119676   1.503   4.485   1.978  0.8208  0.0908  0.7966
 2738SOL    HW219677   1.478   4.347   1.962  1.4265 -1.9719  1.8841
 2739SOL     OW19678   1.172   2.950   6.430 -0.4613 -0.7645  0.4147
 2739SOL    HW119679   1.214   2.942   6.345 -1.8915  0.6586 -0.4256
 2739SOL    HW219680   1.082   2.936   6.400 -0.2928 -0.6934 -0.1261
 2740SOL     OW19681   1.340   0.964   3.912 -0.1641 -0.2778 -0.2290
 2740SOL    HW119682   1.337   0.904   3.986  1.6415 -0.3577 -0.2256
 2740SOL    HW219683   1.354   0.909   3.835 -0.1518  1.1051 -1.2274
 2741SOL     OW19684   0.755   2.777   0.650 -0.7339  0.8059  0.0305
 2741SOL    HW119685   0.791   2.710   0.708 -1.9089 -0.4856 -0.7318
 2741SOL    HW219686   0.825   2.839   0.672 -0.8358  0.5091  1.2084
 2742SOL     OW19687   0.049   3.140  15.617  0.3379 -0.4567 -0.3395
 2742SOL    HW119688   0.139   3.120  15.591  0.1568  0.0700 -1.3846
 2742SOL    HW219689   0.075   3.206  15.681 -0.3906 -2.2063  1.7585
 2743SOL     OW19690   2.543   3.174   5.196  0.0687 -0.2199  0.7476
 2743SOL    HW119691   2.632   3.161   5.162 -0.6329 -0.2804 -1.0896
 2743SOL    HW219692   2.571   3.191   5.286  1.2589  0.9290  0.1581
 2744SOL     OW19693   2.579   0.582   6.955 -0.1578  0.1585  0.8869
 2744SOL    HW119694   2.591   0.490   6.977 -1.8421 -0.3174 -0.1615
 2744SOL    HW219695   2.634   0.636   7.012  1.9510 -1.4789  0.3807
 2745SOL     OW19696   2.637   3.884   4.092 -0.0658 -0.2874  0.1916
 2745SOL    HW119697   2.679   3.951   4.039 -0.6203  1.6781  2.2342
 2745SOL    HW219698   2.586   3.949   4.140  0.6136  1.9101 -2.0839
 2746SOL     OW19699   3.817   1.295   6.418  0.4004 -0.0486 -0.4298
 2746SOL    HW119700   3.894   1.342   6.383  0.1812 -1.0906 -2.3338
 2746SOL    HW219701   3.843   1.203   6.412  3.1193  0.5102  2.9915
 2747SOL     OW19702   3.142   1.468  16.447  0.2325  0.1838  0.2705
 2747SOL    HW119703   3.144   1.467  16.543  1.6676 -1.9253  0.2353
 2747SOL    HW219704   3.051   1.490  16.428 -0.3867 -1.4707  1.3658
 2748SOL     OW19705   1.697   0.236   2.535 -0.3744  0.0039  0.5620
 2748SOL    HW119706   1.768   0.282   2.580 -0.6942  0.1200  0.9488
 2748SOL    HW219707   1.669   0.169   2.597 -0.6424 -0.1861  0.2360
 2749SOL     OW19708   3.409   1.836   3.311 -0.2209  0.8644 -0.4296
 2749SOL    HW119709   3.338   1.875   3.362 -0.5519 -0.3366  0.0338
 2749SOL    HW219710   3.366   1.752   3.291  0.1967  0.5087  0.1518
 2750SOL     OW19711   3.646   2.790   0.499  0.1155 -0.0828 -0.2742
 2750SOL    HW119712   3.601   2.730   0.440  1.1283 -0.8823 -0.2285
 2750SOL    HW219713   3.606   2.766   0.583 -0.1009 -0.4007 -0.4688
 2751SOL     OW19714   3.215   3.452   8.877 -0.3512  0.0643  0.3318
 2751SOL    HW119715   3.244   3.385   8.938 -2.1114 -0.7400  0.2594
 2751SOL    HW219716   3.234   3.533   8.924  0.6675 -0.9966  1.7466
 2752SOL     OW19717   1.774   1.844   1.082  0.3939  0.0442 -0.3453
 2752SOL    HW119718   1.856   1.830   1.035  1.6897  1.2492  1.5963
 2752SOL    HW219719   1.755   1.936   1.063 -0.5960 -0.0069  0.3769
 2753SOL     OW19720   2.003   1.900   2.671 -0.2999 -1.0380 -0.1017
 2753SOL    HW119721   1.940   1.860   2.610  1.0284 -1.7948 -0.9886
 2753SOL    HW219722   1.961   1.982   2.695  0.0083 -0.8966 -0.0513
 2754SOL     OW19723   1.336   0.297   5.454  0.0091  0.4552  0.2459
 2754SOL    HW119724   1.279   0.373   5.464  0.6544  1.0300 -0.3894
 2754SOL    HW219725   1.294   0.218   5.487  0.3508  0.6234  1.0882
 2755SOL     OW19726   4.557   2.006   6.820 -0.0396 -0.4132 -0.3466
 2755SOL    HW119727   4.523   1.929   6.774  0.8535 -1.7275  1.1777
 2755SOL    HW219728   4.576   2.071   6.753 -1.4146  2.3900  1.9850
 2756SOL     OW19729   3.824   0.950   7.559  0.4961 -0.2437 -0.3295
 2756SOL    HW119730   3.794   0.900   7.635  1.2322 -0.2820 -0.0647
 2756SOL    HW219731   3.754   0.923   7.499 -0.0131  0.9517 -0.2717
 2757SOL     OW19732   0.748   3.565   2.440  0.0231  0.1768  0.0554
 2757SOL    HW119733   0.765   3.656   2.464 -2.2696  0.4134  0.7463
 2757SOL    HW219734   0.760   3.515   2.521  0.9104 -1.3281 -1.0185
 2758SOL     OW19735   2.139   0.261   1.519  0.2257 -0.6073  0.3591
 2758SOL    HW119736   2.065   0.225   1.470 -1.7802  2.7716  0.8635
 2758SOL    HW219737   2.075   0.292   1.584  0.3512  0.5554 -0.0621
 2759SOL     OW19738   3.057   3.370  11.486 -0.0749  0.1244  0.4915
 2759SOL    HW119739   3.080   3.286  11.444 -1.6431  0.2480 -0.6004
 2759SOL    HW219740   2.966   3.349  11.507 -0.0958 -1.1402 -0.8344
 2760SOL     OW19741   3.892   3.699  12.284 -0.5962  0.3975  0.1153
 2760SOL    HW119742   3.945   3.698  12.364 -1.2128  1.0259  0.5354
 2760SOL    HW219743   3.875   3.792  12.270 -2.2355 -0.4159 -3.3625
 2761SOL     OW19744   3.647   3.251   0.501 -0.4891 -0.2373  0.6020
 2761SOL    HW119745   3.677   3.174   0.549 -0.1744  0.1428  1.0247
 2761SOL    HW219746   3.598   3.292   0.573 -0.2541  0.2938  0.4607
 2762SOL     OW19747   2.518   0.163  11.575 -0.0309 -0.0286  0.3584
 2762SOL    HW119748   2.438   0.112  11.558  1.1609 -1.3635 -1.2670
 2762SOL    HW219749   2.520   0.214  11.494  1.3601  1.0281  1.0765
 2763SOL     OW19750   2.039   0.875   2.722 -0.2093  0.4054  0.5992
 2763SOL    HW119751   1.992   0.938   2.667  0.9697  0.0504 -0.8033
 2763SOL    HW219752   1.979   0.868   2.797  0.9168  1.5043  1.6015
 2764SOL     OW19753   0.683   3.001   8.304  0.1387  0.1454  0.8219
 2764SOL    HW119754   0.625   2.940   8.351 -0.8362  0.9740  0.6741
 2764SOL    HW219755   0.689   3.070   8.370 -2.7231  0.3209  0.8852
 2765SOL     OW19756   4.399   3.341   8.020 -0.5369  0.5252  0.1465
 2765SOL    HW119757   4.335   3.412   8.024  0.5302  1.3310  3.2075
 2765SOL    HW219758   4.368   3.285   8.092 -1.7446 -0.1506 -0.9016
 2766SOL     OW19759   2.802   3.954   6.667  0.5802 -0.1759  0.6136
 2766SOL    HW119760   2.746   3.999   6.604 -0.6807  0.2329  2.0400
 2766SOL    HW219761   2.767   3.985   6.750  4.9295 -0.9359  2.7670
 2767SOL     OW19762   3.600   4.047   6.410 -0.1164 -0.3968 -0.4238
 2767SOL    HW119763   3.518   4.020   6.452  1.3513 -0.3900  2.4195
 2767SOL    HW219764   3.655   4.025   6.485 -2.5417 -2.1012  0.8661
 2768SOL     OW19765   1.532   2.555   9.420  0.4713 -0.4196 -0.8325
 2768SOL    HW119766   1.474   2.479   9.425  1.4181 -0.9161  2.0788
 2768SOL    HW219767   1.605   2.524   9.366  1.4104  0.5421 -0.0965
 2769SOL     OW19768   1.397   3.241   4.351  0.1062  0.0499 -0.3763
 2769SOL    HW119769   1.458   3.197   4.410 -1.0622 -0.2056  0.6205
 2769SOL    HW219770   1.331   3.266   4.415  1.0967 -2.1028  1.4852
 2770SOL     OW19771   3.961   3.573  14.280 -0.0436 -0.3917 -0.4174
 2770SOL    HW119772   4.038   3.528  14.316 -0.0217  1.8475  2.2922
 2770SOL    HW219773   3.902   3.498  14.285 -0.3046 -0.2749 -1.8109
 2771SOL     OW19774   3.038   4.684   7.898  0.0667  0.2155 -0.2426
 2771SOL    HW119775   2.971   4.617   7.904  1.2353 -0.9401 -0.1247
 2771SOL    HW219776   3.101   4.666   7.968  0.0488  2.6248  0.4019
 2772SOL     OW19777   1.354   2.886   5.785  0.3852 -0.4118  0.5597
 2772SOL    HW119778   1.260   2.866   5.781  0.4298 -0.6724  0.8131
 2772SOL    HW219779   1.347   2.974   5.820  0.0856  0.1781 -1.0070
 2773SOL     OW19780   0.125   2.939   6.596  0.5565  0.0817  0.0564
 2773SOL    HW119781   0.165   2.870   6.543  2.1549  1.1334 -0.1112
 2773SOL    HW219782   0.034   2.909   6.598  0.2012  1.0103 -2.2001
 2774SOL     OW19783   3.193   1.224   1.190 -0.3709 -0.5557  0.6352
 2774SOL    HW119784   3.134   1.270   1.131 -1.5676 -1.4071  1.1674
 2774SOL    HW219785   3.276   1.271   1.181 -0.6042 -0.2863 -0.1602
 2775SOL     OW19786   3.615   1.976   7.743 -0.1265 -1.0501 -0.4455
 2775SOL    HW119787   3.520   1.965   7.749  0.0333 -0.8836  2.3243
 2775SOL    HW219788   3.635   1.919   7.669  2.2855  0.5960 -1.0306
 2776SOL     OW19789   0.848   0.326   4.830 -0.3526 -0.5330 -0.5583
 2776SOL    HW119790   0.808   0.391   4.887 -0.3998 -0.0212 -1.1727
 2776SOL    HW219791   0.917   0.286   4.883 -0.0181 -0.0693 -0.6363
 2777SOL     OW19792   3.969   0.185   3.285 -0.2417  0.1153  0.5239
 2777SOL    HW119793   4.003   0.267   3.320  1.8453 -1.1765  1.5611
 2777SOL    HW219794   4.003   0.182   3.195 -3.3797  1.2586 -0.7031
 2778SOL     OW19795   3.977   1.147   5.534  0.4904 -0.2573  0.0676
 2778SOL    HW119796   4.024   1.134   5.615  0.0652 -1.5528  0.0985
 2778SOL    HW219797   4.000   1.236   5.505 -0.8821  0.1417  0.1676
 2779SOL     OW19798   0.667   1.906   8.429  0.0026  0.1086  0.2185
 2779SOL    HW119799   0.592   1.872   8.478 -0.3012  0.7828  0.2274
 2779SOL    HW219800   0.650   1.861   8.347  1.5969  2.1075 -1.2157
 2780SOL     OW19801   1.240   4.491   3.139  0.0614 -0.6322  0.3449
 2780SOL    HW119802   1.254   4.581   3.109 -1.7091  0.0552  1.5519
 2780SOL    HW219803   1.320   4.474   3.189  0.3922 -0.2677 -0.0598
 2781SOL     OW19804   2.526   2.212   8.246  0.2762  0.2260  0.1573
 2781SOL    HW119805   2.550   2.229   8.337  0.9066  1.3184 -0.2210
 2781SOL    HW219806   2.605   2.172   8.211  0.5500  1.3060 -0.4370
 2782SOL     OW19807   2.166   4.008   1.660  0.6051  0.3919  0.5824
 2782SOL    HW119808   2.083   4.025   1.705  0.3789  0.4482  0.1470
 2782SOL    HW219809   2.146   3.928   1.610 -1.2948  0.4782  1.2052
 2783SOL     OW19810   3.833   3.207  13.881  0.2520 -0.5108 -0.4720
 2783SOL    HW119811   3.874   3.250  13.957  0.0488 -0.0230 -0.6371
 2783SOL    HW219812   3.827   3.122  13.925  0.8234  0.9622  2.5172
 2784SOL     OW19813   3.590   0.166   5.181 -0.3029 -0.2067 -0.2010
 2784SOL    HW119814   3.558   0.111   5.253 -0.8973 -0.4594 -0.6625
 2784SOL    HW219815   3.559   0.116   5.106 -0.5087 -1.0311  0.4314
 2785SOL     OW19816   4.579   0.513   5.603 -0.3906 -0.2958  0.2687
 2785SOL    HW119817   4.527   0.591   5.582 -0.4339 -0.4925 -0.3582
 2785SOL    HW219818   4.560   0.454   5.530 -1.0157  0.3628 -0.1105
 2786SOL     OW19819   3.405   4.602   0.842  0.5718  0.6345  0.0838
 2786SOL    HW119820   3.479   4.553   0.804  0.4729  0.5724 -0.0305
 2786SOL    HW219821   3.451   4.670   0.891  1.2850  0.1833  0.0470
 2787SOL     OW19822   1.562   2.193  11.399 -0.3143 -0.7132  0.1569
 2787SOL    HW119823   1.470   2.197  11.427 -0.9879  3.4228 -2.6175
 2787SOL    HW219824   1.587   2.285  11.394  2.6499 -1.4817  1.0702
 2788SOL     OW19825   4.362   3.294  11.586 -0.2486 -0.0603  0.4086
 2788SOL    HW119826   4.271   3.264  11.593 -0.2321  0.1060  1.3311
 2788SOL    HW219827   4.355   3.352  11.511  0.7505  0.0558  0.4080
 2789SOL     OW19828   4.307   3.967   6.217  0.3847 -0.0095 -0.1113
 2789SOL    HW119829   4.364   3.969   6.140  2.7188 -1.7710  1.5908
 2789SOL    HW219830   4.262   4.052   6.218 -1.8821 -1.2277  1.4199
 2790SOL     OW19831   0.620   2.026   9.799 -0.1507 -0.0945  0.5101
 2790SOL    HW119832   0.614   2.122   9.790  0.0615 -0.2821 -1.5938
 2790SOL    HW219833   0.713   2.019   9.822  0.1160 -1.5916 -1.1021
 2791SOL     OW19834   4.031   0.663   3.638  0.3181 -0.0281  0.3367
 2791SOL    HW119835   4.028   0.720   3.714  0.4331 -0.7055  0.8540
 2791SOL    HW219836   4.023   0.732   3.572 -2.4430 -0.6095  0.0906
 2792SOL     OW19837   4.272   1.157   3.733 -0.1353  0.1879 -0.1923
 2792SOL    HW119838   4.345   1.095   3.727 -0.7519 -0.5993  0.4844
 2792SOL    HW219839   4.279   1.209   3.653 -0.8307  0.8096  0.1586
 2793SOL     OW19840   2.281   0.853   9.259 -0.5113  0.3687  0.0063
 2793SOL    HW119841   2.205   0.835   9.314  2.1722 -1.1470  3.1582
 2793SOL    HW219842   2.349   0.818   9.316 -0.3110 -0.4322 -0.7159
 2794SOL     OW19843   3.297   1.309  11.499 -0.3967  0.2629 -0.1121
 2794SOL    HW119844   3.223   1.320  11.439 -0.9290  4.3824  1.3020
 2794SOL    HW219845   3.348   1.389  11.489  2.9218 -1.9393 -0.5209
 2795SOL     OW19846   0.457   0.614   2.263 -0.3082 -0.4041 -0.3105
 2795SOL    HW119847   0.536   0.665   2.244 -0.1802 -0.5440 -0.1453
 2795SOL    HW219848   0.458   0.570   2.178 -1.2360 -1.4347  0.2063
 2796SOL     OW19849   2.201   3.308  11.124 -0.3601 -0.3330 -0.0587
 2796SOL    HW119850   2.188   3.223  11.082 -0.6734 -1.4345  2.3043
 2796SOL    HW219851   2.281   3.289  11.173  0.2505  3.2984  0.3131
 2797SOL     OW19852   2.873   3.591   4.328  0.4230  0.7494  0.1645
 2797SOL    HW119853   2.884   3.672   4.278 -2.6947  1.0172 -0.1086
 2797SOL    HW219854   2.803   3.606   4.392 -0.7125 -3.8609  0.0130
 2798SOL     OW19855   0.041   3.546   1.222 -0.1082  0.2150  0.2629
 2798SOL    HW119856   4.709   3.592   1.159  0.4864  0.8920  0.2270
 2798SOL    HW219857   0.004   3.457   1.220 -0.0321  0.2270 -1.6491
 2799SOL     OW19858   4.225   3.806   7.808  0.1017  0.3013 -0.0666
 2799SOL    HW119859   4.148   3.757   7.836  1.1730 -2.0038 -1.0619
 2799SOL    HW219860   4.256   3.840   7.892  0.5525  0.3887 -0.2685
 2800SOL     OW19861   0.840   3.502   6.310  0.3908 -0.2023 -0.0465
 2800SOL    HW119862   0.914   3.549   6.349 -1.5025  1.3886  1.6464
 2800SOL    HW219863   0.773   3.570   6.305 -1.3011 -1.8618  0.5167
 2801SOL     OW19864   3.828   2.029  14.846 -0.2844  0.0608 -0.3076
 2801SOL    HW119865   3.875   2.073  14.775 -0.6023  0.5079 -0.2431
 2801SOL    HW219866   3.856   1.939  14.829 -0.0812  0.1362 -0.3807
 2802SOL     OW19867   4.525   0.554   7.812  0.3411  0.4015  0.1934
 2802SOL    HW119868   4.511   0.460   7.817 -0.7364  0.7538  3.4671
 2802SOL    HW219869   4.605   0.572   7.861  0.7489 -1.4485  0.2021
 2803SOL     OW19870   2.355   3.100   5.875 -0.4052 -0.4215  0.4914
 2803SOL    HW119871   2.343   3.012   5.841  0.4914 -0.3359 -0.0370
 2803SOL    HW219872   2.284   3.146   5.831  4.3670  3.1406 -3.5356
 2804SOL     OW19873   0.633   4.261  11.955 -0.8475 -0.4155  0.0515
 2804SOL    HW119874   0.643   4.172  11.922  0.9780 -0.1374 -0.1268
 2804SOL    HW219875   0.711   4.301  11.918 -0.2797 -1.4929  0.0777
 2805SOL     OW19876   2.771   0.741   1.809  0.0286  0.1865  0.3606
 2805SOL    HW119877   2.794   0.797   1.735 -1.3341  0.1827 -0.0678
 2805SOL    HW219878   2.711   0.673   1.779  1.2361 -0.6944 -0.0496
 2806SOL     OW19879   3.772   0.579   5.814 -0.0098  0.1916  0.1285
 2806SOL    HW119880   3.848   0.636   5.816 -0.2862  0.5280  1.1504
 2806SOL    HW219881   3.812   0.503   5.773 -0.7578 -0.4492  0.5825
 2807SOL     OW19882   3.011   3.015   0.221  0.2875 -0.5721 -0.5390
 2807SOL    HW119883   2.982   2.957   0.151 -0.1081 -2.3286  1.0901
 2807SOL    HW219884   3.064   3.070   0.163  2.4802 -1.7513  0.3638
 2808SOL     OW19885   4.027   0.589   9.426  0.1203 -0.5698  0.0384
 2808SOL    HW119886   4.072   0.521   9.476  1.7020 -0.4757 -1.2579
 2808SOL    HW219887   4.013   0.654   9.495  1.1970 -2.4341  1.9979
 2809SOL     OW19888   2.623   2.253  12.211  0.2549  0.0569  0.6099
 2809SOL    HW119889   2.577   2.206  12.281 -2.8010  1.9283 -0.1193
 2809SOL    HW219890   2.627   2.187  12.142  2.1779 -0.2316  1.0032
 2810SOL     OW19891   2.282   1.770  14.567  0.7471  0.1855 -0.0981
 2810SOL    HW119892   2.374   1.747  14.578  0.1850 -2.1905 -0.1893
 2810SOL    HW219893   2.237   1.693  14.530 -0.5789  0.2689  1.3399
 2811SOL     OW19894   3.299   2.026   5.285 -0.5758 -0.2439  0.9246
 2811SOL    HW119895   3.217   2.067   5.260  0.6119  0.3073 -2.1938
 2811SOL    HW219896   3.357   2.099   5.309 -1.2897  0.4690  0.4700
 2812SOL     OW19897   0.562   1.694  13.712  0.2702  0.1233  0.3031
 2812SOL    HW119898   0.536   1.758  13.778  0.6217 -0.9452  1.4690
 2812SOL    HW219899   0.497   1.724  13.648  1.0646  1.0558 -0.0651
 2813SOL     OW19900   2.625   1.304   6.574  0.3002  0.2942 -0.2112
 2813SOL    HW119901   2.710   1.341   6.552  1.0732 -0.9209  0.7159
 2813SOL    HW219902   2.653   1.271   6.659 -1.9755 -1.6155 -0.2033
 2814SOL     OW19903   3.751   2.410   0.175  0.1214  0.6384  0.0431
 2814SOL    HW119904   3.655   2.413   0.181 -0.0593 -2.5885 -1.4164
 2814SOL    HW219905   3.770   2.351   0.248 -0.6994 -0.1112 -0.3438
 2815SOL     OW19906   2.140   1.821   0.737  0.3961 -0.2871 -0.1470
 2815SOL    HW119907   2.116   1.743   0.688  0.2116 -0.0264 -0.4708
 2815SOL    HW219908   2.196   1.792   0.808 -0.4898 -0.7037  0.3782
 2816SOL     OW19909   3.975   0.518   6.484 -0.1116 -0.1124 -0.6298
 2816SOL    HW119910   3.952   0.605   6.515  1.4740 -0.4765  1.5356
 2816SOL    HW219911   3.960   0.462   6.560  0.4630  1.6192  0.7402
 2817SOL     OW19912   2.931   4.217  15.871 -0.0387 -0.0314  0.3844
 2817SOL    HW119913   2.850   4.167  15.884 -0.4631  0.6249  0.2498
 2817SOL    HW219914   2.914   4.309  15.888  1.4434  0.6142 -1.6521
 2818SOL     OW19915   4.226   4.318   7.463  0.2162  0.1501  0.5938
 2818SOL    HW119916   4.221   4.377   7.388  0.8162  0.0607  0.4896
 2818SOL    HW219917   4.315   4.334   7.494 -0.5375  0.5588  2.5804
 2819SOL     OW19918   4.714   1.512   5.872  0.2816 -0.3067  0.2779
 2819SOL    HW119919   4.701   1.488   5.780  0.2964  0.0532  0.1818
 2819SOL    HW219920   4.712   1.424   5.910  0.6861 -1.1075 -1.5576
 2820SOL     OW19921   2.921   3.386   1.501 -0.1140  0.3467 -0.4324
 2820SOL    HW119922   2.946   3.312   1.556 -0.9559  1.4246  1.3934
 2820SOL    HW219923   2.861   3.423   1.566  1.3361 -1.0474  1.6807
 2821SOL     OW19924   0.281   1.193   2.602 -0.0507  0.9030  0.4190
 2821SOL    HW119925   0.371   1.200   2.569 -0.1974 -0.5664 -0.2974
 2821SOL    HW219926   0.273   1.098   2.592 -2.1532  0.9244  2.0229
 2822SOL     OW19927   2.812   3.983  13.724  0.2353 -0.4489  0.0529
 2822SOL    HW119928   2.829   3.892  13.749 -0.4602 -0.6591 -0.2401
 2822SOL    HW219929   2.823   4.023  13.811 -0.9995 -1.5297  0.6993
 2823SOL     OW19930   3.961   2.180  14.081 -0.1261 -0.4550 -0.0548
 2823SOL    HW119931   3.889   2.231  14.119 -0.9242 -1.4312 -0.2434
 2823SOL    HW219932   3.948   2.188  13.987 -2.3846 -0.5459  0.2469
 2824SOL     OW19933   3.030   1.466   0.413 -0.3713 -1.0561 -0.1106
 2824SOL    HW119934   3.098   1.488   0.348  0.4317 -3.8043 -0.1982
 2824SOL    HW219935   3.080   1.448   0.492  0.3365  0.4687 -0.2168
 2825SOL     OW19936   3.462   2.446   5.039  0.1061 -0.2686 -0.3920
 2825SOL    HW119937   3.526   2.488   4.981 -0.3962  2.3699  0.9360
 2825SOL    HW219938   3.440   2.378   4.975  0.5752 -0.3560 -0.4575
 2826SOL     OW19939   2.063   3.125  12.388 -0.0068  0.6877  0.1486
 2826SOL    HW119940   2.011   3.174  12.451 -0.9373  0.1612 -0.1965
 2826SOL    HW219941   2.109   3.198  12.347 -0.5777  2.6491  3.0406
 2827SOL     OW19942   1.055   3.914  14.573  0.3852 -0.2596 -0.3804
 2827SOL    HW119943   1.096   3.831  14.551 -0.1124 -0.8085  0.7746
 2827SOL    HW219944   1.025   3.890  14.660  1.4749 -1.8692 -0.4603
 2828SOL     OW19945   0.600   3.998   8.598 -0.1736 -0.3239 -0.9531
 2828SOL    HW119946   0.678   4.053   8.602 -0.9471  0.7685 -1.0396
 2828SOL    HW219947   0.617   3.951   8.517  0.3512 -2.8905  0.6225
 2829SOL     OW19948   4.257   2.317   4.956 -0.0769  0.2411  0.5607
 2829SOL    HW119949   4.177   2.309   5.008  0.5304 -1.6317  1.2091
 2829SOL    HW219950   4.227   2.354   4.873  2.0309 -3.2624 -1.7813
 2830SOL     OW19951   4.088   3.580   5.738  0.3768 -0.6201 -0.2404
 2830SOL    HW119952   4.103   3.526   5.661 -0.5257  0.3092 -1.0652
 2830SOL    HW219953   4.083   3.664   5.692  1.5158  0.0805  0.9173
 2831SOL     OW19954   1.148   1.104   6.468  0.5438  0.0158 -0.6410
 2831SOL    HW119955   1.186   1.019   6.446  0.4033 -0.0209 -0.7369
 2831SOL    HW219956   1.064   1.068   6.497  1.6510 -0.4132  2.0651
 2832SOL     OW19957   0.216   0.913   8.600  1.0312 -0.0217  0.7746
 2832SOL    HW119958   0.127   0.935   8.628  1.2536 -1.4707  2.5962
 2832SOL    HW219959   0.236   0.975   8.530  0.0930  0.2306  0.7369
 2833SOL     OW19960   2.826   2.213   2.637 -0.4740 -0.4763 -0.1256
 2833SOL    HW119961   2.832   2.306   2.615  1.2102 -1.1556 -2.5547
 2833SOL    HW219962   2.754   2.185   2.581  0.5966 -1.8248 -0.8319
 2834SOL     OW19963   1.998   3.247   8.892 -0.4250 -0.0748  0.1620
 2834SOL    HW119964   1.990   3.205   8.977 -3.6519  0.3607  0.0985
 2834SOL    HW219965   1.961   3.179   8.835  0.2454  0.4685 -0.9250
 2835SOL     OW19966   0.922   4.494  11.651 -0.1907  0.2096  0.4445
 2835SOL    HW119967   0.954   4.437  11.581 -0.6083 -0.0059  0.4278
 2835SOL    HW219968   0.877   4.556  11.594  4.0242  1.3738 -1.5900
 2836SOL     OW19969   1.179   3.694  15.326  0.0815 -0.0176  0.2894
 2836SOL    HW119970   1.223   3.632  15.267  0.8672  0.7862  0.0241
 2836SOL    HW219971   1.182   3.633  15.400  1.1165  1.5717  1.5601
 2837SOL     OW19972   1.998   0.533   4.441 -0.1128  0.1370 -0.2243
 2837SOL    HW119973   1.960   0.621   4.430 -2.1438 -0.3031  3.2449
 2837SOL    HW219974   1.924   0.477   4.466 -0.7040  0.4960 -1.1891
 2838SOL     OW19975   2.967   0.219   2.825 -0.4694 -0.6154 -0.5730
 2838SOL    HW119976   3.026   0.204   2.898 -0.2862 -1.1601 -0.8375
 2838SOL    HW219977   3.023   0.189   2.753  1.9569 -0.5011  1.2701
 2839SOL     OW19978   4.282   0.774   2.371  0.6625 -0.3849 -0.3233
 2839SOL    HW119979   4.306   0.739   2.285 -1.8128 -2.1735 -0.2741
 2839SOL    HW219980   4.264   0.864   2.346 -1.9198 -1.1879 -1.3388
 2840SOL     OW19981   1.745   0.859   2.503  0.1330 -0.3162 -0.6987
 2840SOL    HW119982   1.716   0.930   2.560 -1.1446 -0.6354 -0.9472
 2840SOL    HW219983   1.774   0.901   2.422  0.6802  0.9622  0.1689
 2841SOL     OW19984   3.284   3.425  11.289 -0.2795 -0.0345 -0.1916
 2841SOL    HW119985   3.268   3.375  11.369 -1.1770 -1.1866 -1.0887
 2841SOL    HW219986   3.314   3.511  11.316  1.0087  0.2627 -2.5680
 2842SOL     OW19987   2.610   0.274   3.755 -0.1332 -0.3777 -0.3695
 2842SOL    HW119988   2.658   0.208   3.705 -0.9366 -0.8382 -0.5304
 2842SOL    HW219989   2.678   0.338   3.775 -0.1559 -0.5111  0.1123
 2843SOL     OW19990   4.718   0.520   8.683 -0.1209 -0.2575 -0.2668
 2843SOL    HW119991   0.072   0.511   8.629 -0.1193 -1.4526 -0.0654
 2843SOL    HW219992   4.683   0.434   8.662 -1.5081  0.0585  0.7139
 2844SOL     OW19993   0.871   0.575   3.012 -0.2597  0.4828 -0.5207
 2844SOL    HW119994   0.813   0.525   3.070  0.6735  0.7236  0.6142
 2844SOL    HW219995   0.851   0.523   2.934 -3.6898  2.0648 -0.6905
 2845SOL     OW19996   3.623   1.384   1.526 -0.4331  0.6710  0.7767
 2845SOL    HW119997   3.615   1.289   1.529  2.6357  0.4735  2.0160
 2845SOL    HW219998   3.717   1.396   1.513 -0.6727 -0.2542 -1.9014
 2846SOL     OW19999   3.005   0.541   5.233  0.3189  0.1733  0.0659
 2846SOL    HW120000   2.959   0.590   5.165 -0.6024 -0.4855  0.2133
 2846SOL    HW220001   3.036   0.614   5.287 -1.6574  2.5653 -2.0158
 2847SOL     OW20002   3.495   2.995   6.766  0.3299 -0.0513  0.1784
 2847SOL    HW120003   3.438   3.064   6.734  3.1426  1.4067 -1.7190
 2847SOL    HW220004   3.568   2.991   6.704  0.6785  0.5025  0.5659
 2848SOL     OW20005   3.079   2.351   9.783  0.1635 -0.2573  0.7875
 2848SOL    HW120006   3.144   2.408   9.823  0.2365  0.2517 -0.0492
 2848SOL    HW220007   3.048   2.401   9.707 -2.2010  0.5236  2.2809
 2849SOL     OW20008   1.532   2.112   7.832  0.1838 -0.0568 -0.0316
 2849SOL    HW120009   1.467   2.065   7.885  1.0817 -0.4626  0.7238
 2849SOL    HW220010   1.496   2.200   7.825 -0.9036 -0.5740 -0.9168
 2850SOL     OW20011   0.246   2.426  16.015 -0.1810  0.1086 -0.2970
 2850SOL    HW120012   0.216   2.454  15.929  1.8950 -0.8320 -1.3410
 2850SOL    HW220013   0.341   2.426  16.002  0.2017 -2.5078  2.3528
 2851SOL     OW20014   4.010   0.124   6.362 -0.7157 -0.0836  0.0240
 2851SOL    HW120015   4.065   0.070   6.305  0.2634 -1.1167  1.9807
 2851SOL    HW220016   4.015   0.214   6.328  0.2395 -0.3351 -0.5154
 2852SOL     OW20017   3.577   1.549   3.216  0.4556  0.0392  0.3998
 2852SOL    HW120018   3.574   1.516   3.306  0.9093 -0.4261  0.2484
 2852SOL    HW220019   3.484   1.560   3.197  0.4343  0.3857  0.7215
 2853SOL     OW20020   0.626   4.391  13.964  0.0615  0.5297  0.4246
 2853SOL    HW120021   0.719   4.412  13.978 -0.1635  2.0166 -0.3107
 2853SOL    HW220022   0.598   4.370  14.053 -0.4444  0.4125  0.2369
 2854SOL     OW20023   1.790   1.171  14.230 -0.3179 -0.4008  0.5705
 2854SOL    HW120024   1.748   1.137  14.151  1.6362  0.6786 -0.9118
 2854SOL    HW220025   1.884   1.171  14.215 -0.3208 -1.4536  0.5169
 2855SOL     OW20026   1.879   2.150   5.045 -0.3793 -0.7707 -0.1906
 2855SOL    HW120027   1.920   2.186   4.966  1.2474 -1.0569  0.5185
 2855SOL    HW220028   1.833   2.229   5.075  0.3308  0.3640 -2.1053
 2856SOL     OW20029   0.452   2.322   3.408 -0.2152  0.1897 -0.0329
 2856SOL    HW120030   0.489   2.240   3.375 -2.0397 -0.5036 -0.3762
 2856SOL    HW220031   0.363   2.323   3.374  0.7492 -0.0265 -2.5238
 2857SOL     OW20032   4.131   4.533   7.262  0.3525 -0.6252  0.3219
 2857SOL    HW120033   4.158   4.503   7.175  0.6898  2.1850 -0.5450
 2857SOL    HW220034   4.037   4.514   7.269 -0.4548  3.0226 -0.9403
 2858SOL     OW20035   1.768   3.498   2.779  0.3383  0.2176 -0.3160
 2858SOL    HW120036   1.752   3.592   2.772  1.8493  0.5525  0.7069
 2858SOL    HW220037   1.810   3.483   2.694 -1.5076 -1.1854 -0.9844
 2859SOL     OW20038   1.798   1.784  11.545 -0.0090 -0.7102  0.6627
 2859SOL    HW120039   1.812   1.700  11.501 -2.3394  1.0994 -3.5481
 2859SOL    HW220040   1.745   1.762  11.621  0.3888  1.4166  1.5573
 2860SOL     OW20041   1.473   1.256   2.562  0.0314 -0.0381  0.0861
 2860SOL    HW120042   1.408   1.236   2.630 -0.9563  1.3984 -0.4169
 2860SOL    HW220043   1.434   1.216   2.484  0.4477 -0.0216 -0.1289
 2861SOL     OW20044   0.392   3.251   3.829 -0.2703  0.2985 -0.4900
 2861SOL    HW120045   0.356   3.228   3.744 -1.5951 -2.1640  0.7536
 2861SOL    HW220046   0.485   3.229   3.819  0.0778  1.4165  0.2849
 2862SOL     OW20047   0.266   3.584  10.248 -0.2422  0.2280  0.3826
 2862SOL    HW120048   0.327   3.607  10.178 -0.6204 -0.8293 -0.2856
 2862SOL    HW220049   0.204   3.656  10.255  0.9128  1.1078  1.6625
 2863SOL     OW20050   0.476   0.264   3.615  0.1422 -0.1665  0.0715
 2863SOL    HW120051   0.552   0.253   3.558 -0.6617  1.1055 -1.2731
 2863SOL    HW220052   0.409   0.206   3.577  1.6146 -1.0404 -1.2099
 2864SOL     OW20053   3.317   3.398   0.214  0.2033  0.3664 -0.0601
 2864SOL    HW120054   3.382   3.466   0.236  0.0778  0.1626  0.9404
 2864SOL    HW220055   3.237   3.422   0.261 -1.1304 -3.1759 -0.5575
 2865SOL     OW20056   4.528   2.016  10.938 -0.6301  0.3779 -0.1287
 2865SOL    HW120057   4.555   1.966  10.861  0.2968  0.9390 -0.1655
 2865SOL    HW220058   4.459   1.959  10.973 -0.5820  0.4358  0.0639
 2866SOL     OW20059   2.947   0.116   2.461  0.2151 -0.4614  0.1364
 2866SOL    HW120060   2.967   0.024   2.443  1.1770  0.1634 -1.9044
 2866SOL    HW220061   2.893   0.141   2.386 -0.5370 -0.3656  0.7102
 2867SOL     OW20062   1.751   3.259  15.106  0.0575  0.0918  0.7371
 2867SOL    HW120063   1.660   3.289  15.103  0.0592  0.0176 -0.0374
 2867SOL    HW220064   1.759   3.213  15.023 -2.5403  0.9330  0.0174
 2868SOL     OW20065   1.078   0.788  15.046 -0.4208 -0.2483 -0.0264
 2868SOL    HW120066   1.076   0.846  14.970 -0.1325  1.5924  1.3822
 2868SOL    HW220067   1.050   0.837  15.123  1.9674 -0.5437  1.0141
 2869SOL     OW20068   1.286   4.148   8.584  0.7200 -0.0047  0.0700
 2869SOL    HW120069   1.254   4.228   8.543 -2.2244  0.5967  3.5499
 2869SOL    HW220070   1.339   4.115   8.511  1.2067  0.1430  0.3573
 2870SOL     OW20071   1.851   1.307   7.854  0.3556 -0.2432  0.4473
 2870SOL    HW120072   1.908   1.232   7.871 -2.0370 -2.0280  0.3952
 2870SOL    HW220073   1.836   1.299   7.760 -0.1063  0.9199  0.4249
 2871SOL     OW20074   0.969   1.180   2.975  0.9156  0.6422 -0.4138
 2871SOL    HW120075   0.968   1.229   2.892  1.4299 -0.6063 -1.1524
 2871SOL    HW220076   0.982   1.253   3.036  3.7092  1.6476 -2.2010
 2872SOL     OW20077   2.416   1.252   6.194 -0.5747  0.0420  0.5842
 2872SOL    HW120078   2.463   1.208   6.265  0.1319  0.4469  0.3657
 2872SOL    HW220079   2.334   1.259   6.243 -1.5556 -2.3902 -0.7187
 2873SOL     OW20080   0.461   0.606   5.609 -0.4975  0.1594 -0.1366
 2873SOL    HW120081   0.543   0.563   5.588 -1.5527 -1.8466 -0.1377
 2873SOL    HW220082   0.411   0.531   5.641  1.8131 -1.2973  0.0051
 2874SOL     OW20083   1.601   3.704   7.930  0.1476 -0.2492  0.0542
 2874SOL    HW120084   1.571   3.762   7.861  1.3267  0.8479  0.4636
 2874SOL    HW220085   1.526   3.644   7.924 -0.2754  0.0865  1.7696
 2875SOL     OW20086   0.392   4.644   4.931  0.2710  0.0528  0.1321
 2875SOL    HW120087   0.446   4.692   4.994 -1.1500  1.0029  0.6316
 2875SOL    HW220088   0.303   4.680   4.934  0.2249  0.0305 -0.8858
 2876SOL     OW20089   0.381   3.855   5.101  0.3097 -0.0878 -0.2367
 2876SOL    HW120090   0.409   3.793   5.034 -1.1218 -0.6427 -0.3252
 2876SOL    HW220091   0.357   3.931   5.048 -0.2751 -0.0044  0.1400
 2877SOL     OW20092   1.106   2.276   0.408  0.0491 -0.0620  0.3529
 2877SOL    HW120093   1.092   2.287   0.502 -2.8182 -2.1493  0.1536
 2877SOL    HW220094   1.014   2.290   0.386  1.1138  0.6519 -3.6565
 2878SOL     OW20095   3.368   3.984   1.921 -0.3888 -0.3914  0.0171
 2878SOL    HW120096   3.456   3.949   1.905  0.0280  0.2810  0.8593
 2878SOL    HW220097   3.348   4.017   1.834  0.0588 -2.8835 -1.0324
 2879SOL     OW20098   4.159   1.789  13.423 -0.6043 -0.2508 -0.0985
 2879SOL    HW120099   4.165   1.726  13.494  1.0199 -1.2932 -1.1718
 2879SOL    HW220100   4.197   1.753  13.343 -1.0799 -1.8752  0.4085
 2880SOL     OW20101   2.272   0.761   2.755  0.2189 -0.1074  0.1670
 2880SOL    HW120102   2.237   0.708   2.827  1.8994  0.3171  1.2839
 2880SOL    HW220103   2.187   0.795   2.728 -1.2644 -2.6229  1.5881
 2881SOL     OW20104   3.420   4.036   7.203 -0.2448 -0.2122 -0.0408
 2881SOL    HW120105   3.506   4.037   7.162 -0.5624 -2.7979 -0.7610
 2881SOL    HW220106   3.437   4.097   7.274  1.2772 -1.3455  0.5693
 2882SOL     OW20107   4.342   0.375  13.726 -0.0541  0.1655  0.1504
 2882SOL    HW120108   4.313   0.290  13.693  1.5407 -0.4473  0.3565
 2882SOL    HW220109   4.336   0.367  13.821 -0.1593  0.8853  0.2056
 2883SOL     OW20110   1.561   3.717   5.389  0.0697  0.9165 -0.0505
 2883SOL    HW120111   1.581   3.752   5.476 -0.2118 -1.0149  0.7945
 2883SOL    HW220112   1.604   3.633   5.375  0.3197  1.2438 -1.2304
 2884SOL     OW20113   2.185   1.692   0.376  0.0176 -0.5110 -0.5795
 2884SOL    HW120114   2.175   1.655   0.463  0.1300 -1.0703 -0.8069
 2884SOL    HW220115   2.099   1.691   0.334 -0.2782 -0.4824  0.0409
 2885SOL     OW20116   1.581   0.877   1.446 -0.3789 -0.1095  0.3623
 2885SOL    HW120117   1.580   0.851   1.354  1.1397 -1.2123  0.6611
 2885SOL    HW220118   1.517   0.812   1.474 -1.8700  1.2358  0.1118
 2886SOL     OW20119   1.140   3.158   2.018 -0.1178 -0.0128  0.0474
 2886SOL    HW120120   1.158   3.199   1.933  0.2268 -3.8325 -1.7368
 2886SOL    HW220121   1.058   3.207   2.026  0.7866  1.3684  0.6284
 2887SOL     OW20122   2.164   2.256   2.244 -0.5638 -0.3749  0.6535
 2887SOL    HW120123   2.175   2.345   2.212 -2.6474 -0.3794 -0.0863
 2887SOL    HW220124   2.226   2.212   2.185 -0.0919  0.2582  0.6836
 2888SOL     OW20125   4.127   3.696   4.969 -0.6152 -0.0019  0.0374
 2888SOL    HW120126   4.139   3.634   5.042 -0.6038  0.6127  0.5543
 2888SOL    HW220127   4.032   3.707   4.973 -0.3791  3.1159 -3.1476
 2889SOL     OW20128   2.888   4.261   6.578  0.4357  0.1107  0.4651
 2889SOL    HW120129   2.888   4.235   6.486  1.0291 -0.9699  0.7769
 2889SOL    HW220130   2.856   4.351   6.580  0.4579  0.1605 -1.6849
 2890SOL     OW20131   2.823   1.801   3.840  0.0763  0.2805 -0.4012
 2890SOL    HW120132   2.799   1.782   3.931  1.1575 -0.6722 -0.3097
 2890SOL    HW220133   2.820   1.896   3.842  0.0423  0.2534  1.0522
 2891SOL     OW20134   4.086   1.236   8.378  0.0800  0.1785  0.5073
 2891SOL    HW120135   4.001   1.194   8.388  0.2048 -0.3608 -0.8079
 2891SOL    HW220136   4.051   1.321   8.352 -2.5412 -0.7397  1.0429
 2892SOL     OW20137   1.571   4.116   6.271  0.1394 -0.1822  1.0947
 2892SOL    HW120138   1.633   4.088   6.204 -1.3422  1.5734 -0.9704
 2892SOL    HW220139   1.518   4.040   6.296  0.8310 -0.8323  0.6009
 2893SOL     OW20140   0.873   4.457  14.009  0.5201  0.5327  0.1678
 2893SOL    HW120141   0.938   4.454  14.079  0.7839 -1.6691 -0.1765
 2893SOL    HW220142   0.941   4.442  13.943 -2.6865 -0.6542 -2.8558
 2894SOL     OW20143   0.835   2.536   9.712  0.3882  0.4907 -0.2343
 2894SOL    HW120144   0.880   2.604   9.762  0.5113 -0.1134  0.4882
 2894SOL    HW220145   0.884   2.458   9.738 -1.3801 -0.5129  0.0987
 2895SOL     OW20146   1.153   1.100   7.501  0.2523 -0.1923 -0.2126
 2895SOL    HW120147   1.228   1.068   7.450  0.2778  0.7655 -0.7866
 2895SOL    HW220148   1.193   1.105   7.587  1.1345 -0.4108 -0.6077
 2896SOL     OW20149   4.090   2.815   8.314 -0.1667  0.4586  0.0366
 2896SOL    HW120150   4.071   2.822   8.408  0.8421  5.3967 -0.1242
 2896SOL    HW220151   4.009   2.859   8.288 -0.9389 -1.5188 -0.8872
 2897SOL     OW20152   0.353   1.971   4.146  0.0599  0.3073  0.3503
 2897SOL    HW120153   0.294   2.021   4.089  2.6508  0.7885 -1.9316
 2897SOL    HW220154   0.335   1.882   4.116  0.0133  0.8052 -1.0938
 2898SOL     OW20155   0.195   2.286   4.863  0.0880  0.0466  0.0450
 2898SOL    HW120156   0.275   2.234   4.860 -0.8222 -1.3067 -1.0188
 2898SOL    HW220157   0.128   2.222   4.838  0.5734 -0.4462  0.0130
 2899SOL     OW20158   3.006   0.421  12.674 -0.1221  0.0619  0.1597
 2899SOL    HW120159   2.911   0.433  12.679  0.0668  2.4797 -2.1639
 2899SOL    HW220160   3.012   0.445  12.582 -0.6621 -2.0579 -0.4250
 2900SOL     OW20161   1.459   2.153   2.209  0.1145 -0.2986  0.2389
 2900SOL    HW120162   1.372   2.113   2.203 -1.5288  3.3141 -0.2290
 2900SOL    HW220163   1.515   2.089   2.253  0.7483 -0.3029 -0.5666
 2901SOL     OW20164   3.794   3.836   4.585 -0.4489  0.0893 -0.2574
 2901SOL    HW120165   3.800   3.818   4.679  0.7797 -0.7917 -0.5121
 2901SOL    HW220166   3.804   3.746   4.556  0.2498  0.5433 -1.3968
 2902SOL     OW20167   0.674   1.121   6.550 -0.0935  0.5775 -0.1076
 2902SOL    HW120168   0.673   1.082   6.463  1.7260  0.5935 -0.1389
 2902SOL    HW220169   0.708   1.209   6.536  2.0737 -0.2886 -0.4113
 2903SOL     OW20170   0.757   0.031   1.070  0.5773 -0.5799  0.4939
 2903SOL    HW120171   0.710   0.093   1.014 -0.4086 -0.0208  1.9334
 2903SOL    HW220172   0.810   4.714   1.002 -0.5767 -0.2873 -0.5922
 2904SOL     OW20173   0.762   2.434   6.130 -0.1959 -0.6814 -0.5073
 2904SOL    HW120174   0.672   2.468   6.125  0.8575  1.9520 -1.4239
 2904SOL    HW220175   0.761   2.409   6.037  0.1464  1.0483 -0.9744
 2905SOL     OW20176   3.200   3.807  13.299  0.0139 -0.7091 -0.2592
 2905SOL    HW120177   3.231   3.725  13.259  0.2638 -1.5205  1.5755
 2905SOL    HW220178   3.278   3.862  13.295 -1.6547  1.7994  1.7733
 2906SOL     OW20179   1.165   3.264   7.333  0.2602 -0.0929  0.3200
 2906SOL    HW120180   1.229   3.273   7.404  3.7267 -1.2509 -2.6860
 2906SOL    HW220181   1.207   3.215   7.263 -0.5934 -0.8683  0.3398
 2907SOL     OW20182   3.446   1.072   6.901 -0.2712  0.1026  0.2195
 2907SOL    HW120183   3.458   1.150   6.847  1.0379 -0.4492 -0.2940
 2907SOL    HW220184   3.525   1.020   6.887 -0.9155 -1.0492  0.9182
 2908SOL     OW20185   3.220   2.682   1.041 -0.0873 -0.3268  0.0316
 2908SOL    HW120186   3.129   2.679   1.070  0.6797  0.0137  2.5033
 2908SOL    HW220187   3.236   2.776   1.050 -0.4658 -0.5001  2.6005
 2909SOL     OW20188   1.089   3.597   1.577  0.3149 -0.3505 -0.2906
 2909SOL    HW120189   1.094   3.570   1.485 -3.7715 -1.1509 -0.2547
 2909SOL    HW220190   1.179   3.627   1.590 -0.5175  0.8877  2.5623
 2910SOL     OW20191   2.664   4.121   7.091  0.4543  0.3422  0.1162
 2910SOL    HW120192   2.727   4.051   7.113  1.7249  1.2849 -0.5141
 2910SOL    HW220193   2.714   4.178   7.033  1.0825 -0.4921 -0.1734
 2911SOL     OW20194   0.557   4.207   5.319  0.3240  0.1207 -0.6756
 2911SOL    HW120195   0.580   4.114   5.318  1.6959  0.4455  0.3265
 2911SOL    HW220196   0.471   4.200   5.360  0.9689 -1.0260  0.5002
 2912SOL     OW20197   1.009   3.117   4.779 -0.6072 -0.4082  0.3992
 2912SOL    HW120198   1.044   3.197   4.738  0.0746 -0.9373 -0.0501
 2912SOL    HW220199   0.928   3.102   4.730 -0.6288  0.7743  0.0605
 2913SOL     OW20200   1.495   3.640  10.431  0.5778 -0.5733 -0.6065
 2913SOL    HW120201   1.463   3.704  10.494  2.4054  0.4861 -0.7512
 2913SOL    HW220202   1.549   3.580  10.483  1.6276  1.6541  0.8661
 2914SOL     OW20203   0.944   0.354   7.843 -0.4187  0.4352 -0.1595
 2914SOL    HW120204   0.942   0.342   7.748 -1.6874  1.6545 -0.2871
 2914SOL    HW220205   0.952   0.449   7.846 -0.9052  0.3912  2.0514
 2915SOL     OW20206   3.268   0.513   9.256 -0.2194  0.2899 -0.4267
 2915SOL    HW120207   3.206   0.486   9.188  2.9813  0.3525 -3.3539
 2915SOL    HW220208   3.284   0.429   9.299 -0.3924  0.7577  0.5388
 2916SOL     OW20209   4.663   2.683   0.643 -0.3999 -0.0078 -0.2173
 2916SOL    HW120210   4.677   2.707   0.551 -1.4825  0.7050 -0.1920
 2916SOL    HW220211   4.692   2.592   0.641 -0.3429  0.0137 -0.3882
 2917SOL     OW20212   2.366   0.074   7.803 -0.6963 -0.0692 -0.8215
 2917SOL    HW120213   2.328   0.033   7.880  1.6490 -0.3252  0.2088
 2917SOL    HW220214   2.409   0.151   7.840 -0.0383 -0.5813 -0.5279
 2918SOL     OW20215   4.310   3.343   5.372  0.5074  0.2311  0.4522
 2918SOL    HW120216   4.322   3.436   5.355  1.9129 -0.0502 -0.1713
 2918SOL    HW220217   4.385   3.301   5.328  0.9069 -0.5181  1.8292
 2919SOL     OW20218   1.529   2.861   5.237  0.0511  0.5942  0.2865
 2919SOL    HW120219   1.494   2.911   5.310 -0.4463  1.4440 -0.5321
 2919SOL    HW220220   1.474   2.901   5.170 -1.6703  1.7748  2.4174
 2920SOL     OW20221   2.074   2.658   2.566 -0.0672 -0.2363  0.1300
 2920SOL    HW120222   2.149   2.610   2.602  0.2271 -0.2273 -0.4620
 2920SOL    HW220223   2.064   2.616   2.480 -0.9456  1.5903 -0.6647
 2921SOL     OW20224   2.957   0.722  13.911 -0.3471  0.0219 -0.1311
 2921SOL    HW120225   3.022   0.653  13.904  0.5300  0.7142  1.1325
 2921SOL    HW220226   2.879   0.672  13.936  0.4246 -0.6186  1.0182
 2922SOL     OW20227   0.038   3.197   6.689 -0.9390  0.3319 -0.7843
 2922SOL    HW120228   0.055   3.106   6.666  2.1041  0.7615 -0.1976
 2922SOL    HW220229   4.668   3.207   6.671 -0.3790  1.9749 -2.7733
 2923SOL     OW20230   0.477   1.130   6.986  0.0295 -0.4219  0.2497
 2923SOL    HW120231   0.440   1.109   7.072 -2.7048  0.0322 -0.8071
 2923SOL    HW220232   0.541   1.060   6.979  1.2496  0.7254  0.0846
 2924SOL     OW20233   2.015   1.955   3.146  0.1262 -0.1679 -0.0420
 2924SOL    HW120234   2.086   1.951   3.210 -0.8118 -0.6250  0.9732
 2924SOL    HW220235   2.043   1.888   3.084  1.4027 -0.7967  1.2136
 2925SOL     OW20236   2.412   0.092   8.201 -0.2531  0.0123 -0.3024
 2925SOL    HW120237   2.436   0.145   8.125 -0.5471  0.1446 -0.3042
 2925SOL    HW220238   2.369   0.019   8.156 -1.1635  0.5037 -0.2394
 2926SOL     OW20239   2.572   2.255  10.553  0.2412 -0.4956  0.0132
 2926SOL    HW120240   2.659   2.228  10.582  1.2081  1.8934 -0.6676
 2926SOL    HW220241   2.595   2.337  10.509  0.4108 -0.4098  0.2630
 2927SOL     OW20242   1.282   4.602   5.963 -0.3296  0.0978 -0.1286
 2927SOL    HW120243   1.225   4.679   5.970  0.3711  0.5540  0.4875
 2927SOL    HW220244   1.216   4.540   5.932  0.2744 -0.2483 -0.7309
 2928SOL     OW20245   1.430   2.519   6.611 -0.1565 -0.0793  0.0620
 2928SOL    HW120246   1.385   2.602   6.594  1.0727  0.6393  0.3340
 2928SOL    HW220247   1.387   2.468   6.542  0.8190  1.6219 -1.7930
 2929SOL     OW20248   1.475   3.781   8.190 -0.0681 -0.9828 -0.1663
 2929SOL    HW120249   1.569   3.768   8.187 -0.4543 -3.4686 -1.3724
 2929SOL    HW220250   1.441   3.775   8.101  1.8671 -1.1924 -0.8862
 2930SOL     OW20251   1.915   3.985  13.233 -0.2058  0.1009  0.1963
 2930SOL    HW120252   1.889   3.895  13.213 -0.2462  0.0216  0.5919
 2930SOL    HW220253   1.982   4.012  13.171 -0.3705 -0.7770 -0.3751
 2931SOL     OW20254   0.313   3.418  14.763 -0.5935  0.3663 -0.2630
 2931SOL    HW120255   0.402   3.430  14.796  0.8449 -4.3552 -2.4932
 2931SOL    HW220256   0.277   3.480  14.826  0.0003  0.9729 -0.5180
 2932SOL     OW20257   2.709   1.835   4.774  0.3215 -0.5054 -0.1120
 2932SOL    HW120258   2.652   1.766   4.807  2.0070 -1.1119  1.5804
 2932SOL    HW220259   2.744   1.789   4.698 -0.5369 -0.9899 -0.2022
 2933SOL     OW20260   1.490   4.666   8.952 -0.0507 -0.1920 -0.7083
 2933SOL    HW120261   1.482   4.723   9.029 -0.2618 -0.6007 -0.4282
 2933SOL    HW220262   1.583   4.649   8.935  0.2116  1.3038 -0.7703
 2934SOL     OW20263   0.191   3.039   6.001 -0.3160 -0.0491 -0.1380
 2934SOL    HW120264   0.104   3.058   6.037  0.0634 -1.3911  1.4781
 2934SOL    HW220265   0.176   2.956   5.955 -2.9224  0.6519 -0.5428
 2935SOL     OW20266   2.558   1.456  16.879 -0.7388  0.5732 -0.0721
 2935SOL    HW120267   2.481   1.497  16.838 -1.2298  1.8934  2.1664
 2935SOL    HW220268   2.553   1.512  16.957  0.4184 -3.1735  2.7190
 2936SOL     OW20269   3.239   1.283   6.212 -0.0479  0.0989  0.0876
 2936SOL    HW120270   3.220   1.331   6.131 -0.6971  0.6760  0.5827
 2936SOL    HW220271   3.294   1.348   6.256 -0.3736  0.3059  0.1893
 2937SOL     OW20272   0.984   1.077   0.721  0.5076  0.0672  0.1772
 2937SOL    HW120273   1.027   1.160   0.702  0.7402 -0.3140 -1.0056
 2937SOL    HW220274   0.891   1.099   0.713  0.4728 -0.4873 -1.0186
 2938SOL     OW20275   1.435   2.394  16.580 -0.1057  0.5697  0.1860
 2938SOL    HW120276   1.354   2.344  16.569 -0.0168 -0.0135  2.2637
 2938SOL    HW220277   1.397   2.473  16.541  3.2413  0.9488 -2.2880
 2939SOL     OW20278   1.972   2.014   1.858  0.8146 -0.5893  0.4527
 2939SOL    HW120279   1.888   2.020   1.812  1.1326  1.1595  0.0809
 2939SOL    HW220280   2.007   1.939   1.810 -0.2562  0.4289 -1.9633
 2940SOL     OW20281   4.199   2.760  17.222  0.4747  0.1829 -0.4002
 2940SOL    HW120282   4.122   2.739  17.169 -0.4173 -1.2929  1.4893
 2940SOL    HW220283   4.163   2.838  17.265  1.4119  0.1624  0.4006
 2941SOL     OW20284   3.915   0.015  15.583  0.2511  0.2484 -0.4355
 2941SOL    HW120285   3.982   0.033  15.518  0.5206  1.8707  0.2855
 2941SOL    HW220286   3.893   0.102  15.618  1.0016  0.7365 -1.1818
 2942SOL     OW20287   1.815   2.041   3.599  0.0104 -0.0954 -0.0684
 2942SOL    HW120288   1.812   1.959   3.549 -0.3275 -0.5493  0.6891
 2942SOL    HW220289   1.910   2.053   3.604  0.1819 -0.2388 -2.6828
 2943SOL     OW20290   4.467   0.514   7.157  0.4795 -0.3464 -0.2290
 2943SOL    HW120291   4.384   0.481   7.123  0.2002 -0.7204  0.8044
 2943SOL    HW220292   4.521   0.440   7.128 -1.9316 -1.8005 -0.9773
 2944SOL     OW20293   1.585   4.117  16.494  0.6637 -0.0162  0.4948
 2944SOL    HW120294   1.597   4.040  16.550 -1.4344 -1.2572 -0.7169
 2944SOL    HW220295   1.489   4.115  16.504  0.4150 -0.3929 -1.8853
 2945SOL     OW20296   4.123   2.023   8.594  0.3867 -0.0353 -0.4592
 2945SOL    HW120297   4.203   2.073   8.578  0.6585  0.2620  1.8883
 2945SOL    HW220298   4.089   2.065   8.673 -1.3730 -1.7777 -0.2900
 2946SOL     OW20299   0.513   2.175   6.808  0.0672 -0.5905  0.0161
 2946SOL    HW120300   0.551   2.263   6.798  1.3509 -1.0265  1.0149
 2946SOL    HW220301   0.419   2.190   6.803  0.1199 -0.2594 -0.0351
 2947SOL     OW20302   1.333   0.251  11.803  0.4616  0.3749  0.2410
 2947SOL    HW120303   1.389   0.230  11.728 -1.5652 -1.1588 -0.8634
 2947SOL    HW220304   1.388   0.258  11.881 -1.5251  2.0273  1.5002
 2948SOL     OW20305   2.736   2.485  11.908  0.1459  0.7968 -0.1122
 2948SOL    HW120306   2.753   2.571  11.868 -1.6268  0.4767 -1.5518
 2948SOL    HW220307   2.709   2.512  11.996 -3.4479 -1.0917 -0.6334
 2949SOL     OW20308   2.750   3.623   9.405  0.5327 -0.2837 -0.6653
 2949SOL    HW120309   2.842   3.598   9.410  0.5327 -0.5744 -2.0100
 2949SOL    HW220310   2.742   3.646   9.498 -1.3530  0.5381 -1.0243
 2950SOL     OW20311   3.545   4.011   9.624  0.5874 -0.6082 -0.2086
 2950SOL    HW120312   3.588   3.932   9.657  1.0594 -0.2821 -0.0435
 2950SOL    HW220313   3.557   4.073   9.696 -1.4338  1.4924 -1.6935
 2951SOL     OW20314   0.933   2.049   2.329 -0.5108 -0.2673 -0.6250
 2951SOL    HW120315   0.899   2.071   2.416 -1.6882 -0.4944 -1.0210
 2951SOL    HW220316   0.870   2.104   2.282  0.6453  2.1989  0.6824
 2952SOL     OW20317   1.961   0.466   8.751 -0.0483 -0.0790  0.3986
 2952SOL    HW120318   1.876   0.438   8.786  0.4474 -0.4541  1.3027
 2952SOL    HW220319   2.002   0.383   8.727  0.6299 -0.1769  1.8881
 2953SOL     OW20320   2.462   2.692  13.416 -0.3690  0.0137 -0.0740
 2953SOL    HW120321   2.497   2.774  13.451  0.3510 -0.4390  0.2573
 2953SOL    HW220322   2.530   2.634  13.449  2.0246  3.4553  0.9487
 2954SOL     OW20323   2.921   3.324   4.589  0.7381  0.2593 -0.1877
 2954SOL    HW120324   2.898   3.416   4.605 -1.4759 -0.1796 -0.8912
 2954SOL    HW220325   2.985   3.315   4.660 -1.0812  0.2311  1.4391
 2955SOL     OW20326   2.106   2.788  10.311 -0.3450 -0.0695 -0.4013
 2955SOL    HW120327   2.132   2.859  10.370 -0.5317 -0.5922  0.3056
 2955SOL    HW220328   2.171   2.792  10.241  0.0506 -0.6900 -0.0700
 2956SOL     OW20329   0.511   4.656   6.251 -0.4477 -0.1190 -0.5975
 2956SOL    HW120330   0.462   4.616   6.179  2.0310 -0.3294 -2.1576
 2956SOL    HW220331   0.529   0.023   6.227 -1.7429  0.2289 -0.2772
 2957SOL     OW20332   1.956   2.345   6.119  0.1835  0.3088 -0.4738
 2957SOL    HW120333   1.878   2.309   6.076  1.4414 -2.0757 -0.7437
 2957SOL    HW220334   1.912   2.412   6.171  1.8391  1.0469 -0.0469
 2958SOL     OW20335   2.581   4.451   9.282  0.2497 -0.1044  0.1366
 2958SOL    HW120336   2.664   4.449   9.330 -0.3394  0.5556  1.1956
 2958SOL    HW220337   2.521   4.480   9.351  0.1259 -1.1497  0.4677
 2959SOL     OW20338   1.871   2.365   8.737 -0.7903  0.5432  0.7895
 2959SOL    HW120339   1.944   2.325   8.690  0.2899 -0.1064  3.0300
 2959SOL    HW220340   1.802   2.355   8.671 -0.7115 -0.3454  0.8523
 2960SOL     OW20341   0.146   2.438   5.440  0.6384  0.6365 -0.7193
 2960SOL    HW120342   0.063   2.392   5.424 -0.4613  1.1180  3.7529
 2960SOL    HW220343   0.206   2.365   5.431 -1.5382 -1.1335 -0.9943
 2961SOL     OW20344   3.078   4.485  15.097  0.2395 -0.0588  0.1975
 2961SOL    HW120345   3.079   4.427  15.172  2.8723  0.0678  0.2491
 2961SOL    HW220346   3.168   4.487  15.067 -0.3511  0.7470 -1.5509
 2962SOL     OW20347   1.750   2.610   7.153 -0.1434  0.0117 -0.4974
 2962SOL    HW120348   1.750   2.590   7.060  0.5947 -0.0045 -0.4933
 2962SOL    HW220349   1.835   2.650   7.168 -0.3618  0.3876 -0.2587
 2963SOL     OW20350   4.101   1.953   3.712 -0.6746  0.0903 -0.1632
 2963SOL    HW120351   4.151   2.001   3.779  0.5351 -1.0348 -0.2637
 2963SOL    HW220352   4.100   2.006   3.632 -1.6892  0.6355  0.2066
 2964SOL     OW20353   1.811   2.546   7.756  0.5674 -0.1321  0.5188
 2964SOL    HW120354   1.716   2.546   7.743  0.5148 -0.5675  0.8794
 2964SOL    HW220355   1.829   2.500   7.674 -1.3681 -0.9790  0.5855
 2965SOL     OW20356   1.531   2.862   5.576  0.2423 -0.4223 -0.0028
 2965SOL    HW120357   1.494   2.942   5.536 -1.8460 -0.3430  2.0851
 2965SOL    HW220358   1.469   2.857   5.649  1.3750  1.1790  1.0710
 2966SOL     OW20359   0.591   0.220   7.541  0.0491  0.7623 -0.2209
 2966SOL    HW120360   0.637   0.218   7.458  1.7552 -2.5478  0.8016
 2966SOL    HW220361   0.610   0.130   7.569 -1.5458  0.4448 -0.1464
 2967SOL     OW20362   1.871   4.290   9.343  0.3337 -0.3353 -0.5194
 2967SOL    HW120363   1.922   4.357   9.298 -1.0720  0.3938 -1.0299
 2967SOL    HW220364   1.878   4.209   9.293  0.7715 -1.0013  0.6093
 2968SOL     OW20365   2.685   3.471   0.723 -0.0323  0.1951 -0.4081
 2968SOL    HW120366   2.649   3.475   0.812  0.6233  5.5049 -0.3593
 2968SOL    HW220367   2.611   3.502   0.670 -0.1017 -1.7563 -1.4416
 2969SOL     OW20368   0.087   1.143  15.417 -0.2623  0.0306  0.0106
 2969SOL    HW120369   0.161   1.175  15.468 -1.1732  1.0694  0.6988
 2969SOL    HW220370   0.032   1.222  15.418  2.1284  1.7020 -1.0776
 2970SOL     OW20371   3.799   2.198   3.054 -0.2527  0.4917  0.3265
 2970SOL    HW120372   3.820   2.213   3.147 -1.5083  2.6827  0.2635
 2970SOL    HW220373   3.789   2.290   3.030 -0.6467  0.4113  0.1791
 2971SOL     OW20374   2.198   1.712  11.119 -0.6238  0.2906 -0.3967
 2971SOL    HW120375   2.250   1.764  11.058 -0.4598 -0.2866 -0.7406
 2971SOL    HW220376   2.195   1.629  11.073  1.3893  1.3503 -2.4435
 2972SOL     OW20377   0.901   0.074   7.336  0.1701 -0.3953 -0.1027
 2972SOL    HW120378   0.894   4.703   7.329  0.2211 -0.4020 -0.0670
 2972SOL    HW220379   0.973   0.089   7.275  1.2121 -0.8081  1.0096
 2973SOL     OW20380   2.277   2.176   4.508 -0.5902  0.1134  0.0195
 2973SOL    HW120381   2.212   2.242   4.531  1.0754  2.3003 -1.5467
 2973SOL    HW220382   2.312   2.179   4.597 -0.6051 -0.5799  0.0510
 2974SOL     OW20383   0.951   4.275  12.956 -0.4910  0.1954  0.6072
 2974SOL    HW120384   0.861   4.289  12.986 -1.5202 -1.2142 -1.7663
 2974SOL    HW220385   0.981   4.196  13.000 -0.6277 -0.2698 -0.1310
 2975SOL     OW20386   2.255   0.068   3.521 -0.3735 -0.1239  0.0802
 2975SOL    HW120387   2.309   0.146   3.508 -1.2802  0.5115  0.1155
 2975SOL    HW220388   2.216   0.092   3.604 -0.5199  1.7066 -0.5205
 2976SOL     OW20389   1.354   1.608   2.658 -0.0322 -0.1728  0.0183
 2976SOL    HW120390   1.272   1.605   2.608 -1.8327 -0.8352  3.0515
 2976SOL    HW220391   1.342   1.531   2.713 -0.7699 -0.5521 -0.6699
 2977SOL     OW20392   1.029   3.523   3.078  0.5633  0.2006 -0.8349
 2977SOL    HW120393   1.001   3.530   2.986 -0.9324 -1.0457 -0.4703
 2977SOL    HW220394   1.121   3.499   3.070  0.1401 -0.7739 -2.9961
 2978SOL     OW20395   1.126   2.808   6.860  0.2264 -0.0368 -0.3079
 2978SOL    HW120396   1.160   2.736   6.807  1.6943 -0.1205  0.7401
 2978SOL    HW220397   1.035   2.811   6.830 -0.3520  0.1991  1.4679
 2979SOL     OW20398   0.011   1.934   7.244  0.4451 -0.1313 -0.4406
 2979SOL    HW120399   0.100   1.956   7.269  0.4547  0.9926 -1.4176
 2979SOL    HW220400   4.695   2.008   7.290 -0.4887 -0.9990  0.1392
 2980SOL     OW20401   1.196   0.642   8.579 -0.0484 -0.4813  0.1912
 2980SOL    HW120402   1.289   0.643   8.603 -0.4017 -2.2263  1.6305
 2980SOL    HW220403   1.162   0.710   8.638 -0.6702 -0.7742  0.1599
 2981SOL     OW20404   1.710   1.680   4.263 -0.1528 -0.4703 -0.0905
 2981SOL    HW120405   1.750   1.603   4.222  0.0461 -0.4364  0.0359
 2981SOL    HW220406   1.700   1.735   4.185  2.4849  0.0622 -0.0538
 2982SOL     OW20407   0.338   0.060   9.167  0.0457  0.3400  0.2666
 2982SOL    HW120408   0.391   0.074   9.088 -2.7870 -1.8012 -1.9898
 2982SOL    HW220409   0.288   0.141   9.166  1.6392  1.3181 -1.0845
 2983SOL     OW20410   1.526   1.026   2.380  0.5449 -0.5436 -0.4870
 2983SOL    HW120411   1.474   0.969   2.322 -0.6819 -0.5028  0.5814
 2983SOL    HW220412   1.471   1.010   2.457 -1.1628  0.1424 -1.5580
 2984SOL     OW20413   1.715   3.539   9.580 -0.2147  0.3744 -0.2847
 2984SOL    HW120414   1.680   3.453   9.555  4.7665 -1.5654 -0.5927
 2984SOL    HW220415   1.773   3.552   9.505  1.2697 -0.9958  0.5988
 2985SOL     OW20416   3.946   3.849  14.247 -0.3839 -0.4657 -0.0979
 2985SOL    HW120417   3.985   3.762  14.248  1.0175  0.1672  0.4537
 2985SOL    HW220418   3.914   3.853  14.157 -0.3912  0.7009 -0.0430
 2986SOL     OW20419   1.254   4.068   6.564 -0.2098  0.2071 -0.6936
 2986SOL    HW120420   1.280   4.017   6.640 -2.1191 -0.7932 -0.7018
 2986SOL    HW220421   1.208   4.012   6.501  1.2084  0.7859 -2.2390
 2987SOL     OW20422   3.531   2.700   4.600  0.0139  0.4117 -0.0172
 2987SOL    HW120423   3.524   2.773   4.538 -0.4288 -0.2434 -0.7527
 2987SOL    HW220424   3.445   2.701   4.642  0.7939 -0.2294  1.5712
 2988SOL     OW20425   2.271   3.460   2.023 -0.0433 -0.0049  0.0029
 2988SOL    HW120426   2.329   3.536   2.027  1.2537 -0.9032 -1.7410
 2988SOL    HW220427   2.324   3.401   2.076  1.6226  0.4943 -1.0914
 2989SOL     OW20428   1.418   3.112   8.469  0.4945 -0.0353 -0.3059
 2989SOL    HW120429   1.343   3.171   8.454  0.9795  0.6209 -0.1801
 2989SOL    HW220430   1.490   3.163   8.432 -0.5177  0.4611 -1.5907
 2990SOL     OW20431   3.658   3.790   6.167  0.4468 -0.3580 -0.8089
 2990SOL    HW120432   3.713   3.763   6.094 -0.0191 -0.5076 -1.1013
 2990SOL    HW220433   3.672   3.717   6.227  3.3520  0.4174 -0.5486
 2991SOL     OW20434   2.308   2.513   3.791 -0.1033  0.1561  0.5171
 2991SOL    HW120435   2.381   2.510   3.854  0.3859 -0.9811 -0.1041
 2991SOL    HW220436   2.318   2.602   3.756  0.1387 -1.3467 -3.1790
 2992SOL     OW20437   2.169   1.986   3.885 -0.2285  0.4288 -0.1746
 2992SOL    HW120438   2.153   1.966   3.792 -1.3146  0.6233 -0.0295
 2992SOL    HW220439   2.084   1.971   3.926  0.4395 -0.5706  0.8489
 2993SOL     OW20440   2.586   1.110  13.932 -0.2585 -0.6198 -0.2465
 2993SOL    HW120441   2.596   1.016  13.918 -1.0033 -0.8543  0.7876
 2993SOL    HW220442   2.614   1.130  13.843 -3.7884  3.1909 -0.5032
 2994SOL     OW20443   4.286   4.161   5.030  0.5597 -0.3936  0.0950
 2994SOL    HW120444   4.304   4.067   5.037 -0.3048 -0.8748 -4.0004
 2994SOL    HW220445   4.261   4.152   4.938 -0.0951 -1.4020  0.3732
 2995SOL     OW20446   3.521   3.529  12.057 -0.1771 -0.6656 -0.3714
 2995SOL    HW120447   3.468   3.530  11.977 -1.8096  0.8035  0.7118
 2995SOL    HW220448   3.599   3.579  12.032 -0.0045 -0.9522 -0.4039
 2996SOL     OW20449   3.504   0.426   4.361  0.0543  0.5240  0.0222
 2996SOL    HW120450   3.554   0.447   4.282  0.8969  2.1504  0.9818
 2996SOL    HW220451   3.572   0.381   4.412 -0.2475  0.1554  0.1027
 2997SOL     OW20452   1.928   3.113  14.640  0.2125 -0.0893  0.5067
 2997SOL    HW120453   2.007   3.089  14.591  2.4276  0.1410  3.9626
 2997SOL    HW220454   1.874   3.142  14.568  0.0617  0.4248  0.8300
 2998SOL     OW20455   3.773   1.338  14.951  1.0962 -0.3218  0.0485
 2998SOL    HW120456   3.843   1.318  14.888  1.1487  0.9899 -0.3229
 2998SOL    HW220457   3.746   1.422  14.913  1.2826 -0.3990 -0.2616
 2999SOL     OW20458   1.855   0.261   6.765 -0.3939  0.5176  0.4241
 2999SOL    HW120459   1.797   0.216   6.827 -0.9675  1.9393  0.9104
 2999SOL    HW220460   1.802   0.329   6.723 -0.6681 -0.1036 -0.2362
 3000SOL     OW20461   0.808   4.139   1.803 -0.1065  0.4873 -0.7638
 3000SOL    HW120462   0.883   4.107   1.854 -0.5532  0.8015  0.0910
 3000SOL    HW220463   0.747   4.071   1.832 -1.4435  1.3839 -1.4836
 3001SOL     OW20464   4.503   1.606   6.345 -0.3281 -0.1271 -0.0484
 3001SOL    HW120465   4.434   1.631   6.407 -1.2774 -2.3375 -0.2198
 3001SOL    HW220466   4.465   1.526   6.309  1.1475 -1.0842  0.5449
 3002SOL     OW20467   4.670   3.537   3.503  0.1113 -0.0603 -0.2199
 3002SOL    HW120468   0.025   3.573   3.463 -1.1793  1.2579 -1.5876
 3002SOL    HW220469   4.648   3.465   3.444 -0.0675 -0.1399 -0.0582
 3003SOL     OW20470   0.049   4.413   7.585  0.1363  0.3146  0.1527
 3003SOL    HW120471   0.138   4.405   7.620  0.8364 -1.2275 -1.9303
 3003SOL    HW220472   0.065   4.380   7.496  1.2363  0.8989  0.1308
 3004SOL     OW20473   2.837   0.292   7.718 -0.3337  0.1768 -0.1030
 3004SOL    HW120474   2.783   0.260   7.646  1.3511  1.3048 -1.8413
 3004SOL    HW220475   2.905   0.333   7.665  0.6792 -0.4015  0.7396
 3005SOL     OW20476   2.790   2.644   2.258  0.7381  0.1655  0.9358
 3005SOL    HW120477   2.765   2.717   2.201 -1.2438 -2.1749 -1.1576
 3005SOL    HW220478   2.874   2.633   2.216 -1.1012 -1.1829 -2.3580
 3006SOL     OW20479   4.075   4.126   6.164 -0.7092 -0.5427  0.3427
 3006SOL    HW120480   4.038   4.176   6.091 -0.8453 -1.9639 -0.5487
 3006SOL    HW220481   4.031   4.173   6.234  0.1046  0.0597  0.4473
 3007SOL     OW20482   2.452   0.029   6.669  0.7053 -0.2432 -0.0519
 3007SOL    HW120483   2.430   0.108   6.718  1.3313  0.1839 -0.4686
 3007SOL    HW220484   2.519   4.708   6.719  0.5389 -1.6737 -1.1426
 3008SOL     OW20485   1.659   3.425  10.621  0.4700  0.0595  0.0231
 3008SOL    HW120486   1.669   3.460  10.709  1.3315  0.6724 -0.3242
 3008SOL    HW220487   1.753   3.428  10.602  0.6693  2.9268  1.4512
 3009SOL     OW20488   2.866   4.522   0.643  0.6305 -0.5916 -0.1531
 3009SOL    HW120489   2.960   4.518   0.625  0.5376 -1.3771 -0.4797
 3009SOL    HW220490   2.873   4.554   0.733 -3.6241 -0.2754  0.0531
 3010SOL     OW20491   0.460   0.184   1.746 -0.0774 -0.2427 -0.0943
 3010SOL    HW120492   0.471   0.231   1.664 -1.0495  0.5673  0.2432
 3010SOL    HW220493   0.537   0.127   1.751  0.4897  0.6044  0.9227
 3011SOL     OW20494   0.557   3.049   7.857 -0.4834  0.5644  0.3722
 3011SOL    HW120495   0.650   3.029   7.851 -0.8250 -1.5357  2.1554
 3011SOL    HW220496   0.533   3.059   7.949 -0.0599 -1.1604  0.6754
 3012SOL     OW20497   0.894   3.909   9.643 -0.1498 -0.1098  0.3781
 3012SOL    HW120498   0.986   3.884   9.635  0.3381  0.4756  3.8575
 3012SOL    HW220499   0.900   4.004   9.657  3.0359 -0.1694 -0.5465
 3013SOL     OW20500   0.288   2.017   5.142 -0.1583 -0.3147 -0.5135
 3013SOL    HW120501   0.328   1.967   5.213 -2.7866  1.6886  2.3584
 3013SOL    HW220502   0.258   2.099   5.182  1.3818 -0.6257  1.2980
 3014SOL     OW20503   1.137   2.815  16.495  0.7036  0.0638  0.6359
 3014SOL    HW120504   1.228   2.834  16.519  1.0857 -2.0585  0.8958
 3014SOL    HW220505   1.107   2.792  16.583  2.0018  0.3284  1.1550
 3015SOL     OW20506   2.514   1.015  14.677 -0.0377  0.2327  0.3665
 3015SOL    HW120507   2.475   1.099  14.699 -0.1516  0.3381 -0.2329
 3015SOL    HW220508   2.467   0.968  14.746 -1.4186  0.0099 -0.7136
 3016SOL     OW20509   2.033   0.268   4.556  0.3439 -0.2490 -0.2098
 3016SOL    HW120510   1.993   0.352   4.533 -1.5746 -0.1529  3.4832
 3016SOL    HW220511   2.125   0.293   4.565 -0.1162  1.7496 -0.9627
 3017SOL     OW20512   0.406   1.900   4.397  0.5903  0.1970 -0.1101
 3017SOL    HW120513   0.331   1.873   4.450 -2.5142  3.2791 -2.9501
 3017SOL    HW220514   0.372   1.921   4.310  1.0750 -3.0646 -1.0826
 3018SOL     OW20515   3.236   3.145   9.377 -0.1072  0.1769  0.2452
 3018SOL    HW120516   3.148   3.144   9.341 -0.5814  0.9559  1.3705
 3018SOL    HW220517   3.274   3.218   9.329  0.6236 -0.9252 -0.8346
 3019SOL     OW20518   3.979   4.484   6.962 -0.0755  0.0021 -0.3285
 3019SOL    HW120519   3.966   4.576   6.941  3.5559  0.7434  0.7413
 3019SOL    HW220520   4.074   4.470   6.969 -0.0780  0.7453  1.0705
 3020SOL     OW20521   1.244   1.912   4.827  0.4222  0.3810  0.5932
 3020SOL    HW120522   1.258   1.948   4.914 -1.8079 -0.9082  1.4870
 3020SOL    HW220523   1.302   1.836   4.829 -0.6656 -0.4585  0.4765
 3021SOL     OW20524   1.612   2.779  15.526 -0.5282 -0.0700 -0.3524
 3021SOL    HW120525   1.558   2.848  15.487 -1.2044 -1.2991 -1.5808
 3021SOL    HW220526   1.626   2.718  15.453 -1.6972 -2.8088  1.7066
 3022SOL     OW20527   0.457   3.609   5.849 -0.2307  0.2634 -0.2413
 3022SOL    HW120528   0.374   3.561   5.855 -0.1686  0.1684 -0.1374
 3022SOL    HW220529   0.481   3.587   5.939 -1.7092  0.1567  0.1337
 3023SOL     OW20530   4.359   0.143   2.063  0.5581 -0.4676 -0.1906
 3023SOL    HW120531   4.416   0.079   2.020 -0.1458 -1.7671  0.8099
 3023SOL    HW220532   4.327   0.097   2.141 -0.4834  0.1114 -0.2825
 3024SOL     OW20533   2.447   0.508   6.009 -0.2698 -0.3459  0.7681
 3024SOL    HW120534   2.408   0.594   6.027 -1.9448 -0.3473 -2.8011
 3024SOL    HW220535   2.521   0.515   6.070 -0.0177 -1.9231  0.6365
 3025SOL     OW20536   2.058   0.536   2.213  0.8225 -0.4320 -0.1310
 3025SOL    HW120537   2.114   0.484   2.156  0.6488 -2.9366  1.9705
 3025SOL    HW220538   2.107   0.512   2.291 -0.7388 -0.7935  0.7405
 3026SOL     OW20539   1.286   2.139  16.616 -0.2006 -0.2950  0.5239
 3026SOL    HW120540   1.343   2.130  16.692  0.0720 -0.5899  0.2829
 3026SOL    HW220541   1.206   2.159  16.664 -1.0378 -0.2991 -0.8651
 3027SOL     OW20542   1.724   0.765   7.019 -1.1291  0.4479  0.0403
 3027SOL    HW120543   1.696   0.774   7.110 -0.0730 -2.6638  0.6831
 3027SOL    HW220544   1.648   0.781   6.963  0.6481  0.6312 -2.3107
 3028SOL     OW20545   3.568   2.748   0.754  0.3384 -0.1629  0.2973
 3028SOL    HW120546   3.541   2.809   0.823  0.8156 -0.9535  1.1663
 3028SOL    HW220547   3.508   2.677   0.777  0.1865 -0.5881 -1.4070
 3029SOL     OW20548   2.541   1.752   3.723 -0.2872 -0.5668 -0.2222
 3029SOL    HW120549   2.622   1.751   3.775  0.6623 -1.2718 -1.7203
 3029SOL    HW220550   2.566   1.800   3.644 -1.9717  1.1543  0.2921
 3030SOL     OW20551   3.426   4.330   7.047 -0.3663  0.1213  0.2620
 3030SOL    HW120552   3.384   4.412   7.073 -1.9984 -0.4626 -0.5533
 3030SOL    HW220553   3.387   4.271   7.111 -1.4233 -2.4902 -2.8043
 3031SOL     OW20554   1.460   3.406  13.305 -0.3027 -0.6552  0.3251
 3031SOL    HW120555   1.527   3.368  13.363 -0.9363 -2.9526 -0.4676
 3031SOL    HW220556   1.447   3.488  13.352  1.1508  0.2334 -0.8208
 3032SOL     OW20557   3.190   4.283   2.982  0.2099 -0.3748 -0.0306
 3032SOL    HW120558   3.267   4.318   3.025 -0.0391  0.0603  0.0617
 3032SOL    HW220559   3.221   4.288   2.891  0.1716  0.0144 -0.0201
 3033SOL     OW20560   0.854   4.468   2.844 -0.6269 -0.4928 -0.1377
 3033SOL    HW120561   0.843   4.385   2.799 -0.2132 -0.6364  0.0285
 3033SOL    HW220562   0.905   4.445   2.922  2.2199 -0.3163 -1.9656
 3034SOL     OW20563   0.825   4.011  17.274  0.9167 -0.1858 -0.3021
 3034SOL    HW120564   0.837   3.989  17.181 -0.2304 -3.8340  0.4122
 3034SOL    HW220565   0.890   4.081  17.270 -1.4364  2.1135  1.0173
 3035SOL     OW20566   4.161   2.713   6.552  0.4776 -0.0876  0.0012
 3035SOL    HW120567   4.160   2.680   6.642 -4.0239  0.6390  0.1828
 3035SOL    HW220568   4.115   2.639   6.512 -0.0502  0.0074  0.4320
 3036SOL     OW20569   2.147   3.095  10.319  0.3513 -0.6335 -0.0553
 3036SOL    HW120570   2.137   3.055  10.406 -0.1257 -0.4419 -0.0236
 3036SOL    HW220571   2.062   3.085  10.277  1.6996  2.3142 -3.4430
 3037SOL     OW20572   1.253   0.962   9.464 -0.1205 -0.5367 -0.2570
 3037SOL    HW120573   1.323   0.917   9.512 -0.7730 -0.7623  0.4802
 3037SOL    HW220574   1.306   1.032   9.426 -1.1544 -1.2002 -2.8750
 3038SOL     OW20575   3.999   4.036   4.670 -0.4238  0.4322 -0.3358
 3038SOL    HW120576   3.965   4.002   4.753  0.2613 -1.0682 -0.6767
 3038SOL    HW220577   3.945   3.985   4.609 -0.6692 -1.1067  1.1701
 3039SOL     OW20578   0.269   0.493   0.193  0.5482  0.5582  0.4410
 3039SOL    HW120579   0.282   0.580   0.232 -0.5636  0.5328  0.8732
 3039SOL    HW220580   0.203   0.459   0.254  1.5544  0.1605  1.3211
 3040SOL     OW20581   0.232   1.814   2.023 -0.0776 -0.1496 -0.2144
 3040SOL    HW120582   0.234   1.841   1.931 -0.4087 -0.8489 -0.4212
 3040SOL    HW220583   0.230   1.719   2.013 -0.3936 -0.2522  0.8471
 3041SOL     OW20584   3.228   2.807  10.020 -0.0669  0.2490  0.2112
 3041SOL    HW120585   3.141   2.823  10.057 -0.5142 -0.4657 -0.5481
 3041SOL    HW220586   3.291   2.807  10.093  0.4876 -2.8216 -0.2645
 3042SOL     OW20587   2.599   0.081   7.251 -0.2199  0.0267  0.2058
 3042SOL    HW120588   2.622   0.054   7.162  2.1151  1.6620  0.3364
 3042SOL    HW220589   2.609   4.722   7.298 -1.3883  0.1060  0.5867
 3043SOL     OW20590   0.488   2.197  17.236  0.2177  0.1515 -0.2712
 3043SOL    HW120591   0.544   2.257  17.285  2.8782 -1.7810 -0.9244
 3043SOL    HW220592   0.485   2.238  17.149  2.9053  0.6714 -0.1296
 3044SOL     OW20593   0.690   0.280   2.359 -0.1271  0.0134  0.3855
 3044SOL    HW120594   0.726   0.346   2.418  1.4011 -1.2985  0.9261
 3044SOL    HW220595   0.773   0.233   2.353  0.4796  1.3125 -1.4518
 3045SOL     OW20596   4.270   3.628   8.312 -0.0760  0.2838  0.4138
 3045SOL    HW120597   4.354   3.606   8.351  1.3904  1.3903 -2.1795
 3045SOL    HW220598   4.213   3.614   8.388  1.3372 -1.8245  1.0696
 3046SOL     OW20599   4.250   4.126   4.754  0.0239  0.4553  0.2691
 3046SOL    HW120600   4.313   4.064   4.719  0.1982 -0.1955  1.7371
 3046SOL    HW220601   4.166   4.087   4.730 -0.0541 -0.2098  1.6228
 3047SOL     OW20602   3.242   3.897   7.921  0.7732 -0.2104 -0.3941
 3047SOL    HW120603   3.292   3.837   7.867 -0.9285  0.1050 -2.2951
 3047SOL    HW220604   3.181   3.838   7.966  0.2219  0.4563 -0.2566
 3048SOL     OW20605   4.011   1.945  14.562  0.1578 -0.9295 -0.2055
 3048SOL    HW120606   3.949   1.981  14.500  0.6241 -1.1602 -0.8032
 3048SOL    HW220607   4.086   1.926  14.505  1.7199  0.8881  1.2243
 3049SOL     OW20608   4.539   2.766  12.299  0.2789 -0.5704 -1.0269
 3049SOL    HW120609   4.461   2.820  12.288 -0.5080 -1.2868  1.0477
 3049SOL    HW220610   4.557   2.798  12.387  0.2363 -0.9251 -0.8914
 3050SOL     OW20611   2.392   4.550  15.833  0.3120  0.0819  0.3517
 3050SOL    HW120612   2.397   4.616  15.764  0.8624  1.6445  1.8911
 3050SOL    HW220613   2.309   4.574  15.876  0.7767 -0.5931  1.6248
 3051SOL     OW20614   1.617   3.908   2.929  0.1251  0.0511  0.0821
 3051SOL    HW120615   1.541   3.958   2.957  0.1520 -0.1791  0.5547
 3051SOL    HW220616   1.634   3.866   3.013  0.0049  3.7206  1.9181
 3052SOL     OW20617   3.231   4.160   8.367 -0.1522 -0.1194 -0.0510
 3052SOL    HW120618   3.236   4.072   8.403  0.6324 -0.6092 -1.3451
 3052SOL    HW220619   3.301   4.207   8.413 -0.7362  0.6729  0.0388
 3053SOL     OW20620   0.290   2.541   2.645  0.6128  0.5008 -0.3273
 3053SOL    HW120621   0.255   2.533   2.557 -0.0017  0.5649 -0.0883
 3053SOL    HW220622   0.371   2.490   2.634  0.0960  0.2496 -2.8098
 3054SOL     OW20623   0.856   1.111  14.879  0.0846 -0.1483 -0.2634
 3054SOL    HW120624   0.819   1.023  14.889  2.6716 -1.2730 -0.6082
 3054SOL    HW220625   0.949   1.098  14.893 -0.0263  0.3798  0.9524
 3055SOL     OW20626   0.040   2.563   1.002 -0.2501  0.0847 -0.0887
 3055SOL    HW120627   0.058   2.645   1.048 -0.3569  0.6709 -1.0871
 3055SOL    HW220628   0.021   2.512   1.081 -0.1438 -0.3286 -0.3308
 3056SOL     OW20629   2.901   4.121   2.711 -0.2342  0.6308 -0.1943
 3056SOL    HW120630   2.936   4.066   2.642  1.5668 -0.5750  1.6745
 3056SOL    HW220631   2.963   4.093   2.778  0.8662 -0.2189 -1.5647
 3057SOL     OW20632   0.663   1.332   3.441 -0.0317  0.0468 -0.7689
 3057SOL    HW120633   0.663   1.404   3.378 -0.0279 -0.6710 -1.5865
 3057SOL    HW220634   0.569   1.313   3.440  0.1684 -0.8939 -1.6109
 3058SOL     OW20635   0.585   1.713   7.145 -0.2369 -0.2151  0.0839
 3058SOL    HW120636   0.608   1.704   7.238  2.4405 -0.5691 -0.6169
 3058SOL    HW220637   0.516   1.647   7.144  0.2956 -0.7610 -0.7490
 3059SOL     OW20638   3.787   4.278  10.342  0.0373  0.7594 -0.1014
 3059SOL    HW120639   3.867   4.303  10.296  1.3037 -1.0170  1.1025
 3059SOL    HW220640   3.780   4.183  10.331  1.0171  0.6404  0.2523
 3060SOL     OW20641   1.730   4.344   5.522  0.1853  0.2910 -0.5738
 3060SOL    HW120642   1.743   4.319   5.431  0.2809  1.1356 -0.7927
 3060SOL    HW220643   1.664   4.411   5.503  2.6364  2.7247 -0.5989
 3061SOL     OW20644   2.958   0.775   5.798  0.5474 -0.5837 -0.2414
 3061SOL    HW120645   3.036   0.723   5.818  0.8953  0.5416  1.3284
 3061SOL    HW220646   2.921   0.800   5.883 -1.5268 -0.7503 -1.1028
 3062SOL     OW20647   1.766   1.672  17.462  0.2547  0.7480  0.2851
 3062SOL    HW120648   1.786   1.765  17.446 -2.1480  1.2664  0.2529
 3062SOL    HW220649   1.671   1.674  17.451  0.1719 -3.3451  0.5961
 3063SOL     OW20650   1.412   1.697   4.561  0.1787 -0.1291  0.3363
 3063SOL    HW120651   1.445   1.771   4.511 -0.0658 -0.4199 -0.2539
 3063SOL    HW220652   1.443   1.732   4.644  1.4419 -1.3226  0.3535
 3064SOL     OW20653   0.924   0.939   7.897  0.2169  0.5783  0.3505
 3064SOL    HW120654   0.834   0.937   7.928 -0.1520  1.5629 -0.6836
 3064SOL    HW220655   0.910   1.001   7.826 -0.3642  1.1467  0.9659
 3065SOL     OW20656   4.051   4.014   2.906  0.1919  0.3433 -0.1638
 3065SOL    HW120657   4.147   4.018   2.906  0.3210 -3.0631 -2.1314
 3065SOL    HW220658   4.031   3.999   2.814  1.9706 -1.0910 -0.3282
 3066SOL     OW20659   1.194   3.893   7.364 -0.2068 -0.0892 -0.4484
 3066SOL    HW120660   1.186   3.887   7.459 -1.6744 -3.3577 -0.7977
 3066SOL    HW220661   1.252   3.969   7.353 -1.0126  0.7137  0.8169
 3067SOL     OW20662   2.116   1.999  16.557  0.2647  0.0196  0.0216
 3067SOL    HW120663   2.114   2.071  16.494  0.9555  0.9767  1.0896
 3067SOL    HW220664   2.030   2.008  16.598  0.9375 -3.1944  2.1448
 3068SOL     OW20665   4.310   4.673   5.385 -0.1562  1.2320 -0.0992
 3068SOL    HW120666   4.216   4.685   5.399  0.0502  2.0689  0.5258
 3068SOL    HW220667   4.311   4.597   5.326  1.7883  1.6226 -0.5864
 3069SOL     OW20668   3.227   2.853   3.920  0.2309 -0.1666 -0.1884
 3069SOL    HW120669   3.243   2.899   3.837  0.6590  2.1672  1.1698
 3069SOL    HW220670   3.274   2.771   3.906 -0.7405 -0.2384 -3.0018
 3070SOL     OW20671   2.931   1.126   2.708  0.1829  0.1930 -0.2730
 3070SOL    HW120672   2.896   1.214   2.694  1.6155  0.6810 -0.7671
 3070SOL    HW220673   2.850   1.079   2.690  0.4564 -0.1500 -0.6253
 3071SOL     OW20674   4.236   0.992   0.168 -0.5526 -0.5265  0.1064
 3071SOL    HW120675   4.276   0.907   0.148  1.9470  0.4131  1.1344
 3071SOL    HW220676   4.159   0.994   0.110 -1.3036 -0.4848  1.1178
 3072SOL     OW20677   4.507   2.043   2.256  0.1358  0.1995  0.6101
 3072SOL    HW120678   4.469   1.997   2.330  0.8534  1.3464  1.6980
 3072SOL    HW220679   4.582   1.987   2.237 -0.4221 -0.6334  0.8810
 3073SOL     OW20680   2.855   2.845   6.274  0.5388 -0.0045 -0.0473
 3073SOL    HW120681   2.762   2.850   6.255  0.8557 -1.3547 -1.8503
 3073SOL    HW220682   2.853   2.882   6.363  1.4677  1.7734 -0.7486
 3074SOL     OW20683   1.079   3.430  14.499 -0.1627  0.2280  0.5068
 3074SOL    HW120684   1.010   3.440  14.433  0.0278 -0.8305  0.1479
 3074SOL    HW220685   1.111   3.343  14.474 -0.5044 -0.3024  1.9287
 3075SOL     OW20686   3.266   0.069   7.730  0.4469  0.3459 -0.0581
 3075SOL    HW120687   3.178   0.068   7.766  1.0299  1.5519  1.4228
 3075SOL    HW220688   3.287   4.700   7.735 -0.1242  0.1973 -0.4280
 3076SOL     OW20689   3.116   0.391  16.586 -0.0799 -0.0513  0.9624
 3076SOL    HW120690   3.027   0.379  16.618 -0.8637  1.3451 -0.7484
 3076SOL    HW220691   3.111   0.471  16.533  1.8502  0.4379  1.5089
 3077SOL     OW20692   2.672   3.228   5.739 -0.3224 -0.0749 -0.0439
 3077SOL    HW120693   2.619   3.252   5.663  2.2962  0.9334 -1.5322
 3077SOL    HW220694   2.609   3.226   5.812  1.0630 -2.1715  1.1082
 3078SOL     OW20695   0.471   0.821   8.285 -0.6249 -0.4413  0.1954
 3078SOL    HW120696   0.506   0.874   8.356 -1.4299 -1.4806  1.3660
 3078SOL    HW220697   0.455   0.873   8.206 -0.5273 -0.2666  0.2922
 3079SOL     OW20698   2.121   2.075   5.804  0.3134  0.2590 -0.3854
 3079SOL    HW120699   2.096   2.166   5.787  1.5407  0.7820  0.5649
 3079SOL    HW220700   2.207   2.078   5.762 -0.5848  2.1430 -2.0813
 3080SOL     OW20701   0.204   2.506  10.615  0.4223  0.0542  0.0741
 3080SOL    HW120702   0.211   2.590  10.570  2.4326 -0.5029 -0.6737
 3080SOL    HW220703   0.139   2.510  10.685 -0.8853  1.7617 -1.2216
 3081SOL     OW20704   1.698   4.203   2.584  0.1375  0.0535  0.4362
 3081SOL    HW120705   1.789   4.232   2.583 -0.0089  0.4759 -0.6911
 3081SOL    HW220706   1.702   4.156   2.667  0.7187 -1.1629 -0.2726
 3082SOL     OW20707   3.029   3.904  16.218  0.4143 -0.0673 -0.9374
 3082SOL    HW120708   3.110   3.910  16.167  0.8817 -1.2292 -0.3159
 3082SOL    HW220709   2.954   3.895  16.159 -0.5133 -0.4456  0.3192
 3083SOL     OW20710   3.504   4.020   8.411  0.4086 -0.5128 -0.2099
 3083SOL    HW120711   3.578   4.078   8.429  0.4736 -0.3891 -0.8884
 3083SOL    HW220712   3.488   3.988   8.500  0.5581  0.4253  0.1506
 3084SOL     OW20713   0.650   3.236  13.184  0.5172  0.3332 -0.4588
 3084SOL    HW120714   0.657   3.172  13.113  1.7022 -1.3827  1.1850
 3084SOL    HW220715   0.740   3.267  13.176  0.9548 -1.2327 -1.5547
 3085SOL     OW20716   0.055   3.678   2.634 -0.5476  0.2943 -0.2479
 3085SOL    HW120717   0.067   3.672   2.729  0.6160  0.7521 -0.3644
 3085SOL    HW220718   4.683   3.674   2.631 -0.6093  1.3258  0.1240
 3086SOL     OW20719   2.268   2.973   5.512  0.4939  0.0585 -0.5704
 3086SOL    HW120720   2.246   2.926   5.431  0.3803  0.2219 -0.6334
 3086SOL    HW220721   2.255   2.906   5.579  1.2443  0.3508 -0.1297
 3087SOL     OW20722   4.606   2.866   2.781 -0.1257 -0.0561  0.3029
 3087SOL    HW120723   4.605   2.807   2.706  0.6938 -1.0069  1.0435
 3087SOL    HW220724   4.700   2.882   2.785  0.0973 -1.2962  0.0938
 3088SOL     OW20725   0.007   2.971   3.676  0.0707  0.2208 -0.4467
 3088SOL    HW120726   4.707   3.045   3.621 -0.7590  0.4612  0.2462
 3088SOL    HW220727   0.091   2.947   3.637  0.0415 -0.1061 -0.3104
 3089SOL     OW20728   1.935   3.011   4.800 -0.1187  0.1937  0.0726
 3089SOL    HW120729   1.980   2.928   4.783 -0.7689 -0.2702  0.6335
 3089SOL    HW220730   2.005   3.074   4.782  0.3019  0.5405  3.0503
 3090SOL     OW20731   0.538   2.173   7.786 -0.6398 -0.3118  0.5855
 3090SOL    HW120732   0.505   2.088   7.759  0.6922 -0.0302 -1.8960
 3090SOL    HW220733   0.455   2.221   7.785 -0.2569  0.3305 -0.7770
 3091SOL     OW20734   3.504   2.292   2.830 -0.0030  0.1133  0.5441
 3091SOL    HW120735   3.581   2.321   2.781 -0.0388 -0.8999 -0.1030
 3091SOL    HW220736   3.469   2.374   2.864 -1.1753 -0.4468  0.6716
 3092SOL     OW20737   2.203   1.019   9.964  0.1506  0.4702 -0.6109
 3092SOL    HW120738   2.139   1.025  10.035 -0.1611  0.2677 -0.8748
 3092SOL    HW220739   2.273   1.066  10.010 -0.1029  2.0232 -1.7875
 3093SOL     OW20740   4.229   3.660   7.283  0.6823  0.0919  0.2001
 3093SOL    HW120741   4.318   3.632   7.261 -0.2515 -5.2026  3.1555
 3093SOL    HW220742   4.226   3.744   7.237 -0.4081 -1.0231 -1.7421
 3094SOL     OW20743   1.057   2.537  16.200 -0.2271  0.3114  0.1932
 3094SOL    HW120744   0.996   2.468  16.171  1.1044 -0.4435 -0.7839
 3094SOL    HW220745   1.140   2.512  16.160  0.2103  2.4303 -0.2368
 3095SOL     OW20746   1.456   0.499  10.198  0.1259 -0.4709  0.3821
 3095SOL    HW120747   1.414   0.478  10.114 -0.5238  0.1418  0.5574
 3095SOL    HW220748   1.478   0.592  10.191  0.1370 -0.2319  3.5840
 3096SOL     OW20749   3.586   1.030   9.501  0.2959 -0.3247  0.6129
 3096SOL    HW120750   3.492   1.021   9.485  0.6734  0.4400 -2.0667
 3096SOL    HW220751   3.581   1.061   9.592  1.2396  1.0964  0.1815
 3097SOL     OW20752   3.842   0.151  16.750  0.1817  0.3126  0.3098
 3097SOL    HW120753   3.847   0.233  16.799 -0.8193  0.3620  0.3213
 3097SOL    HW220754   3.873   0.091  16.818 -0.0103  0.2268  0.3222
 3098SOL     OW20755   1.808   4.399   3.475  0.5358  0.5726 -0.2750
 3098SOL    HW120756   1.869   4.450   3.423  0.7171  1.0538  0.3983
 3098SOL    HW220757   1.754   4.348   3.415  1.3733  0.4007 -0.8713
 3099SOL     OW20758   1.408   0.369   6.620 -0.2810 -0.1280 -0.1655
 3099SOL    HW120759   1.330   0.398   6.572 -0.3544 -0.3270 -0.1638
 3099SOL    HW220760   1.376   0.373   6.710  1.2912  0.2329  0.3832
 3100SOL     OW20761   2.286   1.050   7.632  0.5080  0.1183 -0.0696
 3100SOL    HW120762   2.226   1.116   7.594 -0.3980 -0.5213  0.2461
 3100SOL    HW220763   2.286   0.987   7.560 -3.3912 -1.0586  0.9523
 3101SOL     OW20764   1.704   1.855   2.841  0.2836 -0.8987 -0.1363
 3101SOL    HW120765   1.690   1.891   2.929  0.0708  0.1620 -0.6124
 3101SOL    HW220766   1.762   1.923   2.808 -2.3599  1.4429  0.0101
 3102SOL     OW20767   2.363   2.192   6.516  0.2619  0.2887 -0.2601
 3102SOL    HW120768   2.276   2.156   6.499  0.7645 -0.0902 -2.0457
 3102SOL    HW220769   2.398   2.174   6.429 -1.3990  0.4481 -0.9740
 3103SOL     OW20770   2.391   4.539   4.031 -0.1680 -0.0580 -1.0507
 3103SOL    HW120771   2.443   4.461   4.010 -2.2984 -1.2247 -2.0243
 3103SOL    HW220772   2.300   4.512   4.024  0.0758 -1.4191  1.1533
 3104SOL     OW20773   2.772   0.588   1.455 -0.3762  0.1717 -0.6935
 3104SOL    HW120774   2.702   0.653   1.465  0.4503  0.9856 -0.2243
 3104SOL    HW220775   2.715   0.515   1.429 -1.0564  0.2016  0.7320
 3105SOL     OW20776   1.810   3.555  13.503  0.8909  0.1079  0.1332
 3105SOL    HW120777   1.844   3.474  13.464 -3.0271 -1.0010 -1.0083
 3105SOL    HW220778   1.735   3.524  13.554 -1.0746  1.7225 -1.8215
 3106SOL     OW20779   1.795   3.605   4.217  0.1041  0.5523  0.3959
 3106SOL    HW120780   1.700   3.593   4.215  0.3282 -1.1781  0.0391
 3106SOL    HW220781   1.814   3.641   4.130  0.2761  1.0755  0.6514
 3107SOL     OW20782   3.053   4.493  12.291 -0.2279  0.0385 -0.0771
 3107SOL    HW120783   3.010   4.534  12.215  1.5627 -0.5016 -1.3738
 3107SOL    HW220784   3.017   4.406  12.275 -0.6170  0.1376  0.2642
 3108SOL     OW20785   4.195   2.703   4.030  0.7186 -0.1957  0.2408
 3108SOL    HW120786   4.105   2.712   4.063  0.9914  1.3887  0.5358
 3108SOL    HW220787   4.236   2.677   4.113  0.1680 -1.0358  0.2574
 3109SOL     OW20788   0.552   1.345  15.280  0.1431 -0.1714  0.1994
 3109SOL    HW120789   0.568   1.253  15.262  0.0949 -0.6891  2.8169
 3109SOL    HW220790   0.545   1.384  15.193 -1.3192 -2.1557 -0.5667
 3110SOL     OW20791   4.058   4.021   8.150  0.2616 -0.1514 -0.3075
 3110SOL    HW120792   4.117   4.096   8.140  2.3305 -1.6500  0.6978
 3110SOL    HW220793   4.098   3.965   8.083  0.9170  0.4217 -0.3930
 3111SOL     OW20794   1.409   0.348  13.371 -0.5885 -0.4186 -0.2919
 3111SOL    HW120795   1.321   0.342  13.335 -1.0308  0.8236  0.5800
 3111SOL    HW220796   1.402   0.327  13.464  1.0620  0.6812  0.0800
 3112SOL     OW20797   1.689   2.056  11.639  0.0310 -0.1937 -0.3055
 3112SOL    HW120798   1.676   2.111  11.562 -0.5645 -0.7683 -0.6075
 3112SOL    HW220799   1.603   2.036  11.674 -0.2087 -1.2244 -1.4819
 3113SOL     OW20800   1.088   2.733   1.003 -0.0218  0.1363  0.3724
 3113SOL    HW120801   1.128   2.649   0.978 -0.4981 -0.6012  2.0735
 3113SOL    HW220802   1.163   2.786   1.030 -0.0556 -0.1467  1.0432
 3114SOL     OW20803   3.573   4.432   5.967  0.2101 -0.0217 -0.3737
 3114SOL    HW120804   3.561   4.509   6.023 -0.5805 -0.0067 -0.5695
 3114SOL    HW220805   3.606   4.480   5.891  2.6907  1.7204  1.8055
 3115SOL     OW20806   3.758   1.068  17.482  0.0383  0.4465 -0.0777
 3115SOL    HW120807   3.760   1.138  17.417  0.5045  0.6711  0.1763
 3115SOL    HW220808   3.798   1.114  17.556  1.3253 -1.2627  0.2760
 3116SOL     OW20809   3.031   3.284  16.364 -0.2501 -0.5498  0.0373
 3116SOL    HW120810   3.099   3.216  16.369 -1.0775 -1.4669 -1.2632
 3116SOL    HW220811   3.086   3.363  16.364  0.0653 -0.7530 -5.0381
 3117SOL     OW20812   1.081   0.253   4.352 -0.6258 -0.4656  0.4886
 3117SOL    HW120813   1.114   0.188   4.290  0.5269  0.2939  0.3071
 3117SOL    HW220814   1.157   0.310   4.361  0.6997 -1.8927 -1.7463
 3118SOL     OW20815   3.984   3.621  12.733 -0.2087  0.0209  0.5447
 3118SOL    HW120816   3.914   3.570  12.693 -2.7457  2.3025  2.0423
 3118SOL    HW220817   3.995   3.575  12.816 -2.9285 -0.5820  0.5840
 3119SOL     OW20818   1.829   2.318  12.798  0.1492 -0.3552 -0.3290
 3119SOL    HW120819   1.925   2.325  12.804  0.2249 -1.9339  0.3935
 3119SOL    HW220820   1.815   2.239  12.850  0.3160  0.6909  1.3117
 3120SOL     OW20821   2.175   0.400   3.411 -0.0921 -0.1508  0.3961
 3120SOL    HW120822   2.230   0.347   3.353  1.6518  0.2648  1.6996
 3120SOL    HW220823   2.110   0.333   3.435 -0.6770 -0.1539 -1.1992
 3121SOL     OW20824   0.497   1.281   6.239  0.0872  0.6565 -0.4024
 3121SOL    HW120825   0.432   1.214   6.218  0.0396  1.7727 -3.7874
 3121SOL    HW220826   0.496   1.258   6.332  1.5289  0.9528 -0.3070
 3122SOL     OW20827   2.259   1.321  11.736 -0.0949  0.0614  0.6317
 3122SOL    HW120828   2.313   1.335  11.658  0.1351 -0.1858  0.7482
 3122SOL    HW220829   2.307   1.372  11.801  0.5175  0.2673  0.0151
 3123SOL     OW20830   4.406   3.193   1.307 -0.0478  0.4795  0.0859
 3123SOL    HW120831   4.384   3.100   1.303  0.3610  0.4165 -0.8289
 3123SOL    HW220832   4.324   3.242   1.304 -0.6466 -0.6682 -2.3719
 3124SOL     OW20833   3.448   2.781   7.236  0.2712  1.2902  0.2289
 3124SOL    HW120834   3.401   2.828   7.168 -0.9130  0.9529  0.8185
 3124SOL    HW220835   3.393   2.703   7.245 -1.4366  2.2322 -2.1176
 3125SOL     OW20836   3.885   2.854  16.658  0.0875 -0.1546 -0.4084
 3125SOL    HW120837   3.832   2.931  16.639 -0.9610 -0.5047  1.0991
 3125SOL    HW220838   3.944   2.882  16.728 -0.1129  1.3994 -0.8650
 3126SOL     OW20839   1.913   1.370   6.309 -0.1475  0.0874  0.0271
 3126SOL    HW120840   1.864   1.315   6.247  0.0985 -1.5272  1.2861
 3126SOL    HW220841   2.005   1.358   6.286 -0.4781  1.0771 -1.8599
 3127SOL     OW20842   1.301   3.679  12.943  0.2126  0.1731 -0.0681
 3127SOL    HW120843   1.380   3.704  12.990  0.4215  1.2013 -0.9757
 3127SOL    HW220844   1.236   3.683  13.013 -1.0620 -0.3553 -1.2171
 3128SOL     OW20845   3.150   2.749   7.535 -0.1508  0.0760  0.3327
 3128SOL    HW120846   3.064   2.710   7.553  0.2549 -1.0358 -0.1618
 3128SOL    HW220847   3.151   2.750   7.439  2.9834 -0.1131  0.3813
 3129SOL     OW20848   3.145   1.270   1.623  0.3571 -0.3293 -0.7169
 3129SOL    HW120849   3.141   1.194   1.566 -1.7716  1.5282 -3.0248
 3129SOL    HW220850   3.223   1.259   1.678 -0.6575  4.9928  1.8297
 3130SOL     OW20851   3.257   3.835  15.924 -0.8805  0.4557 -0.2220
 3130SOL    HW120852   3.266   3.840  15.829  1.7684  0.1682  0.0084
 3130SOL    HW220853   3.212   3.917  15.944 -2.6475 -0.0288 -2.1541
 3131SOL     OW20854   0.565   0.643   2.518 -0.1877 -0.3341  0.6907
 3131SOL    HW120855   0.654   0.611   2.501 -0.6385 -1.5549  0.6319
 3131SOL    HW220856   0.515   0.605   2.446  0.5214  0.8323 -0.4044
 3132SOL     OW20857   4.200   2.179   7.571  0.0304 -0.4040  0.0795
 3132SOL    HW120858   4.171   2.106   7.626 -2.4324  2.2171  2.1920
 3132SOL    HW220859   4.133   2.246   7.584  0.7607  0.5975 -1.3701
 3133SOL     OW20860   3.244   2.307  13.230 -0.2327  0.3391  0.3595
 3133SOL    HW120861   3.334   2.289  13.204 -0.0042  3.3689 -0.9718
 3133SOL    HW220862   3.215   2.318  13.140  1.4470 -1.1590 -0.3565
 3134SOL     OW20863   4.089   4.616   2.464 -0.1936 -0.1831 -0.9337
 3134SOL    HW120864   4.148   4.541   2.471 -0.0043  0.0634  0.1087
 3134SOL    HW220865   4.060   4.612   2.555 -0.5834  1.4862 -0.9796
 3135SOL     OW20866   0.625   2.588  17.511 -0.2364  0.1263 -0.0418
 3135SOL    HW120867   0.531   2.583  17.492  0.0402 -2.3333 -0.7667
 3135SOL    HW220868   0.662   2.514  17.463  0.5763 -0.8672  2.0962
 3136SOL     OW20869   4.494   3.416   9.070  0.6240 -0.5285  0.1872
 3136SOL    HW120870   4.413   3.364   9.064  0.3773  0.0018 -1.2035
 3136SOL    HW220871   4.532   3.386   8.987  0.6793  1.8604 -0.6483
 3137SOL     OW20872   3.703   0.216   7.509  0.3011  0.1988  0.0774
 3137SOL    HW120873   3.685   0.134   7.556  2.3398 -1.1892 -1.5762
 3137SOL    HW220874   3.791   0.220   7.546  0.6225  0.7761 -0.7703
 3138SOL     OW20875   3.257   0.593  15.111  0.0688 -0.0030  0.2969
 3138SOL    HW120876   3.183   0.546  15.151 -0.1299 -0.5985 -0.7875
 3138SOL    HW220877   3.219   0.678  15.091  1.3835  0.3101 -0.8919
 3139SOL     OW20878   3.781   0.816  17.340  0.4874 -0.1197 -0.3086
 3139SOL    HW120879   3.781   0.881  17.410 -0.5992 -0.9940  0.5148
 3139SOL    HW220880   3.868   0.816  17.301  0.1497  0.6918 -1.0571
 3140SOL     OW20881   2.131   3.189   4.746 -0.4035 -0.2587 -0.2337
 3140SOL    HW120882   2.217   3.149   4.752 -0.0225  0.5984 -0.0293
 3140SOL    HW220883   2.115   3.182   4.651 -0.8984  0.6391 -0.2150
 3141SOL     OW20884   1.438   0.562   8.419 -0.1003 -0.3372  0.1657
 3141SOL    HW120885   1.524   0.543   8.457 -1.0387 -3.8663  0.5395
 3141SOL    HW220886   1.389   0.479   8.415 -2.5318  1.0866  0.3565
 3142SOL     OW20887   0.169   1.405  12.938  0.0559 -0.1099 -0.0578
 3142SOL    HW120888   0.114   1.331  12.913 -1.5691  0.8461  0.6719
 3142SOL    HW220889   0.119   1.483  12.913  0.4506  0.3985  0.7218
 3143SOL     OW20890   3.390   3.163   4.519  0.3017  0.5565  0.1256
 3143SOL    HW120891   3.401   3.218   4.441  3.3200  0.9728  0.8578
 3143SOL    HW220892   3.330   3.223   4.564  1.6070  1.5002  0.6139
 3144SOL     OW20893   1.936   0.023   4.920 -0.0033 -0.1884 -0.5995
 3144SOL    HW120894   1.877   0.053   4.990 -0.1704  1.7873 -1.5870
 3144SOL    HW220895   1.916   4.656   4.942 -0.1967 -0.0198 -0.0869
 3145SOL     OW20896   3.213   0.695  11.046 -0.5302  0.5725 -0.3026
 3145SOL    HW120897   3.183   0.760  11.109  0.2460 -0.2443  0.9072
 3145SOL    HW220898   3.179   0.617  11.088 -1.9127  1.1676 -0.3101
 3146SOL     OW20899   0.328   4.198   5.494 -0.1615  0.2857 -0.3353
 3146SOL    HW120900   0.239   4.181   5.464 -0.1288  0.0958 -0.3286
 3146SOL    HW220901   0.328   4.146   5.574  0.9040  0.6220 -0.1128
 3147SOL     OW20902   1.684   4.150   2.297  0.1657 -0.4490  0.0255
 3147SOL    HW120903   1.682   4.184   2.387 -2.4484  1.3693 -0.7311
 3147SOL    HW220904   1.760   4.194   2.258 -0.0018 -1.0212 -0.9464
 3148SOL     OW20905   0.666   2.765   7.624  0.1439 -0.0433  0.2057
 3148SOL    HW120906   0.599   2.790   7.561  1.3644  0.1970 -1.0177
 3148SOL    HW220907   0.729   2.719   7.568 -0.4541 -0.0960 -0.4087
 3149SOL     OW20908   3.719   2.383   5.809 -0.0974  0.1948 -0.4814
 3149SOL    HW120909   3.652   2.418   5.868 -1.6476 -2.6862 -0.5255
 3149SOL    HW220910   3.761   2.319   5.865 -3.0697 -0.8247  0.5987
 3150SOL     OW20911   0.475   0.937   0.807 -0.0601  0.8278  0.4370
 3150SOL    HW120912   0.437   1.025   0.806 -1.5175  0.1769 -0.9092
 3150SOL    HW220913   0.408   0.876   0.836 -0.1277  0.4824 -0.4456
 3151SOL     OW20914   0.095   4.284   4.311 -0.0183 -0.4843  0.7917
 3151SOL    HW120915   0.105   4.321   4.223 -2.3823 -1.7113  0.0307
 3151SOL    HW220916   0.013   4.322   4.343 -0.5908 -1.9204  0.9943
 3152SOL     OW20917   2.145   1.843   2.418 -0.0491 -0.1934 -0.8955
 3152SOL    HW120918   2.092   1.776   2.375 -1.2623 -1.1380  2.0351
 3152SOL    HW220919   2.088   1.880   2.486 -1.4415  0.3415 -2.3620
 3153SOL     OW20920   2.706   2.616   9.302  0.2206 -0.4953 -0.1793
 3153SOL    HW120921   2.634   2.585   9.248  0.9258  0.0551 -1.4234
 3153SOL    HW220922   2.709   2.711   9.285 -0.1295 -0.3233  0.7145
 3154SOL     OW20923   4.135   0.621  16.775  0.0175  0.0718 -0.1916
 3154SOL    HW120924   4.070   0.648  16.710 -2.5303 -1.3466  1.7945
 3154SOL    HW220925   4.214   0.619  16.721  0.5221 -0.3945  0.5603
 3155SOL     OW20926   1.225   2.246   9.296  0.2216  0.2078  0.3273
 3155SOL    HW120927   1.273   2.263   9.214 -2.5110  2.5318 -0.7898
 3155SOL    HW220928   1.246   2.153   9.299  1.2542  0.4134 -0.3729
 3156SOL     OW20929   1.709   0.769  14.943 -0.1688  0.5088  0.2555
 3156SOL    HW120930   1.795   0.744  14.978 -0.5902 -0.4148  0.6297
 3156SOL    HW220931   1.708   0.862  14.921  0.1050  0.1337 -1.3310
 3157SOL     OW20932   1.346   1.414   9.857 -0.0343 -0.3788  0.0294
 3157SOL    HW120933   1.437   1.385   9.848 -0.0809 -0.8417  1.1099
 3157SOL    HW220934   1.304   1.389   9.774 -0.1118  1.7821 -0.5913
 3158SOL     OW20935   2.694   3.923   1.048  0.1706 -0.0057  0.2245
 3158SOL    HW120936   2.742   3.855   1.095  0.6963 -0.3213 -0.7502
 3158SOL    HW220937   2.753   3.938   0.973  0.0896 -0.6764  0.0205
 3159SOL     OW20938   1.693   3.011   7.507  0.2215 -0.1715 -0.4158
 3159SOL    HW120939   1.680   2.926   7.465  0.3324 -1.2619  1.7197
 3159SOL    HW220940   1.695   3.061   7.426  1.3119  1.9040  0.9052
 3160SOL     OW20941   0.657   0.956   6.337  0.2098  0.6568 -0.2144
 3160SOL    HW120942   0.729   0.953   6.274 -0.8320  2.5221 -1.4821
 3160SOL    HW220943   0.596   0.889   6.307  1.5865 -1.3023  1.3592
 3161SOL     OW20944   2.599   1.251   3.419 -0.4016 -0.4749  0.0914
 3161SOL    HW120945   2.622   1.295   3.501  1.3952  0.7345 -1.0655
 3161SOL    HW220946   2.592   1.163   3.455 -1.3184 -0.7291 -0.7173
 3162SOL     OW20947   1.773   3.932   4.252  0.0366 -0.0787  0.2088
 3162SOL    HW120948   1.713   3.863   4.223  0.8059 -1.2322  1.3789
 3162SOL    HW220949   1.730   4.004   4.205 -0.6343  0.0987  1.0786
 3163SOL     OW20950   2.832   1.242   7.108  0.0019 -0.1857 -0.6342
 3163SOL    HW120951   2.838   1.337   7.102 -0.6445  0.0365  2.3554
 3163SOL    HW220952   2.738   1.235   7.126  0.2624 -0.0367  0.8051
 3164SOL     OW20953   1.757   3.919   8.534  0.2617  0.1892  0.0618
 3164SOL    HW120954   1.786   3.831   8.510 -2.9074 -0.8377 -0.0836
 3164SOL    HW220955   1.765   3.909   8.629 -2.3260  0.7460  0.3509
 3165SOL     OW20956   3.231   1.503   4.503 -0.0461  0.0117 -0.4219
 3165SOL    HW120957   3.209   1.426   4.556 -0.9577  0.1000 -0.6779
 3165SOL    HW220958   3.318   1.533   4.528  0.5838 -1.0352 -1.3290
 3166SOL     OW20959   1.169   1.442   9.402 -0.5578  0.5485  0.4277
 3166SOL    HW120960   1.088   1.391   9.396  0.5043 -0.8265 -1.9512
 3166SOL    HW220961   1.155   1.493   9.322  1.3071  2.1663  1.1192
 3167SOL     OW20962   1.231   1.581   6.884  0.1734  0.1111  0.0796
 3167SOL    HW120963   1.269   1.567   6.971  0.2878 -2.3199 -0.3676
 3167SOL    HW220964   1.183   1.501   6.863 -1.3186  1.2357 -0.7266
 3168SOL     OW20965   1.420   1.413   5.432  0.1789  0.2706  0.5718
 3168SOL    HW120966   1.373   1.377   5.357  1.9091 -0.1813 -0.2940
 3168SOL    HW220967   1.343   1.439   5.482 -0.8413  0.3953 -1.0944
 3169SOL     OW20968   3.143   3.568   4.424  0.6084 -0.1576 -0.1950
 3169SOL    HW120969   3.052   3.540   4.420  0.3381  0.4533  1.7490
 3169SOL    HW220970   3.188   3.519   4.355 -1.3868 -0.3432 -1.3408
 3170SOL     OW20971   0.494   3.792   8.080  0.4512 -0.7847  0.3979
 3170SOL    HW120972   0.572   3.791   8.024 -1.1585 -3.8902 -1.7513
 3170SOL    HW220973   0.426   3.825   8.022  0.1660 -0.6489  0.8067
 3171SOL     OW20974   3.864   2.314   6.618  0.3198  0.1286 -0.0389
 3171SOL    HW120975   3.807   2.243   6.589 -1.1928  1.7773 -1.1166
 3171SOL    HW220976   3.798   2.374   6.652  1.4636  1.2860  0.1420
 3172SOL     OW20977   1.702   3.233   2.477 -0.7289 -0.1276 -0.7939
 3172SOL    HW120978   1.733   3.165   2.538 -1.1076  1.0655  0.7296
 3172SOL    HW220979   1.709   3.310   2.534 -1.1080 -0.0603 -0.8351
 3173SOL     OW20980   3.767   1.635  15.145 -0.3980 -0.2143 -0.1829
 3173SOL    HW120981   3.768   1.730  15.162  0.4201 -0.1259 -0.7217
 3173SOL    HW220982   3.739   1.618  15.056 -0.6463 -0.7938  0.0060
 3174SOL     OW20983   1.349   1.211   9.118 -0.8279 -0.6130  0.2736
 3174SOL    HW120984   1.369   1.131   9.069 -1.1278 -1.2171  1.1299
 3174SOL    HW220985   1.341   1.271   9.044  0.6511 -0.2268  0.4237
 3175SOL     OW20986   0.969   0.517   1.869  0.1275  0.3611  0.8156
 3175SOL    HW120987   0.986   0.434   1.914  1.1631  0.0800 -0.0995
 3175SOL    HW220988   1.054   0.563   1.867  1.6892 -2.5720 -0.7727
 3176SOL     OW20989   3.025   3.951   2.518  0.7070 -0.4539 -0.5949
 3176SOL    HW120990   3.025   4.007   2.441  1.7435 -0.0803 -0.3252
 3176SOL    HW220991   2.951   3.892   2.501  0.2458  0.5082 -1.8829
 3177SOL     OW20992   1.673   3.967   9.011 -0.4762  0.0901 -0.3901
 3177SOL    HW120993   1.765   3.965   8.985  0.5040  1.7809  2.9206
 3177SOL    HW220994   1.687   4.003   9.098  2.6051 -1.1219 -0.3976
 3178SOL     OW20995   3.153   4.414  13.467 -0.4740  0.8137  0.0031
 3178SOL    HW120996   3.104   4.348  13.418  1.5950 -0.4032 -0.4614
 3178SOL    HW220997   3.090   4.473  13.508  0.8376  2.0731  0.2213
 3179SOL     OW20998   3.395   2.933   8.815  0.7263  0.7092 -0.0583
 3179SOL    HW120999   3.384   2.847   8.857  2.7480  0.5978  0.2819
 3179SOL    HW221000   3.307   2.963   8.795  1.9042  2.0820 -3.1800
 3180SOL     OW21001   2.563   1.130  13.404  0.0361 -0.5019  0.7298
 3180SOL    HW121002   2.571   1.060  13.339  0.4897  1.1016 -0.9394
 3180SOL    HW221003   2.609   1.206  13.370  1.4035 -1.6908 -0.0844
 3181SOL     OW21004   3.313   0.266   2.786  0.5706 -0.0331  0.3110
 3181SOL    HW121005   3.359   0.182   2.787  2.5418  1.0524  1.0737
 3181SOL    HW221006   3.352   0.312   2.711 -0.3081  0.1203 -0.0523
 3182SOL     OW21007   1.239   4.099   8.860  0.9217  0.2228  0.1826
 3182SOL    HW121008   1.258   4.103   8.766 -1.6600  2.1410 -0.2767
 3182SOL    HW221009   1.211   4.190   8.873  0.1677  0.0273 -0.0371
 3183SOL     OW21010   3.954   4.190  12.447 -0.4034  0.2543  0.3777
 3183SOL    HW121011   4.000   4.273  12.460 -0.5793  0.7052 -1.9630
 3183SOL    HW221012   4.032   4.138  12.427 -0.1947  0.6105  0.2659
 3184SOL     OW21013   0.756   3.966   8.242  0.1078  0.4417 -0.3447
 3184SOL    HW121014   0.821   3.951   8.173  0.0769  1.2492 -0.5606
 3184SOL    HW221015   0.751   3.879   8.280 -0.2800 -0.2229 -1.9464
 3185SOL     OW21016   3.861   4.694   3.965 -0.1455  0.8633 -0.4058
 3185SOL    HW121017   3.768   4.682   3.944 -0.6517  1.2189  1.6295
 3185SOL    HW221018   3.904   4.678   3.881 -1.8061 -0.2005 -1.0644
 3186SOL     OW21019   1.973   1.581   1.876 -0.1061 -1.0336  0.5899
 3186SOL    HW121020   1.884   1.593   1.909 -1.4669  0.1151 -3.5313
 3186SOL    HW221021   1.975   1.486   1.860 -0.6762 -0.7981 -0.8524
 3187SOL     OW21022   2.132   2.231   9.047 -0.3895 -0.6062  0.6780
 3187SOL    HW121023   2.128   2.136   9.058  0.0526 -0.7100 -0.1131
 3187SOL    HW221024   2.225   2.250   9.040  0.2029 -3.8337 -0.2033
 3188SOL     OW21025   2.420   4.374   8.103 -0.8152 -0.6152 -0.9426
 3188SOL    HW121026   2.408   4.343   8.193 -0.7262 -0.7852 -0.9887
 3188SOL    HW221027   2.420   4.289   8.057  0.8880 -0.4805 -1.1853
 3189SOL     OW21028   0.825   0.315   4.375 -0.8663  0.4814  0.1869
 3189SOL    HW121029   0.798   0.315   4.283  1.4196  1.2889 -0.4847
 3189SOL    HW221030   0.918   0.296   4.362 -0.9789  0.0769 -0.0530
 3190SOL     OW21031   0.165   4.663   7.105  0.8460 -0.1026 -0.0784
 3190SOL    HW121032   0.190   4.620   7.023 -0.1261  3.4676 -2.2459
 3190SOL    HW221033   0.227   4.627   7.169 -0.9499 -1.6924  0.7371
 3191SOL     OW21034   1.987   3.865   2.731 -0.5365  0.0947 -0.1954
 3191SOL    HW121035   2.044   3.790   2.718 -1.2308 -0.3000 -0.9926
 3191SOL    HW221036   1.904   3.825   2.759  1.5582 -3.7892  0.4530
 3192SOL     OW21037   1.041   1.939   7.129 -0.3405  0.6069  0.8592
 3192SOL    HW121038   0.994   2.008   7.175  0.7727  1.2302  1.0752
 3192SOL    HW221039   1.065   1.874   7.194  2.7802  0.3942 -0.4546
 3193SOL     OW21040   4.329   3.656  13.153  0.0047 -0.5785 -0.2430
 3193SOL    HW121041   4.318   3.574  13.200 -1.9318  0.0290  0.3565
 3193SOL    HW221042   4.273   3.713  13.206 -1.4477 -0.2170 -2.1812
 3194SOL     OW21043   3.229   1.653   0.601 -0.0360 -0.0315 -0.7028
 3194SOL    HW121044   3.196   1.691   0.520 -2.1131 -0.5120 -0.0837
 3194SOL    HW221045   3.296   1.713   0.633 -1.7464  0.1547  2.4751
 3195SOL     OW21046   3.647   2.569   4.887 -0.1837  0.3045  0.7292
 3195SOL    HW121047   3.720   2.587   4.946  1.2756  0.1330 -1.0111
 3195SOL    HW221048   3.620   2.656   4.859 -0.3198 -0.1268 -0.5167
 3196SOL     OW21049   1.092   3.364   3.993  0.1290  0.0112  0.0248
 3196SOL    HW121050   1.106   3.456   4.017  2.0477  0.2044 -1.8857
 3196SOL    HW221051   1.175   3.337   3.954  0.5107  1.5829 -0.2254
 3197SOL     OW21052   2.898   4.218   9.198  0.0015  0.0759 -0.7019
 3197SOL    HW121053   2.841   4.147   9.228 -2.2826  2.4630  0.6274
 3197SOL    HW221054   2.879   4.285   9.263  2.6162 -0.0556  0.1973
 3198SOL     OW21055   2.283   1.700   6.525 -0.2263 -0.1529 -0.1010
 3198SOL    HW121056   2.216   1.699   6.593  0.3885  1.0335  0.5224
 3198SOL    HW221057   2.340   1.627   6.551  0.1449 -0.5443 -2.0321
 3199SOL     OW21058   1.210   1.048  11.210 -0.6995 -0.3296  0.1830
 3199SOL    HW121059   1.212   0.956  11.182 -0.0659 -0.4804  0.7272
 3199SOL    HW221060   1.210   1.088  11.123  0.3758  1.3438  0.9513
 3200SOL     OW21061   2.979   3.134  10.193 -0.7189  0.6652  0.2730
 3200SOL    HW121062   3.001   3.147  10.285 -1.4458  0.5355  0.4716
 3200SOL    HW221063   2.990   3.041  10.173  1.2833  1.1024 -0.6559
 3201SOL     OW21064   1.490   0.754   6.096  0.5091  0.1549 -0.0609
 3201SOL    HW121065   1.538   0.697   6.156  1.3492  1.0675  0.1397
 3201SOL    HW221066   1.507   0.723   6.007 -1.4290 -1.7687  0.2517
 3202SOL     OW21067   1.325   0.308   8.436 -0.4322  0.1514 -0.6496
 3202SOL    HW121068   1.290   0.235   8.385  0.2400 -1.0264  0.5889
 3202SOL    HW221069   1.278   0.290   8.518 -1.0278 -2.5068 -1.5702
 3203SOL     OW21070   2.881   3.840   5.672 -0.5543  0.6752  0.1380
 3203SOL    HW121071   2.862   3.832   5.765 -0.0755 -0.1224  0.1717
 3203SOL    HW221072   2.808   3.898   5.654 -0.9206  0.1504 -0.0645
 3204SOL     OW21073   3.846   2.037   2.791  0.2361  0.4534  0.4959
 3204SOL    HW121074   3.884   2.076   2.870  1.6927  0.0326 -0.0196
 3204SOL    HW221075   3.919   1.992   2.750 -0.2333 -0.0598  0.2265
 3205SOL     OW21076   0.985   0.155   3.301  0.8547  0.0851  0.2004
 3205SOL    HW121077   1.051   0.220   3.326  0.3248  0.2548  1.1923
 3205SOL    HW221078   1.012   0.086   3.361  1.3168 -0.2260 -0.3671
 3206SOL     OW21079   0.407   2.886  11.853 -0.2596  0.0804  0.1288
 3206SOL    HW121080   0.334   2.829  11.831 -0.3180  0.6760 -1.2038
 3206SOL    HW221081   0.473   2.856  11.790  0.5345  1.5831  0.2302
 3207SOL     OW21082   3.252   4.071   7.670 -0.2762  0.2007  0.7181
 3207SOL    HW121083   3.278   4.030   7.753  0.9017 -0.5916 -0.0317
 3207SOL    HW221084   3.241   4.163   7.693  1.7799  0.2036  1.7710
 3208SOL     OW21085   2.612   3.124   6.232 -0.5064  0.0826  0.2555
 3208SOL    HW121086   2.609   3.194   6.167 -0.9999 -1.3658 -1.2991
 3208SOL    HW221087   2.585   3.047   6.182 -0.1719  0.4615 -0.5081
 3209SOL     OW21088   1.834   4.460   0.926 -0.1330  0.2109 -0.0985
 3209SOL    HW121089   1.881   4.539   0.952 -0.1352  0.5177 -1.0125
 3209SOL    HW221090   1.902   4.397   0.947  0.8855  1.3658  0.0471
 3210SOL     OW21091   2.513   1.449   3.178  0.5201  0.1022 -0.0354
 3210SOL    HW121092   2.586   1.387   3.187 -1.2725 -1.4873  3.9731
 3210SOL    HW221093   2.458   1.422   3.252 -1.5634  0.1249 -1.5561
 3211SOL     OW21094   2.543   2.523   5.409 -0.3468  0.4591 -0.1225
 3211SOL    HW121095   2.554   2.430   5.431 -0.1060  1.0222  2.0962
 3211SOL    HW221096   2.457   2.514   5.368  0.7972 -1.4749 -2.0787
 3212SOL     OW21097   4.344   2.202   8.550 -0.8388  0.4261 -0.3786
 3212SOL    HW121098   4.375   2.212   8.460  2.0030  1.1802  0.6876
 3212SOL    HW221099   4.378   2.285   8.583 -0.5464 -0.0647  0.5542
 3213SOL     OW21100   3.692   1.481  13.708 -0.3439  0.0170  0.1800
 3213SOL    HW121101   3.664   1.469  13.799 -3.3935 -1.1942 -0.8959
 3213SOL    HW221102   3.619   1.515  13.657 -0.7905  0.0506  0.8354
 3214SOL     OW21103   4.088   2.049   4.504 -0.1090 -0.3160 -0.0011
 3214SOL    HW121104   4.140   1.982   4.550  0.2123  0.6985  1.1023
 3214SOL    HW221105   4.077   2.011   4.417  0.1901  1.6824 -0.8955
 3215SOL     OW21106   4.646   1.300   2.741  0.3277  0.0576 -0.2327
 3215SOL    HW121107   4.629   1.303   2.647 -0.4013  1.8311 -0.0489
 3215SOL    HW221108   4.642   1.394   2.761  1.1003 -0.3241  1.7693
 3216SOL     OW21109   2.490   0.945   0.344  0.2834 -0.2929 -0.6664
 3216SOL    HW121110   2.420   0.905   0.396  1.9187 -0.9071  1.0580
 3216SOL    HW221111   2.469   1.037   0.330  0.1464  0.1305  2.2539
 3217SOL     OW21112   2.750   3.118   0.190 -0.2929  0.4333 -0.2739
 3217SOL    HW121113   2.806   3.196   0.198 -1.2147  1.3432 -2.5830
 3217SOL    HW221114   2.825   3.061   0.171 -2.9185 -3.0969  0.0105
 3218SOL     OW21115   4.104   3.163   4.905  0.1241 -0.2775  0.7143
 3218SOL    HW121116   4.086   3.113   4.985  0.4173 -0.2077  0.8219
 3218SOL    HW221117   4.109   3.091   4.842 -0.7403  0.1003  0.2151
 3219SOL     OW21118   2.680   2.570   6.505 -0.6765  0.0058 -0.7816
 3219SOL    HW121119   2.705   2.493   6.455 -2.2286 -1.9863  1.5088
 3219SOL    HW221120   2.758   2.625   6.504 -1.9332  1.7712 -2.0281
 3220SOL     OW21121   4.115   1.910  17.366  0.1517  0.9821 -0.8955
 3220SOL    HW121122   4.050   1.923  17.435 -2.0352 -1.1712 -2.5819
 3220SOL    HW221123   4.076   1.830  17.332  2.2905 -0.8440  0.9433
 3221SOL     OW21124   3.943   4.071  10.235  0.8417 -0.0423 -0.1120
 3221SOL    HW121125   3.965   4.159  10.265 -0.8450 -0.5190  2.4954
 3221SOL    HW221126   3.966   4.072  10.142  2.4871 -0.3619  0.2997
 3222SOL     OW21127   1.455   4.570  14.148 -0.5094 -0.3511  0.6781
 3222SOL    HW121128   1.439   4.609  14.234  3.5829 -0.5993  1.5640
 3222SOL    HW221129   1.400   4.612  14.082 -1.5358 -0.7744  1.2708
 3223SOL     OW21130   2.921   0.528   1.216  0.2637  0.2556  0.4082
 3223SOL    HW121131   2.888   0.566   1.298  1.8705  1.6920  0.3885
 3223SOL    HW221132   3.003   0.576   1.208  0.2747  0.1624 -0.0364
 3224SOL     OW21133   4.368   4.370   2.106 -0.2885 -0.0867 -0.0459
 3224SOL    HW121134   4.435   4.397   2.168 -0.3983 -0.6222  0.3008
 3224SOL    HW221135   4.353   4.278   2.128  2.7705 -0.3320  1.0882
 3225SOL     OW21136   3.110   3.105   6.733 -0.4036  0.4637 -1.0240
 3225SOL    HW121137   3.181   3.169   6.727  0.9378 -0.8916  0.3274
 3225SOL    HW221138   3.059   3.138   6.807  0.8986  0.2208 -0.0140
 3226SOL     OW21139   0.405   0.394  17.594  0.1574  0.3080 -0.1046
 3226SOL    HW121140   0.325   0.432  17.628 -0.3233 -2.4187  1.8814
 3226SOL    HW221141   0.453   0.357  17.668  0.8087 -0.6393 -0.9842
 3227SOL     OW21142   3.384   1.086  12.481  0.4583 -0.4581 -0.3156
 3227SOL    HW121143   3.406   1.063  12.390 -0.8033 -1.3254 -0.4023
 3227SOL    HW221144   3.464   1.137  12.494  0.0213  0.3402 -0.7494
 3228SOL     OW21145   1.130   2.736  17.077 -0.5351 -0.2026  0.4477
 3228SOL    HW121146   1.081   2.773  17.151 -3.3337  3.9476 -3.5052
 3228SOL    HW221147   1.060   2.689  17.032 -1.3588  0.5506  0.9262
 3229SOL     OW21148   4.545   1.046   6.841 -0.4675 -0.5291  0.0863
 3229SOL    HW121149   4.588   1.015   6.920 -0.9179 -1.4822 -0.0451
 3229SOL    HW221150   4.464   0.994   6.846 -0.2863 -0.6760  1.2886
 3230SOL     OW21151   4.392   0.886   5.799 -0.3147  0.4764 -0.7576
 3230SOL    HW121152   4.338   0.922   5.870  0.4163  1.7598 -0.8598
 3230SOL    HW221153   4.396   0.959   5.737  0.1757  0.9678 -0.1432
 3231SOL     OW21154   0.722   0.202  15.120  0.4439  0.0040  0.4171
 3231SOL    HW121155   0.668   0.264  15.072  0.2109 -0.4969  0.0228
 3231SOL    HW221156   0.736   0.132  15.056 -0.1294  0.3578 -0.0927
 3232SOL     OW21157   1.370   2.330   5.473  0.7452  0.2685 -0.3448
 3232SOL    HW121158   1.405   2.355   5.559 -0.3496 -1.4275  0.6080
 3232SOL    HW221159   1.422   2.394   5.425 -0.0592  0.1336 -1.3801
 3233SOL     OW21160   2.864   0.135  13.431 -0.2881 -0.3609 -0.1978
 3233SOL    HW121161   2.840   0.200  13.498 -1.5977 -3.3023  2.1860
 3233SOL    HW221162   2.832   0.179  13.352 -1.3360 -1.0291 -0.1463
 3234SOL     OW21163   3.876   0.258  15.696  0.5301 -0.3900  0.4253
 3234SOL    HW121164   3.915   0.261  15.784  1.5658 -1.5935  0.0102
 3234SOL    HW221165   3.787   0.231  15.717  0.6576  0.7270  2.4760
 3235SOL     OW21166   3.404   2.303   1.066  0.0574  0.1196 -0.4364
 3235SOL    HW121167   3.495   2.331   1.074 -0.0302  0.5566 -0.9618
 3235SOL    HW221168   3.399   2.243   1.141  1.3375  0.7485  0.1319
 3236SOL     OW21169   2.669   0.573   4.855  0.2690  0.2910  0.0342
 3236SOL    HW121170   2.646   0.666   4.862 -0.2522  0.4136 -3.3506
 3236SOL    HW221171   2.676   0.548   4.763  0.4351 -0.3084  0.2135
 3237SOL     OW21172   4.379   1.145   7.278 -0.0251 -0.2483 -0.4954
 3237SOL    HW121173   4.348   1.110   7.362  2.0287 -0.4321  0.1902
 3237SOL    HW221174   4.466   1.179   7.296 -0.2382  0.4711 -0.8226
 3238SOL     OW21175   3.635   3.563  16.069 -0.2026 -0.2082  0.7771
 3238SOL    HW121176   3.639   3.627  15.998 -0.2065 -1.1214 -0.0393
 3238SOL    HW221177   3.557   3.517  16.039  0.0356 -1.2408  1.7443
 3239SOL     OW21178   3.113   0.988   7.381 -0.1708 -0.0587  0.3039
 3239SOL    HW121179   3.174   0.919   7.354  2.0332  0.7831  3.0709
 3239SOL    HW221180   3.177   1.059   7.393 -0.6137  0.1110  1.7362
 3240SOL     OW21181   1.264   3.901   6.162  0.6907 -0.3331 -0.4757
 3240SOL    HW121182   1.300   3.829   6.109  0.2133 -2.4999  2.1438
 3240SOL    HW221183   1.327   3.907   6.233 -1.1344 -0.6729  1.1489
 3241SOL     OW21184   1.030   3.739   3.247 -0.1440 -0.1141  0.1920
 3241SOL    HW121185   1.083   3.780   3.179 -0.3756  0.9064  0.6146
 3241SOL    HW221186   1.035   3.647   3.222  1.7062  0.1652 -0.4908
 3242SOL     OW21187   0.925   1.337  16.645 -0.4768  0.0272 -0.3583
 3242SOL    HW121188   0.992   1.301  16.703 -0.5264  0.3899 -0.0768
 3242SOL    HW221189   0.864   1.263  16.641 -1.0268  0.3804  1.3377
 3243SOL     OW21190   2.610   3.649   4.417 -0.1826 -0.0292  0.0848
 3243SOL    HW121191   2.532   3.693   4.450 -0.5057 -0.2758 -0.3506
 3243SOL    HW221192   2.587   3.629   4.326  2.5193 -3.3220  0.1207
 3244SOL     OW21193   2.037   3.826   7.062  1.0296  0.4371 -0.1969
 3244SOL    HW121194   2.058   3.879   6.985 -0.5436  1.6125  0.1682
 3244SOL    HW221195   1.967   3.876   7.105  0.2338  0.0957 -1.1028
 3245SOL     OW21196   3.644   3.815  17.274 -0.6195  0.1796  0.1461
 3245SOL    HW121197   3.656   3.755  17.201 -3.0776  0.2291 -0.2755
 3245SOL    HW221198   3.695   3.889  17.241  0.8373 -0.6188  0.6020
 3246SOL     OW21199   0.862   3.743   1.574  0.1579 -0.1042 -0.9331
 3246SOL    HW121200   0.824   3.731   1.661 -0.4959 -0.1600 -1.2291
 3246SOL    HW221201   0.945   3.696   1.584 -0.8316 -1.2962  1.7100
 3247SOL     OW21202   2.222   4.094   7.650 -0.1159  0.7819  0.2523
 3247SOL    HW121203   2.127   4.098   7.661 -0.4198 -0.4407 -1.8790
 3247SOL    HW221204   2.236   4.090   7.556  1.9867  2.2156  0.5181
 3248SOL     OW21205   0.553   2.671   3.720 -0.3601  0.0289  0.0100
 3248SOL    HW121206   0.464   2.702   3.739  0.3788  2.3668 -0.3801
 3248SOL    HW221207   0.543   2.640   3.631  1.3222 -0.6291  0.0525
 3249SOL     OW21208   2.643   3.562   5.895 -0.3441  0.1348  0.0656
 3249SOL    HW121209   2.625   3.541   5.803 -0.8361  1.1644 -0.0784
 3249SOL    HW221210   2.568   3.519   5.936 -0.8691 -1.1301 -2.1989
 3250SOL     OW21211   1.364   1.770  12.740 -0.3366 -0.2805 -0.3202
 3250SOL    HW121212   1.357   1.857  12.701  0.0333 -0.2801 -0.3788
 3250SOL    HW221213   1.269   1.755  12.750 -0.1374  0.2326  2.5347
 3251SOL     OW21214   0.703   3.281   5.561  0.3918 -0.2067 -0.0362
 3251SOL    HW121215   0.624   3.283   5.615  1.2368 -3.5654  1.3631
 3251SOL    HW221216   0.686   3.330   5.480  0.9624 -1.7583 -1.1087
 3252SOL     OW21217   4.536   1.567   5.024 -0.6130  0.1227  0.0246
 3252SOL    HW121218   4.570   1.553   4.935 -0.0799  0.8592  0.1066
 3252SOL    HW221219   4.608   1.616   5.065 -2.1814  1.2899  1.3727
 3253SOL     OW21220   3.833   0.554  11.693 -0.2482 -0.1810  0.0929
 3253SOL    HW121221   3.914   0.537  11.742 -1.8340  0.3713  2.9034
 3253SOL    HW221222   3.815   0.643  11.722  2.2585  0.6241 -0.7943
 3254SOL     OW21223   1.505   2.886   8.367  0.0256 -0.2662 -0.7507
 3254SOL    HW121224   1.427   2.847   8.405 -1.2539  3.0550 -0.0423
 3254SOL    HW221225   1.491   2.972   8.404  2.8544 -0.4445  0.7634
 3255SOL     OW21226   3.570   0.653   6.547 -0.3189 -0.0946  0.1401
 3255SOL    HW121227   3.631   0.579   6.554 -0.4487 -0.2392 -0.2479
 3255SOL    HW221228   3.566   0.673   6.454  0.7618  0.7899  0.2782
 3256SOL     OW21229   0.336   4.067   6.579  0.3524  0.0392  0.3251
 3256SOL    HW121230   0.333   3.995   6.641  1.1659  0.7606  1.1931
 3256SOL    HW221231   0.333   4.027   6.492  1.0365  1.6566 -0.4494
 3257SOL     OW21232   2.814   4.580   3.020 -0.2832 -0.3316  0.2481
 3257SOL    HW121233   2.817   4.638   3.096  1.4354 -0.5522  0.3280
 3257SOL    HW221234   2.884   4.522   3.046 -1.3499 -2.1481 -0.9157
 3258SOL     OW21235   2.872   3.771   6.457 -0.3115 -0.6571  0.3383
 3258SOL    HW121236   2.814   3.694   6.460  0.7591 -1.4589  0.4140
 3258SOL    HW221237   2.840   3.822   6.531 -0.0470  2.3577 -1.6375
 3259SOL     OW21238   4.695   3.892   6.605  0.4440 -0.0233 -0.1012
 3259SOL    HW121239   4.720   3.984   6.606 -0.7281  0.2905 -0.0787
 3259SOL    HW221240   4.615   3.901   6.553  0.9315  3.6436 -0.2423
 3260SOL     OW21241   0.924   2.280   4.555 -0.5245 -0.3702 -0.2976
 3260SOL    HW121242   0.868   2.230   4.496 -1.2878 -0.1529  0.2486
 3260SOL    HW221243   0.897   2.371   4.542  0.5020  0.1918  1.4325
 3261SOL     OW21244   2.751   4.455   1.760  0.0025 -0.0972 -0.1605
 3261SOL    HW121245   2.658   4.461   1.782 -0.0773 -0.7698 -0.2992
 3261SOL    HW221246   2.756   4.526   1.697 -1.7511 -0.6018 -0.8514
 3262SOL     OW21247   3.541   0.807   3.744 -0.2636  0.0395  0.7918
 3262SOL    HW121248   3.596   0.743   3.698 -0.0462  1.6919 -1.2736
 3262SOL    HW221249   3.484   0.752   3.798  1.4195  0.1413  2.6451
 3263SOL     OW21250   1.874   1.651   5.387 -0.0201  0.5650 -0.0282
 3263SOL    HW121251   1.850   1.744   5.392 -0.6736  0.3939  0.0066
 3263SOL    HW221252   1.785   1.615   5.386  0.0507  0.4265 -1.9967
 3264SOL     OW21253   1.300   1.832   8.835  0.8240  0.4679  0.0582
 3264SOL    HW121254   1.214   1.797   8.811  0.0674  1.7115  0.9425
 3264SOL    HW221255   1.298   1.921   8.799  0.8442  0.3519 -0.2310
 3265SOL     OW21256   4.154   1.786  11.999  0.6049 -0.5187 -0.1623
 3265SOL    HW121257   4.095   1.805  11.926 -0.7743 -0.3207  0.9853
 3265SOL    HW221258   4.237   1.795  11.953  0.3638  2.0935 -0.1028
 3266SOL     OW21259   1.039   2.426   8.357  0.3532  0.3300 -0.0534
 3266SOL    HW121260   1.075   2.476   8.284 -1.2363  0.8876 -0.4372
 3266SOL    HW221261   0.957   2.468   8.382  0.5832  0.7497 -0.0061
 3267SOL     OW21262   1.534   1.865   4.375  0.1764  0.6200 -0.7521
 3267SOL    HW121263   1.559   1.804   4.305 -0.8598 -0.0099 -0.5815
 3267SOL    HW221264   1.518   1.949   4.333 -0.4253  1.6904  1.6349
 3268SOL     OW21265   0.227   0.656   5.898  0.6371 -0.1282 -0.1645
 3268SOL    HW121266   0.165   0.664   5.826 -2.2538 -0.9330  2.2153
 3268SOL    HW221267   0.188   0.579   5.939 -1.3765 -0.2689 -2.3373
 3269SOL     OW21268   1.363   3.813  10.590  0.2218 -0.1515 -0.0510
 3269SOL    HW121269   1.330   3.812  10.680 -0.6380 -0.6271 -0.3709
 3269SOL    HW221270   1.397   3.902  10.578  0.6392 -0.4645 -1.2757
 3270SOL     OW21271   1.478   4.044   9.315  0.2211  0.1600  0.2749
 3270SOL    HW121272   1.444   4.132   9.301 -0.4376 -0.5967 -2.7379
 3270SOL    HW221273   1.446   4.001   9.237 -0.4348 -0.5702  0.9528
 3271SOL     OW21274   0.239   4.118   2.245  0.2608 -0.2594  0.3804
 3271SOL    HW121275   0.161   4.084   2.202  0.9312 -2.4527  0.8931
 3271SOL    HW221276   0.305   4.096   2.178 -0.6907 -2.9999  0.3298
 3272SOL     OW21277   1.331   3.851   4.695  0.3252 -0.0761  0.3946
 3272SOL    HW121278   1.291   3.885   4.615 -0.1410  1.8269  1.4532
 3272SOL    HW221279   1.270   3.783   4.725  0.0186 -1.4992 -3.3463
 3273SOL     OW21280   0.725   3.992  10.373  0.1410  0.1973 -0.0953
 3273SOL    HW121281   0.782   3.980  10.298 -1.8224 -0.0162 -1.5641
 3273SOL    HW221282   0.644   3.965  10.329 -0.5339  2.0722 -0.0274
 3274SOL     OW21283   3.819   1.047  10.823 -0.6341  0.1745 -0.1870
 3274SOL    HW121284   3.793   1.105  10.895 -1.1104  1.1824 -1.1689
 3274SOL    HW221285   3.778   1.095  10.751  0.9159 -2.8508 -3.0499
 3275SOL     OW21286   3.841   1.717   3.209  0.5223  0.2759 -0.3042
 3275SOL    HW121287   3.881   1.630   3.203  1.3347  0.6668 -0.5254
 3275SOL    HW221288   3.750   1.688   3.199  0.0004  1.9466 -0.4042
 3276SOL     OW21289   2.098   0.243  11.879 -0.1913  0.3713 -0.5766
 3276SOL    HW121290   2.129   0.333  11.876  0.1018  0.3527  1.4995
 3276SOL    HW221291   2.002   0.248  11.887 -0.0613 -0.0873  1.2068
 3277SOL     OW21292   3.497   1.668   7.785 -0.1204  0.1027  0.0819
 3277SOL    HW121293   3.425   1.730   7.773 -1.2902 -1.0203  1.3580
 3277SOL    HW221294   3.454   1.589   7.750  1.5708 -1.6761  1.9918
 3278SOL     OW21295   3.122   2.580   9.387  0.5564 -0.0553 -0.4369
 3278SOL    HW121296   3.169   2.560   9.307 -0.8334 -2.3023 -0.6759
 3278SOL    HW221297   3.110   2.675   9.380 -1.4229 -0.3514 -1.0344
 3279SOL     OW21298   0.925   4.147  16.623  0.1816 -0.2512 -0.3190
 3279SOL    HW121299   0.993   4.211  16.640 -0.4671  0.6944 -1.2566
 3279SOL    HW221300   0.976   4.068  16.642  0.1634  0.3226  2.0449
 3280SOL     OW21301   2.566   4.122   7.375  0.3150  0.8732  0.9634
 3280SOL    HW121302   2.576   4.122   7.280  1.4954 -0.1948  1.0809
 3280SOL    HW221303   2.506   4.049   7.386  1.0043  0.0745 -0.5516
 3281SOL     OW21304   2.186   1.948   6.472 -0.7399  0.3235  0.9714
 3281SOL    HW121305   2.213   1.950   6.380 -0.8872  1.0847  0.9516
 3281SOL    HW221306   2.212   1.862   6.505 -0.5674  0.2027  0.5266
 3282SOL     OW21307   0.457   1.629  12.939  0.1665  0.0510  0.5019
 3282SOL    HW121308   0.496   1.688  13.003 -0.2404 -0.3476  1.1233
 3282SOL    HW221309   0.369   1.665  12.930  0.3304 -0.3837 -2.8140
 3283SOL     OW21310   4.290   0.371  11.869 -0.7365 -0.4679  0.0726
 3283SOL    HW121311   4.288   0.290  11.818  0.3041  1.7758 -3.5310
 3283SOL    HW221312   4.379   0.366  11.905 -1.0575  1.1599  1.0965
 3284SOL     OW21313   2.032   2.867   7.421 -0.3534  0.1614  0.2264
 3284SOL    HW121314   1.952   2.899   7.464 -0.1939  0.5137  0.2645
 3284SOL    HW221315   2.069   2.820   7.495  0.1797  0.2760  0.0342
 3285SOL     OW21316   2.436   1.013   7.093 -0.5252  0.3789  1.3687
 3285SOL    HW121317   2.520   0.997   7.050 -2.0364  0.7037 -1.7328
 3285SOL    HW221318   2.371   0.957   7.050  0.3621  1.5014 -1.4299
 3286SOL     OW21319   3.422   4.368  13.700  0.2682 -0.2487  0.1458
 3286SOL    HW121320   3.392   4.310  13.630 -0.3396 -1.4426  1.3873
 3286SOL    HW221321   3.417   4.456  13.663 -0.2008 -0.5479 -0.5111
 3287SOL     OW21322   2.169   0.938   3.500  0.0876  0.2771  0.0051
 3287SOL    HW121323   2.175   0.857   3.449  0.1698  0.4833 -0.3152
 3287SOL    HW221324   2.232   0.991   3.451  0.6910 -0.3696  0.0805
 3288SOL     OW21325   1.135   4.142   6.069  0.2340 -0.2010 -0.4354
 3288SOL    HW121326   1.063   4.104   6.018 -1.5700  1.9661  0.4897
 3288SOL    HW221327   1.184   4.065   6.097 -1.0488 -0.0623  2.2059
 3289SOL     OW21328   2.723   3.659   9.141 -0.4740  0.3598  0.2920
 3289SOL    HW121329   2.649   3.615   9.099  0.6107 -1.3578  0.1890
 3289SOL    HW221330   2.712   3.651   9.236  1.5132  2.0648  0.6550
 3290SOL     OW21331   1.687   1.096   2.649  0.0975 -0.6308 -0.6927
 3290SOL    HW121332   1.635   1.151   2.591 -1.6852 -1.9718 -0.3550
 3290SOL    HW221333   1.679   1.155   2.724 -1.1263 -1.1941 -0.3870
 3291SOL     OW21334   3.320   0.284   3.699 -0.2322  0.2420  0.4804
 3291SOL    HW121335   3.271   0.244   3.628  0.7945  1.2019 -0.7632
 3291SOL    HW221336   3.258   0.280   3.771 -1.7867 -1.1156 -0.9517
 3292SOL     OW21337   2.103   2.885   6.479  0.4649 -0.3527 -0.0909
 3292SOL    HW121338   2.015   2.899   6.443  0.5426  1.5266  0.4340
 3292SOL    HW221339   2.106   2.790   6.475 -0.4714 -0.3860 -0.1314
 3293SOL     OW21340   2.931   4.240   3.874 -0.0668 -0.6783 -0.0731
 3293SOL    HW121341   2.938   4.291   3.793  0.5632 -1.1444 -0.3061
 3293SOL    HW221342   2.921   4.312   3.936 -0.4171 -1.7570  1.1047
 3294SOL     OW21343   4.130   3.014   5.139 -0.1503 -0.4618  0.0947
 3294SOL    HW121344   4.106   3.043   5.227 -0.0259 -1.0134  0.3112
 3294SOL    HW221345   4.194   2.946   5.161 -0.0297 -0.4903 -0.3557
 3295SOL     OW21346   2.215   2.298  15.764 -0.4393 -0.0863 -0.1579
 3295SOL    HW121347   2.269   2.336  15.833 -0.8251  0.4670 -0.1562
 3295SOL    HW221348   2.229   2.205  15.781 -2.0882 -0.2077  0.5790
 3296SOL     OW21349   1.802   0.910   0.532 -0.2642  0.2242  0.3992
 3296SOL    HW121350   1.871   0.872   0.587 -0.5698  0.6915  1.1158
 3296SOL    HW221351   1.723   0.857   0.539 -1.9488  2.4900 -1.2592
 3297SOL     OW21352   0.525   3.541   2.951 -0.0827  0.2804  0.1254
 3297SOL    HW121353   0.552   3.463   2.901  0.8181  0.2531  0.6518
 3297SOL    HW221354   0.432   3.529   2.969 -0.0115 -1.3180 -0.5520
 3298SOL     OW21355   4.155   0.096   9.107  0.1090  0.0400 -0.4216
 3298SOL    HW121356   4.085   0.063   9.050 -0.1787  0.5970 -0.3963
 3298SOL    HW221357   4.144   0.188   9.082 -0.2204  0.3099  0.7492
 3299SOL     OW21358   4.413   0.954   7.687  0.0107 -0.4171 -0.2573
 3299SOL    HW121359   4.456   0.889   7.632  1.3590  0.1438  0.1444
 3299SOL    HW221360   4.458   0.947   7.771 -2.8397 -1.8782  1.1691
 3300SOL     OW21361   1.030   0.405   2.412  0.4569  0.6061  0.0899
 3300SOL    HW121362   1.051   0.422   2.320 -0.3920 -2.1189 -0.6199
 3300SOL    HW221363   1.116   0.393   2.451  0.8011 -1.1103 -1.1576
 3301SOL     OW21364   4.371   3.918   3.828  0.8404 -0.7064  0.0496
 3301SOL    HW121365   4.374   3.960   3.742  1.7879  0.2294  0.5371
 3301SOL    HW221366   4.277   3.925   3.847  0.7382 -0.5005 -0.5413
 3302SOL     OW21367   1.036   0.411   7.344 -0.7808  0.0404 -0.2531
 3302SOL    HW121368   1.116   0.450   7.379 -0.4206  0.4260 -1.5042
 3302SOL    HW221369   1.070   0.374   7.263  1.2701  1.4897 -0.0680
 3303SOL     OW21370   1.099   2.375   5.471  0.5582  0.0185  0.4441
 3303SOL    HW121371   1.056   2.412   5.548 -2.2728  3.2637 -2.7137
 3303SOL    HW221372   1.191   2.368   5.496  0.3364  1.2606  1.6152
 3304SOL     OW21373   0.629   0.386   6.690 -0.1584  0.1091 -0.0207
 3304SOL    HW121374   0.703   0.406   6.634 -1.2909 -1.1646 -1.9923
 3304SOL    HW221375   0.561   0.357   6.630  1.4829  0.5415 -2.0586
 3305SOL     OW21376   3.995   3.926   4.103  0.5284  0.1945  0.0311
 3305SOL    HW121377   3.929   3.924   4.172  0.1026 -1.3290 -0.4431
 3305SOL    HW221378   3.961   3.999   4.052  0.0268 -1.0499 -1.3831
 3306SOL     OW21379   2.947   2.307   0.249 -0.0021  0.0345 -0.0623
 3306SOL    HW121380   2.989   2.228   0.215  1.7094  0.7883  0.3172
 3306SOL    HW221381   2.940   2.292   0.343  0.0035  2.6501  0.3537
 3307SOL     OW21382   1.465   0.051  15.263 -0.4351 -0.0129  0.2666
 3307SOL    HW121383   1.397   0.004  15.311 -0.6800 -0.0670 -0.1327
 3307SOL    HW221384   1.541   4.717  15.270 -1.4620 -1.3255  0.6351
 3308SOL     OW21385   2.548   1.024  15.108  0.5468 -0.5540  0.5984
 3308SOL    HW121386   2.613   1.094  15.119 -0.1275  0.0261  0.8561
 3308SOL    HW221387   2.540   0.989  15.197 -0.1139 -0.3173  0.6299
 3309SOL     OW21388   0.770   0.514   4.570  0.4750  0.0911 -0.3141
 3309SOL    HW121389   0.774   0.456   4.494  2.0390 -0.8610  0.4934
 3309SOL    HW221390   0.783   0.458   4.647 -0.8109  0.5557  0.2366
 3310SOL     OW21391   0.286   0.476  12.819  0.2456  0.3295  0.0023
 3310SOL    HW121392   0.331   0.428  12.888 -1.4125  0.9811  1.5756
 3310SOL    HW221393   0.329   0.428  12.749 -1.0756  1.3571 -1.5391
 3311SOL     OW21394   0.010   1.119   2.514 -0.1069 -0.2181  0.1964
 3311SOL    HW121395   0.088   1.145   2.563  2.4101 -2.9013 -2.3866
 3311SOL    HW221396   0.038   1.087   2.429  0.2678 -0.5780  0.4574
 3312SOL     OW21397   1.852   0.830   9.914  0.0530 -0.2819 -0.2914
 3312SOL    HW121398   1.843   0.840   9.819  0.2851 -1.2482 -0.4228
 3312SOL    HW221399   1.938   0.789   9.916  0.2405 -0.0543 -3.3100
 3313SOL     OW21400   2.376   3.954   6.940  0.5882  0.1211 -0.1100
 3313SOL    HW121401   2.386   3.881   7.001 -0.3852  2.1234  2.4051
 3313SOL    HW221402   2.282   3.955   6.926  0.4536 -0.4316  0.8009
 3314SOL     OW21403   1.576   1.416   8.574  0.1455  0.3347  0.1226
 3314SOL    HW121404   1.530   1.357   8.515  1.3401 -0.3097 -0.1726
 3314SOL    HW221405   1.664   1.377   8.575  0.2869  0.6675  0.9670
 3315SOL     OW21406   0.718   3.124   8.539  0.2942  0.2076  0.4052
 3315SOL    HW121407   0.785   3.193   8.530 -0.4862  1.2045  2.2662
 3315SOL    HW221408   0.687   3.136   8.628 -1.9548  0.6457 -0.4292
 3316SOL     OW21409   1.916   2.285   5.402  0.1280 -0.2269  0.0238
 3316SOL    HW121410   2.004   2.261   5.432 -0.6556 -0.4228  2.2114
 3316SOL    HW221411   1.916   2.228   5.325  2.8150 -0.5608  0.2639
 3317SOL     OW21412   2.142   4.046   8.582 -0.2325 -0.3970  0.5226
 3317SOL    HW121413   2.184   3.984   8.642  0.3433  1.2298  1.8319
 3317SOL    HW221414   2.085   4.101   8.637 -3.6484 -1.5447 -1.8918
 3318SOL     OW21415   1.968   0.591  14.458  0.0388 -0.7023 -0.2348
 3318SOL    HW121416   1.988   0.641  14.537  0.7385 -0.5097 -0.5356
 3318SOL    HW221417   1.885   0.551  14.482 -0.5837  1.7812  1.6956
 3319SOL     OW21418   2.252   1.518  14.378  0.2051  0.5891  0.0770
 3319SOL    HW121419   2.197   1.442  14.361 -0.6047  0.5787  2.6546
 3319SOL    HW221420   2.297   1.480  14.453 -1.9161 -0.4290  0.8451
 3320SOL     OW21421   2.257   0.769  16.873 -0.5793 -0.3993 -0.1284
 3320SOL    HW121422   2.292   0.822  16.801  0.2255 -2.4295 -1.2315
 3320SOL    HW221423   2.273   0.687  16.825 -0.7873 -1.1122  1.0160
 3321SOL     OW21424   4.203   1.602   6.894 -0.1776 -0.0214 -0.0120
 3321SOL    HW121425   4.270   1.646   6.947 -0.6460  2.9915 -1.9354
 3321SOL    HW221426   4.123   1.654   6.894 -1.4483 -1.9511  1.3129
 3322SOL     OW21427   0.461   2.052   3.313 -0.0804  0.8800 -0.2283
 3322SOL    HW121428   0.546   2.017   3.286 -1.0249  0.2052 -2.3337
 3322SOL    HW221429   0.426   2.059   3.224  0.2919 -1.9042 -0.5928
 3323SOL     OW21430   1.352   0.554  14.430 -0.3093  0.3573  0.2309
 3323SOL    HW121431   1.436   0.599  14.419  0.2210 -0.8325 -0.6360
 3323SOL    HW221432   1.362   0.533  14.522  0.3393  0.9697  0.3009
 3324SOL     OW21433   1.562   0.542   5.011 -0.3674  0.0109 -0.1514
 3324SOL    HW121434   1.643   0.526   4.963 -0.4641  1.0931 -0.6871
 3324SOL    HW221435   1.512   0.462   4.993  0.1975 -0.3296 -0.2171
 3325SOL     OW21436   2.216   2.012   9.632  0.6372  0.0380  0.3025
 3325SOL    HW121437   2.183   2.094   9.670 -1.7939 -1.0954  0.6366
 3325SOL    HW221438   2.219   1.957   9.710  0.3205 -0.6053 -0.1332
 3326SOL     OW21439   1.142   0.113  11.910  0.3138 -0.0066  0.3019
 3326SOL    HW121440   1.196   0.131  11.987  0.2495 -0.2673  0.4090
 3326SOL    HW221441   1.193   0.157  11.841  0.6403 -1.9088 -0.6814
 3327SOL     OW21442   1.340   1.426   4.806 -0.1430  0.3232  0.2627
 3327SOL    HW121443   1.344   1.353   4.868  0.4086  1.4180  1.5091
 3327SOL    HW221444   1.398   1.395   4.736  0.9269  1.8981  0.4590
 3328SOL     OW21445   0.493   0.774   6.190 -0.1613  0.5479 -0.2002
 3328SOL    HW121446   0.503   0.726   6.108 -1.6765  0.2676 -0.2319
 3328SOL    HW221447   0.525   0.714   6.257  1.5410  0.1809 -1.3425
 3329SOL     OW21448   1.607   1.166   2.002  0.2011 -0.3624  0.8496
 3329SOL    HW121449   1.644   1.218   1.930 -1.2363 -0.2858  0.1568
 3329SOL    HW221450   1.651   1.200   2.080  1.1017 -2.6653  1.3417
 3330SOL     OW21451   2.468   4.272  16.627 -0.3680  0.0221  0.0640
 3330SOL    HW121452   2.508   4.355  16.598 -1.2191  0.0573 -1.0196
 3330SOL    HW221453   2.390   4.297  16.676 -0.5962 -0.0926 -0.2377
 3331SOL     OW21454   0.317   1.102  11.504  0.0806  0.2773 -0.2949
 3331SOL    HW121455   0.393   1.075  11.555 -2.6556 -2.8731  2.1213
 3331SOL    HW221456   0.337   1.191  11.474  3.1266 -0.2478  0.1869
 3332SOL     OW21457   3.372   1.604   4.895  0.1963  0.7521  0.7887
 3332SOL    HW121458   3.381   1.679   4.954 -0.1631  0.1311  1.6451
 3332SOL    HW221459   3.336   1.544   4.960  1.6868 -1.3492 -0.3520
 3333SOL     OW21460   4.119   2.520  14.542 -0.4312 -0.1384 -0.2407
 3333SOL    HW121461   4.205   2.530  14.582 -0.5659  0.4760 -0.0986
 3333SOL    HW221462   4.062   2.566  14.604  1.0648  0.0037  1.0310
 3334SOL     OW21463   1.240   0.108   9.057 -0.2817 -0.0366 -0.4238
 3334SOL    HW121464   1.199   0.194   9.051  1.0941  0.6705  0.3131
 3334SOL    HW221465   1.313   0.124   9.117 -0.5135  1.2345 -0.4928
 3335SOL     OW21466   2.084   2.105   1.248 -0.2214 -0.6407  0.0712
 3335SOL    HW121467   2.063   2.179   1.191 -0.0618  0.3510  1.3178
 3335SOL    HW221468   2.019   2.116   1.317 -0.9982 -1.1915 -0.5639
 3336SOL     OW21469   4.346   3.676  10.357  0.1633  0.6054  0.3493
 3336SOL    HW121470   4.409   3.605  10.345 -0.1519  0.4328 -0.2344
 3336SOL    HW221471   4.284   3.638  10.419 -0.6951  1.9340  0.3030
 3337SOL     OW21472   2.602   1.647  15.984  0.2699  0.1246  0.1001
 3337SOL    HW121473   2.621   1.609  16.070  0.6535  0.4552  0.1607
 3337SOL    HW221474   2.545   1.721  16.004 -0.4071 -0.4175  0.1910
 3338SOL     OW21475   4.168   2.951   9.261 -0.1904  0.1200 -0.0430
 3338SOL    HW121476   4.214   3.002   9.194  0.0247  0.0723  0.0667
 3338SOL    HW221477   4.107   2.896   9.212  0.5383 -0.9675  0.2606
 3339SOL     OW21478   1.081   4.160   9.620 -0.0721  0.0258  0.4053
 3339SOL    HW121479   1.166   4.126   9.593 -0.1384 -0.5355  0.9283
 3339SOL    HW221480   1.112   4.239   9.665  0.7515  0.1265 -0.3442
 3340SOL     OW21481   0.634   3.214   4.101 -0.6797  0.8404 -0.6835
 3340SOL    HW121482   0.601   3.298   4.133  2.4592  2.3327 -1.3521
 3340SOL    HW221483   0.714   3.208   4.154 -0.7177  0.0381 -0.7115
 3341SOL     OW21484   2.167   3.039  14.511 -0.3444 -0.2749 -0.2440
 3341SOL    HW121485   2.234   2.974  14.534  1.2887  1.4089 -0.2610
 3341SOL    HW221486   2.199   3.122  14.547 -4.4547  1.3803 -0.4252
 3342SOL     OW21487   2.307   3.042   9.443  0.4217 -0.4921 -0.0066
 3342SOL    HW121488   2.348   3.018   9.359 -1.4424  2.2897 -1.6935
 3342SOL    HW221489   2.308   2.953   9.478  0.1573 -0.3949  0.2420
 3343SOL     OW21490   3.598   3.982   4.916 -0.3590  0.3619 -0.8371
 3343SOL    HW121491   3.555   3.958   4.998 -2.1886  0.3163 -1.8149
 3343SOL    HW221492   3.530   4.036   4.875 -0.3262  0.0377 -1.3131
 3344SOL     OW21493   4.558   1.563   6.865 -0.0167  0.0257 -0.1892
 3344SOL    HW121494   4.562   1.474   6.900 -0.1953 -0.4401 -1.3795
 3344SOL    HW221495   4.490   1.597   6.924  0.2171 -0.2876  0.2661
 3345SOL     OW21496   0.458   1.728   8.497  0.7466 -0.1217 -0.8205
 3345SOL    HW121497   0.395   1.788   8.458 -4.7655 -4.0075  2.0753
 3345SOL    HW221498   0.403   1.696   8.569 -0.1360  1.9625 -0.5628
 3346SOL     OW21499   2.986   0.573   7.718 -0.0843  0.3156 -1.0071
 3346SOL    HW121500   3.052   0.604   7.657  1.1717  1.0781  0.7330
 3346SOL    HW221501   3.042   0.539   7.788  0.1733  0.9188 -0.9259
 3347SOL     OW21502   0.776   0.457   8.906  0.3799 -0.2911  0.1884
 3347SOL    HW121503   0.708   0.445   8.972 -0.6618 -2.7984 -1.3613
 3347SOL    HW221504   0.737   0.405   8.835 -2.0412  1.4504  0.2742
 3348SOL     OW21505   3.128   0.962   8.424  0.3341  0.1454  0.1631
 3348SOL    HW121506   3.210   0.980   8.377  0.9715 -3.3667 -0.0940
 3348SOL    HW221507   3.124   1.026   8.495 -1.1913 -0.7040  0.8270
 3349SOL     OW21508   3.934   1.453   3.591  0.0380 -0.7061 -0.2984
 3349SOL    HW121509   4.030   1.452   3.595  0.0500 -0.7492 -0.6489
 3349SOL    HW221510   3.913   1.380   3.649 -2.5045  2.0209  2.2709
 3350SOL     OW21511   0.110   1.097   7.494  0.4060  0.4403 -0.0552
 3350SOL    HW121512   0.077   1.061   7.576 -1.5459 -1.0966 -1.4953
 3350SOL    HW221513   0.158   1.027   7.448 -1.0298  0.0764 -1.0189
 3351SOL     OW21514   0.032   3.391   6.102  0.2758 -0.1098  0.9291
 3351SOL    HW121515   0.023   3.296   6.103 -1.4572  0.0339 -1.1290
 3351SOL    HW221516   4.664   3.416   6.094  0.3899  0.3247  0.9812
 3352SOL     OW21517   1.903   3.049   8.276 -0.2521 -0.1948  0.1390
 3352SOL    HW121518   1.893   3.024   8.183  1.2896  1.7261 -0.5211
 3352SOL    HW221519   1.964   2.981   8.305  0.4464  1.1020  1.7025
 3353SOL     OW21520   4.089   3.947   2.393 -0.1943  0.4860 -0.5867
 3353SOL    HW121521   4.074   3.855   2.369 -0.6199  0.2183  0.6850
 3353SOL    HW221522   3.998   3.977   2.389 -0.6965 -1.0949 -1.3720
 3354SOL     OW21523   3.345   2.552   3.599 -0.2198 -0.0175  0.3297
 3354SOL    HW121524   3.289   2.517   3.530 -0.9361 -0.0111  0.9123
 3354SOL    HW221525   3.401   2.476   3.613 -0.1077  0.2337  1.2741
 3355SOL     OW21526   3.258   3.898   4.696 -0.1408 -0.2792  0.0848
 3355SOL    HW121527   3.335   3.937   4.654  0.4881 -1.8549 -0.2270
 3355SOL    HW221528   3.211   3.874   4.617  1.4765  0.0861 -0.9911
 3356SOL     OW21529   1.612   4.556  16.277 -0.0114 -0.6772 -0.0991
 3356SOL    HW121530   1.557   4.485  16.244 -0.0398 -0.5372 -0.3485
 3356SOL    HW221531   1.624   4.512  16.362 -3.5780 -0.6371  0.4427
 3357SOL     OW21532   4.551   4.594  11.345 -0.0733  0.1470  0.3831
 3357SOL    HW121533   4.627   4.650  11.337 -1.6237  2.3258  0.7848
 3357SOL    HW221534   4.491   4.661  11.312 -0.5060  0.1969  1.2666
 3358SOL     OW21535   1.806   4.681  14.233  0.1065 -0.8870 -0.0158
 3358SOL    HW121536   1.879   4.666  14.293  1.3127 -2.0243 -1.7876
 3358SOL    HW221537   1.787   4.596  14.196 -0.3836 -1.3354  1.2634
 3359SOL     OW21538   3.195   4.146   7.973  0.1493  0.0719 -0.6840
 3359SOL    HW121539   3.257   4.143   8.046 -0.4573  0.8931 -0.1246
 3359SOL    HW221540   3.200   4.053   7.952 -0.6907 -0.0313 -0.4249
 3360SOL     OW21541   2.218   0.173   9.226  0.1283  0.0594  0.0526
 3360SOL    HW121542   2.271   0.135   9.155 -0.3320  1.4997 -1.0620
 3360SOL    HW221543   2.256   0.260   9.213  1.2476 -0.1973  1.7263
 3361SOL     OW21544   3.113   2.001   7.973 -0.0034  0.0646  0.0624
 3361SOL    HW121545   3.092   1.949   8.050 -1.5062 -3.3339 -2.6498
 3361SOL    HW221546   3.204   2.025   7.990  0.2898  0.3792 -1.9265
 3362SOL     OW21547   2.116   3.663  13.206 -0.3854  0.1224  0.2807
 3362SOL    HW121548   2.186   3.609  13.170  0.8325  0.1050  2.7144
 3362SOL    HW221549   2.159   3.693  13.285 -1.0165  0.0428  0.6574
 3363SOL     OW21550   2.137   1.428  17.100  0.0553  0.5099  0.3763
 3363SOL    HW121551   2.146   1.516  17.135  0.3595  1.0373 -1.0358
 3363SOL    HW221552   2.171   1.372  17.170 -0.1638  0.0824  0.1432
 3364SOL     OW21553   2.077   1.758   9.565 -0.1246  0.0005 -0.3732
 3364SOL    HW121554   2.012   1.690   9.583  1.0795 -0.8612  0.7321
 3364SOL    HW221555   2.022   1.836   9.565  0.0574  0.1226 -1.3460
 3365SOL     OW21556   2.928   0.335  13.651 -0.5276  0.2680 -0.3451
 3365SOL    HW121557   3.023   0.323  13.649 -0.7840 -1.7450 -0.9510
 3365SOL    HW221558   2.898   0.258  13.699  0.6851  0.6605  1.0649
 3366SOL     OW21559   4.280   3.812   8.920 -0.5820 -0.0884  0.2338
 3366SOL    HW121560   4.234   3.840   8.999  1.1518 -4.1514  2.7212
 3366SOL    HW221561   4.374   3.812   8.937 -0.7124 -0.3775  0.9631
 3367SOL     OW21562   1.853   0.389   5.142  0.0347  0.0949  0.2283
 3367SOL    HW121563   1.856   0.458   5.075  1.8851 -2.5643 -2.4120
 3367SOL    HW221564   1.910   0.437   5.202 -1.2755  0.3337  1.2741
 3368SOL     OW21565   0.410   3.848  15.320 -0.0480  0.3759 -0.0252
 3368SOL    HW121566   0.345   3.853  15.250  0.4826 -1.2109 -0.6176
 3368SOL    HW221567   0.477   3.792  15.280  0.3496  1.0966 -0.3608
 3369SOL     OW21568   3.298   2.164   2.010  0.1287 -0.1611  0.1847
 3369SOL    HW121569   3.276   2.116   1.931 -0.3729 -0.5696  0.5774
 3369SOL    HW221570   3.246   2.112   2.071  2.1264 -1.9576  0.3755
 3370SOL     OW21571   1.344   4.706   7.285 -0.2937 -0.4831 -0.1122
 3370SOL    HW121572   1.348   4.721   7.191 -4.3932  1.5063  0.0184
 3370SOL    HW221573   1.438   4.696   7.299 -0.0931 -1.5959 -2.2853
 3371SOL     OW21574   2.635   1.877   8.810  0.0783 -0.4469 -0.8323
 3371SOL    HW121575   2.621   1.952   8.751 -0.6913  0.6889  0.7755
 3371SOL    HW221576   2.697   1.829   8.756  0.8029  0.1295 -0.5041
 3372SOL     OW21577   3.830   3.748   3.398 -0.2387  0.4783  0.0188
 3372SOL    HW121578   3.924   3.737   3.414 -0.7270  0.4126  2.7922
 3372SOL    HW221579   3.841   3.838   3.367  1.8036  0.1337 -0.2419
 3373SOL     OW21580   0.801   2.772   3.831  0.2399 -0.4097  0.0837
 3373SOL    HW121581   0.742   2.753   3.758 -0.5194 -0.1824  0.6452
 3373SOL    HW221582   0.856   2.840   3.791 -0.0279  0.2204  0.7947
 3374SOL     OW21583   4.711   0.596   4.259  0.0184  0.3160 -0.6143
 3374SOL    HW121584   4.670   0.524   4.307 -0.1780  0.0600 -1.1712
 3374SOL    HW221585   0.046   0.548   4.201 -0.9147 -0.7882 -0.6471
 3375SOL     OW21586   3.823   2.354   4.665 -0.0336 -0.0601 -0.4134
 3375SOL    HW121587   3.807   2.266   4.699  0.8891 -0.2789 -0.5300
 3375SOL    HW221588   3.735   2.389   4.678  0.2085 -0.8274  3.1028
 3376SOL     OW21589   0.759   2.126   4.371 -0.0821 -0.1119  0.1057
 3376SOL    HW121590   0.672   2.149   4.341  0.6362 -0.3689 -2.1684
 3376SOL    HW221591   0.731   2.056   4.430 -1.1946  0.7547  0.6060
 3377SOL     OW21592   3.407   0.848   2.881 -0.1262 -0.2433  0.4144
 3377SOL    HW121593   3.397   0.937   2.849 -3.7983 -0.9183 -0.3759
 3377SOL    HW221594   3.435   0.804   2.801 -0.0501  1.8171 -0.6915
 3378SOL     OW21595   1.476   4.047   8.379 -0.5379  0.5576 -0.4820
 3378SOL    HW121596   1.483   4.126   8.326  3.0266 -0.6384 -1.8015
 3378SOL    HW221597   1.525   3.975   8.339 -0.4316  1.0318 -1.1971
 3379SOL     OW21598   1.869   3.862  14.150 -0.0215 -0.1617 -0.7421
 3379SOL    HW121599   1.887   3.842  14.058  1.3326  0.9678 -0.7206
 3379SOL    HW221600   1.781   3.898  14.150  0.4688  1.0821 -3.7955
 3380SOL     OW21601   2.970   2.713   4.076  0.3450  0.1659 -0.5288
 3380SOL    HW121602   3.054   2.721   4.030 -0.1094  0.2355 -1.3351
 3380SOL    HW221603   2.979   2.624   4.110 -0.9865  0.1953 -0.1152
 3381SOL     OW21604   1.546   4.360   4.388  0.1400  0.3842 -0.1333
 3381SOL    HW121605   1.609   4.290   4.407  0.1239  0.3427 -0.2347
 3381SOL    HW221606   1.470   4.311   4.360 -0.0870  0.6746 -0.0256
 3382SOL     OW21607   4.174   0.346  14.258 -0.4203  0.5560  0.0745
 3382SOL    HW121608   4.242   0.355  14.325  0.3041 -1.5020 -0.3994
 3382SOL    HW221609   4.089   0.341  14.302 -1.0791 -0.1634 -1.2777
 3383SOL     OW21610   3.010   1.665   6.202 -0.5658  0.2703 -0.3219
 3383SOL    HW121611   3.103   1.676   6.180 -1.0476  0.8953 -2.0682
 3383SOL    HW221612   2.976   1.751   6.228  1.7450  1.2793 -0.6568
 3384SOL     OW21613   4.545   1.051   9.515  0.4834 -0.0662  0.2774
 3384SOL    HW121614   4.512   1.101   9.589 -0.5871 -0.0897 -0.1920
 3384SOL    HW221615   4.485   1.078   9.446 -1.3213 -0.1879  1.8132
 3385SOL     OW21616   3.145   1.263  11.284  0.7583  0.1254  0.0252
 3385SOL    HW121617   3.201   1.205  11.232  2.5867 -0.9074  3.0946
 3385SOL    HW221618   3.127   1.336  11.225  1.4745 -0.6034 -1.1047
 3386SOL     OW21619   3.141   1.488   2.637 -0.1532  0.1859 -0.1830
 3386SOL    HW121620   3.048   1.465   2.631 -0.4022  1.2777 -0.5973
 3386SOL    HW221621   3.183   1.480   2.552  0.0590 -1.2795  0.0722
 3387SOL     OW21622   1.002   2.995   7.473  0.2884  0.4670  0.0636
 3387SOL    HW121623   1.096   3.002   7.490  0.3516 -0.4938  0.1477
 3387SOL    HW221624   0.983   3.078   7.516  1.8427 -0.6854  2.9450
 3388SOL     OW21625   4.595   4.113   6.859  0.1126 -0.1894  0.7230
 3388SOL    HW121626   4.637   4.166   6.791  0.9340 -1.0800  0.5316
 3388SOL    HW221627   4.620   4.023   6.837  0.9591  0.5522 -1.3682
 3389SOL     OW21628   4.253   0.461   2.195  0.3945  0.5708  0.0287
 3389SOL    HW121629   4.295   0.547   2.194  0.4900  0.5002 -1.2804
 3389SOL    HW221630   4.299   0.412   2.127  2.0806  1.3410  0.6036
 3390SOL     OW21631   3.385   0.738   8.220 -0.4296  0.5057  0.0813
 3390SOL    HW121632   3.456   0.716   8.279 -0.1878  3.5791  0.9707
 3390SOL    HW221633   3.388   0.663   8.161  3.0671 -0.5846  1.6187
 3391SOL     OW21634   3.635   0.184  16.591  0.3219  0.1739  0.1283
 3391SOL    HW121635   3.710   0.162  16.645  0.8132  2.1996  0.2940
 3391SOL    HW221636   3.634   0.278  16.610  3.8126 -0.0213  1.2838
 3392SOL     OW21637   0.982   1.719  11.557  0.5758 -0.3393  0.3330
 3392SOL    HW121638   1.002   1.795  11.612  0.0164  0.6524 -0.8478
 3392SOL    HW221639   1.055   1.665  11.588 -0.0876 -0.8427  1.0301
 3393SOL     OW21640   4.288   1.943   4.009 -0.5554 -0.2092 -0.4726
 3393SOL    HW121641   4.378   1.944   3.978 -0.6501  1.3428 -0.6971
 3393SOL    HW221642   4.246   2.021   3.971 -1.5783  0.6535  2.4300
 3394SOL     OW21643   2.707   0.499   2.365 -0.4526  0.2128  0.1024
 3394SOL    HW121644   2.779   0.482   2.304  0.0025 -0.1800  0.7590
 3394SOL    HW221645   2.659   0.418   2.379  0.5573 -0.2148  1.0154
 3395SOL     OW21646   2.009   3.470   5.211  0.0176  0.5489  0.3101
 3395SOL    HW121647   1.994   3.396   5.269 -0.4263 -0.5571 -1.2285
 3395SOL    HW221648   2.027   3.419   5.132 -1.7858  0.2120  0.1398
 3396SOL     OW21649   3.066   4.179   0.633 -0.0671 -0.0994 -0.4088
 3396SOL    HW121650   3.113   4.201   0.713 -2.7684  0.5969  0.9944
 3396SOL    HW221651   2.979   4.203   0.667  1.2131  2.4204  1.1226
 3397SOL     OW21652   3.385   1.219   8.975  0.3887  0.0615 -0.1301
 3397SOL    HW121653   3.413   1.275   9.047  2.6658  1.1395 -1.8210
 3397SOL    HW221654   3.343   1.144   9.016 -1.1384  0.1144 -1.5997
 3398SOL     OW21655   2.790   1.542  15.302 -0.3206 -0.0514  0.0813
 3398SOL    HW121656   2.850   1.569  15.371 -1.2279 -1.6741  1.5207
 3398SOL    HW221657   2.742   1.465  15.333 -0.8471  0.2753  0.0642
 3399SOL     OW21658   3.600   3.871   3.924 -0.4289 -0.3794 -0.3361
 3399SOL    HW121659   3.510   3.849   3.901 -0.7625  1.1661 -0.4544
 3399SOL    HW221660   3.602   3.966   3.927  0.2855 -0.3887 -0.3633
 3400SOL     OW21661   0.569   0.117   4.426 -0.1244  0.2422  0.1622
 3400SOL    HW121662   0.622   0.040   4.406 -0.5079  0.1716 -0.5641
 3400SOL    HW221663   0.638   0.179   4.451 -1.4932  1.2644  1.4000
 3401SOL     OW21664   4.433   3.332   7.506 -0.2214  0.6002 -0.1737
 3401SOL    HW121665   4.519   3.345   7.545  0.2756 -2.4781 -0.2325
 3401SOL    HW221666   4.450   3.339   7.412  2.1146  1.7954  0.3580
 3402SOL     OW21667   3.407   1.947  16.854  0.0370 -0.0300 -0.5042
 3402SOL    HW121668   3.324   1.941  16.809  0.2140 -1.0432 -0.6876
 3402SOL    HW221669   3.389   1.875  16.915  1.8766 -1.0727 -1.1931
 3403SOL     OW21670   0.549   1.223  12.292 -0.0464 -0.1202 -0.0648
 3403SOL    HW121671   0.482   1.274  12.337 -0.5632 -0.3618 -0.5656
 3403SOL    HW221672   0.615   1.196  12.356  1.2926  1.2754 -0.8715
 3404SOL     OW21673   3.556   0.409   6.845  0.2894  0.2891 -0.3248
 3404SOL    HW121674   3.575   0.345   6.914 -0.0376  1.6874  1.0439
 3404SOL    HW221675   3.599   0.368   6.769 -0.9411 -0.0060 -0.8783
 3405SOL     OW21676   1.785   3.631   5.166 -0.2056 -0.3514  0.0161
 3405SOL    HW121677   1.867   3.591   5.194 -0.9928 -0.8447  1.6392
 3405SOL    HW221678   1.722   3.559   5.169 -1.0471  0.5070  3.3168
 3406SOL     OW21679   1.256   0.266  16.148 -0.2502 -0.4454  0.7278
 3406SOL    HW121680   1.271   0.192  16.089  1.0073  0.3391  0.0661
 3406SOL    HW221681   1.324   0.328  16.119 -1.2070 -1.3621 -3.4724
 3407SOL     OW21682   1.205   0.029   8.577  0.4470 -0.0146  0.0648
 3407SOL    HW121683   1.126   0.070   8.612  0.5045  0.0475  0.1208
 3407SOL    HW221684   1.213   4.686   8.645  1.0470  0.5509  0.5473
 3408SOL     OW21685   0.089   3.047   4.684 -0.1691  0.4665 -0.3789
 3408SOL    HW121686   0.050   2.974   4.636 -1.7297  0.2323  1.2109
 3408SOL    HW221687   0.049   3.037   4.771 -3.2250  0.5065 -1.8236
 3409SOL     OW21688   4.438   2.119   9.718 -0.0138 -0.3951  0.4182
 3409SOL    HW121689   4.378   2.067   9.664 -2.1211  2.0630  0.4299
 3409SOL    HW221690   4.513   2.059   9.720 -1.2327 -2.0042 -1.7903
 3410SOL     OW21691   0.293   3.510   6.806 -0.3519  0.7580  0.3510
 3410SOL    HW121692   0.245   3.479   6.729 -1.7481  2.8042  0.3863
 3410SOL    HW221693   0.338   3.579   6.756  0.6058  0.6295  1.0428
 3411SOL     OW21694   0.395   3.614   7.811  0.1492 -0.0382  0.3579
 3411SOL    HW121695   0.465   3.647   7.754  0.4822  0.0944  0.8504
 3411SOL    HW221696   0.420   3.522   7.818  1.0423  0.2596  0.9918
 3412SOL     OW21697   3.269   3.787   4.957 -0.4321  0.4790  0.1755
 3412SOL    HW121698   3.249   3.862   5.013 -0.7771 -0.8458  1.7826
 3412SOL    HW221699   3.264   3.823   4.868 -2.5831 -0.7275 -0.1837
 3413SOL     OW21700   1.490   0.505   8.773  0.0367 -0.0242 -0.3898
 3413SOL    HW121701   1.491   0.415   8.805  0.3993  0.4349  0.8746
 3413SOL    HW221702   1.437   0.543   8.843 -0.5554 -1.5849  0.0156
 3414SOL     OW21703   1.948   4.274   1.505 -0.0135  0.7573 -0.2440
 3414SOL    HW121704   1.863   4.232   1.518  0.9119 -0.9119  0.4378
 3414SOL    HW221705   1.990   4.245   1.586 -0.3101 -1.5934 -0.9472
 3415SOL     OW21706   2.215   0.992  14.777 -0.3504  0.6396 -0.0732
 3415SOL    HW121707   2.275   0.944  14.834 -1.9301 -0.1786  0.9177
 3415SOL    HW221708   2.260   1.077  14.777 -0.6529  0.7971  2.0970
 3416SOL     OW21709   2.931   0.399   0.784 -0.7267 -0.3722 -0.3018
 3416SOL    HW121710   2.962   0.421   0.696  1.2990 -0.0099  0.5046
 3416SOL    HW221711   2.870   0.330   0.758 -1.4195  0.0521  0.1934
 3417SOL     OW21712   0.550   1.684   8.831 -0.5037  0.5076 -0.0654
 3417SOL    HW121713   0.460   1.650   8.833 -0.1046 -0.5388  0.0488
 3417SOL    HW221714   0.558   1.737   8.911 -1.3741  0.2876  0.1724
 3418SOL     OW21715   1.189   1.107   7.895  0.3454  0.2107  0.0155
 3418SOL    HW121716   1.098   1.132   7.876  0.0038 -0.3183  0.9105
 3418SOL    HW221717   1.178   1.072   7.984  0.8647  0.0049 -0.0052
 3419SOL     OW21718   4.362   4.348   5.550  0.5468 -0.1454 -0.2794
 3419SOL    HW121719   4.372   4.297   5.470  0.2743 -0.2445 -0.2522
 3419SOL    HW221720   4.446   4.391   5.566  0.4636  0.0167 -0.2829
 3420SOL     OW21721   0.048   1.162   3.443 -0.1050 -0.2069 -0.4057
 3420SOL    HW121722   0.052   1.074   3.481  2.0435 -0.0597 -0.2572
 3420SOL    HW221723   0.118   1.146   3.379  2.2316 -2.9144  2.7598
 3421SOL     OW21724   1.142   2.081   6.658 -0.2067 -0.1714 -0.4534
 3421SOL    HW121725   1.082   2.012   6.632  0.3383 -1.1176  0.7959
 3421SOL    HW221726   1.205   2.093   6.587 -0.8496  1.0711 -0.8319
 3422SOL     OW21727   0.633   4.269   3.074  0.0404  0.1082  0.2670
 3422SOL    HW121728   0.710   4.234   3.029  0.2738  1.1002 -0.1077
 3422SOL    HW221729   0.582   4.301   3.000  0.5679 -0.8215 -0.5065
 3423SOL     OW21730   2.945   4.539  10.097  0.0228 -0.3296  0.0398
 3423SOL    HW121731   2.998   4.468  10.134  0.0495 -1.3058 -1.9167
 3423SOL    HW221732   3.011   4.609  10.102 -1.3001  1.0348 -1.7726
 3424SOL     OW21733   3.522   4.167   1.281 -0.1463  0.1559  0.4549
 3424SOL    HW121734   3.579   4.238   1.311  1.3228 -0.0046 -1.9175
 3424SOL    HW221735   3.484   4.211   1.206 -0.1742  1.9004  1.5045
 3425SOL     OW21736   0.488   1.197   3.882 -0.7464 -0.6843  0.3867
 3425SOL    HW121737   0.496   1.120   3.826 -0.6618 -0.9376  0.7542
 3425SOL    HW221738   0.580   1.219   3.897 -0.7333 -1.2644  1.1470
 3426SOL     OW21739   1.375   4.651  10.992  0.1397 -0.1526 -0.0975
 3426SOL    HW121740   1.365   4.586  10.923 -1.5340  1.9720 -1.8455
 3426SOL    HW221741   1.399   0.005  10.941 -1.7275  0.1956 -0.4203
 3427SOL     OW21742   4.273   3.586  17.684 -0.8895 -0.0646 -0.7432
 3427SOL    HW121743   4.258   3.596   0.080  0.7521  0.8075 -0.5830
 3427SOL    HW221744   4.222   3.662  17.655 -0.3185 -0.3383 -2.4506
 3428SOL     OW21745   2.933   1.282   5.468 -0.6717  0.3806  0.5155
 3428SOL    HW121746   3.017   1.246   5.440 -0.2451  1.7228  0.0772
 3428SOL    HW221747   2.922   1.230   5.548  1.3663  1.4101  1.4964
 3429SOL     OW21748   0.961   3.414   6.590  0.0124 -0.1714  0.1308
 3429SOL    HW121749   0.904   3.490   6.575 -0.5154 -0.6725 -0.4169
 3429SOL    HW221750   1.024   3.458   6.647  0.2744 -1.4087  0.7784
 3430SOL     OW21751   3.350   0.482   1.855  0.0379 -0.4097  0.6920
 3430SOL    HW121752   3.364   0.568   1.895  0.0312  0.4483 -1.1272
 3430SOL    HW221753   3.423   0.482   1.792  2.0630  0.5510  3.0417
 3431SOL     OW21754   4.183   0.305   5.190 -0.1419 -0.1407 -0.4431
 3431SOL    HW121755   4.133   0.252   5.128  1.4977  0.9544 -2.7090
 3431SOL    HW221756   4.256   0.325   5.131  0.5392 -0.1411  0.3983
 3432SOL     OW21757   0.447   1.735  16.946  1.1297 -0.2473 -0.7433
 3432SOL    HW121758   0.430   1.826  16.921  0.2991 -0.0428  0.5526
 3432SOL    HW221759   0.363   1.702  16.914  1.8796  0.1248 -3.0450
 3433SOL     OW21760   1.946   4.026   0.496 -0.0073 -0.3483 -0.1095
 3433SOL    HW121761   2.000   4.098   0.464 -0.8126  1.0700  1.6939
 3433SOL    HW221762   1.996   3.991   0.570 -1.2671 -2.5897 -0.3287
 3434SOL     OW21763   0.153   1.919   7.824 -0.2246 -0.1002 -0.7483
 3434SOL    HW121764   0.136   1.830   7.855  0.2437  0.5596  1.4049
 3434SOL    HW221765   0.068   1.938   7.785 -0.2107  0.2559 -0.6064
 3435SOL     OW21766   3.026   2.476   9.055 -0.4235 -0.1101  0.2656
 3435SOL    HW121767   3.119   2.480   9.080 -0.0740  3.2791 -1.5771
 3435SOL    HW221768   3.002   2.452   9.145  0.3257  0.2532  0.5698
 3436SOL     OW21769   0.896   2.131   5.578  0.2892 -0.3044  0.6033
 3436SOL    HW121770   0.948   2.057   5.548  1.5290  0.1794  1.5187
 3436SOL    HW221771   0.966   2.175   5.627  0.6294 -1.3329  1.0467
 3437SOL     OW21772   3.683   1.358   1.234 -0.0730  0.0750 -0.1136
 3437SOL    HW121773   3.738   1.286   1.203 -1.5603 -1.3308  0.5269
 3437SOL    HW221774   3.686   1.344   1.329 -2.9233 -4.8403 -0.7504
 3438SOL     OW21775   1.381   0.361   9.141  0.2496 -0.1673 -0.0423
 3438SOL    HW121776   1.351   0.377   9.230 -1.6009 -0.6000 -0.5757
 3438SOL    HW221777   1.459   0.415   9.131  0.4259 -0.7670 -1.8744
 3439SOL     OW21778   0.590   0.729   2.972  0.0108 -0.9346 -0.3361
 3439SOL    HW121779   0.635   0.782   2.905 -0.0543  1.6026  1.6214
 3439SOL    HW221780   0.550   0.652   2.932 -0.3219 -0.3644 -1.0908
 3440SOL     OW21781   0.880   1.303  12.173 -0.2226 -0.4997 -0.3058
 3440SOL    HW121782   0.907   1.394  12.159  1.1593 -1.2037 -2.3142
 3440SOL    HW221783   0.915   1.299  12.262  2.0762  1.6929 -1.0956
 3441SOL     OW21784   2.397   2.269   9.022 -0.0636 -0.3220 -0.9541
 3441SOL    HW121785   2.420   2.268   9.115 -0.9986 -0.1588 -0.7226
 3441SOL    HW221786   2.467   2.213   8.986 -0.2843 -0.7160 -0.7664
 3442SOL     OW21787   3.405   3.746  17.393 -0.2321  0.2067  0.7341
 3442SOL    HW121788   3.492   3.751  17.353 -1.3349  1.5129 -1.4880
 3442SOL    HW221789   3.423   3.794  17.474 -1.5525  0.2271  1.0133
 3443SOL     OW21790   0.984   4.424   7.326  0.1927 -0.4159  0.2779
 3443SOL    HW121791   0.935   4.486   7.272 -1.1427 -0.8489  0.9865
 3443SOL    HW221792   1.073   4.444   7.297 -0.9205  1.9300 -1.5675
 3444SOL     OW21793   1.884   1.051  13.963 -0.2921 -0.1676 -0.5650
 3444SOL    HW121794   1.796   1.015  13.972  0.2504 -1.1250  1.0406
 3444SOL    HW221795   1.923   1.000  14.034 -0.6140  0.5634  0.1317
 3445SOL     OW21796   4.479   3.049   5.519  0.1221 -0.5322 -0.3776
 3445SOL    HW121797   4.524   2.968   5.544  0.3512 -0.3849 -0.3082
 3445SOL    HW221798   4.521   3.076   5.437  0.9931  2.9158  1.2022
 3446SOL     OW21799   4.201   1.752   3.231  0.3400  0.2439 -0.4797
 3446SOL    HW121800   4.151   1.698   3.293  2.1631  0.3499  1.0915
 3446SOL    HW221801   4.149   1.832   3.229 -1.5308 -0.9138  0.9390
 3447SOL     OW21802   3.457   4.293   9.123 -0.0493 -0.1809 -0.0062
 3447SOL    HW121803   3.532   4.260   9.172 -0.3119  0.4771  0.8421
 3447SOL    HW221804   3.503   4.284   9.040 -0.6414  0.1822 -0.3718
 3448SOL     OW21805   2.891   3.824   4.195 -0.3987  0.0460 -0.1970
 3448SOL    HW121806   2.896   3.915   4.222  0.0974 -0.9527  3.0329
 3448SOL    HW221807   2.807   3.824   4.148 -0.7459 -1.2405  0.4214
 3449SOL     OW21808   0.435   1.282   8.194 -0.3043  0.2067 -0.5019
 3449SOL    HW121809   0.365   1.347   8.197  1.8253  2.4882 -0.1837
 3449SOL    HW221810   0.499   1.334   8.146  1.4115 -2.1485 -0.7964
 3450SOL     OW21811   2.779   2.217   5.608 -0.4384 -0.2788  0.4007
 3450SOL    HW121812   2.696   2.251   5.575  0.4274  0.4317 -1.0188
 3450SOL    HW221813   2.833   2.296   5.607 -0.7308 -0.0827  0.2880
 3451SOL     OW21814   4.516   2.411   8.265  0.3650  0.1475  0.0252
 3451SOL    HW121815   4.569   2.407   8.345  0.1986  0.9594  0.1718
 3451SOL    HW221816   4.589   2.411   8.203 -1.1945  2.7039 -1.8423
 3452SOL     OW21817   4.083   3.613   8.514 -0.1442  0.9797  0.3819
 3452SOL    HW121818   4.031   3.636   8.436 -0.3071 -2.1207 -0.4428
 3452SOL    HW221819   4.130   3.692   8.540  0.4053  0.7870 -0.0240
 3453SOL     OW21820   4.261   4.195  11.759  0.5764 -0.8544  0.2235
 3453SOL    HW121821   4.286   4.227  11.673 -0.1482  3.0508  1.4633
 3453SOL    HW221822   4.208   4.271  11.782 -0.6742 -1.6116 -0.1670
 3454SOL     OW21823   2.158   3.819  16.225  0.1318  0.4114  0.0009
 3454SOL    HW121824   2.237   3.869  16.243  0.1407  0.3214  0.2049
 3454SOL    HW221825   2.166   3.821  16.129  0.0757 -1.4985 -0.0433
 3455SOL     OW21826   0.440   4.491   6.033 -0.3797  0.1628 -0.2120
 3455SOL    HW121827   0.408   4.407   6.000 -1.2493  0.2982  0.2760
 3455SOL    HW221828   0.462   4.534   5.951  1.2592 -1.0560 -0.4186
 3456SOL     OW21829   3.804   1.242  12.071  1.1312 -0.1632 -0.2638
 3456SOL    HW121830   3.828   1.248  11.979  0.2850 -3.2768 -0.6620
 3456SOL    HW221831   3.842   1.320  12.112  1.7262 -0.3100 -0.5421
 3457SOL     OW21832   0.724   4.515  10.496  0.6043 -0.3782 -0.0781
 3457SOL    HW121833   0.722   4.461  10.417 -0.3039  0.1001 -0.3832
 3457SOL    HW221834   0.733   4.453  10.568  0.0520  0.4306  0.6930
 3458SOL     OW21835   1.823   3.812   1.811  0.4476  0.4823 -0.4265
 3458SOL    HW121836   1.826   3.833   1.905 -0.4334 -2.8768  0.3397
 3458SOL    HW221837   1.915   3.784   1.805  1.0930  2.1480  1.7446
 3459SOL     OW21838   2.712   4.467   6.514  0.3505 -0.3444 -0.0207
 3459SOL    HW121839   2.638   4.409   6.497 -0.1404  0.1672  0.3571
 3459SOL    HW221840   2.771   4.472   6.439 -0.2261  2.1515 -0.3173
 3460SOL     OW21841   4.229   1.865   2.401 -0.9090 -0.1476 -0.0962
 3460SOL    HW121842   4.218   1.848   2.308  2.8099  3.0388 -1.1039
 3460SOL    HW221843   4.213   1.959   2.401 -0.1834 -0.0332 -1.8790
 3461SOL     OW21844   4.567   0.257   2.207  0.3163 -0.3397  0.4568
 3461SOL    HW121845   4.496   0.227   2.149 -0.2835  0.5260  0.7484
 3461SOL    HW221846   4.519   0.273   2.288  1.1074 -0.6675  0.9888
 3462SOL     OW21847   0.736   0.588   6.321 -0.5856 -0.1821 -0.0348
 3462SOL    HW121848   0.789   0.668   6.324 -1.6014  0.4836  0.3552
 3462SOL    HW221849   0.672   0.601   6.391 -0.4763 -1.9971  0.4051
 3463SOL     OW21850   4.056   2.795   3.661 -0.3539  0.0486  0.2015
 3463SOL    HW121851   4.131   2.744   3.692  0.2114  1.3949  1.0831
 3463SOL    HW221852   4.069   2.791   3.567 -1.8464 -0.4843  0.0279
 3464SOL     OW21853   3.962   4.705  11.607  0.3001  0.2873  0.0912
 3464SOL    HW121854   3.902   4.700  11.681 -0.8826 -1.9492 -1.0049
 3464SOL    HW221855   3.932   0.066  11.576  0.2548  0.5210  0.7827
 3465SOL     OW21856   0.095   2.754   4.855  0.0570 -0.1825  0.0796
 3465SOL    HW121857   0.152   2.679   4.840 -0.0476 -0.7805  2.7202
 3465SOL    HW221858   0.030   2.725   4.790  1.2793 -1.2028 -0.6837
 3466SOL     OW21859   0.682   3.458  10.196 -0.5234  0.3193 -0.1871
 3466SOL    HW121860   0.689   3.552  10.179 -0.1909  0.1574 -0.9743
 3466SOL    HW221861   0.643   3.419  10.117 -1.4170  0.1557  0.3393
 3467SOL     OW21862   2.562   2.271   4.321 -0.0387  0.1596  0.0358
 3467SOL    HW121863   2.479   2.233   4.294 -0.2537  2.7145 -2.8121
 3467SOL    HW221864   2.532   2.347   4.371  1.2559  0.3059  0.5943
 3468SOL     OW21865   0.041   3.177   4.356  0.1727  0.7226 -0.2688
 3468SOL    HW121866   0.080   3.114   4.295 -1.3862 -2.5955  2.1724
 3468SOL    HW221867   4.702   3.119   4.399  0.1041  1.7557  1.0258
 3469SOL     OW21868   4.101   3.895   9.097 -0.2527 -0.0824  0.1549
 3469SOL    HW121869   4.005   3.894   9.092 -0.1713  0.5834 -1.6713
 3469SOL    HW221870   4.109   3.968   9.159  1.3508 -0.5531  0.4998
 3470SOL     OW21871   3.134   2.612   1.478  0.1210 -0.3111 -0.4553
 3470SOL    HW121872   3.099   2.649   1.559  2.3064 -0.8410  0.7408
 3470SOL    HW221873   3.229   2.613   1.494 -0.3419 -0.1958  2.2677
 3471SOL     OW21874   0.120   3.340   4.971  0.2580 -0.0489 -0.1485
 3471SOL    HW121875   0.085   3.252   4.954  0.5739  0.1830 -2.0025
 3471SOL    HW221876   0.057   3.397   4.928  0.9389  0.3512 -0.6321
 3472SOL     OW21877   3.289   3.265   9.046  0.2125  0.2982 -0.0249
 3472SOL    HW121878   3.272   3.307   9.130 -1.0720  2.0395 -1.1627
 3472SOL    HW221879   3.214   3.207   9.036  0.7546 -0.4357  0.1899
 3473SOL     OW21880   3.645   1.532   1.800  0.8980  0.3492  0.1131
 3473SOL    HW121881   3.664   1.626   1.806  0.6715  0.4052 -0.0624
 3473SOL    HW221882   3.641   1.516   1.706  0.5600 -0.3007  0.2357
 3474SOL     OW21883   1.967   3.599   8.300 -0.0277 -0.0297 -0.0254
 3474SOL    HW121884   2.041   3.626   8.354  0.8135  0.3576 -1.3792
 3474SOL    HW221885   2.007   3.560   8.222 -1.7586  0.0110 -0.9361
 3475SOL     OW21886   3.346   4.022   9.083  0.3564 -0.1614  0.1717
 3475SOL    HW121887   3.363   4.110   9.116 -2.5804  1.3329 -2.3463
 3475SOL    HW221888   3.299   3.982   9.155  0.9671  1.0057  1.2133
 3476SOL     OW21889   1.124   0.949  14.808 -0.1370  0.2382 -0.7512
 3476SOL    HW121890   1.217   0.934  14.795  0.4641  2.1890  1.3304
 3476SOL    HW221891   1.094   0.937  14.718  1.4418 -0.8117 -1.1430
 3477SOL     OW21892   3.008   2.767   3.737  0.2753  0.1454 -0.5105
 3477SOL    HW121893   3.017   2.673   3.746 -0.3373  0.0799 -0.5848
 3477SOL    HW221894   3.058   2.797   3.813  0.0396 -3.0620  0.8994
 3478SOL     OW21895   1.376   1.565   8.408 -0.1304  0.0992 -0.2035
 3478SOL    HW121896   1.382   1.471   8.390  0.0248  0.0368  0.1720
 3478SOL    HW221897   1.450   1.598   8.357 -1.1877  2.7184 -0.0863
 3479SOL     OW21898   1.311   4.546   0.804 -0.0614  0.4430  0.0566
 3479SOL    HW121899   1.289   4.456   0.828  0.0316  0.2552 -0.5638
 3479SOL    HW221900   1.269   4.594   0.875  1.5591  1.0165  0.6340
 3480SOL     OW21901   4.483   0.773   5.486  0.1501  0.0250 -0.3753
 3480SOL    HW121902   4.462   0.865   5.475  0.9179  0.5605  2.7656
 3480SOL    HW221903   4.515   0.746   5.399 -1.6348 -4.0834  0.2455
 3481SOL     OW21904   1.177   2.233  10.288 -0.0036  0.0302  0.4939
 3481SOL    HW121905   1.189   2.139  10.301 -2.4662 -0.1563  1.3881
 3481SOL    HW221906   1.157   2.254  10.379 -0.5265 -0.1733  0.4276
 3482SOL     OW21907   0.797   4.287   3.897 -0.2433  0.4698  0.3206
 3482SOL    HW121908   0.724   4.341   3.867  0.8730  1.3034 -0.8850
 3482SOL    HW221909   0.846   4.351   3.948  2.7685 -0.6433 -1.1610
 3483SOL     OW21910   0.439   0.920   4.858  0.2708  0.2666  0.3848
 3483SOL    HW121911   0.481   0.963   4.783  1.3027  1.9383  1.9456
 3483SOL    HW221912   0.397   0.989   4.909 -2.0833 -0.0369 -1.1225
 3484SOL     OW21913   2.612   3.887  11.735 -0.1855 -0.9378  0.4360
 3484SOL    HW121914   2.535   3.942  11.747 -1.2337 -2.2127 -0.5037
 3484SOL    HW221915   2.581   3.811  11.685  1.2814 -1.6232  0.5516
 3485SOL     OW21916   2.583   3.419   9.370  0.1762 -0.1606  0.1985
 3485SOL    HW121917   2.634   3.498   9.390  0.9539 -0.7718  0.6221
 3485SOL    HW221918   2.650   3.354   9.387 -0.2611 -0.5729  0.3492
 3486SOL     OW21919   2.628   3.338   4.495 -0.5847 -0.1631  0.3307
 3486SOL    HW121920   2.704   3.281   4.507  0.0488  0.9847  1.7336
 3486SOL    HW221921   2.662   3.420   4.532  0.8963 -0.9870  0.8227
 3487SOL     OW21922   3.793   3.109   8.941  0.5179  0.0484  0.3185
 3487SOL    HW121923   3.853   3.181   8.921 -0.8936  1.1567  0.1572
 3487SOL    HW221924   3.709   3.149   8.920  0.5663  0.6692  1.2749
 3488SOL     OW21925   1.853   2.347   9.031  0.0185  0.1478  0.4468
 3488SOL    HW121926   1.948   2.336   9.034 -0.1005 -0.8866  0.2745
 3488SOL    HW221927   1.845   2.365   8.938  2.2393  0.1910  0.2728
 3489SOL     OW21928   1.680   3.254   2.081  0.0107 -0.4652 -0.3946
 3489SOL    HW121929   1.747   3.299   2.133  0.2419 -1.5089  0.2048
 3489SOL    HW221930   1.662   3.185   2.144 -0.0868  0.2960  0.4102
 3490SOL     OW21931   3.069   3.602   0.118 -0.3451 -0.1937  0.2255
 3490SOL    HW121932   3.153   3.647   0.115 -0.0522 -0.7819 -0.2956
 3490SOL    HW221933   3.011   3.678   0.116  1.0839  0.8705 -0.2719
 3491SOL     OW21934   0.798   0.032   5.043  0.1315  0.2783 -0.5934
 3491SOL    HW121935   0.831   4.667   5.030  1.4488  0.6823 -0.0461
 3491SOL    HW221936   0.866   0.078   5.093  1.4495 -3.1152  0.7278
 3492SOL     OW21937   0.581   0.204   5.637 -0.1285  0.6351  1.1523
 3492SOL    HW121938   0.515   0.270   5.658 -1.3798 -0.8521  1.9136
 3492SOL    HW221939   0.534   0.163   5.564 -0.9278  0.6360  1.6603
 3493SOL     OW21940   1.371   0.786   0.903  0.3480  0.1454  0.1769
 3493SOL    HW121941   1.432   0.855   0.930  0.9566  0.2985 -1.5854
 3493SOL    HW221942   1.282   0.817   0.918 -0.9608 -2.9002 -1.3774
 3494SOL     OW21943   1.876   4.017  12.869 -0.4115 -0.2036  0.1275
 3494SOL    HW121944   1.913   3.930  12.873 -0.5784 -0.2641  0.3470
 3494SOL    HW221945   1.931   4.057  12.936 -0.4485 -3.0259  1.8080
 3495SOL     OW21946   1.306   0.848   0.621 -0.0156  0.5143 -0.8068
 3495SOL    HW121947   1.221   0.831   0.581 -0.9780 -1.3341  1.9547
 3495SOL    HW221948   1.276   0.852   0.712  1.0732 -0.2242 -0.4151
 3496SOL     OW21949   3.341   1.299   5.338  0.1221  0.5612 -0.0782
 3496SOL    HW121950   3.293   1.354   5.400 -0.4450  0.0726 -0.0880
 3496SOL    HW221951   3.425   1.341   5.321  0.7309  0.0262  1.6109
 3497SOL     OW21952   4.125   4.503   5.587 -0.3207  0.3928 -0.3805
 3497SOL    HW121953   4.146   4.584   5.539 -0.1339 -1.7564 -3.9164
 3497SOL    HW221954   4.209   4.457   5.581 -0.4614  0.1245 -0.2813
 3498SOL     OW21955   1.584   3.285  14.651 -0.0629  0.1525  0.2305
 3498SOL    HW121956   1.596   3.376  14.676 -1.0150  0.6679 -1.1623
 3498SOL    HW221957   1.520   3.300  14.581  1.6198 -3.2586 -2.0623
 3499SOL     OW21958   1.024   3.650   0.593  1.0865  0.6631 -0.3530
 3499SOL    HW121959   1.022   3.590   0.668 -2.0459  0.5358 -0.5125
 3499SOL    HW221960   1.117   3.660   0.573  0.3516 -0.7240 -4.5755
 3500SOL     OW21961   1.241   2.336  14.667 -0.0189 -0.3948 -1.0000
 3500SOL    HW121962   1.156   2.294  14.677  1.5465 -3.1597  0.6309
 3500SOL    HW221963   1.292   2.258  14.645  0.6594 -0.0117 -0.8104
 3501SOL     OW21964   0.825   0.175  15.935 -0.8795 -0.3062 -0.2671
 3501SOL    HW121965   0.748   0.121  15.917  0.0516 -1.8933  0.4993
 3501SOL    HW221966   0.856   0.126  16.012 -4.0374  0.9770  1.8531
 3502SOL     OW21967   1.989   0.404  15.344 -0.1873 -0.7729 -0.8706
 3502SOL    HW121968   2.036   0.369  15.419 -2.4391 -0.4282  0.7216
 3502SOL    HW221969   1.908   0.431  15.388 -1.3947 -2.7281 -1.8668
 3503SOL     OW21970   2.969   1.326  11.725 -0.2254  0.1870 -0.6203
 3503SOL    HW121971   2.939   1.316  11.635  0.6975  1.2448 -1.0458
 3503SOL    HW221972   3.033   1.258  11.746 -0.2335  0.1924 -0.5778
 3504SOL     OW21973   4.147   4.297   3.119  0.1264 -0.0257 -0.0897
 3504SOL    HW121974   4.186   4.352   3.051  2.8393 -0.9489  0.7403
 3504SOL    HW221975   4.206   4.330   3.187 -1.6735 -1.1642  2.0128
 3505SOL     OW21976   3.797   2.763  13.552 -0.6916 -0.2592 -0.4940
 3505SOL    HW121977   3.765   2.812  13.627  0.2809  0.5469 -0.6103
 3505SOL    HW221978   3.826   2.682  13.596 -3.3462 -0.2162  1.3008
 3506SOL     OW21979   4.461   3.385  16.332  0.3380 -0.4597  0.0706
 3506SOL    HW121980   4.510   3.467  16.342 -2.1160  0.6054  3.5248
 3506SOL    HW221981   4.510   3.337  16.398 -1.4861 -0.7413  1.2144
 3507SOL     OW21982   2.463   0.563   0.458 -0.5210  0.7705 -0.0024
 3507SOL    HW121983   2.548   0.526   0.484 -1.5729  0.8317  3.5009
 3507SOL    HW221984   2.443   0.618   0.534 -1.9707  0.1531  0.0496
 3508SOL     OW21985   2.553   2.913   5.674 -0.6063  0.4067  0.2849
 3508SOL    HW121986   2.539   2.842   5.736 -1.1245 -1.1517 -1.6041
 3508SOL    HW221987   2.554   2.863   5.592 -2.8682 -1.0062  1.1362
 3509SOL     OW21988   1.919   1.453   3.617 -0.4084  0.3325 -0.5068
 3509SOL    HW121989   1.858   1.440   3.545 -1.1504 -0.7442  0.3080
 3509SOL    HW221990   1.918   1.363   3.650  0.8123  1.3367  2.2615
 3510SOL     OW21991   1.050   0.518   8.332  0.6303  0.5032 -0.1880
 3510SOL    HW121992   1.084   0.606   8.316 -0.4628  1.0421  0.4598
 3510SOL    HW221993   1.086   0.488   8.416  0.3956 -1.3243 -0.7385
 3511SOL     OW21994   4.473   3.170   6.707 -0.1325 -0.0786 -0.2060
 3511SOL    HW121995   4.389   3.172   6.752 -1.0128 -1.0484 -1.8040
 3511SOL    HW221996   4.450   3.116   6.631 -0.1008  0.0108 -0.2790
 3512SOL     OW21997   4.401   1.813   5.398 -0.1252 -0.1529 -0.2164
 3512SOL    HW121998   4.427   1.741   5.456  1.2037  0.5674  0.1025
 3512SOL    HW221999   4.334   1.848   5.457 -0.7172 -0.9958 -0.3908
 3513SOL     OW22000   0.875   0.780   4.373 -0.0189 -0.3515 -0.4735
 3513SOL    HW122001   0.785   0.760   4.396 -0.3326 -0.8175 -2.1348
 3513SOL    HW222002   0.911   0.788   4.462 -1.0861 -0.3800 -0.0408
 3514SOL     OW22003   2.728   2.520  10.048 -0.3326  0.0065 -0.0748
 3514SOL    HW122004   2.808   2.570  10.033 -0.0178 -0.3535  0.4099
 3514SOL    HW222005   2.748   2.474  10.129  0.8726  0.1823 -0.2696
 3515SOL     OW22006   0.670   2.581   4.937 -0.0626 -0.0632 -0.1534
 3515SOL    HW122007   0.707   2.499   4.970  2.0157  0.4459 -1.2276
 3515SOL    HW222008   0.601   2.585   5.004 -0.0680 -0.4464 -0.1370
 3516SOL     OW22009   0.303   0.905   6.390  0.6374 -0.4983 -0.0519
 3516SOL    HW122010   0.385   0.884   6.346  0.9852 -0.0220  0.3614
 3516SOL    HW222011   0.298   0.842   6.462  1.4520 -0.7801 -0.2499
 3517SOL     OW22012   0.374   0.148   9.510  0.3496  0.0710  0.2972
 3517SOL    HW122013   0.369   0.065   9.558 -2.8248 -0.2737 -0.6643
 3517SOL    HW222014   0.280   0.167   9.506  0.1643 -0.7512  0.7649
 3518SOL     OW22015   0.471   4.679  17.269  0.3690 -0.7591  0.4069
 3518SOL    HW122016   0.412   4.613  17.234  0.8799 -0.3694 -1.1868
 3518SOL    HW222017   0.546   4.655  17.215 -1.7068 -2.7302 -1.5729
 3519SOL     OW22018   4.213   2.993   3.375 -1.0760 -0.0476  0.0042
 3519SOL    HW122019   4.181   2.904   3.368 -1.5942  0.1845 -0.5174
 3519SOL    HW222020   4.286   2.974   3.316 -0.9649 -0.1918  0.1883
 3520SOL     OW22021   3.343   0.076   7.017  0.2884 -0.4613  0.2771
 3520SOL    HW122022   3.329   0.163   6.980 -0.7717 -1.3808 -1.4935
 3520SOL    HW222023   3.333   0.107   7.107 -3.9628 -0.0728 -0.3490
 3521SOL     OW22024   4.008   2.078   6.439 -0.1926  0.1384  0.1101
 3521SOL    HW122025   4.016   2.173   6.433 -1.8230  0.2924  0.3545
 3521SOL    HW222026   3.950   2.061   6.364  0.8826 -1.6461 -0.3323
 3522SOL     OW22027   4.424   2.250   4.437  0.6859 -0.1810  0.1489
 3522SOL    HW122028   4.485   2.319   4.411  0.8048 -0.1530  0.5054
 3522SOL    HW222029   4.364   2.244   4.362 -2.0079  1.4587  2.2097
 3523SOL     OW22030   4.547   3.405   6.413  0.0571  0.7381 -0.0398
 3523SOL    HW122031   4.507   3.325   6.380  0.0487  0.8656 -0.3328
 3523SOL    HW222032   4.499   3.422   6.495  0.9062 -1.8980  0.9987
 3524SOL     OW22033   1.037   3.888   2.722 -0.1399 -0.1059  0.7568
 3524SOL    HW122034   1.094   3.961   2.697  1.3748 -0.8163  2.1947
 3524SOL    HW222035   1.100   3.819   2.705  1.3970  1.2014  1.1443
 3525SOL     OW22036   4.092   1.166   5.771 -0.5406  0.5613  0.1391
 3525SOL    HW122037   4.083   1.247   5.821  1.1327  0.4994  0.5358
 3525SOL    HW222038   4.018   1.121   5.812 -0.6094  1.6179  1.1853
 3526SOL     OW22039   4.519   4.537   1.630  0.0078 -0.2234 -0.1387
 3526SOL    HW122040   4.541   4.444   1.636 -1.3117 -0.5113  0.2829
 3526SOL    HW222041   4.454   4.545   1.700 -1.4135 -2.0509 -1.2212
 3527SOL     OW22042   4.233   3.333   0.376  0.0343 -0.7462  0.3467
 3527SOL    HW122043   4.241   3.262   0.312 -1.3812 -1.3106  0.7830
 3527SOL    HW222044   4.180   3.292   0.445 -1.9663 -0.3727 -0.9876
 3528SOL     OW22045   0.919   3.294   0.952  0.4556 -0.0612  0.1556
 3528SOL    HW122046   0.834   3.303   0.907  0.8760 -0.6353 -0.7600
 3528SOL    HW222047   0.963   3.379   0.953 -1.0720  0.7201  1.3017
 3529SOL     OW22048   3.416   0.857   8.630 -0.5509  0.0848  0.5011
 3529SOL    HW122049   3.433   0.840   8.723  0.0191  0.4708  0.4741
 3529SOL    HW222050   3.418   0.952   8.620 -1.4902 -0.1672 -1.9494
 3530SOL     OW22051   2.910   3.200   0.793  0.2607  0.1515  0.5057
 3530SOL    HW122052   2.922   3.123   0.738 -3.1258 -1.3464  1.8102
 3530SOL    HW222053   2.931   3.276   0.740 -0.5714  0.3664  0.4776
 3531SOL     OW22054   0.386   1.353   7.826 -0.0033 -0.1591  0.2721
 3531SOL    HW122055   0.351   1.409   7.756  0.5135  0.7530  0.7366
 3531SOL    HW222056   0.305   1.345   7.876  1.0428 -0.2224  1.9494
 3532SOL     OW22057   4.717   2.152   3.746  0.6402 -0.1866 -0.4775
 3532SOL    HW122058   4.678   2.116   3.666 -0.2119 -1.7787  0.6546
 3532SOL    HW222059   0.034   2.230   3.709 -0.1248  0.0860 -0.7657
 3533SOL     OW22060   3.529   3.291   3.611 -0.3008 -0.2866  0.5285
 3533SOL    HW122061   3.451   3.253   3.571  0.3693 -0.3920 -0.7058
 3533SOL    HW222062   3.488   3.315   3.694  0.8487  1.6120  0.5516
 3534SOL     OW22063   4.591   2.024  16.633 -0.4090 -0.2427 -0.1472
 3534SOL    HW122064   4.577   2.115  16.609  0.6858  0.0770  0.4107
 3534SOL    HW222065   4.613   2.036  16.726 -1.1157  1.3963 -0.2109
 3535SOL     OW22066   0.289   1.657   9.536  0.2367 -0.3731  0.1418
 3535SOL    HW122067   0.318   1.618   9.618  1.2445  0.9894  0.4346
 3535SOL    HW222068   0.320   1.588   9.477 -0.4662 -0.9901  0.4959
 3536SOL     OW22069   3.932   1.904   1.628 -0.8264 -0.1016 -0.1792
 3536SOL    HW122070   3.991   1.980   1.630 -1.4657  0.4155 -1.1969
 3536SOL    HW222071   3.875   1.928   1.555  1.6923  1.2297 -1.7414
 3537SOL     OW22072   1.331   3.183  14.271  0.7625  0.3643  0.2764
 3537SOL    HW122073   1.389   3.240  14.322  0.9167  0.7267 -0.3059
 3537SOL    HW222074   1.296   3.234  14.198 -0.7668 -2.0727 -0.6718
 3538SOL     OW22075   1.525   1.927   2.641 -0.0829  0.6582 -0.0051
 3538SOL    HW122076   1.443   1.928   2.690  2.0350  3.4107  3.4765
 3538SOL    HW222077   1.584   1.882   2.701 -1.7060 -0.9662  0.3670
 3539SOL     OW22078   4.651   1.786  11.802 -0.5039 -0.3538  0.2799
 3539SOL    HW122079   4.650   1.857  11.867 -0.6585 -0.2871  0.2034
 3539SOL    HW222080   0.022   1.781  11.793 -0.6085 -2.4591  0.5343
 3540SOL     OW22081   2.589   2.853   8.043  0.0410  0.0631 -0.0755
 3540SOL    HW122082   2.560   2.833   8.133 -2.5101  0.2906 -0.8317
 3540SOL    HW222083   2.609   2.946   8.052 -1.2303  0.5227 -1.9580
 3541SOL     OW22084   3.633   0.653  15.236  0.0788 -0.0018 -0.0448
 3541SOL    HW122085   3.580   0.618  15.165 -0.0625 -2.2016  1.1530
 3541SOL    HW222086   3.578   0.725  15.268 -1.1860 -1.7706  1.7936
 3542SOL     OW22087   4.140   3.151   4.221 -0.5745 -0.1509  0.0218
 3542SOL    HW122088   4.230   3.172   4.247 -0.6166  0.8521 -0.6096
 3542SOL    HW222089   4.095   3.219   4.272 -1.8829 -0.4293 -0.7655
 3543SOL     OW22090   0.997   3.697   4.684 -0.0560 -0.9068  0.0968
 3543SOL    HW122091   0.986   3.744   4.601 -1.5781  0.3175  0.9858
 3543SOL    HW222092   0.923   3.637   4.692 -0.3400 -0.5833 -0.0940
 3544SOL     OW22093   3.826   3.021   1.885 -0.1584 -0.1792  0.0179
 3544SOL    HW122094   3.774   3.100   1.900  0.5059  0.4546 -1.0306
 3544SOL    HW222095   3.903   3.060   1.928  1.1802 -0.7558 -1.8799
 3545SOL     OW22096   0.814   3.842   2.884 -0.2201 -0.5629  0.5051
 3545SOL    HW122097   0.886   3.855   2.823  0.5913 -2.1336  1.1280
 3545SOL    HW222098   0.755   3.910   2.852 -1.0213 -1.1523  0.7311
 3546SOL     OW22099   4.341   4.198  12.426  0.0025 -0.3231  0.2577
 3546SOL    HW122100   4.392   4.203  12.345 -1.7018  0.6488 -0.7375
 3546SOL    HW222101   4.279   4.127  12.408 -0.5364  0.6460 -1.6472
 3547SOL     OW22102   2.863   1.426   6.560 -0.2006 -0.4410 -0.3555
 3547SOL    HW122103   2.892   1.432   6.469  1.2809 -1.3849  0.0534
 3547SOL    HW222104   2.856   1.518   6.585  2.2190 -0.1324 -0.8484
 3548SOL     OW22105   3.513   2.616   0.345 -0.3003  0.4933  0.4237
 3548SOL    HW122106   3.487   2.564   0.421  1.8076 -2.3961 -0.8174
 3548SOL    HW222107   3.456   2.583   0.275  0.7804  0.2785 -0.3695
 3549SOL     OW22108   1.798   1.688   5.866 -0.2832 -0.2378  0.3285
 3549SOL    HW122109   1.773   1.735   5.946 -1.2565 -2.4194  1.3395
 3549SOL    HW222110   1.858   1.619   5.896  1.9492  2.0046  1.0120
 3550SOL     OW22111   4.550   2.020  11.269 -0.4478  0.1821 -0.1899
 3550SOL    HW122112   4.603   1.941  11.279 -0.1339  0.0945 -2.5903
 3550SOL    HW222113   4.566   2.053  11.358 -0.8744  2.1132 -0.8313
 3551SOL     OW22114   2.977   0.420   3.764  0.0064  0.0809 -1.0170
 3551SOL    HW122115   2.942   0.408   3.676  0.7220  0.4359 -1.3499
 3551SOL    HW222116   3.036   0.493   3.746 -1.1675  1.6851  1.5807
 3552SOL     OW22117   2.138   2.388   7.946 -0.1400  0.1262 -0.3582
 3552SOL    HW122118   2.043   2.392   7.936 -0.4085 -1.5219  1.6350
 3552SOL    HW222119   2.146   2.452   8.016  0.3339 -0.9723  0.5838
 3553SOL     OW22120   1.738   4.358  14.843  0.1179 -0.4897 -0.0969
 3553SOL    HW122121   1.664   4.300  14.858  0.2156 -0.6254 -0.1371
 3553SOL    HW222122   1.807   4.337  14.907  2.0605  1.0216 -1.7088
 3554SOL     OW22123   4.083   4.620   8.473 -0.2685 -0.1032  0.0428
 3554SOL    HW122124   4.150   4.676   8.511  0.2367  1.5849 -3.3238
 3554SOL    HW222125   4.050   4.675   8.402 -1.6871 -0.5916  0.3279
 3555SOL     OW22126   2.009   3.004   4.013 -0.5860 -0.3280 -0.1540
 3555SOL    HW122127   2.067   3.079   3.998  3.8276 -3.2536  2.4675
 3555SOL    HW222128   2.078   2.941   3.995  1.8074  0.9197  4.8104
 3556SOL     OW22129   4.316   2.554   6.233 -0.1883  0.5957 -0.0358
 3556SOL    HW122130   4.333   2.625   6.295 -0.3075 -0.3547  1.0962
 3556SOL    HW222131   4.221   2.540   6.239 -0.0080  0.0497  1.5774
 3557SOL     OW22132   3.559   3.539   6.243  0.8039  0.1459  0.4647
 3557SOL    HW122133   3.479   3.552   6.293 -0.6796  0.8873 -2.1280
 3557SOL    HW222134   3.524   3.565   6.158  0.2620 -2.4839 -0.1136
 3558SOL     OW22135   3.058   2.885   8.053 -0.3348  0.4384  0.0350
 3558SOL    HW122136   3.130   2.836   8.092 -1.8789 -2.3362 -0.6396
 3558SOL    HW222137   2.990   2.881   8.119  2.7456  1.3228  3.2595
 3559SOL     OW22138   0.876   3.679  13.052  0.0799 -0.1125 -0.1932
 3559SOL    HW122139   0.957   3.711  13.091 -1.4117  0.8290  2.1328
 3559SOL    HW222140   0.810   3.730  13.100 -1.1393 -1.4866 -0.3962
 3560SOL     OW22141   1.835   0.169   3.685 -0.4545 -0.2990  0.2270
 3560SOL    HW122142   1.793   0.234   3.741 -0.7077  0.7001 -1.1262
 3560SOL    HW222143   1.927   0.187   3.702  0.0479 -1.5558 -1.0615
 3561SOL     OW22144   0.314   2.299  15.277 -0.1888  0.3673  0.0577
 3561SOL    HW122145   0.228   2.256  15.274 -0.6130  1.0997  1.6603
 3561SOL    HW222146   0.349   2.248  15.350 -1.7696 -1.6885 -0.6020
 3562SOL     OW22147   1.463   4.254   0.950 -0.4320 -0.3674 -0.3078
 3562SOL    HW122148   1.496   4.319   1.011  0.0998 -0.4471 -0.5102
 3562SOL    HW222149   1.535   4.241   0.888 -1.1669 -2.2417 -0.7945
 3563SOL     OW22150   1.131   0.368   4.651  0.3870 -0.2973 -0.0256
 3563SOL    HW122151   1.082   0.335   4.577 -0.0579 -0.5595  0.3897
 3563SOL    HW222152   1.222   0.363   4.621  1.8733  0.5162  4.3399
 3564SOL     OW22153   1.546   3.840   1.775  0.2432 -0.4269  0.0049
 3564SOL    HW122154   1.640   3.848   1.758  0.1053 -1.8890 -1.5093
 3564SOL    HW222155   1.525   3.928   1.804  1.1515  0.0071 -0.6755
 3565SOL     OW22156   0.451   0.995   7.736 -0.2998 -0.0855 -0.0190
 3565SOL    HW122157   0.491   1.082   7.734 -2.9212  1.0143 -4.2440
 3565SOL    HW222158   0.376   1.005   7.795  0.0648  2.0485  0.0740
 3566SOL     OW22159   1.014   4.121   1.291  0.5463 -0.4147  0.1443
 3566SOL    HW122160   1.100   4.080   1.280  1.0946  1.8709 -3.7594
 3566SOL    HW222161   1.036   4.213   1.279  0.0145  0.1189  3.0457
 3567SOL     OW22162   3.395   2.262   1.546  0.6662 -0.5131  0.5443
 3567SOL    HW122163   3.455   2.228   1.612  1.4031  0.4481  0.3685
 3567SOL    HW222164   3.325   2.198   1.555  1.0508 -0.9610  0.3932
 3568SOL     OW22165   0.793   4.693   8.798 -0.3949  0.0925  0.2478
 3568SOL    HW122166   0.845   0.007   8.728 -0.9452  3.8319  1.9131
 3568SOL    HW222167   0.712   4.695   8.747 -0.2780  3.0155  0.2082
 3569SOL     OW22168   1.493   3.728  17.440  0.2112  0.1359  0.2577
 3569SOL    HW122169   1.537   3.653  17.399 -0.2700 -0.9006  1.6496
 3569SOL    HW222170   1.567   3.789  17.448  1.4250 -1.0268 -2.0624
 3570SOL     OW22171   1.175   0.316   3.409  0.7269 -0.5536 -0.0285
 3570SOL    HW122172   1.173   0.364   3.492 -2.2864 -1.1104  0.2340
 3570SOL    HW222173   1.246   0.352   3.355  1.0403 -1.4889 -0.2260
 3571SOL     OW22174   0.139   0.517   2.260 -0.5611  0.3985  0.3101
 3571SOL    HW122175   0.134   0.600   2.307 -0.6816 -0.1034  1.2009
 3571SOL    HW222176   0.211   0.531   2.198  0.6416  1.8968  2.0398
 3572SOL     OW22177   1.644   3.533   3.023 -0.1734 -0.2574  0.1392
 3572SOL    HW122178   1.701   3.532   2.946  1.6200 -1.0713  1.4681
 3572SOL    HW222179   1.697   3.492   3.091  2.5043  3.3400  0.2671
 3573SOL     OW22180   1.274   2.739   8.406 -0.0015 -0.2461 -0.3250
 3573SOL    HW122181   1.209   2.717   8.473  0.4112 -1.2132 -0.2339
 3573SOL    HW222182   1.216   2.735   8.330 -1.1398 -1.4040  0.5916
 3574SOL     OW22183   3.349   0.527   4.838 -0.2535 -0.3275 -0.5136
 3574SOL    HW122184   3.410   0.463   4.801  2.3006  0.8029  1.7038
 3574SOL    HW222185   3.335   0.599   4.777 -0.1058 -0.7572 -1.0565
 3575SOL     OW22186   2.906   3.326   0.129 -0.6766 -0.5301  0.1656
 3575SOL    HW122187   2.949   3.408   0.153  0.7952 -1.2323 -0.0529
 3575SOL    HW222188   2.985   3.272   0.120 -0.1926 -0.1366  2.1754
 3576SOL     OW22189   0.000   2.771   9.538  0.1784 -0.0976 -0.3851
 3576SOL    HW122190   0.074   2.833   9.537  0.9085 -1.0083 -2.6518
 3576SOL    HW222191   4.674   2.790   9.618  1.0085 -0.6792  0.2762
 3577SOL     OW22192   3.412   2.701   3.809  0.0028  0.3227 -0.6034
 3577SOL    HW122193   3.492   2.660   3.842  0.1721 -0.5054 -2.0325
 3577SOL    HW222194   3.395   2.655   3.727  2.7908 -1.0345 -0.4049
 3578SOL     OW22195   1.564   1.252   7.512 -0.5384 -0.3233 -0.1639
 3578SOL    HW122196   1.527   1.339   7.525  2.2918  0.9183 -0.2485
 3578SOL    HW222197   1.504   1.195   7.559  1.0811 -1.5310  0.4563
 3579SOL     OW22198   0.581   2.636   6.115 -0.1219  0.3954  0.0567
 3579SOL    HW122199   0.569   2.695   6.189 -1.9524  0.4559 -0.2946
 3579SOL    HW222200   0.649   2.685   6.070  0.3605 -1.5337 -1.3544
 3580SOL     OW22201   0.457   1.425   4.383  0.9012  0.5530 -0.4613
 3580SOL    HW122202   0.528   1.434   4.446  0.4474 -1.2344  0.2981
 3580SOL    HW222203   0.418   1.343   4.414  1.4819  0.0471 -1.0553
 3581SOL     OW22204   4.037   1.428  12.290  0.3147 -0.2368 -0.1835
 3581SOL    HW122205   4.066   1.437  12.381 -2.3198  0.2557  0.6071
 3581SOL    HW222206   4.057   1.335  12.277  1.0631 -0.2256  0.8620
 3582SOL     OW22207   4.413   2.242  14.358 -0.0284 -0.1049  0.1062
 3582SOL    HW122208   4.370   2.188  14.291 -1.0573  1.1535 -0.2389
 3582SOL    HW222209   4.508   2.240  14.349  0.0169  3.0666 -0.1217
 3583SOL     OW22210   3.536   3.946   4.607 -0.0231  0.5131 -0.7542
 3583SOL    HW122211   3.573   4.033   4.617  0.8361 -0.1218  1.5638
 3583SOL    HW222212   3.613   3.894   4.585 -1.5542 -2.0584 -0.0927
 3584SOL     OW22213   0.102   3.577  14.864 -0.9027 -0.2671  0.9331
 3584SOL    HW122214   0.066   3.641  14.925 -0.8652 -0.5674  1.2689
 3584SOL    HW222215   0.071   3.618  14.783  0.5606 -2.1504 -0.5775
 3585SOL     OW22216   4.030   3.241   8.466  0.1286  0.6725 -0.2983
 3585SOL    HW122217   3.968   3.219   8.536 -1.4749  1.6516 -1.4057
 3585SOL    HW222218   3.985   3.222   8.384 -2.2203  1.2696  0.8494
 3586SOL     OW22219   2.830   3.690   9.642 -0.2405  0.1329  0.0327
 3586SOL    HW122220   2.800   3.628   9.708  2.6529 -0.8218  0.4718
 3586SOL    HW222221   2.922   3.711   9.659  0.1956 -1.6872 -0.0583
 3587SOL     OW22222   2.920   1.832   5.006 -0.4065  0.3428  0.8281
 3587SOL    HW122223   2.869   1.818   4.927  1.3903  1.2705 -0.5084
 3587SOL    HW222224   2.997   1.886   4.985  0.0747 -0.3194  0.8716
 3588SOL     OW22225   3.085   1.875   4.310  0.5389  0.0561  0.3392
 3588SOL    HW122226   3.034   1.795   4.322  2.2246 -1.2442 -1.2613
 3588SOL    HW222227   3.088   1.881   4.215  1.7109  0.0436  0.3851
 3589SOL     OW22228   2.359   2.157   6.227  0.2213  0.4669  0.5503
 3589SOL    HW122229   2.282   2.199   6.265 -1.2218 -1.1763 -0.5513
 3589SOL    HW222230   2.375   2.210   6.149 -1.7735 -0.4573 -0.4893
 3590SOL     OW22231   3.249   3.568  17.212  0.4580  0.6248 -0.0075
 3590SOL    HW122232   3.245   3.556  17.307  0.8034 -0.4103 -0.1201
 3590SOL    HW222233   3.162   3.606  17.200  0.2268  0.6719  1.7174
 3591SOL     OW22234   3.142   1.704  13.213  0.1956  0.1425  0.1260
 3591SOL    HW122235   3.173   1.623  13.173  1.2726  0.3404  0.5699
 3591SOL    HW222236   3.188   1.759  13.150 -0.4753  1.8558  1.1395
 3592SOL     OW22237   2.161   1.811   5.022  0.1056 -0.4488  0.3922
 3592SOL    HW122238   2.244   1.827   4.978  1.0913  1.0571  2.8025
 3592SOL    HW222239   2.164   1.862   5.104 -0.1174 -0.1564  0.2216
 3593SOL     OW22240   4.056   1.154   2.686 -0.5528 -0.3857  0.2615
 3593SOL    HW122241   4.042   1.180   2.594  2.3049 -2.9489 -0.8930
 3593SOL    HW222242   3.965   1.153   2.717 -0.7641 -0.2611 -0.3520
 3594SOL     OW22243   3.018   2.048   0.231 -0.3138  0.1694 -0.6686
 3594SOL    HW122244   3.014   2.015   0.321  0.4122  0.5741 -0.4865
 3594SOL    HW222245   2.930   2.035   0.195 -0.1893 -0.5325 -0.7147
 3595SOL     OW22246   2.394   4.465   6.682  0.1986  0.2329 -0.7029
 3595SOL    HW122247   2.386   4.557   6.658 -2.2906  0.3335  0.5717
 3595SOL    HW222248   2.304   4.448   6.654 -0.0506 -0.4344  0.5086
 3596SOL     OW22249   3.365   1.511   6.385  0.0023 -0.1166 -0.4263
 3596SOL    HW122250   3.408   1.572   6.325  0.4895 -0.7921 -0.7741
 3596SOL    HW222251   3.426   1.437   6.395 -0.1976 -0.2643 -0.2869
 3597SOL     OW22252   4.117   1.718   8.216 -0.4872  0.1570 -0.3798
 3597SOL    HW122253   4.162   1.792   8.175 -0.9259 -1.1927 -3.2652
 3597SOL    HW222254   4.022   1.730   8.214 -0.5746 -0.3870  0.7466
 3598SOL     OW22255   2.486   3.740   8.758  0.5394 -0.0657 -0.0325
 3598SOL    HW122256   2.510   3.777   8.673  0.9349 -0.2283  0.0055
 3598SOL    HW222257   2.572   3.715   8.793  0.3270 -0.8059 -0.0476
 3599SOL     OW22258   4.276   1.302  11.793  0.2398  0.9696  0.9451
 3599SOL    HW122259   4.269   1.328  11.701  0.1942  3.6406  1.7069
 3599SOL    HW222260   4.243   1.213  11.782  0.9661  0.7238  0.7377
 3600SOL     OW22261   0.315   3.274   5.936 -0.7675 -0.5022  0.0518
 3600SOL    HW122262   0.387   3.270   5.999 -0.4287 -1.0390 -0.3809
 3600SOL    HW222263   0.269   3.193   5.959 -2.6115  0.6593  0.5529
 3601SOL     OW22264   2.566   3.703  11.249  0.6711  1.0513  0.1718
 3601SOL    HW122265   2.490   3.761  11.240 -0.6081 -0.0592  3.4976
 3601SOL    HW222266   2.630   3.759  11.293 -0.7919  3.6932 -1.1010
 3602SOL     OW22267   3.468   2.739  13.852 -0.2206  0.1368  0.6763
 3602SOL    HW122268   3.498   2.666  13.797 -1.7580  1.3275 -1.7232
 3602SOL    HW222269   3.428   2.706  13.933 -3.6555  0.4586 -0.9209
 3603SOL     OW22270   0.094   0.662  15.374  0.0703 -0.1230  0.2206
 3603SOL    HW122271   0.060   0.749  15.356 -1.4086 -1.3123 -2.7908
 3603SOL    HW222272   0.184   0.670  15.341  0.2909 -2.5273  0.2059
 3604SOL     OW22273   2.179   0.662   8.433 -0.4051 -0.5873  0.0378
 3604SOL    HW122274   2.244   0.643   8.365 -1.2507  0.5723 -1.1028
 3604SOL    HW222275   2.123   0.728   8.391  1.4367  2.4120  2.2702
 3605SOL     OW22276   0.484   0.180   5.357  0.1348  0.0548  0.2410
 3605SOL    HW122277   0.436   0.168   5.275 -0.1919  0.5949  0.3498
 3605SOL    HW222278   0.550   0.245   5.331  0.9815 -1.0569 -0.3815
 3606SOL     OW22279   4.270   0.802   7.429 -0.8327 -0.0018  0.0318
 3606SOL    HW122280   4.221   0.726   7.395  0.3136 -0.0054 -1.5948
 3606SOL    HW222281   4.330   0.757   7.488 -0.2657  0.3565 -0.2784
 3607SOL     OW22282   0.189   2.221   2.933  0.1850  0.1273 -0.2602
 3607SOL    HW122283   0.096   2.246   2.929  0.4371  1.5928  3.5289
 3607SOL    HW222284   0.205   2.194   2.842 -0.0580 -0.0402 -0.2550
 3608SOL     OW22285   3.858   4.493   7.282 -0.4930  0.7576  0.2499
 3608SOL    HW122286   3.834   4.401   7.288  1.5001  0.2578  0.7269
 3608SOL    HW222287   3.784   4.533   7.237 -1.2530  0.2209  1.0381
 3609SOL     OW22288   4.549   1.348   2.469 -0.4960 -0.1693 -0.6517
 3609SOL    HW122289   4.596   1.265   2.465  0.0896  0.1460 -0.3181
 3609SOL    HW222290   4.471   1.324   2.419 -1.2891  0.2138  0.4171
 3610SOL     OW22291   1.371   4.449  15.289 -0.0373 -0.0073 -0.0781
 3610SOL    HW122292   1.344   4.513  15.354 -2.3336 -0.1859 -0.8505
 3610SOL    HW222293   1.375   4.369  15.342 -1.5438  0.0733  0.1489
 3611SOL     OW22294   3.082   0.699   6.148  0.0990 -0.1707  0.4432
 3611SOL    HW122295   3.069   0.788   6.184 -1.2663 -0.2077  0.0158
 3611SOL    HW222296   3.088   0.647   6.228  3.7628 -0.0452  0.2496
 3612SOL     OW22297   1.064   2.773   4.214 -0.4479  0.4784 -0.3305
 3612SOL    HW122298   1.152   2.810   4.210  0.3733 -1.6690 -1.8651
 3612SOL    HW222299   1.040   2.742   4.126 -2.0539  1.8545 -0.3868
 3613SOL     OW22300   4.688   1.551   3.718 -0.2388  0.8120 -0.6786
 3613SOL    HW122301   4.720   1.530   3.630  1.4757  0.5691 -0.0027
 3613SOL    HW222302   4.644   1.468   3.739  0.3098  1.7894  4.4606
 3614SOL     OW22303   0.023   3.962  15.758 -0.3315  0.0027  0.1799
 3614SOL    HW122304   4.717   3.946  15.848  2.8538 -2.7511  0.7982
 3614SOL    HW222305   0.103   3.908  15.759 -1.9483 -2.3608  1.6324
 3615SOL     OW22306   0.311   4.697   3.170  0.2764  0.3356  0.2673
 3615SOL    HW122307   0.342   4.723   3.083 -1.6352  0.9042 -0.2635
 3615SOL    HW222308   0.361   4.617   3.183  2.8317  1.6297 -1.6723
 3616SOL     OW22309   4.248   0.627  13.499 -0.0008  0.9187  0.0260
 3616SOL    HW122310   4.324   0.645  13.444  0.6993 -0.9872  0.3677
 3616SOL    HW222311   4.295   0.627  13.582 -1.9279 -0.8002  1.1427
 3617SOL     OW22312   2.856   4.129   4.154 -0.7456 -0.6611  0.0663
 3617SOL    HW122313   2.932   4.188   4.148 -1.1204 -0.2482 -0.6930
 3617SOL    HW222314   2.839   4.114   4.061 -1.4325 -0.1988  0.1166
 3618SOL     OW22315   4.406   0.451  11.005 -0.2400  0.2971 -0.0070
 3618SOL    HW122316   4.433   0.467  10.915  0.6665  0.6733  0.3242
 3618SOL    HW222317   4.464   0.376  11.025  1.0137  1.4101  0.5340
 3619SOL     OW22318   2.223   3.890  15.979 -0.7678 -0.2807  0.6888
 3619SOL    HW122319   2.296   3.936  15.937 -0.3526  0.0187  1.7264
 3619SOL    HW222320   2.179   3.846  15.906  2.1453 -2.2027  0.0578
 3620SOL     OW22321   1.884   2.086   9.465  0.1675 -0.1518  0.3817
 3620SOL    HW122322   1.871   2.025   9.538 -0.3185 -1.7995 -1.0819
 3620SOL    HW222323   1.792   2.101   9.441  0.6848  1.0358 -0.8473
 3621SOL     OW22324   4.562   0.526   6.243 -0.0422 -0.0148 -0.5025
 3621SOL    HW122325   4.496   0.595   6.253  2.3977  1.9862  2.0178
 3621SOL    HW222326   4.519   0.458   6.191  1.2974 -2.7713  1.9890
 3622SOL     OW22327   1.357   3.799   3.822 -0.3227 -0.1270  0.3233
 3622SOL    HW122328   1.355   3.873   3.883  0.6642  0.1574  0.0198
 3622SOL    HW222329   1.387   3.849   3.746  0.8091  0.3696  1.0877
 3623SOL     OW22330   0.005   4.524  13.143 -0.0233  0.1660 -0.1440
 3623SOL    HW122331   4.686   4.528  13.058 -0.0043  0.3884 -0.1412
 3623SOL    HW222332   0.045   4.437  13.133  1.7791  1.4408 -3.9529
 3624SOL     OW22333   2.029   1.981   5.237 -0.0003  0.1507 -0.2972
 3624SOL    HW122334   1.960   1.947   5.294  1.0058 -1.1121  0.1706
 3624SOL    HW222335   1.979   2.035   5.176  1.3405  0.2339 -1.3272
 3625SOL     OW22336   0.557   0.676   1.626  0.0035 -0.5011 -0.2105
 3625SOL    HW122337   0.651   0.691   1.623 -0.0825  0.0599 -0.1643
 3625SOL    HW222338   0.539   0.689   1.720  0.3699 -3.4679  0.2596
 3626SOL     OW22339   3.043   0.279   1.271 -0.5859  0.1979  0.4546
 3626SOL    HW122340   3.025   0.373   1.262 -2.1318  0.0004  1.4365
 3626SOL    HW222341   3.106   0.283   1.343 -0.7060 -0.0115  0.5705
 3627SOL     OW22342   2.681   2.542  12.169  0.2584 -0.2384 -0.1736
 3627SOL    HW122343   2.690   2.457  12.212 -0.2034  0.6007  1.5780
 3627SOL    HW222344   2.775   2.561  12.172  0.0703  0.3581  2.2023
 3628SOL     OW22345   3.407   2.560   2.099 -0.0314 -0.1948  0.1502
 3628SOL    HW122346   3.336   2.611   2.062 -0.8553 -1.5991 -0.2142
 3628SOL    HW222347   3.485   2.605   2.066 -0.7253  1.0665  0.2514
 3629SOL     OW22348   3.371   3.806   5.426  0.2987  0.4857 -0.2817
 3629SOL    HW122349   3.408   3.871   5.485  2.0298  0.6572 -1.5724
 3629SOL    HW222350   3.282   3.796   5.460  0.1075 -0.2139 -0.9945
 3630SOL     OW22351   3.142   3.663  14.019  0.0897 -0.6605 -0.3989
 3630SOL    HW122352   3.167   3.687  13.930  1.0857 -0.1830  0.0191
 3630SOL    HW222353   3.149   3.739  14.077 -0.3911 -1.9667  1.3708
 3631SOL     OW22354   1.206   3.710  14.512 -0.3557  0.9529 -0.3003
 3631SOL    HW122355   1.194   3.616  14.528 -0.2043  0.5124 -2.6962
 3631SOL    HW222356   1.300   3.726  14.515  0.1343 -1.4819 -2.1575
 3632SOL     OW22357   4.091   1.476  16.821 -0.7872  0.2042 -0.2201
 3632SOL    HW122358   4.157   1.445  16.758 -0.8604 -0.5817  0.0915
 3632SOL    HW222359   4.041   1.397  16.842  1.2918 -1.1217 -0.2384
 3633SOL     OW22360   1.179   3.659   2.756  0.1395  0.1107 -0.0320
 3633SOL    HW122361   1.221   3.575   2.736 -0.0242  0.7743 -3.0658
 3633SOL    HW222362   1.088   3.633   2.765  0.1402 -0.6101 -2.1845
 3634SOL     OW22363   0.850   3.843  10.803 -0.2049 -0.1531 -0.0508
 3634SOL    HW122364   0.938   3.811  10.826  0.0277  1.5569  1.4645
 3634SOL    HW222365   0.858   3.926  10.756 -1.1930 -0.5351 -0.8870
 3635SOL     OW22366   2.878   4.628  13.969  0.0225 -0.0519 -0.5642
 3635SOL    HW122367   2.891   4.564  14.038 -0.2288  0.6667  0.1502
 3635SOL    HW222368   2.785   4.637  13.992 -0.0349 -1.5094 -0.2197
 3636SOL     OW22369   0.772   2.527  13.296 -0.1452  0.0177 -0.1713
 3636SOL    HW122370   0.803   2.505  13.383  1.6113  1.6899 -0.3599
 3636SOL    HW222371   0.813   2.455  13.249 -0.1788 -0.5627  0.7046
 3637SOL     OW22372   0.965   3.732   7.428 -0.5244  0.4959 -0.6619
 3637SOL    HW122373   0.911   3.706   7.353  0.3996  0.5794 -1.3524
 3637SOL    HW222374   0.935   3.675   7.499 -1.7427  1.7404 -0.1853
 3638SOL     OW22375   0.495   0.457   7.934 -0.5090 -0.2907  0.3226
 3638SOL    HW122376   0.517   0.548   7.912  2.6823 -1.2709 -0.4580
 3638SOL    HW222377   0.432   0.440   7.863  1.4955  0.0504 -1.5457
 3639SOL     OW22378   3.929   0.546   2.640  0.1329  0.0859  0.3122
 3639SOL    HW122379   4.014   0.559   2.682  0.9290  1.6449 -1.7956
 3639SOL    HW222380   3.940   0.552   2.545  2.2559 -1.1796  0.4730
 3640SOL     OW22381   3.294   3.966   2.671  0.0074 -0.2828  0.4414
 3640SOL    HW122382   3.222   3.984   2.731  0.2053  2.8759 -0.2831
 3640SOL    HW222383   3.251   3.907   2.609  1.0032 -0.4133 -0.1252
 3641SOL     OW22384   0.256   1.862   5.967  0.7612  0.3657  0.2995
 3641SOL    HW122385   0.262   1.866   6.063 -1.2644 -0.0000  0.4433
 3641SOL    HW222386   0.303   1.941   5.938  0.2187  0.5781  0.0094
 3642SOL     OW22387   1.269   4.379   6.895  0.8105 -0.1509 -0.4623
 3642SOL    HW122388   1.251   4.381   6.801  0.2245 -1.3045 -0.3707
 3642SOL    HW222389   1.250   4.470   6.916 -0.2857 -0.1330 -1.5780
 3643SOL     OW22390   3.852   2.086   6.945  1.2492  0.7202  0.7809
 3643SOL    HW122391   3.847   2.017   7.012  0.5862  1.0273  1.0510
 3643SOL    HW222392   3.764   2.066   6.914  1.7580  0.9191 -0.7747
 3644SOL     OW22393   3.105   4.312   4.840  0.5380 -0.0363  0.0347
 3644SOL    HW122394   3.084   4.220   4.824 -0.8582 -0.0179  1.7595
 3644SOL    HW222395   3.041   4.323   4.911 -2.2688 -4.3042 -1.8879
 3645SOL     OW22396   0.202   1.296   7.227  0.2974  0.3906 -0.3290
 3645SOL    HW122397   0.162   1.295   7.140 -1.0983  1.9717  0.2998
 3645SOL    HW222398   0.256   1.217   7.232  0.5708  0.6064  0.0377
 3646SOL     OW22399   4.259   1.873   9.535 -0.1983  0.8822 -0.5670
 3646SOL    HW122400   4.253   1.966   9.512 -0.8063  1.1267  0.5859
 3646SOL    HW222401   4.256   1.829   9.450  2.1888 -1.6411  0.6513
 3647SOL     OW22402   1.770   1.570   7.900 -0.2083  0.4756  0.3872
 3647SOL    HW122403   1.810   1.487   7.876 -2.9106 -1.8392  3.7894
 3647SOL    HW222404   1.728   1.599   7.820 -0.6891  0.1759  0.5321
 3648SOL     OW22405   0.818   0.819  14.856  0.4388 -0.1472  0.5405
 3648SOL    HW122406   0.767   0.752  14.903  0.4990 -1.3214 -1.1029
 3648SOL    HW222407   0.856   0.764  14.788  0.4034 -0.0560  0.4473
 3649SOL     OW22408   0.136   2.460  10.282 -0.0718  0.1016 -0.0652
 3649SOL    HW122409   0.192   2.535  10.301  0.4552 -0.8335  2.1039
 3649SOL    HW222410   0.200   2.395  10.310  2.0226  2.6810  1.0271
 3650SOL     OW22411   4.068   1.282   7.441 -0.0511 -0.4253 -0.1774
 3650SOL    HW122412   4.123   1.208   7.465 -1.5662 -1.5853 -0.2854
 3650SOL    HW222413   3.978   1.254   7.427  0.1523 -0.6424 -1.0820
 3651SOL     OW22414   0.192   0.285  10.179  0.0657 -0.4319  0.6264
 3651SOL    HW122415   0.155   0.247  10.259  0.6928  1.3263  1.7505
 3651SOL    HW222416   0.237   0.356  10.224 -0.6878  0.6400 -0.2927
 3652SOL     OW22417   0.811   0.424   6.126  0.3301 -0.6787  0.4205
 3652SOL    HW122418   0.782   0.492   6.187 -1.3996  0.5432 -1.7769
 3652SOL    HW222419   0.842   0.479   6.054 -0.4973 -0.1720  0.4578
 3653SOL     OW22420   3.053   4.614   6.655  0.0901  0.2628 -0.7696
 3653SOL    HW122421   3.115   4.674   6.696 -0.1255  1.6271 -2.4679
 3653SOL    HW222422   3.067   4.535   6.707 -0.6624  0.8030  0.2794
 3654SOL     OW22423   1.016   2.135   3.028  0.1881 -0.4152  0.2869
 3654SOL    HW122424   0.940   2.178   3.066  0.1406  0.1919 -0.4935
 3654SOL    HW222425   0.983   2.117   2.939 -0.1685  1.5673  0.0268
 3655SOL     OW22426   3.749   3.723   8.166  0.1927 -0.6299  0.1616
 3655SOL    HW122427   3.718   3.695   8.252  0.9129 -0.8181  0.3656
 3655SOL    HW222428   3.711   3.807   8.142 -1.9887 -2.0230 -1.2070
 3656SOL     OW22429   1.791   4.197   5.276  0.2149 -0.4889 -0.0975
 3656SOL    HW122430   1.763   4.146   5.200 -2.3978 -0.2525  0.7300
 3656SOL    HW222431   1.874   4.159   5.304  0.5777  1.0497  0.8913
 3657SOL     OW22432   2.383   4.678   6.123  0.1723 -0.5742 -0.0870
 3657SOL    HW122433   2.300   0.002   6.121  1.2147  1.2872  0.7718
 3657SOL    HW222434   2.413   4.685   6.214 -0.0657  0.9803 -0.1221
 3658SOL     OW22435   2.522   4.252   5.775  0.3379 -0.1406 -0.0591
 3658SOL    HW122436   2.519   4.272   5.682 -0.0884  1.5454  0.3182
 3658SOL    HW222437   2.463   4.177   5.781  1.1517 -0.7951 -0.1641
 3659SOL     OW22438   0.397   0.219   6.615 -0.1616  0.4971 -0.2314
 3659SOL    HW122439   0.332   0.239   6.682  1.9037 -0.8682  2.1525
 3659SOL    HW222440   0.435   0.142   6.657 -0.2630  0.7897  0.3923
 3660SOL     OW22441   0.555   1.179   2.563  0.1429  0.2157  0.3932
 3660SOL    HW122442   0.570   1.089   2.534  3.1549  0.3389  1.5521
 3660SOL    HW222443   0.588   1.173   2.653  0.4762  2.5729  0.4030
 3661SOL     OW22444   2.880   0.089  13.779 -0.1830  0.0025  0.3726
 3661SOL    HW122445   2.791   0.096  13.814 -0.6651 -0.3826 -0.7889
 3661SOL    HW222446   2.905   0.024  13.845 -0.6268 -0.2985  0.2455
 3662SOL     OW22447   0.364   4.521   7.236 -0.2328 -0.0603  0.3693
 3662SOL    HW122448   0.416   4.587   7.282 -0.6316 -0.6846  1.7425
 3662SOL    HW222449   0.418   4.443   7.245 -0.8421 -0.6825 -1.4473
 3663SOL     OW22450   3.492   2.871   8.122  0.0503  0.2590 -0.1165
 3663SOL    HW122451   3.541   2.902   8.199 -0.3457 -1.6284  0.9107
 3663SOL    HW222452   3.520   2.933   8.055 -1.1186  3.0205  1.9113
 3664SOL     OW22453   1.490   2.469  15.580 -0.1116  0.3376 -0.3197
 3664SOL    HW122454   1.580   2.434  15.580 -1.2654 -2.6176 -1.2821
 3664SOL    HW222455   1.492   2.551  15.630 -1.1416 -1.1165  2.1230
 3665SOL     OW22456   2.907   0.956   6.017 -0.0349 -0.0173  0.4085
 3665SOL    HW122457   2.852   0.998   6.083  2.0037 -0.6977  2.5372
 3665SOL    HW222458   2.992   0.966   6.060 -0.7183 -0.2056  1.7944
 3666SOL     OW22459   0.556   3.111   5.426 -0.0517 -0.1184 -0.0996
 3666SOL    HW122460   0.578   3.025   5.462  0.2607  0.1060  0.2526
 3666SOL    HW222461   0.624   3.155   5.478  1.5599 -1.1525 -1.3155
 3667SOL     OW22462   2.040   4.609   2.994 -0.3984 -0.4896  0.3548
 3667SOL    HW122463   1.957   4.597   2.948 -0.5644  0.4600  0.3951
 3667SOL    HW222464   2.056   4.703   2.980  0.9165 -0.8048 -0.2848
 3668SOL     OW22465   0.829   2.133   0.605 -0.6094 -0.4952  1.1672
 3668SOL    HW122466   0.826   2.160   0.513  1.3755  0.3008  1.3385
 3668SOL    HW222467   0.810   2.217   0.648 -1.0026  0.1184 -0.1977
 3669SOL     OW22468   3.921   4.299   6.318 -0.7445  0.1380  0.1435
 3669SOL    HW122469   3.937   4.392   6.332  1.7123 -0.2820  0.1936
 3669SOL    HW222470   3.904   4.269   6.407  0.5802  0.4695  0.5088
 3670SOL     OW22471   0.699   3.752  13.944  0.2079  0.2856 -0.3958
 3670SOL    HW122472   0.693   3.810  14.021  0.4328  1.9163 -1.5999
 3670SOL    HW222473   0.649   3.807  13.884  1.2818  0.3788 -1.1887
 3671SOL     OW22474   1.754   2.964   5.845 -0.3034  0.6675  0.3769
 3671SOL    HW122475   1.820   2.977   5.913  1.1487 -0.8359 -0.7649
 3671SOL    HW222476   1.740   2.870   5.849 -0.5885  0.6461 -1.3387
 3672SOL     OW22477   2.498   3.807   0.864 -0.2651  0.0355  0.0560
 3672SOL    HW122478   2.468   3.720   0.891 -0.0870  0.9010  2.9807
 3672SOL    HW222479   2.564   3.832   0.929 -2.4266  3.5008  0.9344
 3673SOL     OW22480   1.558   1.293  13.432  0.0895 -0.4333 -0.3903
 3673SOL    HW122481   1.565   1.383  13.465  0.9810 -0.6226 -0.0556
 3673SOL    HW222482   1.583   1.247  13.513 -1.3690  1.0841  0.9269
 3674SOL     OW22483   2.688   0.459   7.186  0.7689  0.0275  0.0850
 3674SOL    HW122484   2.647   0.393   7.131 -2.3676  2.9201 -1.0828
 3674SOL    HW222485   2.778   0.457   7.152  0.7888  1.4727  0.0491
 3675SOL     OW22486   3.234   1.205  13.154  0.4087  0.1259 -0.2090
 3675SOL    HW122487   3.318   1.212  13.107  0.4415 -0.3000 -0.2176
 3675SOL    HW222488   3.198   1.135  13.099 -1.0711  1.0491 -0.3840
 3676SOL     OW22489   4.295   1.433   3.313  0.1526 -0.4007  0.6725
 3676SOL    HW122490   4.215   1.383   3.330  1.4060 -3.1810 -1.5442
 3676SOL    HW222491   4.262   1.466   3.229  0.1630 -0.3459  0.6898
 3677SOL     OW22492   1.584   4.278   9.019  0.4987 -0.0658  0.1325
 3677SOL    HW122493   1.678   4.267   9.034  0.4854 -2.0082 -1.1577
 3677SOL    HW222494   1.586   4.323   8.934  0.1328 -1.8324 -0.8129
 3678SOL     OW22495   0.168   1.746  15.982  0.2648  0.1937  0.8169
 3678SOL    HW122496   0.143   1.717  15.894 -1.0017  0.0953  1.2036
 3678SOL    HW222497   0.079   1.755  16.016 -0.9875 -1.6200 -1.9971
 3679SOL     OW22498   0.250   1.831   6.834 -0.0616  0.1080 -0.4785
 3679SOL    HW122499   0.166   1.850   6.875  0.0187  0.1663 -0.3418
 3679SOL    HW222500   0.285   1.789   6.913  1.4157  1.3921 -0.4439
 3680SOL     OW22501   2.252   1.089   8.401  0.4682  0.2017  0.5668
 3680SOL    HW122502   2.336   1.119   8.365  0.6955 -0.4329  0.5677
 3680SOL    HW222503   2.279   1.075   8.492  0.4480 -1.6893  0.2875
 3681SOL     OW22504   2.516   1.730   7.246  0.2760 -0.4953  0.2485
 3681SOL    HW122505   2.518   1.634   7.251 -1.8611 -0.5610  0.0201
 3681SOL    HW222506   2.426   1.759   7.263 -0.3473 -2.2150 -0.0740
 3682SOL     OW22507   1.317   4.183   9.936  0.3803  0.7549  0.4050
 3682SOL    HW122508   1.283   4.105   9.893  0.6469 -0.6732  2.8251
 3682SOL    HW222509   1.283   4.250   9.876 -1.5421 -2.3809 -2.0175
 3683SOL     OW22510   0.039   2.078   4.753 -0.0052  0.3271 -0.2119
 3683SOL    HW122511   4.670   2.080   4.771  0.0365 -1.7238  0.1622
 3683SOL    HW222512   0.044   2.115   4.665 -0.7832  1.2718  0.1400
 3684SOL     OW22513   1.282   3.642   7.292  0.0326 -0.2102  0.2580
 3684SOL    HW122514   1.222   3.712   7.318  0.2657 -0.1859  0.7216
 3684SOL    HW222515   1.249   3.602   7.212  0.4989  1.4857 -0.7934
 3685SOL     OW22516   1.149   1.488   8.879  0.3693 -0.0779  0.4318
 3685SOL    HW122517   1.223   1.511   8.822  1.6495 -0.3166  2.0078
 3685SOL    HW222518   1.147   1.395   8.855  1.4365  0.8366 -3.2310
 3686SOL     OW22519   3.717   1.081   1.102 -0.2890  0.3924  0.0467
 3686SOL    HW122520   3.729   0.986   1.096  0.9851  0.5899 -0.5583
 3686SOL    HW222521   3.802   1.102   1.064  0.4878 -0.9951  1.0288
 3687SOL     OW22522   0.292   1.447   0.779 -0.3617  0.3618 -0.2147
 3687SOL    HW122523   0.331   1.448   0.867  1.9631 -1.2339 -1.2268
 3687SOL    HW222524   0.200   1.459   0.802  0.0242 -0.5627  1.8524
 3688SOL     OW22525   0.960   3.195   5.510 -0.1636  0.2819  0.2656
 3688SOL    HW122526   0.876   3.229   5.539  0.4331  2.6031 -0.7628
 3688SOL    HW222527   0.946   3.109   5.551 -1.3821  0.3460 -0.0338
 3689SOL     OW22528   2.171   0.121   6.154  0.6051 -0.0134 -0.1833
 3689SOL    HW122529   2.111   0.135   6.081  0.6380  1.5862  0.0810
 3689SOL    HW222530   2.117   0.154   6.226  0.1180 -0.1811 -0.4709
 3690SOL     OW22531   0.938   3.795   2.082  0.1192 -0.3731  0.5218
 3690SOL    HW122532   1.030   3.777   2.103  0.3301  0.1285  0.0426
 3690SOL    HW222533   0.932   3.882   2.122  1.2220 -1.0983  2.2838
 3691SOL     OW22534   2.551   1.430  12.983 -0.4848  0.1871  0.6307
 3691SOL    HW122535   2.566   1.384  12.901  3.1147  1.1516  0.7172
 3691SOL    HW222536   2.481   1.489  12.957 -0.6614  0.0304  0.7553
 3692SOL     OW22537   1.701   4.224   0.845 -0.5939 -0.1375  0.2229
 3692SOL    HW122538   1.761   4.296   0.864 -0.4974  0.0851 -0.9256
 3692SOL    HW222539   1.751   4.154   0.887 -1.4212  1.1706  3.3808
 3693SOL     OW22540   1.318   0.202   9.617 -0.3210  0.2902  0.2022
 3693SOL    HW122541   1.364   0.278   9.583  1.4520 -1.4973 -1.4400
 3693SOL    HW222542   1.294   0.223   9.707  0.4010 -0.7541  0.6423
 3694SOL     OW22543   0.528   3.849   5.760  0.3060 -0.5458 -0.4541
 3694SOL    HW122544   0.493   3.762   5.775 -0.9580  0.3303  1.6536
 3694SOL    HW222545   0.617   3.838   5.790  0.0055 -1.5870  0.0239
 3695SOL     OW22546   1.398   3.315  15.978  0.4316 -0.7023 -0.0551
 3695SOL    HW122547   1.360   3.257  16.044  1.0775  0.2945  1.1978
 3695SOL    HW222548   1.488   3.320  16.010  0.9613 -1.3851 -1.4571
 3696SOL     OW22549   3.210   0.462   4.470 -0.1169  0.2488 -0.7529
 3696SOL    HW122550   3.263   0.530   4.429  1.5348 -1.3133 -1.2442
 3696SOL    HW222551   3.187   0.507   4.551 -1.5953  0.2802 -1.1974
 3697SOL     OW22552   4.265   1.228   1.957 -0.2026 -0.2007  0.4169
 3697SOL    HW122553   4.308   1.144   1.940  1.4080  1.0969 -1.9537
 3697SOL    HW222554   4.179   1.190   1.975 -0.8476  0.1068 -2.0256
 3698SOL     OW22555   0.152   1.031   5.191 -0.5402  0.0878  1.1242
 3698SOL    HW122556   0.206   1.043   5.113 -1.6376 -0.3311  0.2960
 3698SOL    HW222557   0.075   0.994   5.148 -1.0624  3.4887 -0.8037
 3699SOL     OW22558   4.469   2.692   8.360 -0.5958  0.1424  0.4833
 3699SOL    HW122559   4.404   2.735   8.304 -0.2237  0.4219  0.2610
 3699SOL    HW222560   4.462   2.609   8.313 -1.4023  0.8312 -0.6311
 3700SOL     OW22561   4.014   2.995   7.570  0.0677 -0.6361 -0.0967
 3700SOL    HW122562   4.072   3.068   7.588 -1.2138  0.3700 -0.0762
 3700SOL    HW222563   4.040   2.975   7.481 -2.3452 -1.8380 -0.5318
 3701SOL     OW22564   1.310   4.546   7.542  0.5862 -0.1913 -0.7607
 3701SOL    HW122565   1.336   4.593   7.621  0.4693  1.3021 -1.6218
 3701SOL    HW222566   1.383   4.574   7.487  0.0959 -0.9791 -1.8191
 3702SOL     OW22567   3.217   1.643   8.247  0.8543  0.0196  0.0672
 3702SOL    HW122568   3.282   1.574   8.235  0.2088 -0.6853  0.6355
 3702SOL    HW222569   3.152   1.584   8.285  3.7055 -0.2638  4.4635
 3703SOL     OW22570   3.611   4.028  16.048  0.1601  0.1300 -0.3239
 3703SOL    HW122571   3.644   4.091  16.112  0.5276 -0.3733 -0.0199
 3703SOL    HW222572   3.585   4.081  15.972 -1.4284 -0.6629 -0.3274
 3704SOL     OW22573   3.907   2.123   8.211  0.2481  0.1568  0.0758
 3704SOL    HW122574   3.984   2.180   8.221  1.1991 -1.4137  1.9756
 3704SOL    HW222575   3.856   2.177   8.271 -0.4759 -0.4365 -0.0129
 3705SOL     OW22576   2.674   4.246   2.663  0.2113  0.0981 -0.2694
 3705SOL    HW122577   2.748   4.186   2.667  0.3275  0.5401  3.4590
 3705SOL    HW222578   2.724   4.325   2.683 -0.7754  0.5555  0.3638
 3706SOL     OW22579   4.470   2.303   6.353  0.1390 -0.5977  0.1886
 3706SOL    HW122580   4.375   2.298   6.345  0.2589  1.6873 -2.4790
 3706SOL    HW222581   4.486   2.372   6.288  1.0742  1.1536  2.2976
 3707SOL     OW22582   1.890   4.385   7.655 -0.2437  0.2639  0.4241
 3707SOL    HW122583   1.901   4.291   7.663  1.0059  0.4440  0.9153
 3707SOL    HW222584   1.949   4.393   7.580  0.2113  1.3396  0.8938
 3708SOL     OW22585   1.457   1.676   0.015 -0.0841  0.3559  0.0368
 3708SOL    HW122586   1.396   1.725   0.070  0.0071 -1.4287  1.7388
 3708SOL    HW222587   1.436   1.700  17.623  1.5680 -0.1390 -0.4814
 3709SOL     OW22588   1.231   0.409   7.998 -0.2482 -0.8976  0.3222
 3709SOL    HW122589   1.257   0.338   7.939 -1.2403  0.4204 -1.7061
 3709SOL    HW222590   1.304   0.412   8.060 -0.7816  0.4752  0.8679
 3710SOL     OW22591   1.804   3.968   4.563  0.1678  0.0828 -0.2711
 3710SOL    HW122592   1.805   3.877   4.533 -1.2949  0.7544 -2.3661
 3710SOL    HW222593   1.760   3.949   4.646 -0.3363  1.6692 -0.1883
 3711SOL     OW22594   0.794   0.484   2.525 -0.3152 -0.6616  0.1458
 3711SOL    HW122595   0.880   0.490   2.483 -0.4001  0.0660  0.0889
 3711SOL    HW222596   0.819   0.445   2.609 -0.0910  1.0366  0.8683
 3712SOL     OW22597   0.391   1.986  16.919  0.3168 -0.0769  0.2142
 3712SOL    HW122598   0.302   2.000  16.953  0.9216 -0.7427  2.0874
 3712SOL    HW222599   0.434   2.071  16.918  0.7826 -0.3543 -2.6067
 3713SOL     OW22600   3.112   3.240   2.261 -0.4670  0.0270 -0.3473
 3713SOL    HW122601   3.176   3.182   2.221  1.5207  1.4067  0.8131
 3713SOL    HW222602   3.051   3.252   2.188 -1.8647  1.0417  0.9841
 3714SOL     OW22603   2.550   3.252   3.711 -0.3927 -0.1809 -0.0380
 3714SOL    HW122604   2.608   3.327   3.726  1.6287 -1.5954 -0.8704
 3714SOL    HW222605   2.599   3.186   3.663  0.4596  0.3919  0.0489
 3715SOL     OW22606   0.495   2.930   8.489  0.1444 -0.0990  0.3851
 3715SOL    HW122607   0.511   2.887   8.573 -1.3843 -1.3122  0.0595
 3715SOL    HW222608   0.483   3.021   8.514 -1.5356 -0.5663  1.2548
 3716SOL     OW22609   3.986   0.304   4.341  0.1020 -0.1810  0.1208
 3716SOL    HW122610   4.000   0.227   4.285 -3.0180 -0.0823 -0.8169
 3716SOL    HW222611   3.928   0.355   4.286 -0.3271  0.5459  1.2463
 3717SOL     OW22612   1.124   4.339   7.575  0.0128  0.0357 -0.2269
 3717SOL    HW122613   1.193   4.405   7.578  1.5140 -1.4760 -1.8418
 3717SOL    HW222614   1.090   4.363   7.489 -1.0512 -0.8928 -0.0728
 3718SOL     OW22615   3.720   3.562   6.449  0.7206 -0.0808  0.1015
 3718SOL    HW122616   3.663   3.534   6.377  2.3914  0.4715 -1.4383
 3718SOL    HW222617   3.693   3.503   6.519  2.8372 -2.2034 -0.8681
 3719SOL     OW22618   3.048   2.927   4.823 -0.2253 -0.1179 -0.6095
 3719SOL    HW122619   3.114   2.961   4.762  1.0484 -1.7989 -0.1578
 3719SOL    HW222620   3.003   2.863   4.768 -1.1336 -0.5888  0.7111
 3720SOL     OW22621   2.460   0.781  11.260  0.8667  0.1114  0.8814
 3720SOL    HW122622   2.428   0.856  11.210 -2.2346 -1.5112  0.4747
 3720SOL    HW222623   2.434   0.707  11.206  0.0015 -0.3561  1.9217
 3721SOL     OW22624   0.232   0.638   8.526  0.8943 -0.4047 -0.1267
 3721SOL    HW122625   0.266   0.648   8.437 -0.1050 -0.4928 -0.5192
 3721SOL    HW222626   0.199   0.727   8.542 -2.3751 -1.3134 -1.8436
 3722SOL     OW22627   2.998   3.167   5.322 -0.0488 -0.2145  0.2396
 3722SOL    HW122628   3.007   3.088   5.374 -1.0578 -0.6459 -0.2447
 3722SOL    HW222629   3.044   3.136   5.243 -2.3209 -0.6779 -0.8956
 3723SOL     OW22630   0.100   2.547   3.856  0.2570 -0.7222  0.2061
 3723SOL    HW122631   0.015   2.523   3.892  0.5650  0.6190  1.8551
 3723SOL    HW222632   0.111   2.481   3.788  0.3319 -0.2949 -0.1933
 3724SOL     OW22633   1.272   4.563   5.451 -0.1563 -0.6322 -0.2718
 3724SOL    HW122634   1.358   4.536   5.486 -0.5686 -2.3570 -0.5749
 3724SOL    HW222635   1.287   4.616   5.373  0.3790  0.6278  0.6994
 3725SOL     OW22636   4.304   3.720  16.953 -0.0768  0.1673 -0.0332
 3725SOL    HW122637   4.280   3.646  17.009  1.2333  0.3716  0.8033
 3725SOL    HW222638   4.227   3.775  16.947 -0.2571 -0.2436 -1.5812
 3726SOL     OW22639   2.611   3.006   7.594 -0.0783 -0.2427 -0.0277
 3726SOL    HW122640   2.620   3.057   7.674 -0.4372 -0.8651  0.4039
 3726SOL    HW222641   2.705   3.004   7.572 -0.1202 -0.2758 -0.2063
 3727SOL     OW22642   0.583   0.230   5.941  0.1031  0.3234  0.6401
 3727SOL    HW122643   0.538   0.314   5.943  1.9791  1.3030  2.2544
 3727SOL    HW222644   0.614   0.232   5.851 -0.2735  3.0347  0.5562
 3728SOL     OW22645   2.382   0.142   5.621  0.6768  0.2550 -0.1831
 3728SOL    HW122646   2.438   0.145   5.698 -0.2080 -2.4997  0.5515
 3728SOL    HW222647   2.406   0.058   5.583  0.7439  1.4787 -2.8930
 3729SOL     OW22648   3.410   0.026   3.909 -0.5089 -0.4833  0.0617
 3729SOL    HW122649   3.417   0.076   3.991  0.4031  1.2937 -1.1003
 3729SOL    HW222650   3.373   0.085   3.844  0.9822 -1.4015 -1.6287
 3730SOL     OW22651   3.515   4.613   1.410 -0.1535  0.0271 -0.2384
 3730SOL    HW122652   3.609   4.624   1.399 -0.7754  5.0361 -0.3862
 3730SOL    HW222653   3.482   4.689   1.457  1.0207  0.3600  0.0422
 3731SOL     OW22654   2.379   2.169   7.709 -0.1758  0.0167 -0.1352
 3731SOL    HW122655   2.423   2.093   7.748 -0.9297  0.0100  0.6994
 3731SOL    HW222656   2.457   2.218   7.682  1.2048 -2.6051 -1.0346
 3732SOL     OW22657   2.316   3.022   5.154 -0.0258 -0.3185  0.5073
 3732SOL    HW122658   2.318   2.955   5.086 -0.2853 -1.0725  1.2401
 3732SOL    HW222659   2.406   3.028   5.188  0.1812  0.5182 -0.1815
 3733SOL     OW22660   1.114   2.327   0.673  0.2157 -0.3673 -0.1174
 3733SOL    HW122661   1.043   2.345   0.735  2.4896 -1.6222  2.8741
 3733SOL    HW222662   1.169   2.262   0.718 -1.3207 -1.8404 -0.3560
 3734SOL     OW22663   1.732   3.852  17.480  0.0905  0.2160 -0.0342
 3734SOL    HW122664   1.776   3.804  17.551  1.0286 -2.6020 -2.5267
 3734SOL    HW222665   1.757   3.944  17.493  0.9905  0.1128 -1.1132
 3735SOL     OW22666   2.102   3.408   1.421  0.2385 -0.1997  0.5259
 3735SOL    HW122667   2.131   3.400   1.512  0.7043 -3.3062  0.1140
 3735SOL    HW222668   2.118   3.499   1.398 -2.2144 -0.0890 -0.7443
 3736SOL     OW22669   3.651   1.815   7.513  0.7399 -0.3786  0.1106
 3736SOL    HW122670   3.652   1.720   7.500  0.0750 -0.5964  1.7089
 3736SOL    HW222671   3.586   1.843   7.449  1.6235  0.9778 -0.2177
 3737SOL     OW22672   1.399   0.238  16.580 -0.6430 -0.0635 -0.2344
 3737SOL    HW122673   1.426   0.158  16.535  1.4001  0.9531 -0.8477
 3737SOL    HW222674   1.316   0.255  16.534 -0.1954  0.7713 -0.7484
 3738SOL     OW22675   1.108   3.897  14.022 -0.4611 -0.0700  0.1006
 3738SOL    HW122676   1.051   3.971  13.999  1.9488  1.6058 -0.4816
 3738SOL    HW222677   1.074   3.825  13.970 -1.3243 -0.0018  0.5601
 3739SOL     OW22678   2.766   3.441  10.946  0.1606 -0.0844 -0.1156
 3739SOL    HW122679   2.795   3.515  10.999 -0.4595 -0.1733  0.3493
 3739SOL    HW222680   2.855   3.412  10.926  0.0793 -0.2233 -0.2729
 3740SOL     OW22681   3.281   2.785   5.691 -0.1508 -0.4449  0.1852
 3740SOL    HW122682   3.327   2.760   5.770  0.3844  1.3397  0.4524
 3740SOL    HW222683   3.263   2.879   5.704  1.3032 -0.0678 -0.5746
 3741SOL     OW22684   0.682   1.598   8.228 -0.5655  0.0123  0.0239
 3741SOL    HW122685   0.705   1.613   8.136 -2.4738 -1.9851 -0.8018
 3741SOL    HW222686   0.609   1.660   8.234 -0.3099  0.4848 -1.7881
 3742SOL     OW22687   3.180   1.007  12.969  0.0866 -0.1795  0.2582
 3742SOL    HW122688   3.263   0.968  12.940 -0.2136  1.4394 -2.7981
 3742SOL    HW222689   3.122   0.950  12.920  1.3118  0.2801 -1.7499
 3743SOL     OW22690   0.297   0.297   8.328 -0.4345 -0.5256 -0.2102
 3743SOL    HW122691   0.275   0.362   8.262 -0.3549 -0.9168 -0.6220
 3743SOL    HW222692   0.390   0.282   8.311 -0.4859 -2.8371  1.5711
 3744SOL     OW22693   2.214   2.961   6.165 -0.0349 -0.0217 -0.3421
 3744SOL    HW122694   2.197   2.993   6.254  0.6699 -2.3027  0.6255
 3744SOL    HW222695   2.307   2.942   6.180 -0.1398 -0.7262 -0.5595
 3745SOL     OW22696   2.671   2.169   5.185  0.2739 -0.4558  0.0953
 3745SOL    HW122697   2.578   2.154   5.197 -0.5022  2.7672 -1.7795
 3745SOL    HW222698   2.721   2.122   5.252 -0.9848 -1.5800  0.2283
 3746SOL     OW22699   3.159   4.010   6.424 -0.5696 -0.1878  0.1010
 3746SOL    HW122700   3.162   4.005   6.520  3.5497 -0.4311 -0.0374
 3746SOL    HW222701   3.234   4.066   6.406 -1.7973  0.5005 -2.8495
 3747SOL     OW22702   1.987   2.189   8.576  0.1398  0.5254 -0.3902
 3747SOL    HW122703   1.964   2.123   8.641  1.7470 -0.5996 -0.9620
 3747SOL    HW222704   1.964   2.144   8.495 -0.7241  1.2907 -0.5708
 3748SOL     OW22705   1.604   3.645   2.197  0.2790  0.2152  0.9322
 3748SOL    HW122706   1.554   3.579   2.245 -1.0464  2.4017  2.5495
 3748SOL    HW222707   1.664   3.601   2.137 -1.1329  0.7150 -0.8526
 3749SOL     OW22708   2.535   0.787   8.562  0.0827  0.0682 -0.6718
 3749SOL    HW122709   2.578   0.773   8.478 -0.2853 -0.4189 -0.7824
 3749SOL    HW222710   2.579   0.723   8.618  0.7496  0.5395 -0.6643
 3750SOL     OW22711   1.330   1.045   1.155 -0.3046 -0.1658  0.1759
 3750SOL    HW122712   1.290   0.964   1.185 -2.8816  0.9561 -0.3035
 3750SOL    HW222713   1.410   1.049   1.208 -0.3014  1.5512  0.0345
 3751SOL     OW22714   2.979   4.355   2.586  0.0143  0.0011  0.7153
 3751SOL    HW122715   3.032   4.411   2.642  0.8348  0.4031 -0.4835
 3751SOL    HW222716   2.960   4.281   2.644  0.2319 -0.5486  0.0871
 3752SOL     OW22717   1.928   4.448   3.944 -0.1096 -0.4617 -0.0822
 3752SOL    HW122718   1.859   4.511   3.922 -0.6853 -0.7279  0.9603
 3752SOL    HW222719   1.961   4.425   3.857 -0.5071  0.1215 -0.3886
 3753SOL     OW22720   2.408   4.204   7.102  0.0208 -0.5773 -0.3602
 3753SOL    HW122721   2.428   4.262   7.029  2.7919 -0.5716  0.4007
 3753SOL    HW222722   2.463   4.128   7.083 -0.5755 -1.0192 -0.3090
 3754SOL     OW22723   3.808   1.114   6.155  0.3332 -0.0492  0.3485
 3754SOL    HW122724   3.721   1.103   6.193  0.3168  0.0484  0.3394
 3754SOL    HW222725   3.838   1.025   6.174 -3.1440 -0.5975  3.2253
 3755SOL     OW22726   1.803   3.229   2.904  0.5259  0.2761 -0.2112
 3755SOL    HW122727   1.744   3.196   2.972  2.3970 -0.9274  0.8529
 3755SOL    HW222728   1.794   3.324   2.907 -1.3313  0.1105 -0.6902
 3756SOL     OW22729   3.347   4.588  16.451 -0.1261 -0.3053 -0.5396
 3756SOL    HW122730   3.294   4.511  16.427  0.2422 -1.1528  1.3636
 3756SOL    HW222731   3.412   4.552  16.512  0.3130 -1.1029 -1.4829
 3757SOL     OW22732   3.789   1.997   1.393  0.6804  0.5816  0.6791
 3757SOL    HW122733   3.714   2.010   1.450 -0.1342 -0.2393 -0.2080
 3757SOL    HW222734   3.802   2.088   1.366  1.8642  0.3558  0.4530
 3758SOL     OW22735   0.122   0.367   5.284 -0.0253 -0.4104  0.0614
 3758SOL    HW122736   0.108   0.374   5.190 -0.6296 -1.2229  0.0951
 3758SOL    HW222737   0.121   0.462   5.295 -1.8545 -0.5156  0.9267
 3759SOL     OW22738   0.428   1.503   4.119  0.2229  0.1379  0.0219
 3759SOL    HW122739   0.444   1.593   4.147  0.6667 -0.4464  1.6842
 3759SOL    HW222740   0.448   1.462   4.203  1.3554 -0.6490 -0.6234
 3760SOL     OW22741   2.905   0.535   9.472  0.8601  0.3604  0.1144
 3760SOL    HW122742   2.832   0.595   9.486  0.4833 -0.7325  2.7968
 3760SOL    HW222743   2.979   0.584   9.506  1.5812  0.5341 -1.6899
 3761SOL     OW22744   2.206   2.113   4.230  0.2770  0.0263 -0.2254
 3761SOL    HW122745   2.295   2.091   4.202  0.8657  0.2432  1.5063
 3761SOL    HW222746   2.227   2.117   4.323 -0.1403  2.5190 -0.2193
 3762SOL     OW22747   3.176   0.133  12.266  0.3773 -0.8216  0.2499
 3762SOL    HW122748   3.213   0.110  12.352  1.4537  2.4653  0.6852
 3762SOL    HW222749   3.212   0.066  12.209  1.7931  1.3732 -1.4358
 3763SOL     OW22750   3.859   2.505  13.665  0.8053  0.1727 -0.3718
 3763SOL    HW122751   3.947   2.469  13.661  1.1743  1.1086 -0.7134
 3763SOL    HW222752   3.828   2.454  13.740 -0.0141 -2.2336 -2.3445
 3764SOL     OW22753   0.832   3.341   8.419 -0.0527  0.2586  0.0518
 3764SOL    HW122754   0.849   3.378   8.332  0.6709  0.5117  0.3034
 3764SOL    HW222755   0.739   3.361   8.434  0.0089 -1.6596  2.9045
 3765SOL     OW22756   4.316   0.678   9.510  0.0563 -0.1502 -0.7882
 3765SOL    HW122757   4.262   0.611   9.551 -1.3090  1.0127 -0.6907
 3765SOL    HW222758   4.245   0.741   9.495 -2.3915 -2.8884 -0.6765
 3766SOL     OW22759   0.739   2.628  12.017 -0.4908 -0.1236 -0.2040
 3766SOL    HW122760   0.712   2.661  11.932 -1.1680  0.0975  0.0931
 3766SOL    HW222761   0.829   2.600  12.001 -0.5862 -0.8134  0.4198
 3767SOL     OW22762   4.384   3.812  14.332 -1.1244  0.2630  0.5862
 3767SOL    HW122763   4.447   3.837  14.265 -2.1034 -1.9871 -1.1785
 3767SOL    HW222764   4.314   3.876  14.321 -0.6023  0.6516 -0.4411
 3768SOL     OW22765   2.237   1.866  10.206  0.4053  0.3617  0.2253
 3768SOL    HW122766   2.304   1.874  10.274 -1.6291  0.4347  2.2319
 3768SOL    HW222767   2.230   1.771  10.194 -3.7268  1.3747 -5.0000
 3769SOL     OW22768   4.304   2.969  10.143  0.1346 -0.5652 -0.2876
 3769SOL    HW122769   4.257   2.887  10.128 -0.1562 -0.2554 -1.0823
 3769SOL    HW222770   4.221   3.013  10.162  0.0660 -0.5467 -0.6372
 3770SOL     OW22771   2.002   3.274   7.801  0.4656 -0.5595  0.0264
 3770SOL    HW122772   2.031   3.355   7.758  0.1181 -0.0314  0.7723
 3770SOL    HW222773   2.089   3.234   7.801  1.2540  1.1256 -2.2191
 3771SOL     OW22774   2.033   3.665   8.687 -0.0899  0.3882  0.1093
 3771SOL    HW122775   2.075   3.587   8.723  1.0785  0.6424 -0.6922
 3771SOL    HW222776   2.113   3.718   8.678  2.1977 -3.4378 -2.4190
 3772SOL     OW22777   4.070   0.020   5.772  0.5730 -0.0632  0.0583
 3772SOL    HW122778   3.980   0.046   5.795  0.2231 -0.3991 -0.9344
 3772SOL    HW222779   4.046   4.719   5.683  1.1983  2.8165 -0.9071
 3773SOL     OW22780   3.997   3.830   3.106 -0.3424  0.1073 -0.1329
 3773SOL    HW122781   3.997   3.892   3.034  2.1727  1.2788  0.8932
 3773SOL    HW222782   3.969   3.754   3.055  0.5332  0.3666 -0.9882
 3774SOL     OW22783   4.051   1.435   4.036 -0.0677 -0.4466 -0.2361
 3774SOL    HW122784   3.963   1.427   4.000  0.7425 -0.1794 -2.2728
 3774SOL    HW222785   4.040   1.399   4.124  0.7848  1.1636  0.5431
 3775SOL     OW22786   4.334   4.524   0.525 -0.3572 -0.4064 -0.6426
 3775SOL    HW122787   4.271   4.486   0.464 -0.4297 -0.6873 -0.3922
 3775SOL    HW222788   4.410   4.529   0.467  0.1062 -1.6511 -0.1525
 3776SOL     OW22789   4.618   1.797   7.967  0.3248  0.2193 -0.1567
 3776SOL    HW122790   4.550   1.732   7.984 -0.2573  1.1944  1.1867
 3776SOL    HW222791   4.580   1.879   7.998  0.9334  1.2651 -2.1465
 3777SOL     OW22792   1.757   1.608  11.341  0.3131 -0.2424 -0.1028
 3777SOL    HW122793   1.700   1.685  11.340  1.8222  0.8904  0.7413
 3777SOL    HW222794   1.798   1.636  11.259 -2.2464  0.4760 -1.1380
 3778SOL     OW22795   0.336   1.527  15.610 -0.2908  0.1866  0.2192
 3778SOL    HW122796   0.301   1.573  15.534  1.2758  2.0866  0.6395
 3778SOL    HW222797   0.428   1.521  15.582  0.4052  2.0187  2.0415
 3779SOL     OW22798   2.740   3.303   6.709  0.4886  0.0898 -0.0639
 3779SOL    HW122799   2.697   3.283   6.626 -0.5184 -3.7023  1.3895
 3779SOL    HW222800   2.743   3.219   6.755 -2.4317  0.9807  1.7639
 3780SOL     OW22801   2.743   1.426   4.208 -0.3493  0.0876  0.8933
 3780SOL    HW122802   2.736   1.331   4.224  0.5062 -0.5395 -2.4691
 3780SOL    HW222803   2.677   1.458   4.269 -0.4815  0.4543  0.5545
 3781SOL     OW22804   4.408   3.861   5.538  0.4109 -0.3019  0.3640
 3781SOL    HW122805   4.437   3.950   5.560 -0.3932  0.3542 -1.1802
 3781SOL    HW222806   4.345   3.880   5.468  2.2167 -0.7137 -1.3853
 3782SOL     OW22807   1.623   3.698   9.265  0.3665  0.4953 -0.2740
 3782SOL    HW122808   1.665   3.638   9.327  1.1043  1.0602 -0.2230
 3782SOL    HW222809   1.681   3.700   9.188 -1.2686 -1.5702 -1.5651
 3783SOL     OW22810   1.508   3.243   6.219 -0.1072  0.0330  0.0663
 3783SOL    HW122811   1.525   3.317   6.278  0.3311  0.6094 -0.7880
 3783SOL    HW222812   1.585   3.252   6.163 -0.3788  0.9529 -0.1537
 3784SOL     OW22813   2.378   3.753   0.629 -0.0225 -0.0593  0.2994
 3784SOL    HW122814   2.428   3.777   0.707 -0.3444  0.0707  0.4683
 3784SOL    HW222815   2.405   3.661   0.621  0.5568  0.2216 -0.8718
 3785SOL     OW22816   3.495   3.193   5.006 -0.0367 -0.6043  0.4361
 3785SOL    HW122817   3.482   3.272   4.954 -0.2492  0.0519  1.4924
 3785SOL    HW222818   3.569   3.164   4.953  0.6733  1.3713  0.3673
 3786SOL     OW22819   3.803   1.600   2.746 -0.9208  0.3574  0.2229
 3786SOL    HW122820   3.808   1.525   2.805 -0.2714 -0.7881 -1.2647
 3786SOL    HW222821   3.776   1.673   2.802  0.2190  0.4474  0.6644
 3787SOL     OW22822   3.980   4.161  16.058  0.1526  0.0660  0.2543
 3787SOL    HW122823   3.947   4.071  16.049  0.2733 -0.1694  2.0196
 3787SOL    HW222824   3.945   4.187  16.144 -1.1758 -3.0753  0.7012
 3788SOL     OW22825   0.576   1.999   0.358  0.5371  0.2667  0.4475
 3788SOL    HW122826   0.644   1.944   0.319 -0.9872 -1.0764 -0.3164
 3788SOL    HW222827   0.512   1.950   0.306 -0.2581  1.9654 -0.1538
 3789SOL     OW22828   2.204   3.565  16.030  0.3169  0.2060  0.0825
 3789SOL    HW122829   2.247   3.604  16.106 -0.2503  0.0625  0.4719
 3789SOL    HW222830   2.169   3.647  15.994 -1.2609 -0.3931  0.2606
 3790SOL     OW22831   4.520   0.492   3.604 -0.3996  0.0344  0.0002
 3790SOL    HW122832   4.469   0.469   3.526  0.6093 -1.3477 -0.2644
 3790SOL    HW222833   4.597   0.442   3.577 -1.9424 -1.6266 -1.3336
 3791SOL     OW22834   0.932   3.876  14.845 -0.0922  0.0391 -0.1181
 3791SOL    HW122835   0.897   3.912  14.927 -1.1146 -0.7839 -0.1854
 3791SOL    HW222836   1.023   3.867  14.872 -0.3928  0.7163  1.1146
 3792SOL     OW22837   0.311   3.818   6.163 -0.5222  0.2062  0.1977
 3792SOL    HW122838   0.308   3.726   6.190 -0.1881  0.2828  0.4912
 3792SOL    HW222839   0.219   3.840   6.179 -0.3904  2.1091 -1.6991
 3793SOL     OW22840   0.210   1.287  11.714 -0.1453  0.6251 -0.1793
 3793SOL    HW122841   0.244   1.198  11.725 -1.4721  0.2140  0.5823
 3793SOL    HW222842   0.125   1.270  11.674  0.3459 -0.5339 -0.7372
 3794SOL     OW22843   0.897   3.669   7.150 -0.0946 -0.4938 -0.0726
 3794SOL    HW122844   0.947   3.750   7.162 -0.0053 -0.4900 -0.4994
 3794SOL    HW222845   0.971   3.610   7.133  0.4043  0.0371  0.2707
 3795SOL     OW22846   3.374   1.385   7.757 -0.2555  0.1922 -0.6104
 3795SOL    HW122847   3.319   1.339   7.821 -0.7426  0.7894 -0.6082
 3795SOL    HW222848   3.328   1.384   7.673  0.4640  4.0957 -1.0450
 3796SOL     OW22849   2.499   1.241  11.530 -0.2190 -0.4271  0.1931
 3796SOL    HW122850   2.571   1.223  11.591  1.3235  0.2751 -1.4310
 3796SOL    HW222851   2.550   1.240  11.449 -0.2845  0.6389  0.1333
 3797SOL     OW22852   3.442   1.380  16.773 -0.6161  0.5695 -0.2725
 3797SOL    HW122853   3.467   1.459  16.725  0.6577  0.7231  0.6406
 3797SOL    HW222854   3.531   1.346  16.787 -1.6362 -1.2873  1.5932
 3798SOL     OW22855   3.401   4.048   2.218  0.5396 -0.3476  0.6226
 3798SOL    HW122856   3.376   4.097   2.297 -2.6249  0.3319 -0.8123
 3798SOL    HW222857   3.467   4.101   2.174  0.8732  0.6989  2.3943
 3799SOL     OW22858   2.570   3.934   5.951  0.1870 -0.3589 -0.0044
 3799SOL    HW122859   2.493   3.974   5.910 -1.4114 -0.2328  3.0569
 3799SOL    HW222860   2.527   3.863   5.999 -1.4998 -0.1391 -1.1816
 3800SOL     OW22861   2.106   1.216   7.527 -0.0636  0.0604 -0.3331
 3800SOL    HW122862   2.013   1.206   7.504 -0.5192 -0.3278  1.6859
 3800SOL    HW222863   2.094   1.297   7.577 -1.0779  0.7845 -1.7547
 3801SOL     OW22864   3.026   0.773  12.853  0.6587 -0.3670  0.0220
 3801SOL    HW122865   2.955   0.775  12.916  0.6116  1.4565 -0.0918
 3801SOL    HW222866   2.983   0.757  12.769 -1.7315  0.9950  0.9940
 3802SOL     OW22867   1.674   0.621   9.858 -0.7706 -0.1374 -0.6694
 3802SOL    HW122868   1.699   0.571   9.936 -0.2147  1.0610 -0.0738
 3802SOL    HW222869   1.718   0.701   9.887 -0.8092 -1.1341  2.1302
 3803SOL     OW22870   2.533   4.344   6.888  0.3095 -0.0091  0.4914
 3803SOL    HW122871   2.599   4.412   6.892 -0.5784  1.0475 -2.6155
 3803SOL    HW222872   2.475   4.378   6.819 -1.1602 -3.3659  0.0544
 3804SOL     OW22873   2.263   4.345   7.772 -0.8059  0.0067  0.2693
 3804SOL    HW122874   2.335   4.346   7.709 -1.7346  2.0749 -0.7655
 3804SOL    HW222875   2.245   4.251   7.776  2.5936 -0.5691  1.4220
 3805SOL     OW22876   2.895   1.447   3.868  0.4666 -0.0484 -0.1507
 3805SOL    HW122877   2.895   1.511   3.796  3.5888  0.6066  0.4318
 3805SOL    HW222878   2.958   1.387   3.827 -0.1803  0.5445 -2.0019
 3806SOL     OW22879   1.905   2.227  16.983  0.0702 -0.4927 -0.4795
 3806SOL    HW122880   1.842   2.266  17.043  0.3741 -0.1844 -0.3583
 3806SOL    HW222881   1.983   2.275  17.010 -0.8437  0.5961  0.2037
 3807SOL     OW22882   3.786   0.764   0.332 -0.2806  0.4067 -0.2469
 3807SOL    HW122883   3.757   0.699   0.396 -0.1722  4.0802  3.5049
 3807SOL    HW222884   3.852   0.708   0.291 -0.1089  1.2040 -1.0506
 3808SOL     OW22885   0.396   0.520   4.606 -0.1875  0.1134 -0.1964
 3808SOL    HW122886   0.351   0.591   4.652  0.7618  0.7125 -0.2159
 3808SOL    HW222887   0.337   0.497   4.533  1.5371 -0.8319 -1.3001
 3809SOL     OW22888   1.020   2.229  11.523 -0.0033 -0.5016  0.1572
 3809SOL    HW122889   1.067   2.146  11.531  0.8208  0.0954  1.6114
 3809SOL    HW222890   0.975   2.199  11.444 -1.9530 -0.3360  1.2073
 3810SOL     OW22891   2.461   2.664   6.272  0.1377  0.4281 -0.4554
 3810SOL    HW122892   2.505   2.590   6.231  3.0275  0.8822  1.8292
 3810SOL    HW222893   2.392   2.621   6.323  0.1138  1.3627  0.3071
 3811SOL     OW22894   0.149   3.403  15.696 -0.3435  0.5078  0.2450
 3811SOL    HW122895   0.068   3.438  15.660  0.0794  1.6049  0.3438
 3811SOL    HW222896   0.214   3.466  15.664 -0.6272  1.2302  1.0620
 3812SOL     OW22897   1.598   1.532   2.512 -0.1362  0.0377  0.0910
 3812SOL    HW122898   1.568   1.441   2.502 -0.0369  0.0437 -0.2946
 3812SOL    HW222899   1.521   1.588   2.516 -0.0408 -0.0508  2.7725
 3813SOL     OW22900   1.449   2.215   3.707 -0.2278 -0.0178  0.9010
 3813SOL    HW122901   1.474   2.235   3.616 -0.8328 -0.5675  0.6155
 3813SOL    HW222902   1.485   2.293   3.749 -2.3825  1.1495  0.6028
 3814SOL     OW22903   0.212   3.791   6.529  0.5388  0.1701 -0.0719
 3814SOL    HW122904   0.124   3.823   6.547  0.4379  0.0139 -0.2785
 3814SOL    HW222905   0.175   3.714   6.485 -0.4626 -0.9208  2.6945
 3815SOL     OW22906   0.235   4.093   7.431  0.6124 -0.3992 -0.8285
 3815SOL    HW122907   0.190   4.176   7.420 -2.7404 -2.0689  0.5188
 3815SOL    HW222908   0.163   4.039   7.399 -0.7931 -0.2584  2.1145
 3816SOL     OW22909   2.749   1.473   7.625 -0.0777  0.0444 -1.2685
 3816SOL    HW122910   2.695   1.452   7.702 -0.5336 -1.8736 -2.1084
 3816SOL    HW222911   2.701   1.429   7.555 -2.6837  0.6329  0.1222
 3817SOL     OW22912   2.591   1.870   2.038 -0.4287  0.5421  0.8577
 3817SOL    HW122913   2.548   1.951   2.066 -1.4725  1.5259 -3.6972
 3817SOL    HW222914   2.604   1.820   2.119 -1.1504  1.3970  1.5086
 3818SOL     OW22915   3.294   1.435   2.422  0.1585  0.0475 -0.1950
 3818SOL    HW122916   3.372   1.410   2.471 -0.1436  0.7333  0.6391
 3818SOL    HW222917   3.322   1.422   2.331 -1.0999 -1.0153 -0.4222
 3819SOL     OW22918   4.371   2.835   2.125 -0.5231  0.2458  0.6094
 3819SOL    HW122919   4.412   2.920   2.144 -3.0209  0.9991  2.7658
 3819SOL    HW222920   4.441   2.770   2.129 -0.4118  0.4723  2.4258
 3820SOL     OW22921   4.722   4.053   5.039  0.7300 -0.1760 -0.5571
 3820SOL    HW122922   4.695   3.988   4.974  1.5901 -0.2904 -0.8076
 3820SOL    HW222923   4.717   3.995   5.115  0.4602  0.5163 -0.0450
 3821SOL     OW22924   0.177   4.547   5.180 -0.6010  0.3902 -0.6606
 3821SOL    HW122925   0.136   4.483   5.122  1.4891  0.2756 -1.9828
 3821SOL    HW222926   0.186   4.629   5.131 -0.3197  1.9078  1.9082
 3822SOL     OW22927   3.184   4.608   3.514  0.7522 -0.1004  0.1268
 3822SOL    HW122928   3.201   4.701   3.503 -0.7249  0.2385  0.7557
 3822SOL    HW222929   3.159   4.605   3.606  1.1414 -1.0729  0.2011
 3823SOL     OW22930   0.066   2.462   0.405  0.0975 -0.1581 -0.4201
 3823SOL    HW122931   0.012   2.430   0.333 -1.4918  1.3485  0.1122
 3823SOL    HW222932   0.048   2.415   0.487 -3.6916 -0.5015 -1.4748
 3824SOL     OW22933   0.051   2.561   5.666  0.4756  0.6659 -0.2594
 3824SOL    HW122934   0.044   2.545   5.572  1.0182  0.3189 -0.2395
 3824SOL    HW222935   0.115   2.632   5.678 -0.4651  1.4092  0.3523
 3825SOL     OW22936   3.202   4.193  15.618 -0.1359  0.3317  0.2760
 3825SOL    HW122937   3.107   4.187  15.603 -0.3526 -0.1052  1.7865
 3825SOL    HW222938   3.214   4.287  15.621 -1.1970  0.5035 -1.3021
 3826SOL     OW22939   2.195   1.694   8.029  0.2267 -0.0900 -0.4161
 3826SOL    HW122940   2.189   1.753   8.104  1.2053 -2.3048  1.4206
 3826SOL    HW222941   2.175   1.615   8.079 -1.3332  1.1754  0.9491
 3827SOL     OW22942   2.385   4.524  16.300 -0.2296 -0.6702  0.3302
 3827SOL    HW122943   2.346   4.437  16.291  1.4566 -1.1686 -1.9693
 3827SOL    HW222944   2.380   4.556  16.210 -0.2175  1.5544  1.1307
 3828SOL     OW22945   1.372   1.832  14.874 -0.2911  0.6492  0.1440
 3828SOL    HW122946   1.467   1.841  14.882 -0.3934  2.2870 -0.4386
 3828SOL    HW222947   1.345   1.914  14.916  0.2537  0.6171  0.5601
 3829SOL     OW22948   4.251   2.278   2.619  0.0302 -0.1401 -0.0390
 3829SOL    HW122949   4.229   2.225   2.695  1.7937  1.1838  1.3895
 3829SOL    HW222950   4.307   2.343   2.661 -0.4798  0.3277 -0.0879
 3830SOL     OW22951   4.292   1.739   0.566  0.0164 -0.5691  0.2150
 3830SOL    HW122952   4.284   1.790   0.647  1.6822 -0.6637  0.4467
 3830SOL    HW222953   4.340   1.795   0.505 -1.1358 -0.6101 -0.7193
 3831SOL     OW22954   0.611   4.444   3.714  0.2730 -0.0802  0.6954
 3831SOL    HW122955   0.527   4.481   3.685  1.3999  1.9317 -0.0041
 3831SOL    HW222956   0.609   4.367   3.657 -0.2676  0.5165 -0.1053
 3832SOL     OW22957   1.827   3.078   8.768 -0.5792 -0.2183 -0.7679
 3832SOL    HW122958   1.756   3.113   8.822  0.9467  1.2704  0.2758
 3832SOL    HW222959   1.779   3.024   8.706  1.5129 -1.8923 -0.9389
 3833SOL     OW22960   2.423   3.486   0.584 -0.6847  0.1840  0.2874
 3833SOL    HW122961   2.348   3.428   0.598  2.1795 -3.6268 -0.3081
 3833SOL    HW222962   2.448   3.469   0.494 -0.0815  0.7238  0.3516
 3834SOL     OW22963   2.623   1.579   6.385  0.0179 -0.2169 -0.1546
 3834SOL    HW122964   2.595   1.669   6.399  2.2578  0.3067  0.8926
 3834SOL    HW222965   2.553   1.531   6.429 -0.4617  1.1952  0.6155
 3835SOL     OW22966   1.292   4.214   5.197 -0.1797 -0.0727 -0.3605
 3835SOL    HW122967   1.367   4.269   5.221 -0.1057 -0.4006  0.1698
 3835SOL    HW222968   1.275   4.259   5.114 -2.3872 -1.4452 -0.6268
 3836SOL     OW22969   2.800   2.191   6.140  0.4496  0.5186  0.1249
 3836SOL    HW122970   2.735   2.130   6.105  1.9661 -1.6967  1.1978
 3836SOL    HW222971   2.820   2.247   6.065  0.4563  0.4134  0.0489
 3837SOL     OW22972   4.119   4.460  12.361  0.1894 -0.5961  0.4410
 3837SOL    HW122973   4.029   4.481  12.337  0.6226 -0.4103 -1.0759
 3837SOL    HW222974   4.161   4.428  12.280  0.4515 -1.1802  0.8080
 3838SOL     OW22975   2.889   4.723   6.454  1.1882  0.1532 -0.7748
 3838SOL    HW122976   2.932   4.697   6.373  1.6184  0.9324 -0.7942
 3838SOL    HW222977   2.932   4.662   6.514  1.3311  1.2867  0.2796
 3839SOL     OW22978   3.697   1.589  11.082 -0.0963  0.6643  0.4718
 3839SOL    HW122979   3.742   1.633  11.155  1.2699  0.8053 -0.4418
 3839SOL    HW222980   3.644   1.528  11.134  1.8969 -0.7816  0.8047
 3840SOL     OW22981   1.665   4.205  16.241 -0.2894  0.0166  0.6397
 3840SOL    HW122982   1.604   4.151  16.191 -0.1874 -1.0265  1.6435
 3840SOL    HW222983   1.647   4.175  16.330 -1.8540 -0.8239  0.0344
 3841SOL     OW22984   3.972   3.425   3.604 -0.4813 -0.1682  0.7748
 3841SOL    HW122985   4.012   3.494   3.657  4.2766 -2.5863  0.3702
 3841SOL    HW222986   3.969   3.349   3.661  0.2058 -1.2087 -0.5561
 3842SOL     OW22987   2.470   3.847  12.450 -0.1773 -0.6508 -0.1338
 3842SOL    HW122988   2.489   3.799  12.369 -0.5858  0.6567 -1.0057
 3842SOL    HW222989   2.422   3.921  12.412  0.6055 -0.1955 -0.2271
 3843SOL     OW22990   2.045   3.184   1.616 -0.4627  0.6339 -0.3902
 3843SOL    HW122991   1.952   3.201   1.629 -0.1199  0.6451  2.1528
 3843SOL    HW222992   2.080   3.267   1.651  0.2564  0.5874 -1.0034
 3844SOL     OW22993   3.940   3.207   5.528  0.2088  0.4073 -0.0464
 3844SOL    HW122994   3.992   3.132   5.499  0.9783  1.0231 -0.2325
 3844SOL    HW222995   3.867   3.189   5.468  0.5230  1.1643 -0.6401
 3845SOL     OW22996   3.319   0.189   6.431 -0.0717  0.0132 -0.1447
 3845SOL    HW122997   3.413   0.195   6.413 -0.0975  0.4596 -0.1214
 3845SOL    HW222998   3.309   0.100   6.398 -1.1249  0.8671 -2.0839
 3846SOL     OW22999   2.517   3.906   3.507 -0.4398 -0.2289  0.0582
 3846SOL    HW123000   2.583   3.914   3.439 -1.4727  1.4870 -0.7491
 3846SOL    HW223001   2.435   3.910   3.457 -0.3969 -0.2759 -0.0153
 3847SOL     OW23002   3.842   4.193   5.679 -0.2636  0.2113  0.1979
 3847SOL    HW123003   3.750   4.167   5.677 -0.4139  0.6651  1.3448
 3847SOL    HW223004   3.862   4.218   5.769 -0.9669 -2.0002  0.9590
 3848SOL     OW23005   1.937   0.558   8.114  0.2109  0.1928  0.0581
 3848SOL    HW123006   1.987   0.639   8.128 -2.7526  2.1411 -0.7845
 3848SOL    HW223007   1.975   0.515   8.038  0.9726 -1.6044  1.4491
 3849SOL     OW23008   2.659   3.914   2.820  0.0568  0.4014  0.1641
 3849SOL    HW123009   2.709   3.957   2.751 -0.9974  0.8054 -0.3423
 3849SOL    HW223010   2.591   3.976   2.847  1.6536  2.6723 -1.0045
 3850SOL     OW23011   1.765   4.308   4.836 -0.2361 -0.1028  0.1731
 3850SOL    HW123012   1.828   4.236   4.835 -1.3296 -1.0574  1.1350
 3850SOL    HW223013   1.684   4.282   4.878 -0.6860  0.6771 -0.2246
 3851SOL     OW23014   0.633   3.809   9.630  0.5819 -0.2950  0.0637
 3851SOL    HW123015   0.586   3.892   9.640  2.6789  0.7393  1.4849
 3851SOL    HW223016   0.714   3.841   9.591  1.6158 -1.2082  1.4590
 3852SOL     OW23017   4.060   3.593  12.074 -0.0320  0.2327 -0.0568
 3852SOL    HW123018   4.134   3.619  12.129  0.0542  2.0564 -1.0546
 3852SOL    HW223019   4.082   3.636  11.992 -1.1907 -1.6795 -1.3676
 3853SOL     OW23020   3.692   2.925   5.735  0.6078  0.5128 -0.4119
 3853SOL    HW123021   3.637   3.003   5.726 -1.8295 -1.1634 -0.1762
 3853SOL    HW223022   3.711   2.925   5.829  3.1046  1.0086 -0.9343
 3854SOL     OW23023   1.467   3.753  13.135  0.2073 -0.0860 -0.1690
 3854SOL    HW123024   1.502   3.839  13.110  0.0437  0.3580  1.1143
 3854SOL    HW223025   1.549   3.707  13.152 -0.8670 -2.3095 -0.9933
 3855SOL     OW23026   3.971   2.755   9.189 -0.5060 -0.2216 -0.1266
 3855SOL    HW123027   3.901   2.808   9.150 -1.6466  0.2153  2.5533
 3855SOL    HW223028   3.915   2.703   9.246 -0.7720 -0.6025 -0.7317
 3856SOL     OW23029   0.013   0.631   8.000  0.6162 -0.2779 -0.2099
 3856SOL    HW123030   0.071   0.633   7.923 -0.2617 -0.4617 -0.8762
 3856SOL    HW223031   0.073   0.603   8.069  2.0924  1.2609 -0.8705
 3857SOL     OW23032   4.406   0.090  14.800  0.0058  0.1946 -0.5304
 3857SOL    HW123033   4.400   4.719  14.788  2.1749  0.0131 -0.2657
 3857SOL    HW223034   4.458   0.095  14.880 -1.7816  0.7347  0.5995
 3858SOL     OW23035   0.252   4.613   2.782  0.4301 -0.3092 -0.0696
 3858SOL    HW123036   0.172   4.627   2.833  0.0600  0.3549 -0.8277
 3858SOL    HW223037   0.226   4.669   2.709 -2.3270 -0.2364  0.9385
 3859SOL     OW23038   1.071   0.825   7.490 -0.2826 -0.2873  0.1623
 3859SOL    HW123039   0.991   0.874   7.471  0.7302  1.4937  0.4972
 3859SOL    HW223040   1.040   0.769   7.561 -2.0085  1.0659  0.4597
 3860SOL     OW23041   4.581   3.268  11.882  0.8165 -0.0757  0.1320
 3860SOL    HW123042   4.491   3.300  11.874  1.0227  0.7947  1.2272
 3860SOL    HW223043   4.580   3.179  11.849 -0.8762 -0.2337  0.5772
 3861SOL     OW23044   1.637   3.744   9.773  0.2795  0.2158 -0.0849
 3861SOL    HW123045   1.654   3.654   9.745  0.3306  0.5168 -0.9934
 3861SOL    HW223046   1.717   3.790   9.799 -0.5705  1.6003  0.0813
 3862SOL     OW23047   1.943   1.231   8.219 -0.0101 -0.3963  0.3177
 3862SOL    HW123048   1.932   1.160   8.155 -1.1348  0.2820 -0.2500
 3862SOL    HW223049   1.856   1.246   8.257 -0.2670  0.5430 -0.6445
 3863SOL     OW23050   1.264   2.743   6.606 -0.1851 -0.4553  0.1394
 3863SOL    HW123051   1.217   2.756   6.524  1.1644  1.7145 -0.2827
 3863SOL    HW223052   1.337   2.804   6.598 -1.2860  0.6272 -1.5981
 3864SOL     OW23053   1.051   1.379  12.690 -0.2255 -0.6259  0.6760
 3864SOL    HW123054   1.136   1.347  12.661 -0.0937  1.0027 -0.7349
 3864SOL    HW223055   0.996   1.378  12.612  0.1307  0.6720  0.4023
 3865SOL     OW23056   3.509   1.539   6.691 -0.2147  0.1070  0.5006
 3865SOL    HW123057   3.552   1.534   6.605  0.4489 -0.0379  0.8386
 3865SOL    HW223058   3.585   1.551   6.749 -0.4734  0.8022  0.6918
 3866SOL     OW23059   0.594   1.455  15.518 -0.3122  0.3961 -0.1792
 3866SOL    HW123060   0.684   1.441  15.550 -0.7061 -1.2020  0.2381
 3866SOL    HW223061   0.603   1.401  15.440  0.1404 -2.3552  1.7433
 3867SOL     OW23062   1.400   1.777   2.370  0.0315  0.4847 -0.0993
 3867SOL    HW123063   1.312   1.754   2.342  0.3350 -0.6664 -0.1055
 3867SOL    HW223064   1.398   1.810   2.460  0.0127  0.5786 -0.1341
 3868SOL     OW23065   0.401   1.916   7.730 -0.1534 -0.3761 -0.1284
 3868SOL    HW123066   0.313   1.900   7.763 -0.9696  2.1052 -1.1403
 3868SOL    HW223067   0.425   1.823   7.722 -2.4796 -0.8413 -1.8598
 3869SOL     OW23068   2.924   3.712  15.258  0.3135 -0.7239  0.3921
 3869SOL    HW123069   2.945   3.794  15.303  0.6997  0.7328 -2.4587
 3869SOL    HW223070   2.840   3.695  15.300 -1.5106 -0.1570 -3.0493
 3870SOL     OW23071   0.992   1.147   4.844  0.8566 -0.1740  0.8098
 3870SOL    HW123072   0.957   1.155   4.933  1.1328  0.1093  0.8917
 3870SOL    HW223073   1.018   1.239   4.837 -0.1143 -0.0335 -0.7574
 3871SOL     OW23074   0.616   0.241   3.855  0.0490 -0.3398  0.6668
 3871SOL    HW123075   0.606   0.272   3.765 -2.3556 -0.8223  0.7488
 3871SOL    HW223076   0.525   0.211   3.862 -0.1542  0.4348  1.3284
 3872SOL     OW23077   4.385   4.121   1.639 -0.1740 -0.2422 -0.4951
 3872SOL    HW123078   4.405   4.099   1.548  0.5943  0.7268 -0.5593
 3872SOL    HW223079   4.295   4.150   1.620  0.6498  2.4951 -0.3172
 3873SOL     OW23080   4.122   0.485   4.519  0.3251 -0.3264 -0.4543
 3873SOL    HW123081   4.071   0.439   4.453  2.4382 -1.3677 -1.3611
 3873SOL    HW223082   4.194   0.424   4.530 -0.6526 -1.5418 -0.8586
 3874SOL     OW23083   4.401   1.213   8.209  0.0332  0.5986 -0.1825
 3874SOL    HW123084   4.419   1.265   8.288  1.7908 -0.1588 -0.0924
 3874SOL    HW223085   4.481   1.162   8.196 -1.1053 -1.2631  0.1472
 3875SOL     OW23086   0.505   3.798   6.994 -0.6173  0.1855 -0.0054
 3875SOL    HW123087   0.562   3.724   7.013  0.0579  1.0235  1.1909
 3875SOL    HW223088   0.471   3.772   6.908 -1.2311 -1.4727  0.7278
 3876SOL     OW23089   1.889   3.439  12.649 -0.5470 -0.4336 -0.0329
 3876SOL    HW123090   1.847   3.494  12.583  3.1201  1.4677 -0.7632
 3876SOL    HW223091   1.843   3.470  12.727 -0.6763  1.8486 -1.0159
 3877SOL     OW23092   0.043   4.600   4.334 -0.0339  0.3736  0.0778
 3877SOL    HW123093   0.072   4.595   4.425  0.9646 -0.8864 -0.3218
 3877SOL    HW223094   0.130   4.600   4.295 -0.1468 -2.3752 -0.1507
 3878SOL     OW23095   0.366   0.846   5.697 -0.5564 -0.6034  0.0344
 3878SOL    HW123096   0.397   0.775   5.641  0.9610 -1.0257  1.4164
 3878SOL    HW223097   0.292   0.796   5.733 -0.7469  0.5390  1.2172
 3879SOL     OW23098   0.832   2.064  13.946  0.3240  0.0103 -0.0902
 3879SOL    HW123099   0.843   1.972  13.924  1.4520  0.4899 -1.5274
 3879SOL    HW223100   0.826   2.065  14.042 -1.7631  1.3333 -0.2302
 3880SOL     OW23101   1.911   4.072   6.905 -0.0053  0.1148 -0.2182
 3880SOL    HW123102   1.935   4.162   6.927  1.6195 -0.7150  1.4141
 3880SOL    HW223103   1.934   4.070   6.812  0.2591  0.2350 -0.1549
 3881SOL     OW23104   1.072   2.990  12.120  0.0257 -0.1063 -0.0977
 3881SOL    HW123105   1.120   3.045  12.058 -3.6359 -0.0262 -2.8620
 3881SOL    HW223106   1.065   3.051  12.193  0.4470 -0.4557  0.2420
 3882SOL     OW23107   2.877   3.675   3.892 -0.2298 -0.0915  0.4417
 3882SOL    HW123108   2.819   3.735   3.938  0.1042  0.2930  0.3685
 3882SOL    HW223109   2.848   3.681   3.801  1.2082 -0.4120 -0.0390
 3883SOL     OW23110   0.531   2.041  14.583  0.0740  0.1515 -0.1906
 3883SOL    HW123111   0.556   2.061  14.493 -2.6981  1.3639 -0.6722
 3883SOL    HW223112   0.455   2.097  14.601  1.9635  3.3449 -2.1201
 3884SOL     OW23113   4.365   3.457   1.878  0.3594  0.7359 -0.1066
 3884SOL    HW123114   4.356   3.531   1.818  1.2485  0.6763 -0.3171
 3884SOL    HW223115   4.395   3.502   1.956  0.2860  0.4221  0.1045
 3885SOL     OW23116   0.347   4.178  11.954  0.4098 -0.2523 -0.3674
 3885SOL    HW123117   0.371   4.087  11.969  1.1483  0.3141  1.9423
 3885SOL    HW223118   0.432   4.222  11.959  0.0870  0.3221  0.0996
 3886SOL     OW23119   4.304   4.451   2.995 -0.4459 -0.0253 -0.3008
 3886SOL    HW123120   4.380   4.506   3.013  0.7578 -1.8629  0.2121
 3886SOL    HW223121   4.349   4.368   2.984 -0.8401 -0.0732 -1.5673
 3887SOL     OW23122   2.099   0.220   3.742  0.5013 -0.5162 -0.1549
 3887SOL    HW123123   2.179   0.216   3.794  2.5331 -1.6154 -3.4129
 3887SOL    HW223124   2.106   0.310   3.711  1.3294 -1.4995 -2.7743
 3888SOL     OW23125   4.552   2.262  15.064 -0.3087  0.6639 -0.1642
 3888SOL    HW123126   4.577   2.341  15.111 -2.3133  0.9483  0.4121
 3888SOL    HW223127   4.519   2.295  14.980  0.3357  0.4308 -0.5161
 3889SOL     OW23128   2.898   2.212   7.461  0.4367  0.2378  0.1544
 3889SOL    HW123129   2.861   2.130   7.493  2.0255  0.8463  3.6680
 3889SOL    HW223130   2.917   2.250   7.547  0.2022 -1.6285  1.0343
 3890SOL     OW23131   1.379   4.514   0.028 -0.1432 -0.8903 -0.4306
 3890SOL    HW123132   1.449   4.498  17.664 -1.3643  0.6859 -2.2023
 3890SOL    HW223133   1.423   4.514   0.113 -1.0672  0.3078  0.0489
 3891SOL     OW23134   2.412   3.368   2.764  0.5245 -0.0481  0.4258
 3891SOL    HW123135   2.459   3.407   2.838 -0.0140 -0.4521  0.9792
 3891SOL    HW223136   2.383   3.285   2.801  0.9994 -1.0564 -1.4612
 3892SOL     OW23137   1.560   3.334   9.185 -0.4419  0.3753  0.3161
 3892SOL    HW123138   1.561   3.389   9.107 -1.3369  1.1371  0.8310
 3892SOL    HW223139   1.632   3.277   9.163 -0.8327  0.4226 -1.0719
 3893SOL     OW23140   0.497   0.170   8.928  0.0529  0.0867 -0.0779
 3893SOL    HW123141   0.503   0.258   8.890 -0.7997  0.3919  0.4953
 3893SOL    HW223142   0.467   0.123   8.850 -4.8764  2.3924  0.4188
 3894SOL     OW23143   0.745   4.670  11.532  0.0769 -0.1220  0.4115
 3894SOL    HW123144   0.701   0.018  11.576  0.5855 -1.1888  2.6636
 3894SOL    HW223145   0.718   4.679  11.440  1.0957  2.4778  0.3647
 3895SOL     OW23146   3.495   2.213   3.367 -0.2054  0.2431 -0.7568
 3895SOL    HW123147   3.474   2.161   3.290 -0.6820 -1.0705  0.2596
 3895SOL    HW223148   3.416   2.192   3.418  0.3307  1.5003  0.5924
 3896SOL     OW23149   3.278   4.318  12.128  0.0448  0.6793  0.3138
 3896SOL    HW123150   3.277   4.373  12.206 -3.0217  3.9860 -2.0803
 3896SOL    HW223151   3.195   4.272  12.142  0.1804  0.4022  0.2233
 3897SOL     OW23152   0.980   4.197  12.093  0.4540  0.3376  0.1561
 3897SOL    HW123153   0.935   4.232  12.016 -1.6977 -1.1618  0.7193
 3897SOL    HW223154   1.057   4.252  12.080  0.6367  0.1935  0.6344
 3898SOL     OW23155   4.425   0.954  15.200  0.2667 -0.0565  0.6074
 3898SOL    HW123156   4.431   0.915  15.113 -0.2692 -0.5088  0.7777
 3898SOL    HW223157   4.346   1.007  15.204  0.2600 -0.0126 -0.0407
 3899SOL     OW23158   2.200   4.495   3.700 -0.2998  0.0492  0.0134
 3899SOL    HW123159   2.218   4.420   3.757  1.0160  0.5243  0.2096
 3899SOL    HW223160   2.271   4.554   3.725  0.5933 -1.9673  2.2746
 3900SOL     OW23161   1.034   1.317   1.132  0.6711  0.2069  0.1672
 3900SOL    HW123162   1.081   1.285   1.055 -2.1208 -1.5170 -0.8335
 3900SOL    HW223163   1.103   1.307   1.197 -0.3139 -1.4735  0.9466
 3901SOL     OW23164   1.456   2.806  10.813 -0.0712 -0.3991 -0.8482
 3901SOL    HW123165   1.366   2.779  10.797  0.1348 -2.1988  0.9843
 3901SOL    HW223166   1.483   2.833  10.725 -0.6499  0.7758 -0.6729
 3902SOL     OW23167   3.413   4.351   3.160  0.0878  0.6425 -0.7810
 3902SOL    HW123168   3.383   4.292   3.230 -1.2157 -0.3282 -2.1736
 3902SOL    HW223169   3.509   4.350   3.166 -0.0736 -0.1482  1.7469
 3903SOL     OW23170   1.646   3.921  12.133  0.3132  0.2762 -0.1619
 3903SOL    HW123171   1.662   3.986  12.202 -0.7030  0.7920 -0.4093
 3903SOL    HW223172   1.604   3.970  12.063  0.4924 -1.3788 -1.3989
 3904SOL     OW23173   1.508   0.945  16.892 -0.1877  0.2019 -0.1144
 3904SOL    HW123174   1.570   0.945  16.964  0.9741  0.4067 -1.1139
 3904SOL    HW223175   1.547   0.887  16.827  1.1818  0.7252  0.2445
 3905SOL     OW23176   2.319   1.958   8.796  0.5279  0.4735  0.2108
 3905SOL    HW123177   2.289   1.939   8.885 -2.3161  0.1079 -0.8217
 3905SOL    HW223178   2.379   2.030   8.813  1.8817 -0.8087  0.8677
 3906SOL     OW23179   4.454   0.565  10.748  0.5726  0.2027  0.2397
 3906SOL    HW123180   4.404   0.539  10.671 -1.2886 -0.7780  1.7695
 3906SOL    HW223181   4.502   0.642  10.717 -0.7416  2.1413  3.0357
 3907SOL     OW23182   2.365   4.016   5.755  0.2164 -0.2948 -0.0314
 3907SOL    HW123183   2.379   3.955   5.683 -1.2149  0.3955 -0.8962
 3907SOL    HW223184   2.277   4.049   5.734  0.4177  0.1621 -0.1489
 3908SOL     OW23185   2.532   1.915   7.710 -0.2543 -0.0214  0.3606
 3908SOL    HW123186   2.498   1.848   7.651 -2.1979  1.3246 -0.0339
 3908SOL    HW223187   2.465   1.929   7.776  0.4893 -1.0154  1.3213
 3909SOL     OW23188   2.911   4.031   0.898  0.5255 -0.2364  0.1843
 3909SOL    HW123189   2.992   4.069   0.934 -0.0112  1.3067 -0.2172
 3909SOL    HW223190   2.875   4.104   0.847  1.0464  1.3240  2.0139
 3910SOL     OW23191   3.465   0.549   7.653  0.0448  0.5425 -0.3003
 3910SOL    HW123192   3.523   0.579   7.583 -0.1470 -0.7714 -1.0336
 3910SOL    HW223193   3.428   0.468   7.617 -0.3533  1.5846 -2.2907
 3911SOL     OW23194   3.274   2.733   9.614  0.1522  0.1271 -0.2913
 3911SOL    HW123195   3.207   2.679   9.573 -1.6829  0.6041  2.1131
 3911SOL    HW223196   3.245   2.820   9.586  2.1730  1.3357  1.3503
 3912SOL     OW23197   0.670   1.033   0.603  0.6254 -0.0728 -0.0754
 3912SOL    HW123198   0.616   1.003   0.676 -0.4881  0.6868 -0.5795
 3912SOL    HW223199   0.603   1.019   0.535  0.2350 -2.8577  0.8698
 3913SOL     OW23200   2.926   0.407   8.830 -0.5325 -0.1966 -1.0957
 3913SOL    HW123201   2.987   0.357   8.883 -0.3964  0.5832 -0.5041
 3913SOL    HW223202   2.848   0.357   8.856  1.2607 -0.1596  4.3974
 3914SOL     OW23203   4.350   1.386  13.242  0.1446  0.3926 -0.1861
 3914SOL    HW123204   4.356   1.456  13.176  0.8420 -2.3672 -3.0239
 3914SOL    HW223205   4.275   1.421  13.290  1.8404  1.0072  2.0129
 3915SOL     OW23206   1.330   0.042   6.770 -0.1341 -0.4186  0.3468
 3915SOL    HW123207   1.324   0.121   6.715 -4.1771  0.6610  2.2988
 3915SOL    HW223208   1.416   0.013   6.741  0.3600  1.7567 -0.3884
 3916SOL     OW23209   2.528   4.129   2.415  0.5223  0.2981  0.4483
 3916SOL    HW123210   2.574   4.177   2.484 -0.3171  0.0027  1.2191
 3916SOL    HW223211   2.519   4.197   2.348  2.1816 -0.5519 -0.6139
 3917SOL     OW23212   2.010   3.432  11.478  0.1792  0.3966 -0.0841
 3917SOL    HW123213   2.078   3.402  11.538  1.3500 -1.5547 -2.3972
 3917SOL    HW223214   1.931   3.437  11.532  1.5197 -0.9587  1.9904
 3918SOL     OW23215   1.957   2.897   2.567 -0.5060  0.4073  0.0424
 3918SOL    HW123216   1.875   2.902   2.519 -1.5298  1.2549  1.9034
 3918SOL    HW223217   1.998   2.814   2.542 -0.4123  0.7037 -0.8044
 3919SOL     OW23218   2.978   4.712   1.836  0.1509  0.7353 -0.5941
 3919SOL    HW123219   2.999   4.635   1.783 -2.4088 -0.3075 -0.0541
 3919SOL    HW223220   3.056   4.700   1.889 -0.4851  1.1035  0.4224
 3920SOL     OW23221   1.692   4.082   5.684  0.2396 -0.5943  0.1657
 3920SOL    HW123222   1.695   4.140   5.760 -1.4902 -1.2204  0.7113
 3920SOL    HW223223   1.698   4.147   5.613  1.9754 -2.6282 -1.5591
 3921SOL     OW23224   0.170   3.856   7.147 -0.4406  0.0599 -0.4362
 3921SOL    HW123225   0.114   3.821   7.077  0.9694 -2.3286 -0.3833
 3921SOL    HW223226   0.118   3.828   7.222  1.6214  0.8351  1.2692
 3922SOL     OW23227   4.053   2.019  10.179 -0.2749 -0.2590 -0.2236
 3922SOL    HW123228   4.054   1.991  10.087  0.8909 -0.8617 -0.0408
 3922SOL    HW223229   4.026   1.936  10.217 -0.2888  1.1011  2.7019
 3923SOL     OW23230   1.228   2.376   3.433  0.6169 -0.1167 -0.2783
 3923SOL    HW123231   1.293   2.308   3.416  1.6056  0.7421  0.0779
 3923SOL    HW223232   1.149   2.322   3.424  0.8988 -0.2184 -2.2790
 3924SOL     OW23233   3.424   1.286  13.718 -0.2649  0.1099  0.0896
 3924SOL    HW123234   3.406   1.379  13.709  1.2151  0.6256  2.6114
 3924SOL    HW223235   3.411   1.270  13.624 -0.8597 -3.1344  0.7335
 3925SOL     OW23236   3.766   1.091   9.089  0.0744 -0.1223  0.1946
 3925SOL    HW123237   3.734   1.062   9.004 -0.0726 -0.3487  0.3267
 3925SOL    HW223238   3.751   1.186   9.089  0.1824 -0.1043  0.5146
 3926SOL     OW23239   3.267   0.354   6.928 -0.1121  0.2808  0.2188
 3926SOL    HW123240   3.298   0.376   6.840 -2.2106  1.0241 -0.3248
 3926SOL    HW223241   3.341   0.392   6.975  0.3840 -1.8562  1.1991
 3927SOL     OW23242   3.561   3.336   0.931 -0.0692 -0.4598  0.0072
 3927SOL    HW123243   3.607   3.252   0.918 -0.5822 -0.4433 -1.8360
 3927SOL    HW223244   3.556   3.367   0.841  3.4318 -0.6204 -0.2590
 3928SOL     OW23245   4.555   1.156  17.036 -0.8391  0.3298 -0.2209
 3928SOL    HW123246   4.620   1.148  17.106 -0.9281  0.0288 -0.1751
 3928SOL    HW223247   4.541   1.250  17.023  1.6526  0.6500 -0.7184
 3929SOL     OW23248   0.799   2.371   9.461  0.9660 -0.1053  0.5442
 3929SOL    HW123249   0.805   2.433   9.534 -1.1154 -1.1144  1.5931
 3929SOL    HW223250   0.878   2.395   9.414  1.7930  1.2955  2.6770
 3930SOL     OW23251   4.623   0.526   4.972  0.3317 -0.4222 -0.2009
 3930SOL    HW123252   4.627   0.619   4.949  2.1076 -0.0520  1.5346
 3930SOL    HW223253   4.717   0.514   4.988  0.9685  4.1373 -0.4508
 3931SOL     OW23254   1.333   1.430   7.385 -0.4072  0.1568 -0.2683
 3931SOL    HW123255   1.414   1.481   7.395 -0.8821  0.4930  1.8653
 3931SOL    HW223256   1.335   1.399   7.294  2.1274 -0.5924  0.0390
 3932SOL     OW23257   3.073   3.770  11.517 -0.1218  0.4487 -0.0679
 3932SOL    HW123258   3.070   3.835  11.587  2.7771  0.5109  0.0188
 3932SOL    HW223259   2.992   3.721  11.530  0.9725 -1.4987 -0.6752
 3933SOL     OW23260   2.071   4.597   8.602 -0.7949 -0.4283 -0.0927
 3933SOL    HW123261   2.138   4.567   8.541 -0.1943 -2.8339  1.7513
 3933SOL    HW223262   2.101   4.557   8.683  0.3370 -0.9549 -0.7768
 3934SOL     OW23263   4.256   2.643   3.755  0.6121  0.8914 -0.6923
 3934SOL    HW123264   4.236   2.664   3.846 -0.0387 -0.4673 -0.5068
 3934SOL    HW223265   4.344   2.680   3.751  0.5299  1.3772  1.8971
 3935SOL     OW23266   3.782   1.194   9.428  0.0042 -0.3440  0.0305
 3935SOL    HW123267   3.842   1.132   9.387 -1.4313  0.6972 -3.6155
 3935SOL    HW223268   3.712   1.135   9.455 -0.0462  1.0023  2.8463
 3936SOL     OW23269   1.547   4.527   0.296 -0.4825 -0.4530 -0.0578
 3936SOL    HW123270   1.580   4.522   0.385 -0.8719 -3.7602 -0.1320
 3936SOL    HW223271   1.527   4.435   0.280 -1.6152 -0.1771 -0.2025
 3937SOL     OW23272   0.621   3.199   6.436 -0.2092 -0.0209  0.4632
 3937SOL    HW123273   0.625   3.288   6.471  0.1097  0.2310 -0.2077
 3937SOL    HW223274   0.688   3.210   6.368 -0.6821  1.2102  0.1927
 3938SOL     OW23275   2.865   1.236  13.020 -0.0922  0.3056  0.1089
 3938SOL    HW123276   2.952   1.198  13.034 -0.3110 -0.1120  0.3601
 3938SOL    HW223277   2.834   1.171  12.957  0.7147  1.0314 -1.0155
 3939SOL     OW23278   3.834   2.690  12.717 -0.7866 -0.0810 -0.2125
 3939SOL    HW123279   3.755   2.732  12.750 -0.3263  0.5754  0.0456
 3939SOL    HW223280   3.809   2.686  12.624 -2.6021 -2.5679  0.3887
 3940SOL     OW23281   1.093   3.166  14.431 -0.0203 -0.0191  0.1224
 3940SOL    HW123282   1.072   3.090  14.486 -0.6502 -0.7044 -1.0631
 3940SOL    HW223283   1.062   3.148  14.342 -0.3577 -1.1539  0.4646
 3941SOL     OW23284   4.652   3.100   8.735  0.0807 -0.5535 -0.4054
 3941SOL    HW123285   4.583   3.164   8.754  1.8183  1.3011 -0.3627
 3941SOL    HW223286   4.692   3.122   8.819 -0.6285  0.5166 -0.3415
 3942SOL     OW23287   3.591   2.184   3.811  0.2433  0.5175 -0.1717
 3942SOL    HW123288   3.661   2.223   3.864  1.1212 -0.2410 -0.7811
 3942SOL    HW223289   3.618   2.093   3.800 -0.5770  0.2652 -0.0998
 3943SOL     OW23290   2.168   3.371  13.507  0.0047 -0.3464  0.8713
 3943SOL    HW123291   2.082   3.364  13.466  0.5360 -0.0946 -0.3023
 3943SOL    HW223292   2.147   3.440  13.570  1.0706 -0.4318  1.3326
 3944SOL     OW23293   2.882   4.388  10.490 -0.6379 -0.6888 -0.0483
 3944SOL    HW123294   2.876   4.292  10.491  1.4812 -0.8076 -0.4814
 3944SOL    HW223295   2.887   4.416  10.581  0.9318  0.8306 -0.6226
 3945SOL     OW23296   0.905   3.746   4.411 -0.3133 -0.0111  0.3970
 3945SOL    HW123297   0.955   3.762   4.331  1.3477 -0.3682  1.3828
 3945SOL    HW223298   0.846   3.822   4.412  0.0659  0.2679  1.2675
 3946SOL     OW23299   1.863   1.586   9.607 -0.3153 -0.4645 -0.1963
 3946SOL    HW123300   1.816   1.617   9.684  2.9090  0.5470  1.3640
 3946SOL    HW223301   1.819   1.507   9.576 -1.5226 -0.1304  0.7211
 3947SOL     OW23302   0.318   2.775   6.442 -0.2273  0.0358  0.2547
 3947SOL    HW123303   0.306   2.700   6.501 -0.7986 -0.2082 -0.1672
 3947SOL    HW223304   0.336   2.731   6.358 -0.5103  0.9839 -0.2986
 3948SOL     OW23305   2.441   0.970   4.116 -0.3071  0.0097 -0.5356
 3948SOL    HW123306   2.442   1.065   4.132  1.6763 -0.0374 -0.4020
 3948SOL    HW223307   2.432   0.936   4.205  3.2083 -0.7812 -0.4842
 3949SOL     OW23308   4.659   3.173   9.441  0.0186 -0.6124 -0.0232
 3949SOL    HW123309   4.632   3.128   9.361  0.8768 -0.2679 -0.4968
 3949SOL    HW223310   4.580   3.180   9.494 -1.8886  1.3664 -3.1557
 3950SOL     OW23311   1.248   4.489   9.386  0.4184  0.1445 -0.1529
 3950SOL    HW123312   1.245   4.513   9.293 -1.2331  2.5016  0.5086
 3950SOL    HW223313   1.240   4.575   9.428  1.2595 -1.2885  2.9360
 3951SOL     OW23314   0.275   3.582  15.482 -0.5367  0.2971 -0.1838
 3951SOL    HW123315   0.306   3.639  15.412  1.2623 -3.2216 -2.2411
 3951SOL    HW223316   0.271   3.495  15.443 -1.0618  0.4551 -0.4862
 3952SOL     OW23317   2.059   4.440   4.772  0.5653  0.0129  0.1274
 3952SOL    HW123318   2.080   4.349   4.754 -0.8789 -0.3627  0.3803
 3952SOL    HW223319   1.977   4.457   4.726  1.8196 -0.5416 -2.3535
 3953SOL     OW23320   3.247   1.141   9.256  0.5866 -0.1823  0.2251
 3953SOL    HW123321   3.286   1.222   9.223  1.3439 -0.6722 -0.0626
 3953SOL    HW223322   3.260   1.145   9.351  1.9137 -2.1881  0.1140
 3954SOL     OW23323   0.351   3.267  13.115  0.1233  0.0919 -0.5186
 3954SOL    HW123324   0.370   3.340  13.057 -3.1333  0.6691 -0.8418
 3954SOL    HW223325   0.438   3.257  13.154  0.2587 -1.6736 -1.2574
 3955SOL     OW23326   2.881   2.048   4.351 -0.1940 -0.5135 -0.1696
 3955SOL    HW123327   2.960   1.996   4.335  0.0752  0.0865 -0.8309
 3955SOL    HW223328   2.877   2.042   4.446  0.0918  0.4820 -0.0987
 3956SOL     OW23329   0.534   3.992   2.835 -0.2250  0.2892 -0.1763
 3956SOL    HW123330   0.486   3.929   2.782  0.1328 -0.7628  0.7327
 3956SOL    HW223331   0.482   4.018   2.912 -2.3684  1.9046 -2.1736
 3957SOL     OW23332   4.100   1.375  15.937  0.1814 -0.3395 -0.7521
 3957SOL    HW123333   4.174   1.345  15.991  0.6579  1.8381 -0.1644
 3957SOL    HW223334   4.120   1.339  15.851  0.8850  3.9845 -2.4300
 3958SOL     OW23335   1.897   2.906  14.871  0.1218 -0.2321 -0.3868
 3958SOL    HW123336   1.925   2.975  14.811 -2.2601  1.2127  0.1723
 3958SOL    HW223337   1.815   2.948  14.897  0.4481  0.2222 -0.1071
 3959SOL     OW23338   0.949   2.698   7.765 -0.0488 -0.0398 -0.1878
 3959SOL    HW123339   0.881   2.638   7.733  0.7658 -0.6223 -0.8211
 3959SOL    HW223340   0.967   2.651   7.846  0.7441 -3.3106 -2.2549
 3960SOL     OW23341   0.492   0.733   7.790 -0.1122  0.1996 -0.1642
 3960SOL    HW123342   0.486   0.828   7.775  1.5233  0.1382 -1.2094
 3960SOL    HW223343   0.442   0.706   7.712 -1.1768 -1.1868  1.0000
 3961SOL     OW23344   1.123   2.720   3.041  0.3509  0.4166  0.1565
 3961SOL    HW123345   1.157   2.798   2.998  2.5796 -1.3455 -1.3135
 3961SOL    HW223346   1.073   2.683   2.968  0.8554  3.1456 -1.5383
 3962SOL     OW23347   1.868   3.104  15.470 -0.0238 -0.3843  0.1593
 3962SOL    HW123348   1.892   3.180  15.417  0.8415 -2.3664 -2.2868
 3962SOL    HW223349   1.797   3.074  15.413  0.6650  0.3204 -1.0880
 3963SOL     OW23350   1.439   3.677  13.395  0.7723 -0.3061  0.1333
 3963SOL    HW123351   1.520   3.722  13.419  1.0371 -0.7735  0.1259
 3963SOL    HW223352   1.418   3.704  13.306 -0.0205 -0.1246  0.3751
 3964SOL     OW23353   3.451   4.447   3.510 -0.2456  0.1149 -0.1273
 3964SOL    HW123354   3.515   4.495   3.458  1.3226 -1.7642  0.0548
 3964SOL    HW223355   3.384   4.509   3.539  1.0318  1.7778 -0.7864
 3965SOL     OW23356   4.644   3.570  16.074 -0.7044 -0.0050  0.7335
 3965SOL    HW123357   4.579   3.540  16.138  0.0952  1.1694  2.0835
 3965SOL    HW223358   4.593   3.635  16.026 -1.2392 -1.5457 -0.8042
 3966SOL     OW23359   3.686   3.675   8.417  0.2160  0.4614  0.3420
 3966SOL    HW123360   3.638   3.615   8.474 -0.5257  0.3643 -0.3971
 3966SOL    HW223361   3.650   3.756   8.451  0.9206  0.7269  0.4531
 3967SOL     OW23362   2.083   3.682   7.417  0.0708 -0.0787 -0.1305
 3967SOL    HW123363   2.173   3.690   7.449 -0.3526 -0.3108  1.1360
 3967SOL    HW223364   2.106   3.628   7.342 -2.5511 -0.7720 -0.4513
 3968SOL     OW23365   1.122   2.511   9.086  0.2292  0.5858 -0.6127
 3968SOL    HW123366   1.202   2.562   9.099  1.2235 -1.1126 -0.0667
 3968SOL    HW223367   1.138   2.474   9.000  4.1577  1.0204 -0.0790
 3969SOL     OW23368   1.786   4.693   9.075 -0.1500  0.3396 -0.6585
 3969SOL    HW123369   1.774   0.029   9.002 -0.0036  1.6778  0.4173
 3969SOL    HW223370   1.763   0.020   9.153  0.9735  0.3348 -0.3253
 3970SOL     OW23371   2.612   0.542   7.457  0.1435 -0.0478 -0.0821
 3970SOL    HW123372   2.580   0.501   7.377 -0.2675  1.2112 -0.5734
 3970SOL    HW223373   2.682   0.603   7.432 -3.4060  3.5053 -1.5001
 3971SOL     OW23374   2.610   2.691  14.623  0.0067 -0.0828 -0.1426
 3971SOL    HW123375   2.549   2.620  14.601 -0.9426  0.6488  0.0959
 3971SOL    HW223376   2.639   2.716  14.535  0.8610  2.9476  0.9816
 3972SOL     OW23377   0.563   4.335   7.272  0.1163 -0.3239  0.0590
 3972SOL    HW123378   0.624   4.345   7.345  0.5582 -0.7770 -0.2505
 3972SOL    HW223379   0.552   4.240   7.276 -1.5852 -0.0735  1.3375
 3973SOL     OW23380   3.334   0.661   3.121 -0.3925 -0.8672 -0.4198
 3973SOL    HW123381   3.357   0.666   3.029 -1.9455  0.0989 -0.7650
 3973SOL    HW223382   3.394   0.587   3.132 -1.5352 -1.4720  1.8523
 3974SOL     OW23383   0.691   1.196   8.701 -0.0021  0.3516  0.0685
 3974SOL    HW123384   0.600   1.218   8.721 -0.5013  0.2529 -2.0320
 3974SOL    HW223385   0.737   1.257   8.759  1.6637  0.4780 -1.4004
 3975SOL     OW23386   3.392   3.388   1.127 -0.4541 -0.2229  0.1246
 3975SOL    HW123387   3.447   3.384   1.206 -1.8909 -1.3315  1.0802
 3975SOL    HW223388   3.460   3.364   1.065  1.4276  0.6367  1.8683
 3976SOL     OW23389   0.540   3.760   7.371  0.5898 -0.4870 -0.3565
 3976SOL    HW123390   0.495   3.689   7.326 -1.4746 -0.5477  1.8489
 3976SOL    HW223391   0.574   3.810   7.296  0.3775  1.2043  0.6836
 3977SOL     OW23392   0.466   1.994   7.082 -0.5206  0.0761  0.1125
 3977SOL    HW123393   0.520   1.917   7.100  0.2772  0.5717 -0.1595
 3977SOL    HW223394   0.453   1.985   6.987  0.7732 -1.1456  0.0578
 3978SOL     OW23395   3.012   3.506  11.174  0.1603 -0.0718 -0.1824
 3978SOL    HW123396   3.028   3.451  11.098 -0.0439 -1.7178  0.9686
 3978SOL    HW223397   3.084   3.482  11.233 -0.6713 -3.2982 -0.4948
 3979SOL     OW23398   1.392   0.756   1.253 -0.0461  0.3202  1.0297
 3979SOL    HW123399   1.416   0.695   1.184 -1.3935  0.9734 -0.0027
 3979SOL    HW223400   1.319   0.708   1.292 -0.4646  0.9658  1.0393
 3980SOL     OW23401   1.780   2.135   8.073  0.3024  1.3265 -0.0310
 3980SOL    HW123402   1.844   2.137   8.144 -2.6590  0.3263  2.6680
 3980SOL    HW223403   1.702   2.154   8.126  1.2261 -0.5393  1.9702
 3981SOL     OW23404   1.163   3.854   3.473 -0.1634 -0.1874  0.3317
 3981SOL    HW123405   1.149   3.764   3.500 -0.1285 -1.0003 -2.4017
 3981SOL    HW223406   1.123   3.864   3.387 -0.5755  1.0675  0.6641
 3982SOL     OW23407   0.095   0.810   7.011 -0.0775  0.2435 -0.3695
 3982SOL    HW123408   0.027   0.858   7.059  1.2621 -1.1869  2.9684
 3982SOL    HW223409   0.049   0.728   6.994 -0.1537  0.1520  0.2997
 3983SOL     OW23410   0.199   0.814   2.028 -0.0312  0.7165 -0.0757
 3983SOL    HW123411   0.116   0.768   2.035  0.4306 -0.2631 -0.9860
 3983SOL    HW223412   0.231   0.767   1.950  2.0380 -0.9850  1.8081
 3984SOL     OW23413   3.681   2.694   6.175 -0.2510  0.1566  0.3125
 3984SOL    HW123414   3.656   2.764   6.235  1.2396  2.8780 -2.2963
 3984SOL    HW223415   3.776   2.706   6.171 -0.2888  1.0322  1.8935
 3985SOL     OW23416   1.937   4.348   5.717  0.4775  0.2204  0.5967
 3985SOL    HW123417   1.949   4.442   5.702  2.1367 -0.1824 -0.6047
 3985SOL    HW223418   1.866   4.330   5.654 -0.2607 -0.5708  1.6612
 3986SOL     OW23419   2.269   3.702   2.966 -0.0171 -0.6281  0.0233
 3986SOL    HW123420   2.283   3.607   2.968  2.7512 -0.2353 -0.0954
 3986SOL    HW223421   2.234   3.712   2.878 -0.2563  2.3068  0.4567
 3987SOL     OW23422   0.999   0.990   3.806  0.1964 -0.0691  0.7905
 3987SOL    HW123423   0.953   0.931   3.866 -0.2536 -1.1604 -0.6326
 3987SOL    HW223424   1.063   1.027   3.866 -0.4611  1.9495  0.2491
 3988SOL     OW23425   0.274   2.205   7.802  0.3938 -0.2155 -0.2973
 3988SOL    HW123426   0.197   2.214   7.858  1.0984 -0.9070  0.7900
 3988SOL    HW223427   0.274   2.113   7.779  4.1130 -0.3068  0.0216
 3989SOL     OW23428   4.092   3.831   3.518  0.1552  0.4199  0.5655
 3989SOL    HW123429   4.172   3.860   3.475 -1.1893  1.1827 -1.3963
 3989SOL    HW223430   4.129   3.790   3.596  1.2002  1.2314  0.4843
 3990SOL     OW23431   3.037   2.375   2.348  0.0502 -0.1393 -0.4686
 3990SOL    HW123432   3.100   2.444   2.371 -1.9982  0.6541  2.8339
 3990SOL    HW223433   3.017   2.374   2.255  0.2236 -1.2918 -0.4876
 3991SOL     OW23434   0.465   3.188   4.612 -0.4614 -0.3260 -0.0499
 3991SOL    HW123435   0.442   3.106   4.566  1.5442 -0.6126 -0.5235
 3991SOL    HW223436   0.379   3.219   4.641  0.6305 -0.2558  3.0044
 3992SOL     OW23437   4.220   2.578   8.251 -0.4546 -0.1306 -0.0265
 3992SOL    HW123438   4.149   2.642   8.252  0.0268  0.4208 -0.6250
 3992SOL    HW223439   4.251   2.580   8.342 -1.7568 -4.5655  0.5138
 3993SOL     OW23440   1.592   4.340   6.433  0.1497  0.4067 -0.2370
 3993SOL    HW123441   1.597   4.280   6.359  0.1457  0.1650 -0.0423
 3993SOL    HW223442   1.651   4.403   6.392 -0.9997  1.3500 -0.4365
 3994SOL     OW23443   2.533   2.267   5.466 -0.2491  0.1394 -0.4705
 3994SOL    HW123444   2.498   2.236   5.382 -1.1978  0.8974 -0.3584
 3994SOL    HW223445   2.469   2.236   5.530 -0.6252  1.4414 -0.2197
 3995SOL     OW23446   1.547   0.127   4.895  0.0780 -0.1958  0.3059
 3995SOL    HW123447   1.498   0.200   4.934  0.2307 -0.4832  1.0288
 3995SOL    HW223448   1.493   0.055   4.928 -1.0305  1.5224  2.2507
 3996SOL     OW23449   1.525   3.990   9.775 -0.4528  0.2519  0.5058
 3996SOL    HW123450   1.602   4.040   9.749  0.6202 -0.9423  1.3785
 3996SOL    HW223451   1.562   3.903   9.786 -0.8242  0.2775  2.0503
 3997SOL     OW23452   1.276   0.807   4.129  0.5206 -0.1379  0.0758
 3997SOL    HW123453   1.235   0.721   4.115  1.6158 -0.7761  0.7552
 3997SOL    HW223454   1.248   0.827   4.219 -1.1395  1.6095 -0.8509
 3998SOL     OW23455   3.113   0.319   6.284 -0.0329 -0.1513  0.0613
 3998SOL    HW123456   3.115   0.258   6.211 -2.3669 -2.7297  2.1571
 3998SOL    HW223457   3.195   0.296   6.327  0.4778 -1.6396 -1.7678
 3999SOL     OW23458   3.581   1.219   2.978 -0.1063 -0.2348 -0.0184
 3999SOL    HW123459   3.598   1.307   2.946 -0.2673  0.1497  0.9337
 3999SOL    HW223460   3.616   1.223   3.067  0.9274 -2.0628 -0.3360
 4000SOL     OW23461   0.844   2.129   0.086 -0.6826  0.4851  0.3840
 4000SOL    HW123462   0.810   2.041   0.104  1.6123  0.1587  3.1022
 4000SOL    HW223463   0.825   2.152  17.694 -0.7815  1.2950  0.6075
 4001SOL     OW23464   2.694   0.742   4.397  0.6297 -0.3261  0.1199
 4001SOL    HW123465   2.603   0.771   4.390  0.1037 -1.5293  1.8625
 4001SOL    HW223466   2.728   0.803   4.331  0.4110 -0.0025  0.3047
 4002SOL     OW23467   0.752   4.613  17.173  0.0649  0.6450  0.1404
 4002SOL    HW123468   0.835   4.593  17.129 -0.4270 -1.4724  0.1895
 4002SOL    HW223469   0.757   4.708  17.170  1.0282  0.5399 -1.3708
 4003SOL     OW23470   1.151   0.999   2.685 -0.1631 -0.0663  0.0984
 4003SOL    HW123471   1.174   1.021   2.595  0.0494 -1.5544 -0.1998
 4003SOL    HW223472   1.209   1.058   2.733  2.2046 -1.5043 -0.9812
 4004SOL     OW23473   1.465   0.588  10.584  0.4027 -0.6502 -0.5400
 4004SOL    HW123474   1.391   0.622  10.635  1.7700 -0.5713  1.4148
 4004SOL    HW223475   1.463   0.638  10.502  1.7190 -1.0612 -0.8298
 4005SOL     OW23476   2.663   0.353   6.640  0.2143 -0.0864  0.4509
 4005SOL    HW123477   2.663   0.277   6.581  1.2606 -0.1313  0.5179
 4005SOL    HW223478   2.757   0.367   6.643  0.2874 -0.6425  0.8044
 4006SOL     OW23479   0.856   1.797  13.928 -0.1608 -0.9708 -0.1225
 4006SOL    HW123480   0.942   1.792  13.886  0.3448  0.1116  0.7538
 4006SOL    HW223481   0.842   1.705  13.948 -0.7473 -0.8521  0.0023
 4007SOL     OW23482   1.887   0.979   5.176 -0.4322  0.2754  0.0196
 4007SOL    HW123483   1.819   1.004   5.113  1.1799 -0.4184 -1.9953
 4007SOL    HW223484   1.949   1.052   5.176 -2.1662  1.7425 -0.6319
 4008SOL     OW23485   3.695   1.611   6.867 -0.3934  0.3776 -0.0524
 4008SOL    HW123486   3.784   1.623   6.832 -0.2115  1.2706  0.7339
 4008SOL    HW223487   3.718   1.605   6.959  0.2155  0.9174 -0.1695
 4009SOL     OW23488   2.952   2.441  14.574  0.2431 -0.8217 -0.4362
 4009SOL    HW123489   2.968   2.506  14.643 -0.7980 -0.3115 -0.6767
 4009SOL    HW223490   3.007   2.463  14.500 -0.9723  0.7881 -0.8540
 4010SOL     OW23491   4.424   1.734   6.082  0.3590 -0.5949 -0.3522
 4010SOL    HW123492   4.383   1.798   6.140  0.3447 -0.3627 -0.6127
 4010SOL    HW223493   4.502   1.722   6.136  0.1751 -0.5938 -0.0885
 4011SOL     OW23494   2.016   1.540  17.464 -0.0438 -0.5470 -0.6542
 4011SOL    HW123495   2.006   1.478  17.392 -4.2283 -2.0584  1.1861
 4011SOL    HW223496   1.931   1.584  17.458  0.3879 -0.0661 -3.4878
 4012SOL     OW23497   3.039   1.926   1.555 -0.0892  0.4627 -0.2495
 4012SOL    HW123498   2.962   1.962   1.512 -1.1608  0.6186  1.8070
 4012SOL    HW223499   3.024   1.832   1.545 -0.0378  0.2196  1.8947
 4013SOL     OW23500   3.832   3.526   6.894 -0.7838  0.4496 -0.1182
 4013SOL    HW123501   3.741   3.528   6.921 -0.8616  0.0231 -0.3544
 4013SOL    HW223502   3.875   3.550   6.977 -2.6922  2.1242  0.3704
 4014SOL     OW23503   3.360   0.189  13.106  0.1680 -0.1083  0.2833
 4014SOL    HW123504   3.435   0.213  13.159  0.1926  1.1014 -0.2966
 4014SOL    HW223505   3.305   0.145  13.171  0.2940  0.3776  0.7246
 4015SOL     OW23506   0.586   0.204   6.227  0.0070  0.4624  0.4542
 4015SOL    HW123507   0.539   0.287   6.233  0.5948  0.7344  1.3211
 4015SOL    HW223508   0.597   0.206   6.132  1.1531  1.4504  0.6151
 4016SOL     OW23509   0.292   2.582   7.317 -0.0222  0.0432 -0.0557
 4016SOL    HW123510   0.251   2.514   7.263 -1.1627 -1.0512  2.1728
 4016SOL    HW223511   0.263   2.662   7.274  0.0516 -0.0958 -0.3659
 4017SOL     OW23512   3.947   3.006  11.185 -0.1359  0.1230  0.0301
 4017SOL    HW123513   3.894   2.998  11.265  0.9419 -1.0468  0.6175
 4017SOL    HW223514   3.910   3.082  11.140 -1.7368 -0.5934  0.1213
 4018SOL     OW23515   4.693   0.381  17.224 -0.2746 -0.8207 -0.1988
 4018SOL    HW123516   0.017   0.330  17.290  0.9034  0.6404  0.0676
 4018SOL    HW223517   0.028   0.456  17.215  0.3983 -1.4525 -1.0568
 4019SOL     OW23518   3.934   2.410   9.142  0.0677 -0.1756  0.1530
 4019SOL    HW123519   3.843   2.405   9.111  0.3827 -0.0072 -0.7921
 4019SOL    HW223520   3.967   2.438   9.057 -0.5718 -1.5376 -0.5485
 4020SOL     OW23521   3.938   3.112   5.903  0.3763 -0.6430 -0.2297
 4020SOL    HW123522   4.011   3.051   5.894  0.2482 -0.8752  0.2796
 4020SOL    HW223523   3.979   3.192   5.935  1.2502 -1.3391  0.3713
 4021SOL     OW23524   0.415   2.600   4.040  0.3880 -0.2292  1.0482
 4021SOL    HW123525   0.455   2.513   4.041 -0.7475 -0.7859 -0.8510
 4021SOL    HW223526   0.495   2.652   4.030 -0.0884  0.3617  0.2632
 4022SOL     OW23527   0.867   1.749   5.769  0.4369  0.5705  0.5858
 4022SOL    HW123528   0.842   1.678   5.828 -1.2440  1.7097  1.2545
 4022SOL    HW223529   0.781   1.786   5.750 -0.0358  0.3710  2.3099
 4023SOL     OW23530   2.359   4.714   6.403 -0.1430  0.3097 -0.0581
 4023SOL    HW123531   2.388   4.689   6.491 -0.7372 -0.5287 -0.0923
 4023SOL    HW223532   2.269   0.014   6.423 -0.7735 -0.9172 -1.3311
 4024SOL     OW23533   3.800   1.361   4.012 -0.3412 -0.0094 -0.3736
 4024SOL    HW123534   3.776   1.343   4.103  0.9463 -0.7039 -0.1674
 4024SOL    HW223535   3.712   1.356   3.974 -0.8315  2.7391  0.4039
 4025SOL     OW23536   1.241   1.911   8.298  0.7530  0.1027 -0.0348
 4025SOL    HW123537   1.261   1.851   8.226 -1.7273  1.1497 -1.5658
 4025SOL    HW223538   1.329   1.948   8.306  0.7577  0.2510 -0.7262
 4026SOL     OW23539   1.401   1.719   7.179  0.3846  0.1276  0.6200
 4026SOL    HW123540   1.446   1.784   7.233  0.6931  0.0028  0.5142
 4026SOL    HW223541   1.419   1.641   7.232  0.6489 -0.5733 -0.4917
 4027SOL     OW23542   4.027   3.977  11.842  0.4550  0.5892 -0.2168
 4027SOL    HW123543   4.039   3.892  11.883 -1.7143  0.6242  0.5007
 4027SOL    HW223544   4.076   3.971  11.760 -0.4021 -0.7351 -0.6246
 4028SOL     OW23545   2.721   2.275   3.029 -0.2645  0.2488  0.1554
 4028SOL    HW123546   2.684   2.189   3.012 -0.6737  0.1095  1.7163
 4028SOL    HW223547   2.782   2.307   2.963  1.9681  0.3337  2.2575
 4029SOL     OW23548   2.559   2.477   8.095 -0.0607 -0.1413  0.3417
 4029SOL    HW123549   2.517   2.408   8.147 -4.8878  3.2347  0.9720
 4029SOL    HW223550   2.625   2.428   8.047  0.1408  0.4484  0.0236
 4030SOL     OW23551   0.562   3.930   5.458  0.0079 -0.1016 -0.2988
 4030SOL    HW123552   0.478   3.922   5.412  0.3614 -0.7633 -0.8271
 4030SOL    HW223553   0.531   3.920   5.548  3.9951 -3.1456  0.7233
 4031SOL     OW23554   3.808   2.282   8.407 -0.0582  0.3558  0.0174
 4031SOL    HW123555   3.880   2.307   8.466  1.0710  0.9841 -1.6291
 4031SOL    HW223556   3.793   2.367   8.366  0.5470  1.3713  1.9218
 4032SOL     OW23557   3.518   2.478   5.309 -0.1479 -0.1536  0.3208
 4032SOL    HW123558   3.516   2.449   5.218 -0.2173 -0.0292  0.2835
 4032SOL    HW223559   3.565   2.561   5.308 -0.1573 -0.1965 -3.2891
 4033SOL     OW23560   4.588   3.524  11.080  0.3543  0.0589 -0.5914
 4033SOL    HW123561   4.678   3.492  11.081  0.2140 -0.2518  2.7486
 4033SOL    HW223562   4.597   3.613  11.115 -2.5821 -0.3874  1.2907
 4034SOL     OW23563   2.315   1.517   2.998 -0.5077 -0.1844  0.3291
 4034SOL    HW123564   2.398   1.494   3.039  0.5788  0.0626 -1.7538
 4034SOL    HW223565   2.289   1.571   3.073 -0.6405  0.7146 -0.3691
 4035SOL     OW23566   2.319   2.116   1.361  0.1990 -0.0647  0.5254
 4035SOL    HW123567   2.371   2.063   1.301 -1.7689  1.3039 -2.3815
 4035SOL    HW223568   2.230   2.109   1.325 -0.7891  1.0162  2.7067
 4036SOL     OW23569   3.507   0.998   0.060  0.2504 -0.5236 -0.3695
 4036SOL    HW123570   3.421   1.014   0.023  0.0242 -2.7505 -0.7986
 4036SOL    HW223571   3.529   1.091   0.071 -1.6380 -0.1060 -0.2284
 4037SOL     OW23572   2.607   4.483  10.341 -0.2887 -0.4134 -0.1760
 4037SOL    HW123573   2.657   4.561  10.363 -0.9939 -0.0373  0.0843
 4037SOL    HW223574   2.566   4.472  10.427  1.8594  1.8402  1.1399
 4038SOL     OW23575   2.753   4.528   2.749 -0.6779  0.5054  0.5807
 4038SOL    HW123576   2.770   4.558   2.838  2.2524  1.7018 -0.3803
 4038SOL    HW223577   2.767   4.607   2.697  1.5741 -1.2177 -1.4599
 4039SOL     OW23578   3.756   3.121   7.603  0.5934  0.3418  0.0702
 4039SOL    HW123579   3.841   3.079   7.619 -0.6603 -1.8193  1.0542
 4039SOL    HW223580   3.751   3.099   7.510  3.1366 -0.4818  0.1278
 4040SOL     OW23581   1.407   4.104   5.848  0.2193  0.2250  0.1212
 4040SOL    HW123582   1.316   4.096   5.877  0.3750 -1.2294  0.1951
 4040SOL    HW223583   1.416   4.052   5.769  0.1374  2.4060 -1.3259
 4041SOL     OW23584   3.119   1.736   2.766 -0.7054 -0.3524  0.3724
 4041SOL    HW123585   3.154   1.652   2.738  0.4098 -0.6577  2.7264
 4041SOL    HW223586   3.199   1.767   2.808  0.7239  0.1286 -2.6680
 4042SOL     OW23587   1.484   3.625   6.447  0.6324  0.1126 -0.1076
 4042SOL    HW123588   1.556   3.648   6.388 -0.9538 -0.9766 -2.4880
 4042SOL    HW223589   1.535   3.573   6.509 -1.6547 -0.9039  0.9030
 4043SOL     OW23590   4.665   3.762   2.125  0.2859  0.5548 -0.1553
 4043SOL    HW123591   4.654   3.735   2.034 -2.6194 -2.0603  1.0002
 4043SOL    HW223592   0.004   3.833   2.110 -0.3426  0.8755 -1.2381
 4044SOL     OW23593   3.939   2.771   3.931 -0.0911  0.4851  0.1496
 4044SOL    HW123594   3.945   2.859   3.968 -1.9623  1.0155 -0.8096
 4044SOL    HW223595   3.993   2.786   3.854 -0.3744 -0.9696 -0.3365
 4045SOL     OW23596   2.337   4.662  10.055  0.3901  0.1000  0.0068
 4045SOL    HW123597   2.311   0.018  10.100  0.3079 -1.0587  2.0368
 4045SOL    HW223598   2.338   4.604  10.132  0.5521  1.6664  1.1729
 4046SOL     OW23599   1.843   2.000  15.137 -0.1396  0.2348  0.0755
 4046SOL    HW123600   1.846   2.015  15.043  2.1963  0.7680  0.2401
 4046SOL    HW223601   1.836   2.087  15.177  2.1413  0.1318  0.6708
 4047SOL     OW23602   0.982   4.017   7.840  0.1311 -0.3841 -0.0286
 4047SOL    HW123603   0.894   4.003   7.805  1.3271 -0.5333 -2.9652
 4047SOL    HW223604   1.018   4.088   7.787 -1.8202  1.7321  1.4727
 4048SOL     OW23605   3.583   2.795   1.955 -0.3362  0.3158  0.4460
 4048SOL    HW123606   3.515   2.815   1.890  1.2584  0.0151 -1.3176
 4048SOL    HW223607   3.664   2.818   1.910  0.2977 -0.5471  1.1531
 4049SOL     OW23608   4.717   3.620   1.856  0.2688 -0.4718  0.5665
 4049SOL    HW123609   4.684   3.557   1.792  0.1213  1.1427 -0.9430
 4049SOL    HW223610   4.713   3.698   1.801 -1.0625 -1.1189 -0.2727
 4050SOL     OW23611   3.368   3.980   0.610  0.9205  0.1158 -0.0226
 4050SOL    HW123612   3.296   3.982   0.547 -0.0567  0.7695  1.1312
 4050SOL    HW223613   3.369   3.897   0.658  0.3963  1.1802  1.7965
 4051SOL     OW23614   0.828   1.442   1.423  0.0890 -0.2540  0.5460
 4051SOL    HW123615   0.856   1.495   1.498 -0.4459  0.4493  0.2511
 4051SOL    HW223616   0.745   1.402   1.451 -0.1836  0.0203  0.1419
 4052SOL     OW23617   1.821   0.852   6.569  0.2184  0.4418  0.0377
 4052SOL    HW123618   1.777   0.935   6.554 -0.3002  0.4223  1.3943
 4052SOL    HW223619   1.907   0.877   6.536  0.9067 -0.1948  1.3404
 4053SOL     OW23620   1.241   2.017   3.704 -0.4130 -0.0819  0.1051
 4053SOL    HW123621   1.279   2.101   3.677 -1.8612 -0.0513 -1.8089
 4053SOL    HW223622   1.242   2.036   3.798  0.1335  1.7171 -0.2617
 4054SOL     OW23623   2.881   0.212  12.016  0.0433  0.1361  0.6809
 4054SOL    HW123624   2.806   0.271  12.022 -0.8194 -1.0170  1.2408
 4054SOL    HW223625   2.844   0.126  11.996 -0.8148  0.4934  0.7410
 4055SOL     OW23626   3.202   4.193  10.021 -0.4161  0.2851  0.5709
 4055SOL    HW123627   3.293   4.192  10.052  0.3316 -1.5380 -1.6949
 4055SOL    HW223628   3.188   4.098  10.012 -4.0652  0.8882 -0.2607
 4056SOL     OW23629   3.294   2.666   4.722 -0.6706  0.9032  0.8400
 4056SOL    HW123630   3.345   2.697   4.796  2.6303 -1.6105 -0.3949
 4056SOL    HW223631   3.260   2.751   4.693  2.0916  1.5636 -0.4108
 4057SOL     OW23632   4.721   1.406  15.436 -0.2933 -0.7635  0.2673
 4057SOL    HW123633   0.023   1.494  15.464  0.4308 -0.4716 -1.3629
 4057SOL    HW223634   4.626   1.410  15.424 -0.0327  0.0930 -1.4727
 4058SOL     OW23635   4.054   4.339  13.290  0.1594 -0.5372  0.0056
 4058SOL    HW123636   4.008   4.406  13.341 -0.3927  0.2820 -1.5836
 4058SOL    HW223637   4.030   4.366  13.202  2.5698  2.1467  0.1615
 4059SOL     OW23638   1.418   0.292   4.627  0.1383  0.0025  0.1785
 4059SOL    HW123639   1.395   0.200   4.624  1.7499 -0.3741 -0.9299
 4059SOL    HW223640   1.513   0.282   4.636  0.2171  1.1111  0.5613
 4060SOL     OW23641   3.181   0.340   9.508 -0.3115 -0.1692 -0.0969
 4060SOL    HW123642   3.134   0.274   9.559  1.0917 -0.0828  1.3382
 4060SOL    HW223643   3.149   0.425   9.536 -1.7835 -1.1528  1.2079
 4061SOL     OW23644   2.892   4.543   9.154 -0.0333  0.1633 -0.4439
 4061SOL    HW123645   2.971   4.538   9.100 -0.5934 -1.8207 -1.0747
 4061SOL    HW223646   2.820   4.564   9.094 -0.6129  1.2147  0.6232
 4062SOL     OW23647   0.362   4.008   1.531 -0.4597  0.4690  0.3534
 4062SOL    HW123648   0.366   4.073   1.601  0.7906  1.5514 -0.7205
 4062SOL    HW223649   0.409   4.063   1.468 -0.2587  2.3969  2.2003
 4063SOL     OW23650   1.789   2.733   5.245 -0.2640 -0.6414 -0.3905
 4063SOL    HW123651   1.698   2.763   5.252  0.2014  0.6102  0.4076
 4063SOL    HW223652   1.813   2.784   5.168  0.3528  1.4606  1.1982
 4064SOL     OW23653   0.865   0.509  10.271 -0.3925  0.2832  0.1442
 4064SOL    HW123654   0.940   0.472  10.317 -0.5204 -1.1257 -0.7730
 4064SOL    HW223655   0.914   0.530  10.191 -0.9477  0.2177 -0.2142
 4065SOL     OW23656   4.558   0.445  13.569  0.2005 -0.1828  0.3383
 4065SOL    HW123657   4.530   0.525  13.524 -4.0665 -2.3399 -0.8386
 4065SOL    HW223658   4.475   0.415  13.606 -0.9003  0.4090 -1.6240
 4066SOL     OW23659   0.147   2.609   2.852 -0.7255  0.2022 -0.3961
 4066SOL    HW123660   0.196   2.568   2.782  0.3659  0.9115 -0.0442
 4066SOL    HW223661   0.163   2.703   2.844 -0.2158  0.0809 -0.7758
 4067SOL     OW23662   2.896   0.847   8.843 -0.2740 -0.1020 -0.3120
 4067SOL    HW123663   2.859   0.771   8.888  0.6142 -0.0461  0.5066
 4067SOL    HW223664   2.861   0.922   8.891  1.7296  0.7605 -0.1897
 4068SOL     OW23665   2.142   1.766   2.965  0.1803 -0.0604  0.6404
 4068SOL    HW123666   2.061   1.736   2.924  1.1515  0.4022 -1.6714
 4068SOL    HW223667   2.172   1.682   2.999 -0.3178  0.2784  1.9115
 4069SOL     OW23668   0.724   3.083  12.958  0.7438  0.8761  0.2675
 4069SOL    HW123669   0.657   3.022  12.989  0.4105  0.7626 -0.6639
 4069SOL    HW223670   0.784   3.015  12.929  1.8537  1.0870  2.1049
 4070SOL     OW23671   3.778   0.896  14.266  0.5662 -0.1009 -0.2491
 4070SOL    HW123672   3.733   0.886  14.182  1.0414 -0.8222 -0.4172
 4070SOL    HW223673   3.733   0.972  14.302 -1.9330 -1.6730 -0.0503
 4071SOL     OW23674   0.032   3.716   6.942  0.2932 -0.5132 -0.6322
 4071SOL    HW123675   0.058   3.644   6.884  0.4908 -1.3958  0.5370
 4071SOL    HW223676   0.005   3.785   6.881 -0.2135 -1.3888 -1.4059
 4072SOL     OW23677   1.174   3.800   3.009 -0.2600 -0.2048  0.0113
 4072SOL    HW123678   1.257   3.758   3.031  1.0001  0.9048 -2.6335
 4072SOL    HW223679   1.148   3.765   2.923  0.2844 -2.5469  0.7863
 4073SOL     OW23680   1.818   3.757   2.083  0.7029 -0.4679  0.2447
 4073SOL    HW123681   1.742   3.755   2.140  0.4689 -2.9836 -0.1612
 4073SOL    HW223682   1.870   3.823   2.129 -0.0313 -0.3448  0.9075
 4074SOL     OW23683   3.725   1.610   1.157 -0.2033 -0.1641 -0.5068
 4074SOL    HW123684   3.729   1.521   1.191 -1.4853  0.7202  1.9604
 4074SOL    HW223685   3.631   1.619   1.140 -0.9038 -1.4690  2.8922
 4075SOL     OW23686   3.309   0.741   4.365 -0.1606  0.3521 -0.5720
 4075SOL    HW123687   3.364   0.729   4.442 -1.9343 -1.5756  0.3768
 4075SOL    HW223688   3.240   0.792   4.408  2.0563  1.2872  1.9048
 4076SOL     OW23689   2.020   2.654  11.662 -0.1853 -0.1561  0.1246
 4076SOL    HW123690   1.967   2.680  11.738 -0.2612 -0.6770  0.2477
 4076SOL    HW223691   2.084   2.591  11.696  0.7845  1.4725  1.3498
 4077SOL     OW23692   0.817   1.299   1.775 -0.5616 -0.1483 -0.1990
 4077SOL    HW123693   0.794   1.388   1.749  0.3171 -0.3942 -1.8106
 4077SOL    HW223694   0.749   1.248   1.731  1.1419 -2.7305  0.1387
 4078SOL     OW23695   3.436   1.982  14.666 -0.3600 -0.5492 -0.0885
 4078SOL    HW123696   3.523   2.019  14.653 -0.2820  0.3488  2.9062
 4078SOL    HW223697   3.472   1.918  14.728 -2.1386 -2.0512 -0.6065
 4079SOL     OW23698   1.099   0.738   9.693  0.0309  0.5054  0.2517
 4079SOL    HW123699   1.140   0.755   9.778 -1.3200  1.2301  0.7721
 4079SOL    HW223700   1.029   0.679   9.721  1.4069 -1.1658  0.1863
 4080SOL     OW23701   0.119   1.500   6.768 -0.2397  0.2141  0.3347
 4080SOL    HW123702   0.130   1.588   6.733 -1.4099  0.2059 -0.0640
 4080SOL    HW223703   0.100   1.457   6.685  3.4286  1.0916 -0.9300
 4081SOL     OW23704   0.556   1.156   8.432 -0.3720 -0.2978 -0.4706
 4081SOL    HW123705   0.619   1.215   8.474 -0.5455 -1.5258  1.5638
 4081SOL    HW223706   0.508   1.217   8.376 -0.8996  1.0013  1.3862
 4082SOL     OW23707   3.908   3.249  12.423 -0.0708  0.1831  0.2183
 4082SOL    HW123708   3.910   3.217  12.333  0.4863  0.1598  0.2395
 4082SOL    HW223709   3.930   3.167  12.468  1.0163 -0.9835 -2.4637
 4083SOL     OW23710   3.013   3.359   7.773  0.0164  0.3451 -0.2047
 4083SOL    HW123711   3.000   3.272   7.811 -0.7228  0.6469  0.2185
 4083SOL    HW223712   3.080   3.401   7.827 -0.2708  0.8040 -0.2069
 4084SOL     OW23713   4.584   4.186   2.318 -0.3228  0.1431 -0.5675
 4084SOL    HW123714   4.610   4.106   2.362 -1.0499  1.5956  2.5039
 4084SOL    HW223715   4.542   4.160   2.236 -2.3258 -1.1225  0.8670
 4085SOL     OW23716   1.218   2.876   4.568 -0.5769  0.1900  0.0816
 4085SOL    HW123717   1.154   2.805   4.559  0.0113 -0.0942 -1.7537
 4085SOL    HW223718   1.185   2.933   4.498 -0.6555  0.7452  0.5729
 4086SOL     OW23719   1.645   1.010   6.210  0.0583  0.1347 -0.0854
 4086SOL    HW123720   1.551   0.997   6.215  0.1496 -0.5825 -0.3430
 4086SOL    HW223721   1.681   0.921   6.207 -0.5291 -0.1426  1.0846
 4087SOL     OW23722   3.610   1.327   7.608  0.1005  0.2742 -0.0537
 4087SOL    HW123723   3.550   1.298   7.677  1.8818  0.3585  1.5374
 4087SOL    HW223724   3.689   1.339   7.660 -1.1753  1.2406  1.6533
 4088SOL     OW23725   2.586   4.715   3.919 -0.2714  0.5557  0.1223
 4088SOL    HW123726   2.577   4.679   3.831  0.2920  4.2855 -1.4868
 4088SOL    HW223727   2.506   4.677   3.955 -0.8742  2.9095  1.2909
 4089SOL     OW23728   4.130   0.362  11.040 -0.2175 -0.5213  0.0651
 4089SOL    HW123729   4.103   0.318  11.121 -1.2003  0.8042  0.4595
 4089SOL    HW223730   4.213   0.406  11.063 -1.4904  1.8156  0.1564
 4090SOL     OW23731   3.211   2.759   1.998 -0.0745 -0.1480  0.8631
 4090SOL    HW123732   3.234   2.721   1.913  0.6532  0.3180  0.8514
 4090SOL    HW223733   3.203   2.854   1.989  0.2756 -0.2237 -0.2835
 4091SOL     OW23734   0.849   0.795   8.374 -0.4375 -0.3170 -0.3311
 4091SOL    HW123735   0.837   0.880   8.417 -1.4751  0.3744 -2.0141
 4091SOL    HW223736   0.794   0.734   8.423 -0.5507  0.6628  0.7790
 4092SOL     OW23737   2.547   3.684   5.406 -0.3473 -0.2620 -0.2368
 4092SOL    HW123738   2.554   3.635   5.488 -0.9634 -2.2321 -1.3549
 4092SOL    HW223739   2.512   3.765   5.442  1.1976  1.1287 -1.8830
 4093SOL     OW23740   0.685   0.988  17.632 -0.6194 -0.2769  0.4443
 4093SOL    HW123741   0.753   1.026  17.688  0.9031  1.2179 -2.4119
 4093SOL    HW223742   0.667   1.065  17.578 -2.0001 -0.2192  0.9884
 4094SOL     OW23743   0.075   0.620   6.369 -0.1173 -0.6974  0.3711
 4094SOL    HW123744   0.007   0.558   6.343  0.6849 -1.5249  0.2825
 4094SOL    HW223745   0.062   0.690   6.305 -0.6621 -2.1326 -1.0944
 4095SOL     OW23746   1.153   0.844   7.104 -0.3141  0.6017 -0.2245
 4095SOL    HW123747   1.221   0.780   7.125  1.3615  2.3688 -0.3390
 4095SOL    HW223748   1.145   0.838   7.009 -0.1941 -0.9929 -0.1407
 4096SOL     OW23749   4.540   3.312   2.431 -0.5385 -0.1955 -0.3437
 4096SOL    HW123750   4.576   3.363   2.359 -1.5196 -1.2416 -1.5682
 4096SOL    HW223751   4.608   3.265   2.480 -0.0163  1.8910  0.9272
 4097SOL     OW23752   2.650   1.753   1.506  0.0191  0.5999 -0.0210
 4097SOL    HW123753   2.584   1.749   1.576  2.3883  1.4470  2.2624
 4097SOL    HW223754   2.674   1.845   1.504  1.6169  0.1700 -0.7485
 4098SOL     OW23755   0.478   2.761   7.423 -0.0315 -0.5981  0.3827
 4098SOL    HW123756   0.495   2.789   7.333 -0.7952 -1.0074  0.1092
 4098SOL    HW223757   0.426   2.681   7.412  0.6799 -1.1907  1.3772
 4099SOL     OW23758   4.374   3.425   6.135  0.1321  0.5973 -0.0634
 4099SOL    HW123759   4.331   3.480   6.069 -2.8300 -0.2855  1.1218
 4099SOL    HW223760   4.367   3.495   6.200 -0.7532 -0.4581  0.9871
 4100SOL     OW23761   3.314   2.304   7.502 -0.1329  0.0540  0.1188
 4100SOL    HW123762   3.301   2.374   7.438  0.6681  0.5945  0.5491
 4100SOL    HW223763   3.370   2.351   7.564  1.6418  1.1227 -2.3186
 4101SOL     OW23764   0.495   0.906   7.479  0.5102  0.1568  0.3454
 4101SOL    HW123765   0.549   0.828   7.490  1.3834  0.7142  0.0430
 4101SOL    HW223766   0.482   0.934   7.569 -2.8262 -1.1016  0.2414
 4102SOL     OW23767   0.825   2.807   8.457 -0.3115  0.0316 -0.3790
 4102SOL    HW123768   0.882   2.865   8.406 -0.7849 -0.8941 -1.9526
 4102SOL    HW223769   0.780   2.877   8.503 -1.9356 -0.9100 -0.5620
 4103SOL     OW23770   4.111   0.982   4.874 -0.4302 -0.0088  0.0253
 4103SOL    HW123771   4.035   1.040   4.882 -0.6162 -0.3563  0.7497
 4103SOL    HW223772   4.166   1.015   4.945  0.4737 -2.9611  0.7103
 4104SOL     OW23773   0.199   4.434   8.434  0.0533  0.7242 -0.1754
 4104SOL    HW123774   0.257   4.379   8.382  0.1202  0.1035  0.5528
 4104SOL    HW223775   0.111   4.399   8.420 -0.2556  1.4100  0.0562
 4105SOL     OW23776   4.365   1.367  12.328  0.6712 -0.9677 -0.2671
 4105SOL    HW123777   4.289   1.414  12.294  0.7196 -0.2672  0.6028
 4105SOL    HW223778   4.405   1.338  12.245 -0.2474  0.3311 -1.1544
 4106SOL     OW23779   4.501   2.871   0.773 -0.1375  0.3886  0.3172
 4106SOL    HW123780   4.533   2.792   0.729  0.0745  0.5992  0.0996
 4106SOL    HW223781   4.519   2.944   0.715 -0.7776  0.8144  0.6545
 4107SOL     OW23782   1.309   2.390   8.180 -0.1803  0.3852  0.2374
 4107SOL    HW123783   1.334   2.459   8.243  0.7164  0.3160 -0.0414
 4107SOL    HW223784   1.228   2.424   8.142 -0.5924  0.3724  1.1035
 4108SOL     OW23785   2.330   1.461   5.750  0.4037 -0.0686 -0.2728
 4108SOL    HW123786   2.396   1.522   5.716  0.3283 -0.5603 -1.2875
 4108SOL    HW223787   2.251   1.501   5.714  0.1025 -1.5429 -1.2100
 4109SOL     OW23788   0.178   2.728   0.359 -0.8075  0.3780 -0.3456
 4109SOL    HW123789   0.259   2.678   0.351 -2.1581 -1.8113 -0.2116
 4109SOL    HW223790   0.118   2.657   0.383 -0.0980  0.0724  0.5180
 4110SOL     OW23791   1.796   2.776   9.609  0.1102 -0.1923 -0.1610
 4110SOL    HW123792   1.834   2.862   9.590  0.3065 -0.7315 -2.1843
 4110SOL    HW223793   1.786   2.750   9.518 -1.7373  0.6550 -0.2043
 4111SOL     OW23794   0.716   2.364   0.702 -0.2415  0.1380  0.9099
 4111SOL    HW123795   0.653   2.395   0.768 -1.7542 -0.2534 -0.3731
 4111SOL    HW223796   0.795   2.395   0.747 -0.8341  1.4945  1.0046
 4112SOL     OW23797   4.723   4.187  12.044 -0.6998 -0.0652 -0.1020
 4112SOL    HW123798   0.077   4.137  12.022 -0.6271  0.1007 -0.2204
 4112SOL    HW223799   0.023   4.279  12.051 -0.5405 -0.1715  0.7087
 4113SOL     OW23800   3.054   3.484  12.109 -0.4288  0.0790  0.0340
 4113SOL    HW123801   3.057   3.413  12.173 -1.9822  0.3295  0.4102
 4113SOL    HW223802   2.976   3.527  12.145 -0.9046 -1.1545  0.4782
 4114SOL     OW23803   3.516   2.106   6.009  0.2559  0.7352 -0.7238
 4114SOL    HW123804   3.529   2.156   5.928 -0.6956  2.5222  0.2144
 4114SOL    HW223805   3.496   2.179   6.067 -3.1534 -0.6724 -0.1355
 4115SOL     OW23806   0.471   0.353   5.092  0.2509 -0.3354 -0.0377
 4115SOL    HW123807   0.538   0.400   5.044  0.1827  0.2864  0.4817
 4115SOL    HW223808   0.445   0.418   5.157 -0.8470  0.8411 -1.6376
 4116SOL     OW23809   3.128   2.955   9.536 -0.6665  0.7059 -0.5869
 4116SOL    HW123810   3.151   3.017   9.467  4.0243  0.9321  1.1945
 4116SOL    HW223811   3.034   2.972   9.541 -0.8065  0.5610 -2.6535
 4117SOL     OW23812   0.943   2.851  17.262  0.4020  0.3348  0.1311
 4117SOL    HW123813   0.885   2.915  17.220  0.9700 -0.7211 -2.2480
 4117SOL    HW223814   0.903   2.839  17.348  0.1403 -1.3091 -0.2311
 4118SOL     OW23815   2.089   2.803   6.795  0.1305 -0.1891  0.2525
 4118SOL    HW123816   2.112   2.739   6.728 -2.1750 -1.5613  0.7885
 4118SOL    HW223817   2.125   2.765   6.875  0.6157 -4.1439 -1.8512
 4119SOL     OW23818   3.876   0.244  11.650 -0.1165 -0.6922  0.3139
 4119SOL    HW123819   3.963   0.256  11.612 -0.6703 -4.0936 -1.9649
 4119SOL    HW223820   3.890   0.257  11.744  0.4620 -0.4127  0.1902
 4120SOL     OW23821   2.453   1.721   8.924  0.4780 -0.1011  0.3627
 4120SOL    HW123822   2.513   1.772   8.869  0.8835 -3.2821 -2.1091
 4120SOL    HW223823   2.470   1.631   8.897 -0.8807  0.1384 -1.2445
 4121SOL     OW23824   2.738   0.297   7.970  0.1089 -0.0983 -0.0438
 4121SOL    HW123825   2.780   0.282   7.885  0.2962 -0.1742  0.0626
 4121SOL    HW223826   2.811   0.342   8.013 -1.3382  0.3000  1.9711
 4122SOL     OW23827   0.553   0.894   6.654  0.1580  0.1811  0.2225
 4122SOL    HW123828   0.602   0.838   6.713 -0.6879 -2.5382 -1.6503
 4122SOL    HW223829   0.618   0.961   6.634  0.1126  0.3899  0.7884
 4123SOL     OW23830   1.821   0.298   4.089 -0.0638 -0.4592 -0.4385
 4123SOL    HW123831   1.814   0.203   4.087 -1.0290 -0.3428 -3.1173
 4123SOL    HW223832   1.904   0.317   4.132 -0.7438  2.3168 -0.3081
 4124SOL     OW23833   0.666   2.430   5.387  0.4240  0.5490  0.3212
 4124SOL    HW123834   0.620   2.361   5.434 -0.1604  2.0795  1.9843
 4124SOL    HW223835   0.720   2.378   5.327 -1.4090 -2.2118  1.0615
 4125SOL     OW23836   3.027   3.105   1.028  0.0761  0.6382  0.4112
 4125SOL    HW123837   3.032   3.178   1.090 -0.7789 -0.7510  2.1417
 4125SOL    HW223838   2.980   3.145   0.956  2.1570 -0.1729 -1.4080
 4126SOL     OW23839   1.656   2.234  16.675  0.4125 -0.2416 -0.0585
 4126SOL    HW123840   1.580   2.263  16.625  0.9732  2.9056  0.9240
 4126SOL    HW223841   1.725   2.268  16.618  1.7148 -1.6267  0.7055
 4127SOL     OW23842   2.901   3.391  11.768  0.2340  0.4367 -0.4140
 4127SOL    HW123843   2.862   3.315  11.811  1.2745  0.5480  0.7434
 4127SOL    HW223844   2.867   3.372  11.681 -0.7995  0.8722 -0.1082
 4128SOL     OW23845   3.215   0.941   6.830 -0.5801 -0.2470 -0.0444
 4128SOL    HW123846   3.142   0.997   6.857 -0.9609 -1.3172  1.1134
 4128SOL    HW223847   3.294   0.984   6.863 -1.3994 -1.7763  3.8927
 4129SOL     OW23848   4.195   3.506   8.023  0.2972  0.6928 -0.0961
 4129SOL    HW123849   4.101   3.491   8.031  0.7092 -0.4629  2.6855
 4129SOL    HW223850   4.201   3.578   8.086 -1.8082  1.6959 -1.0357
 4130SOL     OW23851   3.692   0.556   2.781 -1.0430 -0.3885 -1.2864
 4130SOL    HW123852   3.650   0.472   2.795 -1.7803  0.5049  1.9304
 4130SOL    HW223853   3.770   0.535   2.729  1.0340  1.1700  1.2096
 4131SOL     OW23854   1.092   2.302   7.943  0.0336 -0.3989 -0.3769
 4131SOL    HW123855   1.131   2.253   8.016  2.8621 -0.4373 -1.9306
 4131SOL    HW223856   1.018   2.341   7.989  2.5009  1.4773  2.0358
 4132SOL     OW23857   0.641   2.153  14.870 -0.1399 -0.2466 -0.0385
 4132SOL    HW123858   0.650   2.240  14.909 -2.4316 -0.1078  0.1873
 4132SOL    HW223859   0.584   2.108  14.932 -2.1295 -0.3693 -1.9564
 4133SOL     OW23860   4.229   1.982  16.322  0.1122  0.4331 -0.1970
 4133SOL    HW123861   4.168   2.048  16.356 -2.3232 -0.6807 -2.4241
 4133SOL    HW223862   4.257   1.947  16.407  1.3845 -0.3433 -0.9515
 4134SOL     OW23863   0.101   3.113   6.338 -0.4427 -0.3640  0.6941
 4134SOL    HW123864   0.069   3.114   6.248 -1.4211  2.3401  1.0854
 4134SOL    HW223865   0.019   3.114   6.386 -0.1338  2.7284  1.1033
 4135SOL     OW23866   3.432   2.375   2.294 -0.0500  0.4911  0.3372
 4135SOL    HW123867   3.420   2.447   2.232  1.5452 -0.5584 -1.1851
 4135SOL    HW223868   3.527   2.367   2.284 -0.0256  1.3416 -0.0961
 4136SOL     OW23869   1.270   2.076   8.789 -0.2746 -0.4836  0.1095
 4136SOL    HW123870   1.363   2.098   8.776  0.1962 -0.6006  3.1225
 4136SOL    HW223871   1.225   2.150   8.748  0.1547 -1.0315 -1.3593
 4137SOL     OW23872   1.651   4.623   4.402 -0.1691  0.2051 -0.3359
 4137SOL    HW123873   1.622   4.533   4.389  1.1164 -0.5500  2.1092
 4137SOL    HW223874   1.732   4.620   4.351 -0.9360  0.0735 -1.5522
 4138SOL     OW23875   1.076   4.104   4.262 -0.4252 -0.0671  0.0578
 4138SOL    HW123876   1.072   4.180   4.204 -1.9368  0.4212  0.8000
 4138SOL    HW223877   1.007   4.050   4.223 -0.4118  0.6552 -0.9585
 4139SOL     OW23878   2.321   1.553   2.707 -0.2281 -0.1396 -0.6606
 4139SOL    HW123879   2.253   1.496   2.671  1.1755 -1.0810 -1.8752
 4139SOL    HW223880   2.328   1.536   2.801 -2.4912 -2.5366 -0.9156
 4140SOL     OW23881   1.278   0.626   7.169 -0.4976 -0.1439 -0.1661
 4140SOL    HW123882   1.333   0.553   7.140 -0.7815 -1.1882  1.9002
 4140SOL    HW223883   1.265   0.609   7.262  1.3736 -0.0277  0.1269
 4141SOL     OW23884   3.300   2.848   2.373  0.5106  0.9032  0.0900
 4141SOL    HW123885   3.221   2.855   2.320 -0.9502 -0.8532  2.0206
 4141SOL    HW223886   3.367   2.879   2.313 -0.8666  0.1514 -1.8315
 4142SOL     OW23887   1.335   2.952   2.416 -0.0958 -0.1029 -0.0965
 4142SOL    HW123888   1.385   2.886   2.463 -0.3565 -0.1042  0.1765
 4142SOL    HW223889   1.324   2.914   2.328  0.3423 -0.3674 -0.0365
 4143SOL     OW23890   2.797   2.948   8.734  0.1517 -0.4243  0.1049
 4143SOL    HW123891   2.843   2.951   8.817  1.7399 -1.3918 -0.7492
 4143SOL    HW223892   2.768   2.857   8.745  1.9964 -0.7261  2.3196
 4144SOL     OW23893   0.772   2.454   6.415  0.6586 -0.3739  0.0548
 4144SOL    HW123894   0.772   2.480   6.323  0.9886 -2.5936 -0.5814
 4144SOL    HW223895   0.840   2.385   6.418  0.3395 -0.5750  2.3943
 4145SOL     OW23896   1.794   3.575   7.021 -0.1250 -0.8150 -0.4409
 4145SOL    HW123897   1.739   3.497   7.015 -0.3239 -0.5954 -1.5773
 4145SOL    HW223898   1.822   3.564   7.112 -1.6858  0.5266  0.2046
 4146SOL     OW23899   3.969   0.112  12.381  0.9505  0.0840 -0.1554
 4146SOL    HW123900   3.936   0.054  12.449 -3.7038  1.8090 -0.9423
 4146SOL    HW223901   4.056   0.117  12.421  0.8080 -0.3130  0.2096
 4147SOL     OW23902   0.298   0.394   7.245 -0.2645 -0.0478  0.4559
 4147SOL    HW123903   0.393   0.405   7.239 -0.0917 -2.1487 -0.8239
 4147SOL    HW223904   0.292   0.324   7.180  0.4856  1.1377 -0.9098
 4148SOL     OW23905   1.907   1.201  11.721 -0.0884  0.2281  0.7435
 4148SOL    HW123906   1.877   1.118  11.759  1.2666 -1.5512 -2.1366
 4148SOL    HW223907   1.919   1.254  11.800 -1.3717 -0.0874  1.1656
 4149SOL     OW23908   1.680   0.936   8.798  0.0433  0.0124  0.5848
 4149SOL    HW123909   1.701   0.989   8.875 -0.4607 -0.6127  1.1502
 4149SOL    HW223910   1.745   0.865   8.799  0.6641  0.5419 -4.1558
 4150SOL     OW23911   0.585   1.259   7.685 -0.8309  0.4236  0.3063
 4150SOL    HW123912   0.514   1.278   7.746 -2.6433 -1.0960 -1.3145
 4150SOL    HW223913   0.548   1.302   7.607 -1.4370 -1.4194 -0.4070
 4151SOL     OW23914   2.680   1.352  15.529  0.3819 -0.5443  0.3126
 4151SOL    HW123915   2.739   1.363  15.604  2.0533 -3.8848 -0.5334
 4151SOL    HW223916   2.621   1.290  15.572  0.9238 -2.2871 -1.4775
 4152SOL     OW23917   4.336   1.835  11.376  0.0773 -0.2539  0.2977
 4152SOL    HW123918   4.388   1.837  11.457  2.4327 -2.3368 -1.1553
 4152SOL    HW223919   4.374   1.897  11.314 -2.6152  0.6053 -0.4858
 4153SOL     OW23920   1.476   3.493   8.322  0.0411  0.0004  0.8695
 4153SOL    HW123921   1.454   3.569   8.268 -1.1890 -0.1999  1.0996
 4153SOL    HW223922   1.560   3.506   8.366  0.8545  3.0470 -1.6364
 4154SOL     OW23923   0.054   0.724   2.875 -0.5710  0.1657  0.0299
 4154SOL    HW123924   0.030   0.812   2.846 -0.7761 -0.5722 -2.0931
 4154SOL    HW223925   0.063   0.681   2.789  0.4754  0.7605 -0.1573
 4155SOL     OW23926   3.718   0.641   8.099  0.7383  0.0993  0.2311
 4155SOL    HW123927   3.725   0.735   8.087  2.1307  0.2459  2.2378
 4155SOL    HW223928   3.667   0.611   8.023 -0.0284 -0.9050  1.1460
 4156SOL     OW23929   4.529   1.316  12.121  0.3683  0.1251 -0.0865
 4156SOL    HW123930   4.560   1.251  12.058  0.0954  0.2104 -0.3115
 4156SOL    HW223931   4.539   1.394  12.067 -1.5491 -0.2196 -0.9468
 4157SOL     OW23932   0.614   0.591  17.573 -0.2750  0.1897  0.0038
 4157SOL    HW123933   0.542   0.595  17.635  0.0180  0.6472  0.3113
 4157SOL    HW223934   0.683   0.627  17.629 -0.2951  0.4557 -0.1435
 4158SOL     OW23935   3.426   2.979   0.432  0.1643  0.1047  0.4281
 4158SOL    HW123936   3.470   3.050   0.384  1.1206  0.2887  1.5870
 4158SOL    HW223937   3.497   2.915   0.438 -1.4983 -1.7417  0.2772
 4159SOL     OW23938   1.161   3.526   9.696  0.4792  0.1776  0.1008
 4159SOL    HW123939   1.215   3.538   9.618 -0.6525 -1.7921 -0.9763
 4159SOL    HW223940   1.179   3.608   9.743  1.9344 -0.2755  0.3109
 4160SOL     OW23941   0.326   2.858   3.557 -0.0080  0.4169  0.0430
 4160SOL    HW123942   0.326   2.854   3.653  1.9630  1.9441  0.1118
 4160SOL    HW223943   0.420   2.869   3.546 -0.1804  1.5100 -0.2883
 4161SOL     OW23944   0.523   2.572  13.188  0.2149 -0.0978  0.1599
 4161SOL    HW123945   0.495   2.638  13.251 -3.2802 -0.5695 -0.8919
 4161SOL    HW223946   0.599   2.545  13.239  0.2043  0.4490  0.4584
 4162SOL     OW23947   2.623   4.255  11.911 -0.6476 -0.1956 -0.3392
 4162SOL    HW123948   2.563   4.305  11.856 -0.3128  0.1135 -0.4215
 4162SOL    HW223949   2.709   4.265  11.870 -0.2984  0.6862  0.6162
 4163SOL     OW23950   3.896   1.280  16.911 -0.0455  0.4305 -0.3266
 4163SOL    HW123951   3.821   1.261  16.854  0.0067  1.4113 -0.7171
 4163SOL    HW223952   3.853   1.260  16.994 -3.0800 -0.3791 -2.0922
 4164SOL     OW23953   3.569   2.544  14.615 -0.2786 -0.4789 -0.3038
 4164SOL    HW123954   3.599   2.499  14.694  2.0809 -1.6316 -1.8749
 4164SOL    HW223955   3.485   2.582  14.644  0.0201  0.1854 -0.3099
 4165SOL     OW23956   4.615   2.295   2.340  0.6623  0.5091 -0.3010
 4165SOL    HW123957   4.547   2.258   2.284 -0.5330  1.3876  0.5908
 4165SOL    HW223958   4.657   2.213   2.367  1.7656  1.3452  0.5202
 4166SOL     OW23959   2.022   2.839   3.480  0.5801  0.4802  0.5259
 4166SOL    HW123960   1.991   2.898   3.548 -1.9877 -1.3538  0.9387
 4166SOL    HW223961   2.025   2.760   3.534 -0.1839 -0.1519 -0.3442
 4167SOL     OW23962   1.385   3.933   9.059  0.1123  0.0973 -0.7637
 4167SOL    HW123963   1.469   3.913   9.018  0.7128 -0.0955  0.5962
 4167SOL    HW223964   1.340   3.984   8.991 -0.0830 -1.7351 -2.0242
 4168SOL     OW23965   3.949   2.398   3.457  0.7275  0.1261  0.5235
 4168SOL    HW123966   3.877   2.461   3.461  0.4898  0.0146 -1.9260
 4168SOL    HW223967   4.003   2.446   3.394  1.3555  0.3740  1.2511
 4169SOL     OW23968   2.335   0.353   0.151 -0.2003 -0.7638 -0.2758
 4169SOL    HW123969   2.424   0.349   0.187 -1.8799 -1.7822  3.7346
 4169SOL    HW223970   2.335   0.286   0.082 -0.9318 -1.2915  0.2381
 4170SOL     OW23971   0.641   2.044  10.229  0.2735  0.1213 -0.0716
 4170SOL    HW123972   0.580   1.971  10.232  1.1913 -0.6859 -0.9515
 4170SOL    HW223973   0.717   2.007  10.184  0.7030  0.9232 -0.0101
 4171SOL     OW23974   1.825   2.647   8.580  0.6374  0.5666  0.2568
 4171SOL    HW123975   1.731   2.626   8.576  0.8346 -0.3426  0.3496
 4171SOL    HW223976   1.827   2.742   8.571  1.8017  0.6680  1.7022
 4172SOL     OW23977   1.514   0.104  13.282 -0.5824 -0.5117 -0.0664
 4172SOL    HW123978   1.506   0.197  13.305 -0.9494 -0.8335  1.1183
 4172SOL    HW223979   1.449   0.069  13.343 -1.2809  0.3878 -0.2973
 4173SOL     OW23980   0.696   3.609   9.108  0.2514  0.1314  0.0745
 4173SOL    HW123981   0.738   3.540   9.160  0.6887  0.3143 -0.0401
 4173SOL    HW223982   0.766   3.643   9.052  0.9223 -1.0768  0.1707
 4174SOL     OW23983   1.807   4.649   8.571 -0.0156 -0.4982  0.0075
 4174SOL    HW123984   1.898   4.624   8.587 -0.3940 -2.6310 -1.2018
 4174SOL    HW223985   1.791   4.608   8.486 -0.3203 -1.3719  0.4832
 4175SOL     OW23986   3.320   2.937   2.651 -0.5817 -0.0218 -0.3525
 4175SOL    HW123987   3.313   2.900   2.563  1.7410 -0.2905 -0.4217
 4175SOL    HW223988   3.409   2.972   2.656 -0.4527 -0.9654  4.0565
 4176SOL     OW23989   3.104   0.505   0.950  0.0353 -0.1831  0.4090
 4176SOL    HW123990   3.063   0.589   0.975  0.1483  0.1832 -0.6404
 4176SOL    HW223991   3.048   0.482   0.876 -1.5080  1.0522  1.1827
 4177SOL     OW23992   1.231   4.359   9.729  0.0194 -0.2343 -0.2611
 4177SOL    HW123993   1.313   4.373   9.681  0.4507  1.0532  0.8470
 4177SOL    HW223994   1.189   4.444   9.717  1.3771  0.3779 -0.7152
 4178SOL     OW23995   4.131   1.938   5.029 -0.2243 -0.2029  0.0151
 4178SOL    HW123996   4.170   1.857   4.995 -0.8282  0.0183 -1.2008
 4178SOL    HW223997   4.213   1.988   5.028  0.5707 -1.4938  0.2786
 4179SOL     OW23998   0.849   2.070   8.331 -0.0097 -0.2099 -0.5040
 4179SOL    HW123999   0.874   1.996   8.275  3.7291  0.5024  0.2155
 4179SOL    HW224000   0.776   2.026   8.375  0.9615 -0.2534  1.0917
 4180SOL     OW24001   1.208   2.253   4.224  0.1750  0.5498  0.3553
 4180SOL    HW124002   1.182   2.331   4.271  1.0142  1.1115 -0.1219
 4180SOL    HW224003   1.167   2.269   4.138  1.1794  2.4971  0.2437
 4181SOL     OW24004   2.380   3.755  16.569 -0.0578  0.0098  0.5495
 4181SOL    HW124005   2.311   3.752  16.635  0.2124 -0.2588  0.8145
 4181SOL    HW224006   2.419   3.668  16.579 -2.5688 -1.1685  0.0604
 4182SOL     OW24007   2.765   2.116   8.619 -0.3085 -0.1361  0.0574
 4182SOL    HW124008   2.781   2.034   8.573 -0.7998 -0.4680  0.4825
 4182SOL    HW224009   2.816   2.107   8.699 -0.9518 -2.2460  0.2236
 4183SOL     OW24010   4.597   0.958   7.098  0.3020  0.0285  0.5950
 4183SOL    HW124011   4.562   0.890   7.156  0.9263 -0.4744  0.3870
 4183SOL    HW224012   4.590   1.036   7.152  0.3054  0.3439  0.1425
 4184SOL     OW24013   2.912   3.197   5.621 -0.0202 -0.0463  0.1933
 4184SOL    HW124014   2.977   3.218   5.687 -0.8385 -0.6179  1.1910
 4184SOL    HW224015   2.834   3.189   5.676 -0.7264 -1.2823 -0.9773
 4185SOL     OW24016   1.154   1.050   2.210 -0.7034 -0.0662  0.2593
 4185SOL    HW124017   1.196   1.088   2.133 -0.2149 -2.0766 -0.4825
 4185SOL    HW224018   1.193   0.962   2.204 -1.3699 -0.3379 -0.0026
 4186SOL     OW24019   3.420   1.260   5.955  0.8889  0.2188  0.2290
 4186SOL    HW124020   3.457   1.185   5.909 -0.6872 -0.4744  0.0982
 4186SOL    HW224021   3.326   1.243   5.953  1.0857 -0.7759 -0.6776
 4187SOL     OW24022   0.202   3.057   9.532 -0.1332  0.1368  0.3225
 4187SOL    HW124023   0.257   3.126   9.494  0.4354 -0.7996 -0.5647
 4187SOL    HW224024   0.125   3.112   9.548  0.6212  1.3777 -0.3149
 4188SOL     OW24025   2.637   4.549   4.588 -0.0261  0.4546  0.3983
 4188SOL    HW124026   2.600   4.633   4.617 -1.3032  1.1430 -3.2274
 4188SOL    HW224027   2.645   4.509   4.674 -0.8196 -0.8698 -0.1428
 4189SOL     OW24028   2.243   3.626   3.426 -0.3473  0.3915 -0.5036
 4189SOL    HW124029   2.270   3.537   3.449 -0.4042  0.0987 -1.5547
 4189SOL    HW224030   2.248   3.675   3.508 -1.3517 -1.4161  0.6360
 4190SOL     OW24031   4.269   3.241   2.396 -0.0188 -0.0766 -0.0921
 4190SOL    HW124032   4.359   3.268   2.412  1.3830 -3.5067 -2.1516
 4190SOL    HW224033   4.281   3.161   2.344 -1.1653  0.0967 -0.6426
 4191SOL     OW24034   4.026   2.365   4.236 -0.0228  0.2023 -0.2682
 4191SOL    HW124035   4.001   2.398   4.150 -2.9708  2.8223  1.5679
 4191SOL    HW224036   3.977   2.414   4.303 -0.7604 -3.3258  1.7516
 4192SOL     OW24037   2.515   3.965  16.544  0.2601  0.1472  0.1303
 4192SOL    HW124038   2.468   3.881  16.541 -0.9184  0.7976  0.2199
 4192SOL    HW224039   2.448   4.019  16.587 -1.1784  0.2555 -2.2186
 4193SOL     OW24040   3.932   2.225  14.632  0.2388 -0.1252 -0.1747
 4193SOL    HW124041   4.003   2.270  14.678 -0.0666  0.3419 -0.1583
 4193SOL    HW224042   3.986   2.161  14.587 -0.3792 -1.0379  0.3725
 4194SOL     OW24043   2.896   2.069   3.425 -0.3029  1.1210 -0.2163
 4194SOL    HW124044   2.860   2.090   3.511  0.8203  3.2818 -0.2674
 4194SOL    HW224045   2.845   2.124   3.365 -1.3043 -0.6914 -1.0367
 4195SOL     OW24046   0.318   1.444  15.878 -0.4026 -0.0439  0.3307
 4195SOL    HW124047   0.358   1.359  15.895  1.5273  0.2759 -2.4954
 4195SOL    HW224048   0.324   1.463  15.784  5.0698 -2.0662  0.2438
 4196SOL     OW24049   0.122   3.866  12.097  0.2330  0.5052  0.7306
 4196SOL    HW124050   0.045   3.834  12.049  1.2169  0.4731 -0.8425
 4196SOL    HW224051   0.098   3.863  12.189  1.3944 -1.7002  0.9594
 4197SOL     OW24052   0.082   4.236   8.804  0.2813 -0.2654 -0.2421
 4197SOL    HW124053   4.717   4.224   8.769 -0.8328  1.6381  1.9422
 4197SOL    HW224054   0.129   4.244   8.721 -1.5002  0.5189 -1.1718
 4198SOL     OW24055   1.707   0.079   6.896 -0.1443  0.1486 -0.3570
 4198SOL    HW124056   1.726   0.005   6.953 -1.5637  1.1324  1.3834
 4198SOL    HW224057   1.656   0.041   6.825 -0.9816  0.9796 -0.1922
 4199SOL     OW24058   4.528   3.101  10.253 -0.1531 -0.3129 -0.6067
 4199SOL    HW124059   4.470   3.041  10.207 -0.2547 -0.3414 -0.4416
 4199SOL    HW224060   4.486   3.187  10.254  0.1024 -0.1721 -1.9277
 4200SOL     OW24061   1.295   3.215  17.232 -0.2248 -0.0799  0.6405
 4200SOL    HW124062   1.334   3.158  17.166  1.3809  0.1816  1.3480
 4200SOL    HW224063   1.204   3.222  17.203  0.1531  3.4710  0.1782
 4201SOL     OW24064   4.137   2.318  14.367 -0.1574  0.4282 -0.1056
 4201SOL    HW124065   4.232   2.320  14.356 -0.2442  2.0911 -0.6245
 4201SOL    HW224066   4.119   2.405  14.404 -1.2714  0.5438 -0.9371
 4202SOL     OW24067   1.455   3.816   9.492  0.0628 -0.6324  0.1610
 4202SOL    HW124068   1.403   3.771   9.426  1.2289 -1.4845 -0.1921
 4202SOL    HW224069   1.525   3.843   9.432 -0.4571  1.8486  0.6761
 4203SOL     OW24070   0.458   0.146   7.240  0.3072 -0.3648 -0.3550
 4203SOL    HW124071   0.545   0.182   7.259 -0.3891  0.3612  1.3810
 4203SOL    HW224072   0.441   0.101   7.322  2.1083 -0.4662 -0.0322
 4204SOL     OW24073   3.146   0.098  13.461 -0.1745  0.0288  0.1159
 4204SOL    HW124074   3.051   0.099  13.445 -0.4803  0.2448  1.9215
 4204SOL    HW224075   3.171   0.049  13.383  1.3767  2.3856 -0.8416
 4205SOL     OW24076   3.487   4.616   8.266 -0.1333  0.1478  0.2654
 4205SOL    HW124077   3.563   4.640   8.213  1.3861  0.6748  2.6869
 4205SOL    HW224078   3.488   4.521   8.254 -0.3202  0.4528 -2.1840
 4206SOL     OW24079   3.062   1.545  13.570  0.3579 -0.1834 -0.4170
 4206SOL    HW124080   3.074   1.627  13.522 -0.2326 -0.1833 -0.5605
 4206SOL    HW224081   3.096   1.479  13.511  0.1100  1.2203 -2.1373
 4207SOL     OW24082   4.520   3.243   5.905  0.5351  0.8026 -0.1978
 4207SOL    HW124083   4.425   3.238   5.912  0.4713  0.1181 -1.4175
 4207SOL    HW224084   4.529   3.279   5.816 -0.1457 -0.9705 -1.0014
 4208SOL     OW24085   1.656   3.063  16.630 -0.3053 -0.2617 -0.3086
 4208SOL    HW124086   1.613   3.062  16.716 -0.6594  1.1753 -0.4751
 4208SOL    HW224087   1.708   3.143  16.634 -1.3110  0.4326 -0.9237
 4209SOL     OW24088   3.895   3.544  11.377  0.4712  0.0056 -0.9228
 4209SOL    HW124089   3.911   3.519  11.286 -2.7541 -1.8101 -1.0148
 4209SOL    HW224090   3.960   3.613  11.388 -1.5454  2.0596 -2.1090
 4210SOL     OW24091   0.296   0.295  15.847 -0.2779  0.5264  0.4416
 4210SOL    HW124092   0.227   0.311  15.782 -0.5589  1.0844  0.8803
 4210SOL    HW224093   0.251   0.305  15.931 -1.2115  1.3107 -0.1369
 4211SOL     OW24094   2.037   1.229  10.333  0.0419  0.3399  0.3631
 4211SOL    HW124095   2.075   1.148  10.299 -1.7762 -0.3624  0.0355
 4211SOL    HW224096   1.946   1.214  10.358  0.1053 -0.8474 -0.1347
 4212SOL     OW24097   0.650   0.243  17.594  0.0272  0.0232 -0.2816
 4212SOL    HW124098   0.700   0.226  17.674 -0.1531 -3.5206 -0.9423
 4212SOL    HW224099   0.655   0.154  17.561 -1.8657 -0.4890  0.7871
 4213SOL     OW24100   4.655   2.489  14.376 -0.2110  0.1738 -0.3669
 4213SOL    HW124101   4.616   2.473  14.290 -0.1123  2.1155 -0.7735
 4213SOL    HW224102   0.003   2.427  14.384 -0.4293  0.5009  4.2029
 4214SOL     OW24103   4.554   4.700  17.557  0.2207  0.0601 -0.2851
 4214SOL    HW124104   4.639   4.658  17.569  0.7223  1.2990  0.5177
 4214SOL    HW224105   4.573   0.048  17.618 -0.3726  1.1665 -1.4091
 4215SOL     OW24106   3.849   3.838  16.025  0.2604 -0.2664  0.3410
 4215SOL    HW124107   3.846   3.774  15.954 -0.1760  0.3833 -0.2285
 4215SOL    HW224108   3.763   3.881  16.024 -0.4770 -1.7371  1.0609
 4216SOL     OW24109   0.674   1.322   0.611  0.0033 -0.2670 -0.3540
 4216SOL    HW124110   0.662   1.237   0.569  1.8084 -1.2838  1.1746
 4216SOL    HW224111   0.708   1.295   0.696 -0.1071  3.0340  0.7440
 4217SOL     OW24112   0.438   2.681   5.822 -0.0790  0.6772 -0.0086
 4217SOL    HW124113   0.523   2.646   5.797  0.4489 -0.3828  3.3022
 4217SOL    HW224114   0.401   2.606   5.869 -3.5323  2.2222 -0.2709
 4218SOL     OW24115   3.393   4.209  13.468  0.4051  0.0304 -0.1847
 4218SOL    HW124116   3.452   4.272  13.427  2.5165 -1.8553 -0.0205
 4218SOL    HW224117   3.311   4.235  13.426 -0.4817 -1.5172  0.5708
 4219SOL     OW24118   2.145   0.780  11.357 -0.9536 -0.1646  0.1634
 4219SOL    HW124119   2.084   0.853  11.366 -2.4999 -1.1340 -2.4868
 4219SOL    HW224120   2.215   0.808  11.417  1.0374 -1.3850 -1.5905
 4220SOL     OW24121   0.905   3.364  17.352 -0.3999  0.2114 -0.6238
 4220SOL    HW124122   0.960   3.377  17.430 -1.2442  0.0763 -0.0021
 4220SOL    HW224123   0.953   3.306  17.292 -0.1726  0.2987 -0.5284
 4221SOL     OW24124   0.277   2.036   9.167 -0.4032  0.0254 -0.2966
 4221SOL    HW124125   0.368   2.057   9.147 -0.5314 -0.8776 -1.8273
 4221SOL    HW224126   0.232   2.084   9.098 -0.0692  0.0767 -0.4766
 4222SOL     OW24127   3.385   2.533   1.490  0.3695  0.1542 -0.6903
 4222SOL    HW124128   3.384   2.445   1.529 -1.9959 -0.1809 -1.4956
 4222SOL    HW224129   3.439   2.581   1.553 -0.2487 -1.4242  1.0802
 4223SOL     OW24130   0.051   2.232   7.986 -0.2827  0.3239  0.5291
 4223SOL    HW124131   4.712   2.222   7.916  0.2732 -0.5588  0.1449
 4223SOL    HW224132   0.046   2.327   7.991 -0.0429  0.3462  0.3561
 4224SOL     OW24133   2.946   4.291   7.203 -0.1262  0.3129  0.1100
 4224SOL    HW124134   3.016   4.227   7.193  0.5558  1.1969 -0.8153
 4224SOL    HW224135   2.907   4.257   7.284  0.6261  1.2793  0.8959
 4225SOL     OW24136   3.453   1.077  13.891 -0.2172  0.2426  0.8422
 4225SOL    HW124137   3.396   1.012  13.849 -0.2892  1.4116 -0.8297
 4225SOL    HW224138   3.439   1.152  13.833 -0.1941 -1.9248 -1.9790
 4226SOL     OW24139   1.172   0.176   3.657  0.5334 -0.1943 -0.0212
 4226SOL    HW124140   1.198   0.242   3.593 -2.5896 -0.4977 -1.6395
 4226SOL    HW224141   1.222   0.097   3.640 -1.9886 -1.0137 -3.7596
 4227SOL     OW24142   1.696   4.158   9.629  0.1841  0.3590 -0.2036
 4227SOL    HW124143   1.757   4.212   9.579  0.1145  1.4776  0.9297
 4227SOL    HW224144   1.727   4.077   9.588  0.8602  0.1012  0.8081
 4228SOL     OW24145   2.194   1.394  13.462  0.0269 -0.0338  0.2503
 4228SOL    HW124146   2.185   1.479  13.503 -0.9804 -1.0874  2.2301
 4228SOL    HW224147   2.282   1.373  13.492 -0.4072  0.3297  1.7706
 4229SOL     OW24148   2.543   3.957  10.092  0.1719 -0.2514  0.4742
 4229SOL    HW124149   2.590   3.877  10.069 -1.4793 -0.5180 -2.0375
 4229SOL    HW224150   2.500   3.921  10.170 -2.3869 -0.1381 -0.8785
 4230SOL     OW24151   3.545   0.310   4.840 -0.0522  0.1494 -0.8990
 4230SOL    HW124152   3.569   0.349   4.924 -0.4325  1.3781 -1.3638
 4230SOL    HW224153   3.533   0.218   4.860 -1.3524 -0.1209 -2.9007
 4231SOL     OW24154   2.324   2.965   6.589 -0.1896  0.4621  0.5221
 4231SOL    HW124155   2.346   2.883   6.633 -0.8134  0.8424  1.5397
 4231SOL    HW224156   2.239   2.942   6.551 -1.0298 -1.1376  3.3135
 4232SOL     OW24157   2.707   1.051   5.437 -0.1921 -0.1769  0.3242
 4232SOL    HW124158   2.652   0.982   5.474  1.4845 -1.5523  0.3072
 4232SOL    HW224159   2.709   1.107   5.515 -2.3276  1.6160 -0.9316
 4233SOL     OW24160   2.112   2.665   3.044 -0.1446  0.5582 -0.0845
 4233SOL    HW124161   2.144   2.729   3.107  0.0354  1.0723 -0.6956
 4233SOL    HW224162   2.125   2.708   2.959 -0.3685  0.8380  0.0237
 4234SOL     OW24163   2.265   4.557   5.881  0.5672  0.1609 -0.2332
 4234SOL    HW124164   2.232   4.633   5.834  1.8729  0.1710 -1.1391
 4234SOL    HW224165   2.294   4.590   5.966  0.6759 -1.8168  0.4995
 4235SOL     OW24166   2.203   1.309   6.642  0.1795 -0.2283 -0.1404
 4235SOL    HW124167   2.266   1.250   6.683  1.7560  0.4652 -1.5659
 4235SOL    HW224168   2.120   1.294   6.687  0.7905 -1.2852  0.6361
 4236SOL     OW24169   0.846   3.589   8.199 -0.3183 -0.5098 -0.1203
 4236SOL    HW124170   0.923   3.613   8.146  1.1797  0.1654  2.3501
 4236SOL    HW224171   0.820   3.512   8.150 -0.5031 -1.0574  0.8524
 4237SOL     OW24172   0.401   1.260   0.337 -0.3860  0.3019  0.3486
 4237SOL    HW124173   0.430   1.327   0.275  0.2233 -1.6043 -1.4345
 4237SOL    HW224174   0.399   1.308   0.419  0.8003  1.4471 -0.2864
 4238SOL     OW24175   0.772   2.332   2.813 -0.2852  0.1966 -0.0127
 4238SOL    HW124176   0.817   2.247   2.808  0.6359  0.4884  3.6203
 4238SOL    HW224177   0.784   2.359   2.722 -0.7576  3.1762  0.8315
 4239SOL     OW24178   0.667   4.346  10.291 -0.5681  0.0164 -0.2964
 4239SOL    HW124179   0.682   4.251  10.294  1.7514  0.3162 -2.2618
 4239SOL    HW224180   0.572   4.350  10.277 -0.5902  0.8007  0.1123
 4240SOL     OW24181   1.639   1.916   5.782 -0.1100  0.3088  0.4990
 4240SOL    HW124182   1.643   1.836   5.730 -1.5998  0.4485  0.1546
 4240SOL    HW224183   1.719   1.906   5.833 -1.4561 -2.8423  1.9877
 4241SOL     OW24184   2.162   2.055  11.165  0.3622 -0.3052 -0.6823
 4241SOL    HW124185   2.253   2.083  11.164  0.4477 -0.5557 -0.1742
 4241SOL    HW224186   2.115   2.133  11.135  0.8064  1.0891  2.2233
 4242SOL     OW24187   4.417   1.661  11.934 -0.3815 -0.0255 -0.2822
 4242SOL    HW124188   4.479   1.684  11.864  1.8019  0.2591  1.7384
 4242SOL    HW224189   4.459   1.681  12.017 -1.0884 -1.5327  0.4498
 4243SOL     OW24190   3.427   0.787   8.894  0.3137 -0.4092 -0.1166
 4243SOL    HW124191   3.355   0.827   8.942  1.4779 -0.6854  1.8279
 4243SOL    HW224192   3.482   0.757   8.966 -2.1871 -0.9526  1.5430
 4244SOL     OW24193   1.113   3.747  10.829 -0.3440  0.0923  0.1238
 4244SOL    HW124194   1.184   3.808  10.849 -0.3491  0.0440  0.2938
 4244SOL    HW224195   1.080   3.751  10.919  2.8805  1.3222  1.2589
 4245SOL     OW24196   4.458   2.271   7.712 -0.4856  0.2603 -0.3955
 4245SOL    HW124197   4.528   2.332   7.687  0.5227 -1.7467 -2.4263
 4245SOL    HW224198   4.387   2.285   7.649 -0.6215  2.4308  0.2298
 4246SOL     OW24199   4.005   3.768  11.508 -0.4241  0.2908  0.8059
 4246SOL    HW124200   4.012   3.839  11.444 -1.0288 -0.4437 -0.0739
 4246SOL    HW224201   4.083   3.793  11.557 -0.1363  1.2267 -0.1146
 4247SOL     OW24202   0.375   3.606   4.200 -0.5341  0.0236  0.2184
 4247SOL    HW124203   0.387   3.594   4.106 -0.6323  0.9902  0.0780
 4247SOL    HW224204   0.314   3.533   4.209 -0.7897  0.2266  0.1500
 4248SOL     OW24205   0.794   4.568   7.183 -0.2236  0.0138 -0.4350
 4248SOL    HW124206   0.812   4.640   7.124  2.2963 -0.1938  0.0935
 4248SOL    HW224207   0.703   4.548   7.161 -0.6122  1.5179 -0.1693
 4249SOL     OW24208   2.763   1.378  10.609  0.0503 -0.2532 -0.4443
 4249SOL    HW124209   2.788   1.289  10.633  1.4796  0.4570  0.7387
 4249SOL    HW224210   2.668   1.387  10.600  0.1306 -0.0352 -1.0809
 4250SOL     OW24211   2.008   3.909   5.454  0.1603  0.1460  0.4835
 4250SOL    HW124212   1.982   3.927   5.544 -0.0395  0.5884  0.3370
 4250SOL    HW224213   1.974   3.821   5.437 -1.6808  0.9901 -0.2523
 4251SOL     OW24214   2.730   1.774   0.426 -0.0163 -0.0889  0.0183
 4251SOL    HW124215   2.761   1.701   0.479 -0.5539 -0.1471  0.2530
 4251SOL    HW224216   2.639   1.763   0.399  0.4717  0.9653 -2.0182
 4252SOL     OW24217   3.579   3.262   8.599  0.1965 -0.4180 -0.4433
 4252SOL    HW124218   3.580   3.357   8.612  0.4507 -0.3537 -0.9379
 4252SOL    HW224219   3.563   3.227   8.687  2.1987  0.9198  0.4488
 4253SOL     OW24220   2.627   0.955   7.402 -0.3437 -0.3471 -0.3700
 4253SOL    HW124221   2.714   0.983   7.431 -1.2201 -1.4719  3.2890
 4253SOL    HW224222   2.608   0.883   7.461  0.1634  0.9006  1.3082
 4254SOL     OW24223   3.197   2.821  10.606 -0.5827  0.1619 -0.2584
 4254SOL    HW124224   3.214   2.908  10.643  2.1795  0.1933 -1.6215
 4254SOL    HW224225   3.276   2.796  10.558 -0.8107  0.6269 -0.8742
 4255SOL     OW24226   2.653   2.371   4.674 -0.2789 -0.2750 -0.3986
 4255SOL    HW124227   2.653   2.281   4.705 -2.4346 -0.1803 -0.0775
 4255SOL    HW224228   2.668   2.370   4.580 -1.4626 -2.0176 -0.5714
 4256SOL     OW24229   0.550   2.140   9.124 -0.5400 -0.2005  0.1063
 4256SOL    HW124230   0.611   2.079   9.166 -0.7243 -0.9072 -0.6446
 4256SOL    HW224231   0.550   2.213   9.186  1.0123  0.7952 -1.0468
 4257SOL     OW24232   2.284   4.277  17.222 -0.0263 -0.1851  0.2865
 4257SOL    HW124233   2.193   4.262  17.248  0.1225 -3.2434 -0.8996
 4257SOL    HW224234   2.323   4.335  17.287  0.6069  0.3624 -0.5951
 4258SOL     OW24235   0.304   4.703   6.444  0.1183  0.3774 -0.3722
 4258SOL    HW124236   0.354   0.045   6.492  0.7647  0.2716 -0.8939
 4258SOL    HW224237   0.365   4.691   6.371 -0.0816 -1.6314 -0.1923
 4259SOL     OW24238   2.804   3.505   7.721  0.0979 -0.0171 -0.1991
 4259SOL    HW124239   2.827   3.511   7.628  0.2978 -1.4293 -0.2356
 4259SOL    HW224240   2.876   3.453   7.756  2.1597  1.2300 -2.5900
 4260SOL     OW24241   1.862   3.500  15.497  0.4490  0.4810 -0.2182
 4260SOL    HW124242   1.911   3.568  15.450  2.1402 -2.1363 -2.2465
 4260SOL    HW224243   1.869   3.425  15.438 -0.4415  0.3156 -0.1153
 4261SOL     OW24244   1.336   4.379   6.299  0.4573 -0.2119 -0.8614
 4261SOL    HW124245   1.334   4.288   6.327 -1.6685  0.4109  1.0060
 4261SOL    HW224246   1.399   4.393   6.228  2.6366  2.3744  1.6015
 4262SOL     OW24247   4.296   2.169   9.473 -0.7273 -0.4060  0.0262
 4262SOL    HW124248   4.253   2.245   9.435 -1.8308 -1.1097 -0.1185
 4262SOL    HW224249   4.381   2.178   9.429 -0.7319  3.9091  0.8564
 4263SOL     OW24250   4.053   1.763   2.957 -0.3093 -0.4664  0.6389
 4263SOL    HW124251   3.962   1.734   2.958  0.2041 -2.0895 -0.5627
 4263SOL    HW224252   4.087   1.743   3.044 -0.6125 -0.9583  0.6441
 4264SOL     OW24253   1.834   0.414   5.796  0.7616 -0.1451 -0.6466
 4264SOL    HW124254   1.920   0.424   5.837  0.8185 -1.9750 -0.2956
 4264SOL    HW224255   1.832   0.318   5.797 -0.3412 -0.1006  1.5364
 4265SOL     OW24256   3.572   1.317   7.961  0.4001 -0.5560 -0.3243
 4265SOL    HW124257   3.523   1.377   7.904  1.4951  1.2286  0.6013
 4265SOL    HW224258   3.665   1.339   7.957  0.6803 -1.7340 -0.3000
 4266SOL     OW24259   3.986   2.749  11.039  0.0572  0.1085  0.0196
 4266SOL    HW124260   3.983   2.840  11.067 -0.1772  0.2388 -0.4282
 4266SOL    HW224261   3.897   2.724  11.064 -0.1618  2.8888  1.9571
 4267SOL     OW24262   2.723   0.518   8.466  0.2822 -0.2724 -0.6212
 4267SOL    HW124263   2.698   0.449   8.405 -0.4371 -0.5560 -0.0044
 4267SOL    HW224264   2.679   0.598   8.435 -0.6645  0.3839  2.4197
 4268SOL     OW24265   3.674   3.693   5.261 -0.2668 -0.0253  0.0738
 4268SOL    HW124266   3.629   3.619   5.220 -0.9242 -0.1863  1.0796
 4268SOL    HW224267   3.706   3.645   5.337 -2.2716  2.4632  2.4973
 4269SOL     OW24268   2.349   1.471   0.199  0.2107 -0.4961  0.3746
 4269SOL    HW124269   2.312   1.534   0.260  1.4982  0.9608 -0.3455
 4269SOL    HW224270   2.276   1.473   0.137  0.1452 -1.0358  0.4351
 4270SOL     OW24271   3.414   0.868  10.036 -0.2636  0.7308 -0.7751
 4270SOL    HW124272   3.405   0.960  10.064 -1.3391  0.1620  0.7312
 4270SOL    HW224273   3.494   0.844  10.082 -0.7336  3.3612  1.4707
 4271SOL     OW24274   0.720   4.202  13.153  0.8048 -0.1618  0.1280
 4271SOL    HW124275   0.669   4.150  13.215 -0.3362  0.1628 -0.5281
 4271SOL    HW224276   0.736   4.275  13.213  1.5878 -0.0537 -0.2132
 4272SOL     OW24277   3.916   2.071  10.439 -0.3956  0.2629  0.6355
 4272SOL    HW124278   3.966   2.032  10.367 -0.0243 -1.3408  1.7603
 4272SOL    HW224279   3.826   2.068  10.407  0.1580  0.1721 -0.9184
 4273SOL     OW24280   1.854   2.519   6.315 -0.2142 -0.1254  0.1913
 4273SOL    HW124281   1.790   2.565   6.261  0.5865 -0.5818 -1.1568
 4273SOL    HW224282   1.795   2.492   6.384 -0.2497 -0.9378 -0.1594
 4274SOL     OW24283   0.749   1.545  13.830 -0.5452  0.1690 -0.3209
 4274SOL    HW124284   0.661   1.509  13.835  0.2534 -1.3256  3.4758
 4274SOL    HW224285   0.738   1.610  13.762  1.3446  1.3036  0.4604
 4275SOL     OW24286   0.625   4.673   7.564 -0.0268 -0.0446 -0.2766
 4275SOL    HW124287   0.617   4.657   7.658  1.2005 -3.0504 -0.6707
 4275SOL    HW224288   0.720   4.663   7.554  0.0095  0.5691 -0.5519
 4276SOL     OW24289   1.545   3.473   8.947  0.6429  0.0643  0.0127
 4276SOL    HW124290   1.640   3.478   8.952  0.5295  0.3306  1.8754
 4276SOL    HW224291   1.528   3.548   8.890 -0.1511  0.6272  1.0014
 4277SOL     OW24292   0.931   1.327   3.705  0.0595 -0.0688  0.0390
 4277SOL    HW124293   1.022   1.353   3.690 -0.8373  1.4009 -2.9836
 4277SOL    HW224294   0.884   1.410   3.712 -0.2554 -0.4716  2.6325
 4278SOL     OW24295   1.952   1.456  10.198  0.5605 -0.2134  0.7763
 4278SOL    HW124296   1.879   1.435  10.138  1.0728 -1.9905  0.7749
 4278SOL    HW224297   1.988   1.372  10.226  0.5050 -0.6337 -0.4189
 4279SOL     OW24298   3.637   3.745   0.485 -0.3229  0.0064 -0.4733
 4279SOL    HW124299   3.616   3.743   0.578 -0.5055 -1.7940 -0.5569
 4279SOL    HW224300   3.650   3.837   0.461  1.7892 -0.0088  0.5755
 4280SOL     OW24301   2.976   1.504  13.817  0.3419 -0.5657 -0.8405
 4280SOL    HW124302   2.885   1.530  13.798  1.1586  2.0329 -1.1812
 4280SOL    HW224303   3.009   1.539  13.734  0.7226  1.8047  0.2995
 4281SOL     OW24304   1.165   2.408   2.972  0.2419  0.3579 -0.0246
 4281SOL    HW124305   1.242   2.433   3.022  0.9937 -0.7620 -0.6144
 4281SOL    HW224306   1.167   2.312   2.970  1.7195  0.3939 -0.0016
 4282SOL     OW24307   3.397   2.370   4.022 -0.3842 -0.3772  0.1278
 4282SOL    HW124308   3.348   2.451   4.037 -0.3977 -0.3639  0.0085
 4282SOL    HW224309   3.422   2.380   3.931  2.0531 -1.9893  0.6167
 4283SOL     OW24310   3.624   0.427   5.262 -0.5280 -0.6468 -1.2863
 4283SOL    HW124311   3.541   0.461   5.227  0.4205  1.8230 -1.1257
 4283SOL    HW224312   3.619   0.336   5.232 -0.4181 -1.2656  0.5818
 4284SOL     OW24313   3.400   1.400   1.194  0.5540  0.0974 -0.1042
 4284SOL    HW124314   3.489   1.385   1.224  0.0025 -0.3726  1.2914
 4284SOL    HW224315   3.410   1.460   1.121  4.8534 -0.0557  0.3556
 4285SOL     OW24316   0.553   1.620   3.017  0.4751 -0.3810  0.1521
 4285SOL    HW124317   0.555   1.534   2.973  0.8418  1.2470 -3.0092
 4285SOL    HW224318   0.479   1.659   2.972  1.9934  2.1661 -0.1135
 4286SOL     OW24319   2.693   3.266   5.445  0.3338  0.2261  0.4805
 4286SOL    HW124320   2.625   3.209   5.480 -0.2088  0.6140  0.0589
 4286SOL    HW224321   2.771   3.221   5.476  2.0908  1.0998 -2.7047
 4287SOL     OW24322   4.208   0.714   6.687 -0.1247  0.4363  0.5691
 4287SOL    HW124323   4.282   0.766   6.718  0.6276 -0.3694  0.1189
 4287SOL    HW224324   4.237   0.686   6.600  0.1242  2.7216 -0.0839
 4288SOL     OW24325   3.991   1.037   4.194  0.1055 -0.4385 -0.1121
 4288SOL    HW124326   3.943   1.110   4.234 -0.7677  0.2759 -2.4681
 4288SOL    HW224327   4.017   1.072   4.109  0.5790 -0.6714 -0.0590
 4289SOL     OW24328   4.021   1.890  15.216 -0.1352  0.3040  0.5244
 4289SOL    HW124329   4.049   1.801  15.193 -2.0753 -0.1663  0.0234
 4289SOL    HW224330   4.035   1.889  15.311 -0.5302 -0.3603  0.5766
 4290SOL     OW24331   4.298   3.540   7.707 -0.6923  0.1647 -0.0159
 4290SOL    HW124332   4.362   3.482   7.666 -0.0357  1.6037 -1.0714
 4290SOL    HW224333   4.302   3.523   7.801 -0.0316 -0.2760 -0.1218
 4291SOL     OW24334   1.205   4.294   0.881  0.2580 -0.0349 -0.2172
 4291SOL    HW124335   1.143   4.237   0.835  0.1980  0.0300 -0.2180
 4291SOL    HW224336   1.271   4.235   0.916  0.0448 -0.0469  0.1610
 4292SOL     OW24337   1.853   1.020   7.109  0.0968  0.0301  0.5427
 4292SOL    HW124338   1.820   0.974   7.033  1.7870 -0.1780 -0.0741
 4292SOL    HW224339   1.794   0.991   7.179  1.5579 -0.6369  1.5067
 4293SOL     OW24340   4.385   2.061   6.034  0.0815 -0.4112  0.1044
 4293SOL    HW124341   4.476   2.037   6.051  0.6051 -0.7354 -3.0132
 4293SOL    HW224342   4.347   2.027   6.114  0.9157  0.3181  0.8132
 4294SOL     OW24343   0.092   2.607   6.080  0.0662 -0.0687 -0.0749
 4294SOL    HW124344   0.041   2.541   6.127 -1.9065  2.3071  1.0825
 4294SOL    HW224345   0.015   2.663   6.081  0.1158  0.0228 -1.5144
 4295SOL     OW24346   2.221   4.317   3.211 -0.3023  1.0235  0.1305
 4295SOL    HW124347   2.244   4.312   3.118  1.6616  2.9022  0.5071
 4295SOL    HW224348   2.135   4.276   3.209  0.5255 -0.7731  1.8102
 4296SOL     OW24349   4.101   4.212   5.228  0.3540 -0.2124 -0.2411
 4296SOL    HW124350   4.142   4.208   5.142  0.1482 -0.4925 -0.3247
 4296SOL    HW224351   4.016   4.252   5.208  1.3681  1.0700 -1.9879
 4297SOL     OW24352   4.064   0.340   3.949 -0.6998 -0.0541  0.0129
 4297SOL    HW124353   4.038   0.340   3.857  0.5217 -1.8383 -0.3397
 4297SOL    HW224354   3.983   0.331   3.998 -0.4828 -0.9098  0.2156
 4298SOL     OW24355   1.274   4.195  13.837  0.2403 -0.0703  0.1796
 4298SOL    HW124356   1.360   4.153  13.845  0.0227 -0.3382  1.1497
 4298SOL    HW224357   1.260   4.185  13.931  0.1055  1.2862  0.3031
 4299SOL     OW24358   3.788   2.067   3.629 -0.2583 -0.0920 -0.3660
 4299SOL    HW124359   3.752   2.017   3.555 -1.9008 -0.0999  0.4432
 4299SOL    HW224360   3.830   2.000   3.683  0.9149 -0.6451 -1.9588
 4300SOL     OW24361   4.266   0.600   7.762  0.0012 -0.1398  0.1444
 4300SOL    HW124362   4.228   0.583   7.848 -1.6091 -0.7289 -0.6637
 4300SOL    HW224363   4.359   0.589   7.778 -0.5163 -1.6770  2.1374
 4301SOL     OW24364   2.785   0.729   6.389 -0.3804  0.0037  0.1183
 4301SOL    HW124365   2.827   0.815   6.391  1.0645 -0.6662 -1.8659
 4301SOL    HW224366   2.855   0.668   6.366  0.0049  0.7398 -0.6418
 4302SOL     OW24367   1.148   3.850   9.502 -0.0641 -0.0014 -0.0633
 4302SOL    HW124368   1.220   3.910   9.523  0.5778  0.2466 -2.9221
 4302SOL    HW224369   1.175   3.820   9.415 -1.5303 -0.1630 -0.4635
 4303SOL     OW24370   1.820   3.707   4.462 -0.2877 -0.4584 -0.1011
 4303SOL    HW124371   1.775   3.637   4.508 -0.1415  0.4166  1.3512
 4303SOL    HW224372   1.801   3.687   4.370 -0.2783 -0.6331 -0.0650
 4304SOL     OW24373   3.742   2.332   2.228 -0.3949 -0.1099 -0.2470
 4304SOL    HW124374   3.808   2.380   2.278 -1.5264  1.7203 -0.5303
 4304SOL    HW224375   3.785   2.310   2.146  0.1042 -1.6270  0.4158
 4305SOL     OW24376   0.600   3.981   3.743 -0.2796  0.1314  0.1528
 4305SOL    HW124377   0.695   3.998   3.740  0.1779 -2.2051  1.3276
 4305SOL    HW224378   0.581   3.920   3.814  0.1915  2.6126  2.4114
 4306SOL     OW24379   4.274   2.721  15.268 -0.1223  0.0696 -0.2364
 4306SOL    HW124380   4.232   2.806  15.275 -0.1928  0.0481 -0.3926
 4306SOL    HW224381   4.356   2.734  15.315  0.4355  0.8639 -1.4226
 4307SOL     OW24382   2.563   3.326   4.105 -0.2415 -0.0820 -0.0180
 4307SOL    HW124383   2.635   3.328   4.042 -0.8456  0.8985 -0.6706
 4307SOL    HW224384   2.553   3.415   4.140 -1.7693 -0.0351 -0.5575
 4308SOL     OW24385   2.787   2.897   1.112  0.2899 -0.0259  0.1353
 4308SOL    HW124386   2.859   2.859   1.162 -2.2438 -2.3629  2.0016
 4308SOL    HW224387   2.790   2.983   1.155  0.0476  1.3473 -2.6152
 4309SOL     OW24388   0.054   1.936   6.967  0.3318  0.2103  0.0253
 4309SOL    HW124389   0.024   1.936   7.058 -1.6807  1.2476 -0.6442
 4309SOL    HW224390   4.699   1.961   6.919 -0.7698 -3.4337 -0.0466
 4310SOL     OW24391   0.729   1.920   9.227 -0.2729  0.4086 -0.8593
 4310SOL    HW124392   0.810   1.970   9.217 -1.2100  2.2396  0.6400
 4310SOL    HW224393   0.736   1.899   9.320  1.8396  0.8634 -0.9268
 4311SOL     OW24394   4.717   1.529   2.148 -0.4886  0.0036  0.1687
 4311SOL    HW124395   4.687   1.442   2.119  0.1805 -0.6368  1.4157
 4311SOL    HW224396   0.062   1.535   2.083  0.2784 -4.2468  0.6239
 4312SOL     OW24397   4.106   1.575  14.180  0.3769 -0.2827  0.0839
 4312SOL    HW124398   4.184   1.630  14.185 -0.9465  1.3332  2.9068
 4312SOL    HW224399   4.135   1.491  14.142 -0.4323 -0.3533 -0.3844
 4313SOL     OW24400   4.002   2.427  17.487  0.1539  0.2743 -0.1242
 4313SOL    HW124401   3.921   2.450  17.531 -0.1307  0.3094 -0.6792
 4313SOL    HW224402   3.981   2.352  17.431 -0.0221 -1.1045  1.7702
 4314SOL     OW24403   4.013   1.396   5.451 -0.6539 -0.6232  0.2253
 4314SOL    HW124404   3.941   1.419   5.392  0.9411  2.6413 -0.4711
 4314SOL    HW224405   4.032   1.482   5.488 -0.1655 -0.2711 -0.8474
 4315SOL     OW24406   4.291   2.224  15.498  0.1300  0.1164  0.0783
 4315SOL    HW124407   4.217   2.219  15.437  0.0851  0.6278  0.0941
 4315SOL    HW224408   4.253   2.226  15.586 -1.6604  1.5269 -0.7304
 4316SOL     OW24409   4.312   2.973   0.286  0.0757  0.8017  1.1189
 4316SOL    HW124410   4.253   3.044   0.261 -0.5619 -0.1980 -0.1619
 4316SOL    HW224411   4.260   2.897   0.313  0.6853  0.0194  0.0899
 4317SOL     OW24412   0.679   0.489   5.019  0.4540  0.3488 -0.0923
 4317SOL    HW124413   0.721   0.542   5.085  0.6268 -1.0749  0.9380
 4317SOL    HW224414   0.654   0.563   4.963 -2.8654 -0.8632 -0.2469
 4318SOL     OW24415   2.523   1.301   5.878 -0.1653  0.5866  0.5936
 4318SOL    HW124416   2.460   1.343   5.820 -2.1666 -2.2303  0.7389
 4318SOL    HW224417   2.541   1.371   5.942  0.2081  1.2266 -0.2131
 4319SOL     OW24418   1.090   2.227   5.238 -0.0705 -0.2777 -0.1314
 4319SOL    HW124419   1.175   2.243   5.198 -0.9160 -0.1271 -1.9186
 4319SOL    HW224420   1.089   2.287   5.313 -1.0599 -0.2919 -0.1351
 4320SOL     OW24421   0.179   1.972  16.682 -0.5373 -0.2521  0.3115
 4320SOL    HW124422   0.173   1.994  16.775  0.0302 -0.4241  0.3860
 4320SOL    HW224423   0.226   1.889  16.687 -1.2890 -0.6905  0.2216
 4321SOL     OW24424   3.128   4.345   9.107  0.3293  0.0809 -0.5983
 4321SOL    HW124425   3.033   4.333   9.116  0.5915 -0.6462  1.2106
 4321SOL    HW224426   3.136   4.307   9.020  0.3835  2.4348 -1.6027
 4322SOL     OW24427   2.659   0.930   6.954 -0.2511  0.5648 -0.1746
 4322SOL    HW124428   2.681   0.901   6.865 -3.2348  1.5953 -1.2466
 4322SOL    HW224429   2.712   0.876   7.012 -1.3307  1.4960  1.6805
 4323SOL     OW24430   2.456   0.245   3.506  0.3449 -0.1175 -0.0610
 4323SOL    HW124431   2.509   0.208   3.577 -2.2586 -1.0608  1.3755
 4323SOL    HW224432   2.460   0.339   3.523 -1.4972  0.2335 -1.5829
 4324SOL     OW24433   3.804   0.467  11.362  0.0186 -0.1080 -0.3950
 4324SOL    HW124434   3.845   0.381  11.373  0.9385  0.3691 -0.0859
 4324SOL    HW224435   3.836   0.481  11.273 -1.2125  0.7140 -0.7080
 4325SOL     OW24436   4.722   1.566   0.499 -0.4744 -0.0931 -0.0966
 4325SOL    HW124437   4.722   1.560   0.594 -2.6998  0.0977 -0.0837
 4325SOL    HW224438   4.639   1.529   0.468  0.9218 -3.2663 -0.0326
 4326SOL     OW24439   1.923   3.316  15.310  0.0558  0.3028  0.2299
 4326SOL    HW124440   2.004   3.273  15.283  0.1028  0.8430 -0.5069
 4326SOL    HW224441   1.863   3.301  15.237  0.3603  1.9851 -0.3720
 4327SOL     OW24442   2.177   2.189   3.426  0.0660 -0.1680 -0.1930
 4327SOL    HW124443   2.217   2.276   3.428  0.0302 -0.1341 -1.1699
 4327SOL    HW224444   2.088   2.223   3.428  0.5140  1.0282 -0.6773
 4328SOL     OW24445   4.213   4.104   9.284  0.7747  0.3373 -0.2835
 4328SOL    HW124446   4.297   4.064   9.305  0.9595  0.9491  0.1270
 4328SOL    HW224447   4.226   4.197   9.266  0.5484  0.7183  1.5158
 4329SOL     OW24448   0.125   3.007   8.390  0.4503  0.1231 -0.1819
 4329SOL    HW124449   0.109   2.920   8.427 -0.4716  0.1279 -0.5585
 4329SOL    HW224450   0.035   3.039   8.387  0.0639 -1.1340 -2.1286
 4330SOL     OW24451   3.538   2.975   3.676  0.5805  0.0413  0.1964
 4330SOL    HW124452   3.458   2.954   3.724  0.6172  0.2879  0.3628
 4330SOL    HW224453   3.536   3.070   3.670  1.4924 -0.1432 -2.9956
 4331SOL     OW24454   2.508   0.800  17.207  0.9368 -0.0221 -0.2323
 4331SOL    HW124455   2.575   0.751  17.255  0.0467 -1.0732 -0.0852
 4331SOL    HW224456   2.432   0.743  17.197  1.6226 -0.9767 -0.0097
 4332SOL     OW24457   1.425   2.543   8.865 -0.1452  0.0618 -0.0736
 4332SOL    HW124458   1.474   2.506   8.937 -2.6269  0.9983  2.0900
 4332SOL    HW224459   1.392   2.626   8.901  3.0288  1.6421 -0.7938
 4333SOL     OW24460   1.338   1.172   4.915 -0.5178 -0.5799 -0.2462
 4333SOL    HW124461   1.375   1.084   4.919 -1.7181 -1.0236  0.8456
 4333SOL    HW224462   1.266   1.157   4.853 -1.1800 -0.8288  0.5904
 4334SOL     OW24463   1.325   2.546   3.137 -0.3876 -0.1539 -0.2036
 4334SOL    HW124464   1.252   2.603   3.115 -0.2830 -0.6203 -1.7848
 4334SOL    HW224465   1.331   2.555   3.232 -0.2436  1.2888 -0.3425
 4335SOL     OW24466   3.159   0.366   2.999  0.2466  0.6036  0.3620
 4335SOL    HW124467   3.238   0.384   2.947  0.0320 -0.7853 -0.4525
 4335SOL    HW224468   3.164   0.274   3.024 -1.3687 -0.0929 -1.8165
 4336SOL     OW24469   4.394   3.207   2.949  1.0270  0.3877 -0.1670
 4336SOL    HW124470   4.475   3.181   2.994  1.2948  0.0469 -0.8301
 4336SOL    HW224471   4.355   3.120   2.938 -0.6953  1.0260  1.0629
 4337SOL     OW24472   3.736   1.415   4.653  0.3526  0.3936  0.4250
 4337SOL    HW124473   3.655   1.424   4.604  0.2416 -0.7170  0.4058
 4337SOL    HW224474   3.705   1.406   4.743  1.1600 -0.8104  0.5779
 4338SOL     OW24475   3.109   0.215   8.891 -0.2018 -0.1368 -0.4564
 4338SOL    HW124476   3.099   0.154   8.818  1.4475 -0.5949 -0.3171
 4338SOL    HW224477   3.205   0.213   8.899 -0.2627 -0.6767  0.1654
 4339SOL     OW24478   2.860   2.135  17.636  0.1032  0.1664  0.2040
 4339SOL    HW124479   2.810   2.102   0.013 -0.5263  0.0663 -0.2582
 4339SOL    HW224480   2.851   2.062  17.575  1.3509  1.0524 -1.0265
 4340SOL     OW24481   4.692   1.972   2.652 -0.1033  0.1594 -0.3694
 4340SOL    HW124482   4.617   1.915   2.634 -0.1317 -0.1585  0.7921
 4340SOL    HW224483   4.702   1.944   2.743  2.6218 -1.0668 -1.0392
 4341SOL     OW24484   2.303   1.227   1.807 -0.0822  0.5421 -0.0292
 4341SOL    HW124485   2.344   1.242   1.892 -1.3472 -0.1977  0.7100
 4341SOL    HW224486   2.209   1.226   1.825  0.3567  1.9919  2.2670
 4342SOL     OW24487   4.520   4.234   8.673 -0.4943 -0.1776  0.2246
 4342SOL    HW124488   4.446   4.188   8.634  0.0243 -0.7369 -0.0984
 4342SOL    HW224489   4.469   4.292   8.729 -1.0552  1.3564 -1.8401
 4343SOL     OW24490   1.074   0.108   7.958  0.4339  0.0215  0.4324
 4343SOL    HW124491   1.034   0.165   7.892 -0.1460 -0.3990  0.4165
 4343SOL    HW224492   1.085   0.164   8.034  1.9077 -0.8393  0.8502
 4344SOL     OW24493   2.789   0.640   5.421 -0.1840 -0.3110 -0.0449
 4344SOL    HW124494   2.805   0.558   5.375 -1.4045 -0.4579 -0.2146
 4344SOL    HW224495   2.764   0.701   5.351  1.0169 -0.2799 -0.4427
 4345SOL     OW24496   1.393   3.507   9.530  0.0536 -1.1026 -0.1709
 4345SOL    HW124497   1.464   3.565   9.502 -0.7962 -0.6855 -1.4789
 4345SOL    HW224498   1.418   3.417   9.510  2.1023 -0.6427  0.4306
 4346SOL     OW24499   0.634   4.591   2.770 -0.3234  0.2697 -0.3018
 4346SOL    HW124500   0.712   4.540   2.792  0.4339  1.2719 -0.5935
 4346SOL    HW224501   0.666   4.679   2.793  1.1746  0.2660 -2.3715
 4347SOL     OW24502   3.673   2.424   9.046  0.6989 -0.0784  0.6020
 4347SOL    HW124503   3.655   2.353   9.108  2.5102 -0.2716  0.8933
 4347SOL    HW224504   3.653   2.500   9.100  1.1015 -0.6311  1.5220
 4348SOL     OW24505   3.358   4.699   1.772 -0.5473 -0.6711  0.3981
 4348SOL    HW124506   3.292   0.017   1.828  0.4756 -0.8934  1.7632
 4348SOL    HW224507   3.442   4.724   1.810 -1.2840  2.7453 -0.2139
 4349SOL     OW24508   0.773   3.822   5.298  0.4057 -0.2015 -0.2009
 4349SOL    HW124509   0.826   3.889   5.340 -1.4193  1.8203 -1.0761
 4349SOL    HW224510   0.698   3.821   5.358 -1.1837  1.7517 -2.1402
 4350SOL     OW24511   1.492   3.232  14.999 -0.5126  0.5514  0.0813
 4350SOL    HW124512   1.422   3.217  15.062 -0.1237  1.0364  0.6398
 4350SOL    HW224513   1.500   3.150  14.950 -1.1515 -0.0076  0.8933
 4351SOL     OW24514   2.619   3.396   9.777  0.8806 -0.9750 -0.1930
 4351SOL    HW124515   2.530   3.386   9.745  0.4539  2.5219 -0.0181
 4351SOL    HW224516   2.596   3.400   9.870 -3.0082  1.3891 -1.2836
 4352SOL     OW24517   4.719   0.885  15.293 -0.3139 -0.0916 -0.4778
 4352SOL    HW124518   0.028   0.974  15.307  1.2185 -0.7315 -0.0087
 4352SOL    HW224519   4.638   0.915  15.253  0.9430  3.1849 -0.5948
 4353SOL     OW24520   0.059   2.076   2.424 -0.5554 -0.2162 -0.4702
 4353SOL    HW124521   0.145   2.076   2.464 -0.3244  0.3540 -0.9684
 4353SOL    HW224522   0.001   2.061   2.499 -1.8007  0.6230 -1.2576
 4354SOL     OW24523   2.330   2.457   7.156 -0.5998 -0.0952  0.3431
 4354SOL    HW124524   2.381   2.387   7.116  0.3137 -0.9818  3.0800
 4354SOL    HW224525   2.361   2.453   7.246 -0.8949 -0.6078  0.4178
 4355SOL     OW24526   0.071   0.939   5.824  0.6338 -0.0684  0.3684
 4355SOL    HW124527   0.059   0.947   5.730  0.6551  2.5587  0.5939
 4355SOL    HW224528   0.031   0.852   5.826  0.3079  0.0815  0.2671
 4356SOL     OW24529   2.972   1.126   9.148  0.4695  0.6461 -0.0323
 4356SOL    HW124530   3.064   1.129   9.173  0.5955  0.5009 -0.4841
 4356SOL    HW224531   2.945   1.119   9.239 -1.3052 -1.1055 -0.6877
 4357SOL     OW24532   1.783   3.093  11.600  0.2160  0.5289  0.3279
 4357SOL    HW124533   1.799   3.180  11.636  0.2596  0.7493 -0.2208
 4357SOL    HW224534   1.855   3.083  11.537 -1.4491 -1.3571 -1.2545
 4358SOL     OW24535   3.719   1.160  11.056  0.0812  0.2997  0.2453
 4358SOL    HW124536   3.679   1.162  11.143  1.1275  0.2261  0.7274
 4358SOL    HW224537   3.669   1.233  11.019  0.5129  1.1274  1.3175
 4359SOL     OW24538   1.284   2.986  12.663 -0.3284  0.1970 -0.1192
 4359SOL    HW124539   1.328   2.927  12.602 -0.0300  1.6953 -1.3285
 4359SOL    HW224540   1.249   2.921  12.724  0.4544 -0.3340 -0.2290
 4360SOL     OW24541   1.602   1.719   3.684 -0.4223  0.2271  0.3519
 4360SOL    HW124542   1.567   1.808   3.676 -1.3977 -0.3536 -1.9909
 4360SOL    HW224543   1.589   1.685   3.596 -0.3554  1.7201 -0.2275
 4361SOL     OW24544   4.383   3.609   5.676  0.4234 -0.3385 -0.3320
 4361SOL    HW124545   4.290   3.621   5.697  0.9804 -0.1419  2.1138
 4361SOL    HW224546   4.409   3.690   5.632  1.2422  1.1456  2.8108
 4362SOL     OW24547   0.971   1.085   9.068  0.0193  0.9505  0.0709
 4362SOL    HW124548   1.037   1.046   9.124  0.6337  0.5295 -0.9419
 4362SOL    HW224549   0.906   1.015   9.073  0.3051  0.7775  1.2035
 4363SOL     OW24550   3.178   0.098   5.696  0.3675 -0.5401  0.2112
 4363SOL    HW124551   3.127   0.172   5.665  0.5260  1.7245  5.3550
 4363SOL    HW224552   3.229   0.137   5.767 -3.0380  0.4015  2.1082
 4364SOL     OW24553   4.097   4.392  11.820 -0.1110 -0.3065 -0.4387
 4364SOL    HW124554   4.052   4.443  11.886 -0.7605 -0.1377 -1.0147
 4364SOL    HW224555   4.035   4.387  11.747 -1.0756  0.5163  0.3335
 4365SOL     OW24556   4.153   0.967   9.045 -0.0892 -0.1978 -0.0348
 4365SOL    HW124557   4.180   0.992   8.956 -0.4928  1.2478  0.2401
 4365SOL    HW224558   4.129   1.054   9.079 -0.5990 -1.3532  2.5164
 4366SOL     OW24559   1.017   3.676  13.904 -0.1387 -0.4598 -0.0747
 4366SOL    HW124560   0.992   3.601  13.958  2.6407 -1.4945 -0.2240
 4366SOL    HW224561   0.950   3.675  13.836 -1.6701  3.1112  1.3714
 4367SOL     OW24562   0.946   0.896   5.717  0.4884 -0.3943 -0.3157
 4367SOL    HW124563   0.967   0.989   5.704  0.2467 -0.2341  0.4318
 4367SOL    HW224564   1.022   0.877   5.771 -0.2055  0.6494  1.0293
 4368SOL     OW24565   2.651   3.787   7.475 -0.5322  0.0661  0.2643
 4368SOL    HW124566   2.556   3.779   7.486 -0.4210 -1.6588 -0.0366
 4368SOL    HW224567   2.672   3.735   7.398  0.3207  1.1329 -0.2270
 4369SOL     OW24568   3.145   3.822   5.566  0.0671  0.7737  0.4619
 4369SOL    HW124569   3.053   3.847   5.579  0.1753  1.4554 -0.0666
 4369SOL    HW224570   3.155   3.783   5.653  0.9825 -1.4493 -0.6335
 4370SOL     OW24571   2.411   2.678   2.965 -0.1750  0.6740  0.4114
 4370SOL    HW124572   2.383   2.596   2.923  1.9182  0.5643 -0.7695
 4370SOL    HW224573   2.451   2.639   3.042  0.5475 -0.2515 -0.4366
 4371SOL     OW24574   4.549   2.112  15.484  0.0752 -0.5942  0.1999
 4371SOL    HW124575   4.575   2.195  15.444  1.6079 -0.9134  0.5356
 4371SOL    HW224576   4.455   2.129  15.484  0.2372  0.2574 -0.6902
 4372SOL     OW24577   3.820   3.320  14.291  0.6569 -0.5345  0.5747
 4372SOL    HW124578   3.727   3.295  14.290  0.9908 -1.7391 -1.2196
 4372SOL    HW224579   3.846   3.279  14.373  1.3428 -0.6540  0.2945
 4373SOL     OW24580   4.181   0.027   7.041 -0.1535  0.1336  0.4204
 4373SOL    HW124581   4.202   4.658   7.033  1.6379  0.7730 -2.1545
 4373SOL    HW224582   4.266   0.052   7.076  0.8342  0.3369 -2.1822
 4374SOL     OW24583   3.679   0.479   7.428  0.7392  0.2530  0.3546
 4374SOL    HW124584   3.623   0.464   7.352  0.2892  0.9954  0.5429
 4374SOL    HW224585   3.679   0.393   7.470  1.5001  0.6501  1.1548
 4375SOL     OW24586   2.845   1.573   0.603  0.3619 -1.0112  0.4687
 4375SOL    HW124587   2.887   1.550   0.687 -1.0370 -0.2014  1.3813
 4375SOL    HW224588   2.903   1.526   0.543 -0.6962 -0.9970 -0.5574
 4376SOL     OW24589   2.497   0.768   5.321 -0.0130  0.1171 -0.1798
 4376SOL    HW124590   2.480   0.677   5.295  2.0718 -0.3686  0.1528
 4376SOL    HW224591   2.534   0.751   5.408 -1.1205  1.2957  0.5031
 4377SOL     OW24592   2.420   3.533   7.895  0.5823  0.1019 -0.4949
 4377SOL    HW124593   2.347   3.473   7.908 -0.0572  0.0135 -4.4129
 4377SOL    HW224594   2.389   3.568   7.812 -1.3477  0.2364  0.2968
 4378SOL     OW24595   4.187   1.564   5.742 -0.5963  0.4139 -0.0368
 4378SOL    HW124596   4.158   1.604   5.660 -3.9722 -0.1305  0.8874
 4378SOL    HW224597   4.277   1.595   5.750 -0.4334  0.1378 -0.8508
 4379SOL     OW24598   3.746   2.233   0.486  0.9245 -0.7385  0.0594
 4379SOL    HW124599   3.693   2.246   0.408  0.8714  0.9052  0.3774
 4379SOL    HW224600   3.750   2.137   0.488 -1.6502 -0.8176  2.0860
 4380SOL     OW24601   0.456   3.145   7.630 -0.2078  0.4993  0.0407
 4380SOL    HW124602   0.486   3.092   7.705 -0.1838 -0.1209 -0.4083
 4380SOL    HW224603   0.519   3.129   7.560 -0.1654 -3.7665  1.0412
 4381SOL     OW24604   1.113   3.054   6.977  0.0073 -0.4155 -0.3226
 4381SOL    HW124605   1.112   3.032   7.070 -0.4545  0.0142 -0.2218
 4381SOL    HW224606   1.130   2.972   6.930  1.3969 -1.0387  1.2988
 4382SOL     OW24607   2.411   1.517  12.601 -0.0386  0.2118 -0.2008
 4382SOL    HW124608   2.370   1.542  12.684 -0.5563 -0.4712 -0.2537
 4382SOL    HW224609   2.496   1.482  12.629 -0.0871  1.7837  1.8960
 4383SOL     OW24610   0.400   0.068   2.138  0.0226  0.0672  0.1882
 4383SOL    HW124611   0.415   0.058   2.232 -2.1780  1.4023  0.6848
 4383SOL    HW224612   0.446   0.151   2.126  0.2025  0.1153  1.2908
 4384SOL     OW24613   4.063   1.268   8.821 -0.1035  0.0850 -0.2598
 4384SOL    HW124614   3.984   1.276   8.768 -0.4201  2.3409  0.5235
 4384SOL    HW224615   4.079   1.174   8.816  2.4405  0.5567 -1.3541
 4385SOL     OW24616   1.770   3.862   2.346 -0.4925 -0.1263 -0.3164
 4385SOL    HW124617   1.692   3.807   2.355  0.3326 -1.2525 -0.1107
 4385SOL    HW224618   1.734   3.949   2.325 -1.0818  0.3873  2.7301
 4386SOL     OW24619   0.875   2.370   3.440 -0.1385  0.4877 -0.2736
 4386SOL    HW124620   0.936   2.408   3.378 -0.6740  1.3524 -0.2729
 4386SOL    HW224621   0.880   2.438   3.507 -2.6678 -0.8784  1.2970
 4387SOL     OW24622   4.257   1.094   3.438 -0.4545 -0.1442  0.0621
 4387SOL    HW124623   4.316   1.160   3.476 -0.1124 -0.1186 -0.5106
 4387SOL    HW224624   4.320   1.036   3.395  0.2868 -0.6139  1.7839
 4388SOL     OW24625   1.758   0.815  16.670  0.3904 -0.4856 -0.5443
 4388SOL    HW124626   1.792   0.778  16.752 -0.1451 -0.2811 -0.2344
 4388SOL    HW224627   1.829   0.872  16.640  2.5820 -1.6831  2.2842
 4389SOL     OW24628   3.722   3.620   7.714 -0.3093 -0.9904  0.1258
 4389SOL    HW124629   3.744   3.708   7.684 -1.2512 -0.7206  0.2211
 4389SOL    HW224630   3.756   3.563   7.645 -1.8106 -1.1752 -0.4687
 4390SOL     OW24631   2.485   2.802  14.260  0.3369  0.6091  0.2047
 4390SOL    HW124632   2.432   2.865  14.309  1.4594  2.0744 -0.4816
 4390SOL    HW224633   2.437   2.795  14.178  0.7196 -1.0922  0.1275
 4391SOL     OW24634   3.642   3.000   8.381 -0.2630 -0.2055  0.5292
 4391SOL    HW124635   3.624   2.942   8.454 -0.0337 -0.6062  0.2654
 4391SOL    HW224636   3.695   3.073   8.413  2.4193 -1.3339 -1.3457
 4392SOL     OW24637   2.849   0.736  11.758 -0.1945  0.1095 -0.5963
 4392SOL    HW124638   2.831   0.765  11.669 -0.1129  1.1704 -0.2626
 4392SOL    HW224639   2.773   0.778  11.798  1.0208  0.8180  0.9311
 4393SOL     OW24640   2.489   0.175   0.597 -0.2126 -0.4050  0.0696
 4393SOL    HW124641   2.418   0.126   0.557  1.2468  0.2646 -3.3897
 4393SOL    HW224642   2.561   0.117   0.573  0.3004  0.7753 -1.2447
 4394SOL     OW24643   2.864   1.134   3.603 -0.0355 -0.1901  0.4586
 4394SOL    HW124644   2.909   1.115   3.521 -1.8315  0.6456 -0.7243
 4394SOL    HW224645   2.914   1.210   3.636  0.7825 -0.8165  0.6725
 4395SOL     OW24646   4.594   3.670  17.115 -0.5538 -0.1813  0.0171
 4395SOL    HW124647   4.678   3.643  17.152  0.1340  0.6816 -0.9055
 4395SOL    HW224648   4.543   3.604  17.163 -0.5004 -2.2506 -2.7387
 4396SOL     OW24649   2.072   2.256   4.870  0.2254  0.3602  0.2351
 4396SOL    HW124650   2.038   2.225   4.786  0.9149 -1.0571  0.4881
 4396SOL    HW224651   2.164   2.231   4.861  0.8730  1.5455  3.7427
 4397SOL     OW24652   1.645   1.915   8.562 -0.3024  0.6485  0.0699
 4397SOL    HW124653   1.731   1.940   8.597 -0.9455 -0.1415  2.1941
 4397SOL    HW224654   1.666   1.826   8.535 -0.7156  0.2238  1.1531
 4398SOL     OW24655   2.664   0.915  11.796 -0.0328 -0.0555 -0.6864
 4398SOL    HW124656   2.582   0.874  11.825 -0.3272  1.8865  1.2390
 4398SOL    HW224657   2.635   0.945  11.710 -1.8310 -1.7767 -0.7026
 4399SOL     OW24658   2.755   3.882  11.348  0.2910 -0.1434  0.0316
 4399SOL    HW124659   2.836   3.838  11.322  0.8524 -0.0950  1.6655
 4399SOL    HW224660   2.799   3.960  11.382  0.9054 -0.8190  0.7846
 4400SOL     OW24661   3.949   0.296   5.396  0.1452  0.8288 -0.3917
 4400SOL    HW124662   4.036   0.307   5.358  0.2008  0.5211 -0.3544
 4400SOL    HW224663   3.899   0.286   5.315  0.5666  0.5797 -0.6234
 4401SOL     OW24664   4.247   1.215   5.324 -0.2098  0.0139  0.3832
 4401SOL    HW124665   4.306   1.285   5.298 -0.1525  0.5929  2.0507
 4401SOL    HW224666   4.180   1.265   5.371 -1.5699 -0.5956 -0.9137
 4402SOL     OW24667   2.835   4.322   1.032 -0.3081  0.2550 -0.1675
 4402SOL    HW124668   2.910   4.275   1.068 -1.0181 -1.0680 -0.3937
 4402SOL    HW224669   2.768   4.274   1.081 -0.5058  0.6197 -0.0837
 4403SOL     OW24670   0.185   2.114   0.388  0.7730 -0.0646  0.0357
 4403SOL    HW124671   0.218   2.160   0.311 -1.5152  1.1200 -0.2243
 4403SOL    HW224672   0.213   2.165   0.465 -1.3296  2.6916 -1.0386
 4404SOL     OW24673   2.892   0.583   9.176 -0.3697  0.0386  0.1104
 4404SOL    HW124674   2.958   0.519   9.150 -0.1159  0.0474  0.7175
 4404SOL    HW224675   2.876   0.557   9.267  0.4071 -0.9568 -0.0391
 4405SOL     OW24676   3.377   1.328   7.009 -0.0135 -0.5021  0.4049
 4405SOL    HW124677   3.389   1.236   7.030 -0.1926 -0.0929  2.2524
 4405SOL    HW224678   3.457   1.369   7.042 -0.1792  1.6275 -1.7458
 4406SOL     OW24679   0.520   1.298  10.323 -0.4690  0.2612 -1.0492
 4406SOL    HW124680   0.455   1.229  10.313 -0.5558  0.0266  1.1616
 4406SOL    HW224681   0.570   1.297  10.242 -0.7457  0.2137 -1.2207
 4407SOL     OW24682   1.861   0.677  11.151  0.1671 -0.5488  0.5433
 4407SOL    HW124683   1.829   0.708  11.066 -3.2927 -1.4400  1.5458
 4407SOL    HW224684   1.831   0.747  11.210  0.4195 -0.4960  0.6089
 4408SOL     OW24685   3.772   4.663   1.384 -0.0053  0.0091  0.2242
 4408SOL    HW124686   3.772   0.017   1.328  0.7435 -1.9329 -2.4555
 4408SOL    HW224687   3.839   4.606   1.346  0.1471  0.5578 -0.3265
 4409SOL     OW24688   1.303   2.209  16.327  0.4752 -0.5748  0.3733
 4409SOL    HW124689   1.396   2.230  16.322  0.8457 -1.9847  1.3137
 4409SOL    HW224690   1.298   2.149  16.401  0.9350 -1.5094 -0.3518
 4410SOL     OW24691   4.434   0.233  16.633  0.5199 -0.1912 -0.4031
 4410SOL    HW124692   4.416   0.301  16.697 -0.6124 -1.2976  0.4474
 4410SOL    HW224693   4.381   0.166  16.674 -0.2811 -0.2876 -1.5776
 4411SOL     OW24694   3.618   0.430   1.118  0.0371 -0.0342  0.1140
 4411SOL    HW124695   3.595   0.508   1.068 -2.2108 -0.1519  0.9555
 4411SOL    HW224696   3.533   0.387   1.111 -0.6760  1.8249 -2.6280
 4412SOL     OW24697   1.629   1.987   3.821  0.3586 -0.2262 -0.1319
 4412SOL    HW124698   1.543   2.027   3.808  2.0623  2.9570 -1.6174
 4412SOL    HW224699   1.682   2.010   3.745  3.0534  0.0587  1.8443
 4413SOL     OW24700   0.228   1.037   3.244  0.0249 -0.1131  0.6729
 4413SOL    HW124701   0.233   1.002   3.155  0.2770 -0.4022  0.7996
 4413SOL    HW224702   0.317   1.072   3.254  0.6288 -1.7359  1.0560
 4414SOL     OW24703   4.493   0.719   7.585 -0.0583  0.2438  0.0691
 4414SOL    HW124704   4.558   0.682   7.525  1.3110  3.0949 -0.1885
 4414SOL    HW224705   4.517   0.672   7.665  0.9263 -0.3091 -0.5453
 4415SOL     OW24706   2.410   1.053  13.625  0.2924 -0.0281 -0.1227
 4415SOL    HW124707   2.336   1.034  13.567 -3.1876  0.7365  3.9846
 4415SOL    HW224708   2.471   1.096  13.565  1.3258  0.8934  1.5804
 4416SOL     OW24709   3.134   2.751   4.415 -0.2767 -0.2583  0.4422
 4416SOL    HW124710   3.054   2.757   4.362  1.1934  2.0114 -1.5192
 4416SOL    HW224711   3.173   2.669   4.382  3.3217  1.1204  1.3306
 4417SOL     OW24712   0.636   2.261   8.548 -0.2203  0.2316  0.8020
 4417SOL    HW124713   0.723   2.251   8.585  0.3499 -2.4144 -1.2961
 4417SOL    HW224714   0.656   2.287   8.458 -2.4670 -1.5660 -0.2020
 4418SOL     OW24715   4.712   1.802  11.320 -0.3361 -0.0588  0.3418
 4418SOL    HW124716   0.068   1.842  11.356 -1.0283  1.0645  0.6314
 4418SOL    HW224717   0.034   1.737  11.267 -2.9849 -1.2811 -0.4683
 4419SOL     OW24718   2.864   3.111   3.414  0.3685 -0.2741  0.0312
 4419SOL    HW124719   2.886   3.043   3.350 -2.0427 -0.1773 -0.9131
 4419SOL    HW224720   2.818   3.180   3.366  0.6687 -1.1491 -1.5140
 4420SOL     OW24721   3.254   0.354   5.957  0.0052  0.2978  0.2294
 4420SOL    HW124722   3.264   0.259   5.963 -1.9959  0.1486  1.0690
 4420SOL    HW224723   3.163   0.362   5.987 -0.3951  0.7684 -1.1012
 4421SOL     OW24724   2.405   2.188   7.161 -0.3678  0.2935  0.2689
 4421SOL    HW124725   2.441   2.240   7.233  1.0989 -0.9909  0.4619
 4421SOL    HW224726   2.436   2.101   7.186 -1.9238 -0.2607  0.3024
 4422SOL     OW24727   0.437   1.508   0.246  0.4014  0.2135  0.6402
 4422SOL    HW124728   0.375   1.537   0.313  0.5879  0.3720  0.7435
 4422SOL    HW224729   0.456   1.588   0.199  1.5293 -0.1236  0.5207
 4423SOL     OW24730   2.146   1.575  14.008  0.1418  0.0027 -0.4971
 4423SOL    HW124731   2.143   1.666  13.980  3.3286  1.3206  3.3891
 4423SOL    HW224732   2.067   1.567  14.063  0.6102  1.1253  0.3368
 4424SOL     OW24733   3.694   0.612  12.922 -0.2216 -0.3675 -0.0536
 4424SOL    HW124734   3.745   0.685  12.957 -0.8270 -0.6833  1.4897
 4424SOL    HW224735   3.740   0.595  12.839 -1.0835 -0.5764 -0.4924
 4425SOL     OW24736   0.151   1.181   0.305 -0.3915  1.0200  0.0059
 4425SOL    HW124737   0.154   1.179   0.401  0.6361 -3.4354 -0.1155
 4425SOL    HW224738   0.234   1.227   0.289 -0.2304  0.1487 -1.6190
 4426SOL     OW24739   2.778   3.090  11.393  0.6345 -0.1573 -0.6647
 4426SOL    HW124740   2.809   3.179  11.411  0.4407 -0.2312  0.0795
 4426SOL    HW224741   2.699   3.116  11.346 -0.3517  1.1316  1.6718
 4427SOL     OW24742   3.006   0.151   3.325 -0.1505 -0.2691  0.2339
 4427SOL    HW124743   2.999   0.154   3.229 -3.2162 -1.7660  0.4053
 4427SOL    HW224744   2.940   0.087   3.353 -0.5375 -1.2605 -2.9610
 4428SOL     OW24745   1.849   1.875   9.645  0.3541  0.4333  0.0969
 4428SOL    HW124746   1.786   1.804   9.639  0.8379 -0.0622  0.8363
 4428SOL    HW224747   1.826   1.905   9.733  0.3626 -0.0434  0.2625
 4429SOL     OW24748   1.855   1.034   8.023  0.0865  0.0314  0.5627
 4429SOL    HW124749   1.939   0.988   8.026 -1.4312 -2.7057  1.7061
 4429SOL    HW224750   1.808   0.975   8.082  0.5266  0.2801  1.1597
 4430SOL     OW24751   4.074   2.155   5.650  0.0223 -0.1782 -0.3362
 4430SOL    HW124752   4.069   2.172   5.744 -0.6482 -2.5601  0.0508
 4430SOL    HW224753   4.136   2.213   5.605  0.5629 -0.5237 -0.0395
 4431SOL     OW24754   3.362   0.830   3.965  0.5235 -0.3017 -0.0099
 4431SOL    HW124755   3.386   0.792   4.049  2.6828  0.3666 -0.3370
 4431SOL    HW224756   3.401   0.917   3.969 -2.5068  1.0121  0.8063
 4432SOL     OW24757   1.432   4.685  16.447  0.2301 -0.3723 -0.6820
 4432SOL    HW124758   1.425   4.621  16.518  0.5615  0.4465  0.0845
 4432SOL    HW224759   1.507   4.652  16.397 -1.3502  0.1913 -3.4373
 4433SOL     OW24760   1.404   3.536  14.267  0.1424 -0.6624 -0.3243
 4433SOL    HW124761   1.484   3.575  14.232  0.5305 -1.6463 -0.5234
 4433SOL    HW224762   1.347   3.571  14.198  0.4522  2.3283  0.9396
 4434SOL     OW24763   3.854   4.279  17.355 -0.2430 -0.6115 -0.2703
 4434SOL    HW124764   3.783   4.235  17.309  0.7678 -3.7246  1.1535
 4434SOL    HW224765   3.848   4.240  17.442  4.8505 -3.0899 -1.0077
 4435SOL     OW24766   1.848   1.321   8.563  0.2484 -0.2527 -0.5280
 4435SOL    HW124767   1.838   1.227   8.554 -1.4179  0.0886 -2.2295
 4435SOL    HW224768   1.927   1.335   8.510  1.0551  1.0663  1.0040
 4436SOL     OW24769   3.690   4.121   7.120 -0.7549  0.4101 -0.3049
 4436SOL    HW124770   3.711   4.194   7.063 -0.4331  0.8926  0.4373
 4436SOL    HW224771   3.710   4.155   7.207 -1.6758  1.0332 -0.3500
 4437SOL     OW24772   0.685   3.932   1.974  0.3512 -0.0597  0.3517
 4437SOL    HW124773   0.752   3.907   2.038 -1.0005 -1.1716  1.3363
 4437SOL    HW224774   0.712   3.876   1.900  1.1658  1.5739 -0.5915
 4438SOL     OW24775   2.071   1.268  10.804  0.3569  1.0934  0.3008
 4438SOL    HW124776   2.124   1.188  10.804  0.6293  1.2729 -1.5510
 4438SOL    HW224777   2.076   1.292  10.711  0.1817 -1.1014 -0.2756
 4439SOL     OW24778   2.596   2.055   2.896  0.0825  0.2989  0.1503
 4439SOL    HW124779   2.542   2.093   2.827  0.3389  1.5306  0.6461
 4439SOL    HW224780   2.638   1.977   2.858 -0.1168  0.0985  0.3408
 4440SOL     OW24781   1.707   1.510   3.434  0.8811 -0.4823  0.1423
 4440SOL    HW124782   1.685   1.417   3.425 -0.3914 -0.1210 -0.4511
 4440SOL    HW224783   1.621   1.551   3.428  0.7136 -1.0978 -1.9204
 4441SOL     OW24784   2.138   3.102   2.578  0.1952 -0.3729  0.5992
 4441SOL    HW124785   2.191   3.097   2.499 -0.4093 -0.4382  0.1946
 4441SOL    HW224786   2.072   3.034   2.561 -0.9642  1.2633 -1.4582
 4442SOL     OW24787   1.400   2.331  10.057 -0.2856 -0.2694  0.3176
 4442SOL    HW124788   1.432   2.416  10.086 -1.7661  1.1101 -2.1317
 4442SOL    HW224789   1.371   2.360   9.970  0.8972 -1.4937 -0.4894
 4443SOL     OW24790   1.815   4.295   6.028  0.3470  0.6194  0.1156
 4443SOL    HW124791   1.863   4.213   6.019  0.8842  0.7886  1.4826
 4443SOL    HW224792   1.869   4.358   5.981  0.6731 -0.1958 -0.5874
 4444SOL     OW24793   1.946   1.885  13.034 -0.2160 -0.1335 -0.0911
 4444SOL    HW124794   1.949   1.806  12.981  0.3047 -0.1660 -0.0153
 4444SOL    HW224795   2.039   1.908  13.025 -0.3807  0.6976  0.3436
 4445SOL     OW24796   1.550   4.549   7.395 -0.1094 -0.4192 -0.5428
 4445SOL    HW124797   1.621   4.511   7.344 -0.4400  1.3293 -2.3379
 4445SOL    HW224798   1.609   4.617   7.428  0.8302 -1.9040  0.8469
 4446SOL     OW24799   4.697   1.033  15.011 -0.3459  0.3471 -0.1924
 4446SOL    HW124800   4.696   1.098  14.940  4.1036  1.2142  0.5067
 4446SOL    HW224801   4.685   0.952  14.962 -2.0526  0.7185 -0.3687
 4447SOL     OW24802   4.474   4.067   5.982  0.0688 -0.7202 -0.0066
 4447SOL    HW124803   4.469   4.111   5.897 -0.2745  0.1172  0.4598
 4447SOL    HW224804   4.566   4.081   6.005  0.2236 -1.5115 -0.1211
 4448SOL     OW24805   3.133   4.068  15.945  0.0433 -0.3269 -0.0950
 4448SOL    HW124806   3.060   4.111  15.902 -0.8148  0.1748  1.8918
 4448SOL    HW224807   3.170   4.142  15.993 -0.2281  0.5221 -1.2034
 4449SOL     OW24808   3.840   0.613   5.150 -0.0243 -0.3555 -0.3937
 4449SOL    HW124809   3.753   0.573   5.151 -0.6051  0.8671 -0.7021
 4449SOL    HW224810   3.817   0.692   5.200  1.1841 -1.3245  1.6758
 4450SOL     OW24811   2.652   2.903   2.435 -0.1535 -0.0924  0.2914
 4450SOL    HW124812   2.729   2.960   2.435  0.6041 -1.1035 -2.1646
 4450SOL    HW224813   2.679   2.815   2.459 -1.2841 -0.2696  0.8837
 4451SOL     OW24814   2.035   4.037   5.220 -0.5217  0.0646  0.3824
 4451SOL    HW124815   1.953   3.988   5.229 -0.5733  0.0409 -0.2421
 4451SOL    HW224816   2.067   4.017   5.308  1.4220 -1.1128 -0.5981
 4452SOL     OW24817   2.802   4.341   8.648 -0.4818 -0.3355 -0.7514
 4452SOL    HW124818   2.728   4.297   8.691  1.1916 -0.2246  2.2204
 4452SOL    HW224819   2.807   4.301   8.561 -2.5193  0.6013 -1.3013
 4453SOL     OW24820   1.958   2.006  11.709  0.6105  0.0182  0.2908
 4453SOL    HW124821   2.015   2.046  11.643 -1.2602  0.9683 -0.7568
 4453SOL    HW224822   1.870   1.998  11.673  0.9047 -2.5834  0.1866
 4454SOL     OW24823   1.631   1.809  13.090  0.0163  0.3608  0.1999
 4454SOL    HW124824   1.700   1.855  13.137 -0.9173  2.4305 -0.4514
 4454SOL    HW224825   1.551   1.858  13.110 -0.3179 -0.9547  2.0143
 4455SOL     OW24826   3.217   3.682  11.921  0.0809 -0.6732  0.6772
 4455SOL    HW124827   3.232   3.764  11.874 -0.2332 -0.2943  1.2360
 4455SOL    HW224828   3.222   3.717  12.011 -0.5667 -0.8295  0.7715
 4456SOL     OW24829   4.709   0.563   6.927 -0.2715 -0.0052 -0.8659
 4456SOL    HW124830   4.683   0.508   7.001  0.9990 -0.7330 -0.9714
 4456SOL    HW224831   4.637   0.556   6.864  0.4121  0.8750 -1.7436
 4457SOL     OW24832   0.187   0.231   5.525 -0.7635 -0.2202 -0.5850
 4457SOL    HW124833   0.210   0.271   5.441  5.4177  1.3193  1.8570
 4457SOL    HW224834   0.224   0.143   5.522 -1.4180 -0.5428  0.5384
 4458SOL     OW24835   4.654   2.114   5.871  0.1429 -0.3881 -0.4464
 4458SOL    HW124836   4.662   2.048   5.940 -0.9723 -0.2876 -0.2155
 4458SOL    HW224837   4.599   2.066   5.810  1.5384  1.9824 -3.5524
 4459SOL     OW24838   1.478   3.648   5.071  0.1649 -0.3938 -0.4308
 4459SOL    HW124839   1.451   3.597   5.147 -2.1158 -0.8118 -1.5180
 4459SOL    HW224840   1.558   3.597   5.058 -0.3677 -1.3581  0.0987
 4460SOL     OW24841   0.588   2.644   2.599  0.3675 -0.3863  0.0333
 4460SOL    HW124842   0.535   2.640   2.519 -1.3911  0.6088  1.1447
 4460SOL    HW224843   0.557   2.727   2.637 -1.2889 -1.6179  1.3830
 4461SOL     OW24844   3.471   2.855   9.164 -0.4651  0.1215 -0.0362
 4461SOL    HW124845   3.446   2.910   9.238 -0.4636 -1.3548  1.0532
 4461SOL    HW224846   3.391   2.846   9.113 -0.2636 -0.5909 -0.2366
 4462SOL     OW24847   2.091   3.755   4.479 -0.4598  0.1536 -0.9147
 4462SOL    HW124848   1.998   3.731   4.479 -0.6345  0.8277 -2.3608
 4462SOL    HW224849   2.099   3.810   4.401 -0.7914  1.7755  0.1729
 4463SOL     OW24850   3.682   1.827   3.430 -0.2330 -0.0909 -0.0894
 4463SOL    HW124851   3.726   1.785   3.356 -0.1091  0.0917 -0.1163
 4463SOL    HW224852   3.595   1.830   3.388 -0.1213 -1.2869 -0.4268
 4464SOL     OW24853   2.076   2.513   4.806  0.4597  0.3390  0.2173
 4464SOL    HW124854   2.076   2.420   4.828  1.1135  0.7716  2.0881
 4464SOL    HW224855   2.008   2.545   4.866 -0.9766 -1.1525 -0.6328
 4465SOL     OW24856   4.627   2.424   4.800  0.3879  0.4236 -0.3537
 4465SOL    HW124857   4.686   2.417   4.726  0.2082 -0.9130 -0.3628
 4465SOL    HW224858   4.673   2.422   4.884 -0.9920 -0.4845  0.3746
 4466SOL     OW24859   1.303   2.630  16.314  0.2192  0.1284  0.0266
 4466SOL    HW124860   1.299   2.708  16.259 -2.2418  0.7038  1.0316
 4466SOL    HW224861   1.395   2.637  16.341  0.1228  1.0203  0.1120
 4467SOL     OW24862   3.801   2.443  12.010 -1.1970 -0.4148  0.0788
 4467SOL    HW124863   3.895   2.443  11.990 -0.3874  0.2502  3.9728
 4467SOL    HW224864   3.788   2.521  12.064  1.5356 -0.3408  0.6175
 4468SOL     OW24865   3.130   4.108   1.662 -0.6505 -0.2218 -0.3837
 4468SOL    HW124866   3.079   4.027   1.655  0.5873 -0.9961 -0.4507
 4468SOL    HW224867   3.065   4.170   1.694 -1.1363 -1.8494  1.7748
 4469SOL     OW24868   3.987   2.721   1.180 -0.4340 -0.1652  0.1386
 4469SOL    HW124869   4.020   2.811   1.176 -0.3780 -0.2171 -0.5388
 4469SOL    HW224870   4.005   2.696   1.090 -0.4859 -3.0625  0.9466
 4470SOL     OW24871   0.500   2.857   3.190  0.2177 -0.4041 -0.3932
 4470SOL    HW124872   0.596   2.864   3.195 -0.0397  2.9923 -0.2502
 4470SOL    HW224873   0.484   2.763   3.184  0.1262 -0.4930  1.2273
 4471SOL     OW24874   4.349   1.043   9.306  0.6687 -0.2522 -0.2768
 4471SOL    HW124875   4.329   1.088   9.224 -2.7460  0.0174  0.7111
 4471SOL    HW224876   4.394   0.962   9.281 -0.1528 -0.8558  0.2130
 4472SOL     OW24877   0.531   3.310   3.168  0.0356 -0.1017  0.1367
 4472SOL    HW124878   0.587   3.340   3.240  2.8451 -0.9331 -1.6907
 4472SOL    HW224879   0.588   3.336   3.095  0.7242  0.5970  0.9184
 4473SOL     OW24880   4.558   4.702  14.006 -0.4009  0.3366 -0.3314
 4473SOL    HW124881   4.624   0.044  14.024  0.6173 -0.8191  0.2004
 4473SOL    HW224882   4.533   0.001  13.916  3.2277  2.8690 -0.6326
 4474SOL     OW24883   4.458   2.409   7.452 -0.2174  0.7457  0.0784
 4474SOL    HW124884   4.368   2.438   7.464  0.0111  1.4569  0.1043
 4474SOL    HW224885   4.465   2.423   7.358  0.6513  0.4832  0.1021
 4475SOL     OW24886   1.656   0.945   7.770  0.8577  0.3576  0.4257
 4475SOL    HW124887   1.631   0.917   7.859 -1.3646  3.2908  0.7340
 4475SOL    HW224888   1.647   1.039   7.786  3.5207  0.8345 -0.9172
 4476SOL     OW24889   1.779   2.723   0.221 -0.3027 -0.5343  0.4930
 4476SOL    HW124890   1.849   2.788   0.219  0.5531 -1.5161 -1.2981
 4476SOL    HW224891   1.707   2.765   0.174 -0.5304 -2.0644 -0.5494
 4477SOL     OW24892   1.061   0.899   0.515 -0.0944 -0.0312 -0.5480
 4477SOL    HW124893   1.018   0.950   0.584 -0.9660  1.7576 -2.4231
 4477SOL    HW224894   0.985   0.894   0.457 -1.5803  0.0031  1.3668
 4478SOL     OW24895   4.121   0.353   4.842 -0.6148 -0.7132 -0.3219
 4478SOL    HW124896   4.079   0.321   4.762 -1.1394 -0.2684 -0.2252
 4478SOL    HW224897   4.212   0.363   4.816 -0.6503 -2.9229 -1.2583
 4479SOL     OW24898   0.870   0.415  13.326  0.5601 -0.1613  0.0159
 4479SOL    HW124899   0.953   0.385  13.364  0.7928 -2.0028 -1.9493
 4479SOL    HW224900   0.815   0.348  13.368  1.2633 -1.9508 -1.8766
 4480SOL     OW24901   4.307   2.253   1.378  0.6604  0.1238  0.5252
 4480SOL    HW124902   4.303   2.267   1.283  1.0387  0.2509  0.5277
 4480SOL    HW224903   4.219   2.281   1.403  0.2311 -2.5781  2.0233
 4481SOL     OW24904   4.519   3.306   5.175  0.5111 -0.9205 -0.6299
 4481SOL    HW124905   4.460   3.327   5.103 -1.8028 -0.5472  1.3614
 4481SOL    HW224906   4.569   3.387   5.176 -0.0958 -0.5589  3.3115
 4482SOL     OW24907   2.661   1.255   8.617 -0.2192 -0.2239 -0.2353
 4482SOL    HW124908   2.709   1.193   8.672 -0.2732  0.6909  0.8528
 4482SOL    HW224909   2.704   1.333   8.653 -0.6056 -0.4314  0.6704
 4483SOL     OW24910   2.245   1.345   4.111  0.3104 -0.7609 -0.4399
 4483SOL    HW124911   2.313   1.303   4.058  2.9317  0.7204  1.7663
 4483SOL    HW224912   2.247   1.434   4.075  1.0898 -1.2376 -1.5619
 4484SOL     OW24913   3.204   4.089   8.847  0.1521  0.5376 -0.6446
 4484SOL    HW124914   3.232   4.036   8.922  1.8330  0.1039 -1.5769
 4484SOL    HW224915   3.113   4.103   8.871  0.0249 -0.6550 -0.4401
 4485SOL     OW24916   0.268   0.687   4.790  0.0463 -0.8440 -0.0024
 4485SOL    HW124917   0.183   0.726   4.772  0.2641  0.0640  0.8967
 4485SOL    HW224918   0.313   0.770   4.811  1.4395 -1.2627 -1.3339
 4486SOL     OW24919   2.308   0.628   3.765  0.1606 -0.8101 -0.1920
 4486SOL    HW124920   2.353   0.712   3.768 -0.8141 -0.2619 -0.7303
 4486SOL    HW224921   2.296   0.635   3.859  0.5097  1.9170 -0.3482
 4487SOL     OW24922   1.559   2.633  16.436 -0.1846 -0.6865 -0.4874
 4487SOL    HW124923   1.630   2.593  16.384  0.3984  0.7115 -0.7722
 4487SOL    HW224924   1.597   2.720  16.442  1.0170 -1.2279 -0.0683
 4488SOL     OW24925   3.358   3.836  13.859  0.1846  0.2203 -0.0297
 4488SOL    HW124926   3.394   3.922  13.838  1.6297 -0.1836  0.8291
 4488SOL    HW224927   3.270   3.841  13.822  0.2866 -3.0607 -0.7124
 4489SOL     OW24928   2.203   1.582   5.165  0.5047 -0.3515  0.1555
 4489SOL    HW124929   2.174   1.655   5.110  0.4361 -0.9186 -0.5736
 4489SOL    HW224930   2.291   1.607   5.194  1.0686 -0.6690 -1.2877
 4490SOL     OW24931   2.886   3.641   8.578 -0.5823 -0.2988 -0.6352
 4490SOL    HW124932   2.939   3.561   8.585 -2.2565 -1.1866  1.7582
 4490SOL    HW224933   2.915   3.675   8.662 -1.0417  0.2784 -0.7065
 4491SOL     OW24934   4.607   1.675  13.212 -0.0292  0.5845 -0.2931
 4491SOL    HW124935   4.658   1.646  13.288 -2.2835 -0.4558  0.8298
 4491SOL    HW224936   4.569   1.760  13.235 -3.1078 -1.0718  0.7029
 4492SOL     OW24937   3.899   1.803   7.618 -0.1734 -0.6243 -0.9908
 4492SOL    HW124938   3.808   1.803   7.588 -0.3187  2.4834 -0.5360
 4492SOL    HW224939   3.930   1.722   7.578  0.0848 -0.0086 -2.0417
 4493SOL     OW24940   1.457   0.200   0.229  0.3400 -0.1593 -0.0500
 4493SOL    HW124941   1.461   0.106   0.209  2.3528 -0.2414  0.6927
 4493SOL    HW224942   1.368   0.206   0.264  0.8708  0.6386  1.1488
 4494SOL     OW24943   2.025   4.261   4.354  0.5417 -0.0944  0.9746
 4494SOL    HW124944   2.050   4.344   4.314 -2.0266  0.0049 -0.4443
 4494SOL    HW224945   2.112   4.243   4.390  1.5096 -0.1872 -1.3912
 4495SOL     OW24946   2.922   2.528   6.216  0.2802 -0.1152 -0.1947
 4495SOL    HW124947   2.884   2.607   6.177 -1.6531 -0.8602  0.2047
 4495SOL    HW224948   2.985   2.510   6.146  0.5317  0.2133 -0.0506
 4496SOL     OW24949   2.834   4.180   6.328  0.4749 -0.3448 -0.1706
 4496SOL    HW124950   2.875   4.142   6.251 -0.5193 -1.2791 -0.2489
 4496SOL    HW224951   2.812   4.264   6.288 -2.0234 -0.9039 -0.0071
 4497SOL     OW24952   2.462   1.182  14.467 -0.7465 -0.4677 -0.3284
 4497SOL    HW124953   2.474   1.110  14.529 -1.2046  0.9042  1.3350
 4497SOL    HW224954   2.533   1.163  14.406  0.6484 -0.9017  1.4481
 4498SOL     OW24955   1.661   4.101  10.659 -0.6095 -0.4425  0.4936
 4498SOL    HW124956   1.668   4.006  10.656 -0.5496 -0.4469  0.8245
 4498SOL    HW224957   1.744   4.124  10.618 -1.5157 -0.0882 -1.1306
 4499SOL     OW24958   2.255   0.885   6.842 -0.2362  0.5297  0.0768
 4499SOL    HW124959   2.160   0.893   6.839 -0.1995  1.8896  2.2564
 4499SOL    HW224960   2.267   0.790   6.846 -0.0339  0.5156 -0.9327
 4500SOL     OW24961   0.702   1.949   5.313  0.4145  0.0485  0.2593
 4500SOL    HW124962   0.780   1.896   5.298  0.7383  0.6820 -0.3112
 4500SOL    HW224963   0.663   1.916   5.394 -0.9995 -0.2076 -0.5285
 4501SOL     OW24964   0.607   2.406   4.084 -0.6233 -0.6625  0.1226
 4501SOL    HW124965   0.618   2.311   4.083  0.9101 -0.5441  3.3320
 4501SOL    HW224966   0.670   2.422   4.154 -0.5449 -1.1713  0.1678
 4502SOL     OW24967   2.404   0.557  13.689 -0.3593 -0.6113 -0.5034
 4502SOL    HW124968   2.398   0.514  13.774  1.6963 -1.1861 -0.6471
 4502SOL    HW224969   2.350   0.636  13.695 -0.7339 -1.0044  1.3293
 4503SOL     OW24970   2.872   3.296   9.795 -0.1526 -0.1985 -0.2354
 4503SOL    HW124971   2.794   3.353   9.801 -0.2033 -0.3081  0.1445
 4503SOL    HW224972   2.851   3.245   9.873  0.1698 -1.3600 -0.9063
 4504SOL     OW24973   3.394   4.391   1.550  0.2144 -0.3967  0.4375
 4504SOL    HW124974   3.434   4.468   1.509  1.0291 -1.4491 -0.7582
 4504SOL    HW224975   3.421   4.416   1.638 -1.1487  1.4410  0.3158
 4505SOL     OW24976   1.746   2.089   5.591 -0.3121  0.2534 -0.8496
 4505SOL    HW124977   1.716   2.042   5.669 -0.3858  0.4634 -0.7507
 4505SOL    HW224978   1.680   2.157   5.578 -3.2936 -2.8621 -2.2385
 4506SOL     OW24979   0.994   2.754  13.773  0.1255  0.2778 -0.8198
 4506SOL    HW124980   0.962   2.666  13.794  1.7177 -0.1384 -0.1775
 4506SOL    HW224981   1.009   2.743  13.679 -1.8098  0.3763 -1.1586
 4507SOL     OW24982   1.736   3.763   6.307  0.1963  0.5423  0.3953
 4507SOL    HW124983   1.725   3.814   6.227 -0.0162  2.1546  1.4506
 4507SOL    HW224984   1.706   3.830   6.369  1.0845  1.6896 -0.4178
 4508SOL     OW24985   0.479   3.256   6.185 -0.1425  0.3576  0.6084
 4508SOL    HW124986   0.499   3.165   6.209  0.5048 -0.0248 -1.3518
 4508SOL    HW224987   0.439   3.283   6.268  0.9110  0.7355  0.9849
 4509SOL     OW24988   2.311   0.860   4.640 -0.3832 -0.0750  0.7765
 4509SOL    HW124989   2.321   0.891   4.550  0.3862  1.1649  1.2845
 4509SOL    HW224990   2.290   0.770   4.616 -0.7893  0.4618 -0.8886
 4510SOL     OW24991   2.575   0.445   8.872  0.1895  0.4098 -0.3810
 4510SOL    HW124992   2.558   0.417   8.782  1.2147 -3.7959  0.7060
 4510SOL    HW224993   2.608   0.366   8.916 -1.7184  1.6546  3.2207
 4511SOL     OW24994   0.546   0.450   9.054  0.3915 -0.2854  0.1518
 4511SOL    HW124995   0.557   0.545   9.059 -1.1634 -0.2096  1.9239
 4511SOL    HW224996   0.454   0.440   9.029  0.2172  1.2030  0.2021
 4512SOL     OW24997   1.068   4.112  15.613 -0.3533  0.1827  0.0347
 4512SOL    HW124998   0.987   4.061  15.625  1.9027 -3.8798 -1.7705
 4512SOL    HW224999   1.133   4.059  15.659 -1.4673  0.9258  2.4829
 4513SOL     OW25000   2.644   4.049   6.456 -0.3526  0.1921  0.0852
 4513SOL    HW125001   2.714   4.090   6.404 -0.4042  0.7481  0.4548
 4513SOL    HW225002   2.612   4.133   6.489 -2.3028 -0.0200 -1.2687
 4514SOL     OW25003   4.299   2.157   9.955 -0.4651  0.3629  0.5418
 4514SOL    HW125004   4.370   2.150   9.890 -2.3904 -1.2461 -1.3588
 4514SOL    HW225005   4.238   2.090   9.926 -0.4088 -0.4628  2.3751
 4515SOL     OW25006   2.699   2.638   7.009  0.0316  0.1301  0.0049
 4515SOL    HW125007   2.633   2.570   6.992 -0.8859  0.8260  0.7672
 4515SOL    HW225008   2.761   2.592   6.952 -0.1713 -3.6180  2.7944
 4516SOL     OW25009   1.128   3.150  12.966 -0.2612 -0.7409  0.5600
 4516SOL    HW125010   1.170   3.201  13.036 -0.1633  1.0341 -0.7886
 4516SOL    HW225011   1.083   3.086  13.021 -1.2153  1.2878  2.1409
 4517SOL     OW25012   4.671   1.258   3.180 -1.0453  0.2081 -0.2656
 4517SOL    HW125013   4.603   1.214   3.128  0.7532 -0.1268 -2.3181
 4517SOL    HW225014   4.679   1.191   3.248 -0.2118  0.4977 -0.0827
 4518SOL     OW25015   0.994   3.039   8.369 -0.6292 -0.0174 -0.5690
 4518SOL    HW125016   0.955   3.120   8.338 -2.4286 -1.1177 -1.2096
 4518SOL    HW225017   1.019   3.069   8.456 -1.2353  0.5399 -0.5907
 4519SOL     OW25018   3.252   1.336  10.180  0.4786 -0.0418 -0.4591
 4519SOL    HW125019   3.218   1.247  10.177  0.7897 -0.1246 -1.5379
 4519SOL    HW225020   3.287   1.356  10.267 -0.2187 -1.3937  0.1163
 4520SOL     OW25021   1.475   2.357   6.278 -0.0413 -0.3062  0.4708
 4520SOL    HW125022   1.421   2.338   6.355  0.8836 -6.8763 -0.4834
 4520SOL    HW225023   1.522   2.273   6.276 -2.0155 -1.4065  0.7368
 4521SOL     OW25024   3.636   3.478  11.300 -0.6845 -0.1780  0.3736
 4521SOL    HW125025   3.646   3.570  11.278  2.2933 -0.2308  1.5341
 4521SOL    HW225026   3.711   3.461  11.356 -0.1962 -1.0457 -0.5352
 4522SOL     OW25027   3.554   3.890   5.585 -0.2774 -0.0915 -0.0038
 4522SOL    HW125028   3.648   3.885   5.568 -0.5518 -1.6034 -1.0223
 4522SOL    HW225029   3.541   3.821   5.650  1.2783  0.6911  1.1248
 4523SOL     OW25030   3.791   0.911   2.516  0.0241  0.3890  0.1120
 4523SOL    HW125031   3.715   0.948   2.561 -0.4134  1.4723 -1.5169
 4523SOL    HW225032   3.840   0.866   2.585  0.5322  1.6257  0.5436
 4524SOL     OW25033   0.239   2.905   8.137 -0.2050 -0.0468  0.0170
 4524SOL    HW125034   0.188   2.831   8.169 -0.9009  1.5995  2.6956
 4524SOL    HW225035   0.220   2.976   8.199 -1.2750  0.2524 -0.6550
 4525SOL     OW25036   3.271   4.531   5.674  0.2838  0.2236 -0.9524
 4525SOL    HW125037   3.247   4.620   5.649 -0.0092  0.0448 -1.3097
 4525SOL    HW225038   3.336   4.538   5.744 -1.5567  0.2394  0.7404
 4526SOL     OW25039   3.760   3.028   0.600  0.2777 -0.5873  0.4378
 4526SOL    HW125040   3.717   2.947   0.573  0.6339 -0.6053 -0.0821
 4526SOL    HW225041   3.851   3.005   0.583  0.7966  1.4799  0.4307
 4527SOL     OW25042   1.883   1.511   4.096  0.0807  0.5966  0.1871
 4527SOL    HW125043   1.894   1.417   4.114 -0.8882  0.4565  0.0690
 4527SOL    HW225044   1.891   1.510   4.000  0.3784  1.9968  0.2020
 4528SOL     OW25045   4.080   4.161   9.961 -0.1745 -0.6312  0.0640
 4528SOL    HW125046   4.121   4.212  10.031 -0.2582  1.5364 -1.4719
 4528SOL    HW225047   4.154   4.103   9.943  0.9185  0.6849  0.2729
 4529SOL     OW25048   4.598   2.371   5.409  0.1026  0.7150  0.2530
 4529SOL    HW125049   4.553   2.291   5.435  0.0646  0.3556 -0.9391
 4529SOL    HW225050   4.548   2.388   5.329 -1.5745 -0.7635  1.0008
 4530SOL     OW25051   0.999   4.610  15.807  0.0043  0.1077 -0.0688
 4530SOL    HW125052   1.024   4.531  15.760 -0.3144  0.0785 -0.1865
 4530SOL    HW225053   0.980   4.670  15.735 -0.0907  1.8423  1.4091
 4531SOL     OW25054   1.728   3.136   9.043  0.1171 -0.0269 -0.0654
 4531SOL    HW125055   1.728   3.048   9.080  1.4719 -0.3984 -0.9360
 4531SOL    HW225056   1.809   3.161   9.088 -0.1160  3.2927 -1.4482
 4532SOL     OW25057   3.159   0.312   1.525  0.0042 -0.1103  0.0568
 4532SOL    HW125058   3.078   0.269   1.552  0.3089 -1.4331 -1.1538
 4532SOL    HW225059   3.145   0.401   1.558  0.0821  0.7740 -2.2835
 4533SOL     OW25060   0.590   2.705   6.657  0.3473 -0.8180  0.0703
 4533SOL    HW125061   0.536   2.686   6.580 -0.1125 -2.7104  0.8450
 4533SOL    HW225062   0.595   2.799   6.639  1.4474 -1.0473 -0.7952
 4534SOL     OW25063   3.922   4.244   3.484 -0.1377  0.0205 -0.4852
 4534SOL    HW125064   3.877   4.289   3.555 -0.1728 -1.2382  0.2881
 4534SOL    HW225065   4.012   4.276   3.488  0.5167 -1.9355  0.6205
 4535SOL     OW25066   1.359   3.651   5.765  0.3329  0.3773  0.0301
 4535SOL    HW125067   1.271   3.674   5.734 -0.6165 -0.7620  1.8496
 4535SOL    HW225068   1.359   3.691   5.852 -3.1698  0.1794  0.1450
 4536SOL     OW25069   4.180   3.559   3.753 -0.4430  0.1086 -0.3792
 4536SOL    HW125070   4.259   3.555   3.699  2.1954 -2.2119  3.6713
 4536SOL    HW225071   4.222   3.529   3.834  0.8806 -0.8795 -1.4378
 4537SOL     OW25072   0.778   4.092   2.445  0.0793 -0.0967  0.0515
 4537SOL    HW125073   0.826   4.148   2.506 -0.6987 -0.8584  1.3847
 4537SOL    HW225074   0.736   4.149   2.381  0.3685  0.0576  0.0005
 4538SOL     OW25075   3.083   3.130   1.366  0.0862 -0.1919  0.4630
 4538SOL    HW125076   3.008   3.136   1.307  0.7521  0.1409 -0.3381
 4538SOL    HW225077   3.055   3.069   1.434  1.5572  0.2619  1.4634
 4539SOL     OW25078   2.361   1.505   9.824 -0.2716  0.1933  0.2469
 4539SOL    HW125079   2.433   1.567   9.824  0.4966 -0.7029 -0.4846
 4539SOL    HW225080   2.354   1.501   9.920 -0.4497 -0.9016  0.1916
 4540SOL     OW25081   4.089   3.635   8.851 -0.4684  0.6321  0.7637
 4540SOL    HW125082   4.167   3.690   8.863 -0.4240  0.4495  1.2984
 4540SOL    HW225083   4.122   3.555   8.811  1.0643  0.1254  3.0909
 4541SOL     OW25084   2.314   3.731   7.094  0.0161  0.1094  0.0693
 4541SOL    HW125085   2.330   3.637   7.097 -1.5893 -0.1194  1.5734
 4541SOL    HW225086   2.218   3.734   7.102 -0.4779 -3.0340 -4.1262
 4542SOL     OW25087   3.479   4.706   4.524  0.6843 -0.1947  0.7103
 4542SOL    HW125088   3.491   4.676   4.434  1.1218 -1.7494  1.2819
 4542SOL    HW225089   3.421   0.057   4.520  1.6530  0.6027  1.6761
 4543SOL     OW25090   3.745   1.088  16.069  0.2700  0.3802 -0.1552
 4543SOL    HW125091   3.766   1.182  16.068 -1.1456  0.6928 -0.1433
 4543SOL    HW225092   3.809   1.061  16.135  0.4927  0.5753 -0.2912
 4544SOL     OW25093   4.144   3.276   1.351 -0.2650  0.2254  0.7449
 4544SOL    HW125094   4.070   3.334   1.334 -0.2506  0.0919  0.2413
 4544SOL    HW225095   4.134   3.267   1.446  1.3465  0.9129  0.9766
 4545SOL     OW25096   4.402   1.308   4.883  0.3402  0.2476  0.4771
 4545SOL    HW125097   4.461   1.277   4.952  0.9118 -1.0125 -0.5578
 4545SOL    HW225098   4.443   1.394   4.891  0.1970  0.1617  2.1110
 4546SOL     OW25099   2.950   1.641   5.829 -0.0420  0.3507 -0.4696
 4546SOL    HW125100   2.939   1.607   5.740 -0.9503 -0.5050 -0.0323
 4546SOL    HW225101   2.937   1.561   5.881  0.2298  1.0213  0.6210
 4547SOL     OW25102   0.013   0.795  11.760 -0.4979 -0.2174  0.5323
 4547SOL    HW125103   4.685   0.725  11.721  2.2696 -0.5236 -2.6556
 4547SOL    HW225104   0.038   0.743  11.837 -1.5743  0.5478  1.4028
 4548SOL     OW25105   1.233   0.578  15.070 -0.6458 -0.0838  0.5757
 4548SOL    HW125106   1.195   0.516  15.008 -0.2484 -0.4195  0.6684
 4548SOL    HW225107   1.176   0.655  15.070 -0.3502  0.1454 -1.1403
 4549SOL     OW25108   0.512   2.957   6.561 -0.2906  0.5745 -0.0282
 4549SOL    HW125109   0.558   3.027   6.516  0.7139 -0.7880 -1.1197
 4549SOL    HW225110   0.428   2.940   6.517  0.2031  0.0267 -0.7676
 4550SOL     OW25111   2.418   3.928   6.615 -0.1759 -0.2385 -0.1543
 4550SOL    HW125112   2.474   3.971   6.678  0.6956  0.2496 -1.2566
 4550SOL    HW225113   2.474   3.944   6.539  2.1088 -1.7540  1.2073
 4551SOL     OW25114   0.697   1.183  11.210 -0.4287 -0.2626  0.1312
 4551SOL    HW125115   0.717   1.093  11.183  0.6508  0.2324 -0.6687
 4551SOL    HW225116   0.631   1.187  11.141  1.6987 -0.1903 -1.8474
 4552SOL     OW25117   1.062   0.443   9.243 -0.2450 -0.1707 -0.3889
 4552SOL    HW125118   1.024   0.356   9.235  0.6555 -0.4382 -1.7430
 4552SOL    HW225119   1.080   0.470   9.153  3.4080 -0.4379  0.2588
 4553SOL     OW25120   1.069   1.321   7.374 -0.1900  0.2876 -0.5865
 4553SOL    HW125121   1.150   1.359   7.340 -0.1913  1.0082  0.2294
 4553SOL    HW225122   1.108   1.259   7.436 -3.5677 -0.5046  0.7194
 4554SOL     OW25123   4.151   4.419  13.857  0.3790 -0.4087  0.0902
 4554SOL    HW125124   4.155   4.340  13.910  1.6959 -2.4331 -3.0184
 4554SOL    HW225125   4.197   4.472  13.923 -0.6115 -0.4134  0.7739
 4555SOL     OW25126   3.111   4.168  12.954  0.0053 -0.0025  0.5970
 4555SOL    HW125127   3.029   4.127  12.928 -0.7420 -0.7170  4.0492
 4555SOL    HW225128   3.110   4.245  12.898 -0.5970  1.2573  2.3310
 4556SOL     OW25129   2.204   2.475  11.279 -0.0353  0.2936 -0.0739
 4556SOL    HW125130   2.127   2.448  11.228 -1.3985  1.7303  1.2199
 4556SOL    HW225131   2.221   2.561  11.242  2.4228  1.0656  2.8728
 4557SOL     OW25132   0.653   3.097   0.274 -0.4304  0.6521 -0.3852
 4557SOL    HW125133   0.637   3.017   0.324 -0.8459  2.9001  3.1354
 4557SOL    HW225134   0.565   3.122   0.247 -0.1592  0.5536 -1.3366
 4558SOL     OW25135   1.703   0.529   1.538 -0.7202 -0.4032 -0.3786
 4558SOL    HW125136   1.629   0.492   1.587 -0.4407 -1.8894 -1.0662
 4558SOL    HW225137   1.651   0.551   1.461  0.1415  1.0228 -0.5510
 4559SOL     OW25138   0.658   0.365   8.308 -0.3108 -0.3386  0.8549
 4559SOL    HW125139   0.716   0.329   8.241 -0.5271 -1.7085  1.4157
 4559SOL    HW225140   0.636   0.451   8.272  3.3590  0.5125  0.5658
 4560SOL     OW25141   2.290   0.561   5.677  0.2187 -0.1009 -0.4789
 4560SOL    HW125142   2.311   0.649   5.648  0.4369 -0.0878 -0.2721
 4560SOL    HW225143   2.290   0.572   5.772  0.0231  0.7741 -0.5799
 4561SOL     OW25144   2.486   2.761   2.094 -0.0652  0.1187  0.4927
 4561SOL    HW125145   2.486   2.856   2.106  1.2887 -0.0940  2.1844
 4561SOL    HW225146   2.455   2.753   2.004  0.7999  0.1639  0.1937
 4562SOL     OW25147   0.430   1.479   7.162 -0.2178  0.2302  0.5931
 4562SOL    HW125148   0.335   1.474   7.159 -0.1580 -1.2206  1.1091
 4562SOL    HW225149   0.459   1.437   7.081  1.2894  0.1714  1.1498
 4563SOL     OW25150   4.699   2.486   1.624 -0.3981  0.4887 -0.4929
 4563SOL    HW125151   0.056   2.438   1.604  0.9636  2.3564  0.5214
 4563SOL    HW225152   4.645   2.464   1.548 -0.8447  0.2134 -0.0973
 4564SOL     OW25153   2.334   3.465   9.305 -0.1837  0.3687  0.3833
 4564SOL    HW125154   2.322   3.374   9.277  2.4023 -0.3831  1.7228
 4564SOL    HW225155   2.430   3.461   9.310 -0.1703 -0.5115 -0.4056
 4565SOL     OW25156   3.955   3.118   2.281 -0.3327 -0.2139 -0.0806
 4565SOL    HW125157   3.919   3.126   2.193 -1.0591  2.0117  0.4234
 4565SOL    HW225158   4.017   3.047   2.263  1.0823  1.5529 -2.0578
 4566SOL     OW25159   4.332   4.126   3.612  0.1425  0.3622  0.1728
 4566SOL    HW125160   4.268   4.132   3.683 -0.6792 -0.9197 -0.4524
 4566SOL    HW225161   4.275   4.126   3.534 -0.0360 -1.8421  0.3132
 4567SOL     OW25162   1.543   1.758  11.714  0.6217 -0.5252 -0.2835
 4567SOL    HW125163   1.484   1.696  11.756 -0.6391  1.0190  0.2193
 4567SOL    HW225164   1.528   1.842  11.758 -0.9145 -0.4580 -0.9445
 4568SOL     OW25165   1.803   3.742   3.982 -0.1298 -0.0739 -0.1140
 4568SOL    HW125166   1.885   3.790   3.994  0.0877 -0.5536  0.3482
 4568SOL    HW225167   1.758   3.810   3.932  0.9661 -0.9136 -2.2082
 4569SOL     OW25168   1.505   3.852   7.724  0.3422 -0.6370 -0.1164
 4569SOL    HW125169   1.416   3.867   7.691  0.2039  0.0683  0.5771
 4569SOL    HW225170   1.539   3.801   7.650 -0.2976 -2.0263  0.5454
 4570SOL     OW25171   3.777   2.565   8.675  0.0051  0.5907  0.0576
 4570SOL    HW125172   3.765   2.502   8.604  0.3949  1.8839 -1.1772
 4570SOL    HW225173   3.740   2.520   8.750  1.1943 -0.4196  0.0271
 4571SOL     OW25174   3.378   1.462   1.848 -0.8736  0.0538  0.0734
 4571SOL    HW125175   3.470   1.468   1.825 -0.1010 -0.1326  3.1283
 4571SOL    HW225176   3.343   1.485   1.761  2.6066  2.0142 -0.7970
 4572SOL     OW25177   1.528   0.664   6.779 -0.6272  0.5774 -0.5411
 4572SOL    HW125178   1.461   0.732   6.776 -0.3909  0.9360  2.5062
 4572SOL    HW225179   1.552   0.657   6.687 -0.3343  0.8559 -0.4860
 4573SOL     OW25180   4.169   0.469   9.621  0.4445 -0.1027 -0.3723
 4573SOL    HW125181   4.200   0.378   9.619  1.2340  0.1369  1.6389
 4573SOL    HW225182   4.109   0.474   9.694  0.0618  1.4689 -0.7990
 4574SOL     OW25183   1.464   2.797   7.925  0.2035 -0.4260  0.1246
 4574SOL    HW125184   1.379   2.823   7.961 -0.2459 -1.8097  0.0434
 4574SOL    HW225185   1.533   2.800   7.990  1.9784 -1.3222 -1.7292
 4575SOL     OW25186   0.825   4.044  10.608  0.2028  0.4858 -0.4278
 4575SOL    HW125187   0.786   4.008  10.529  0.4575 -1.8785  0.5242
 4575SOL    HW225188   0.903   4.074  10.562  1.4095 -0.1854  1.1925
 4576SOL     OW25189   2.340   0.119   7.291 -0.1714  0.1842 -0.2548
 4576SOL    HW125190   2.436   0.120   7.296 -0.0508 -0.7481 -2.1535
 4576SOL    HW225191   2.307   0.057   7.357 -0.2209  0.9861  0.4707
 4577SOL     OW25192   0.192   0.427   8.118 -0.0187  0.3466 -0.7312
 4577SOL    HW125193   0.215   0.398   8.030  1.8916  0.6069 -0.3003
 4577SOL    HW225194   0.131   0.357   8.142 -0.9651  1.5873  0.4455
 4578SOL     OW25195   0.584   3.001   9.349 -0.1160  0.2562 -0.0053
 4578SOL    HW125196   0.520   2.931   9.334  1.2588 -0.8926 -0.4549
 4578SOL    HW225197   0.527   3.078   9.342  0.7802  0.7769 -1.5049
 4579SOL     OW25198   2.531   3.667   0.107 -0.4713 -1.0159  0.4107
 4579SOL    HW125199   2.458   3.713   0.066 -2.3104 -3.2129  1.2041
 4579SOL    HW225200   2.588   3.736   0.140 -1.3497 -0.7366  1.3467
 4580SOL     OW25201   1.211   1.188   5.855  0.4140  0.5279 -0.2882
 4580SOL    HW125202   1.251   1.130   5.791 -3.2893  0.4307 -2.5088
 4580SOL    HW225203   1.281   1.238   5.898 -0.0698  1.6414 -0.8003
 4581SOL     OW25204   3.600   3.160   2.835  0.0594  0.2022  0.3383
 4581SOL    HW125205   3.539   3.224   2.798 -0.2599 -1.1338 -1.4273
 4581SOL    HW225206   3.679   3.192   2.790 -0.0835 -0.1560 -0.1695
 4582SOL     OW25207   4.631   3.763   7.212 -0.1338  0.2536  0.7327
 4582SOL    HW125208   4.548   3.805   7.190  0.3744  1.1369  0.4968
 4582SOL    HW225209   4.612   3.683   7.163  0.0930  0.4481  0.3198
 4583SOL     OW25210   3.248   2.547   9.878 -0.3717 -0.1363  0.3803
 4583SOL    HW125211   3.296   2.562   9.796  0.3374 -1.9296  0.4551
 4583SOL    HW225212   3.245   2.640   9.901 -0.7485 -0.3100  1.0213
 4584SOL     OW25213   3.670   1.556   0.084 -0.3177  0.4927  0.6746
 4584SOL    HW125214   3.746   1.583   0.031 -0.5767 -1.9765 -0.9627
 4584SOL    HW225215   3.701   1.571   0.173  0.2867 -2.0276  0.8881
 4585SOL     OW25216   1.806   0.475   7.032 -0.3486  0.7614  0.2264
 4585SOL    HW125217   1.850   0.542   7.085  2.0849 -0.5505 -0.1490
 4585SOL    HW225218   1.841   0.490   6.944 -0.1778 -0.0177  0.1645
 4586SOL     OW25219   4.316   4.633   4.215 -0.1064  0.2683  0.1597
 4586SOL    HW125220   4.363   4.582   4.280  0.5941  1.3431  0.5015
 4586SOL    HW225221   4.376   4.708   4.214 -1.1990  1.1804  1.5554
 4587SOL     OW25222   3.083   3.359   7.234  0.1666  0.3674  0.6049
 4587SOL    HW125223   3.084   3.263   7.236  1.9897  0.3053 -2.5528
 4587SOL    HW225224   3.100   3.384   7.325  0.8439 -2.0163  1.1423
 4588SOL     OW25225   4.434   3.567   3.318  0.0173  0.0345 -0.3436
 4588SOL    HW125226   4.446   3.474   3.336  1.7813  0.9188  3.0166
 4588SOL    HW225227   4.346   3.586   3.351  1.7863  2.0680  3.2710
 4589SOL     OW25228   3.520   4.423   4.085  0.1895 -0.4425  0.1474
 4589SOL    HW125229   3.556   4.427   3.997 -0.2668 -0.0623 -0.0197
 4589SOL    HW225230   3.561   4.342   4.116  4.5816  1.6212 -0.1442
 4590SOL     OW25231   0.505   0.700   0.139 -0.0851 -0.2117 -0.3981
 4590SOL    HW125232   0.461   0.765   0.085 -1.4021 -0.1491  0.7747
 4590SOL    HW225233   0.450   0.684   0.215  0.1372  0.9994  0.0178
 4591SOL     OW25234   3.489   2.186   7.044 -0.1139  0.5312  0.4323
 4591SOL    HW125235   3.456   2.101   7.016 -3.6561  1.0313  3.2283
 4591SOL    HW225236   3.416   2.214   7.099 -0.7057 -0.6399  0.2441
 4592SOL     OW25237   0.893   2.118   4.773 -0.0826  0.2229 -0.0187
 4592SOL    HW125238   0.934   2.169   4.843  1.6098  1.6051 -2.0559
 4592SOL    HW225239   0.901   2.180   4.701 -1.2457 -0.6015 -0.8543
 4593SOL     OW25240   0.235   3.593   8.043 -0.1668 -0.4293  0.0950
 4593SOL    HW125241   0.261   3.622   7.956 -1.9788 -0.4797 -0.4592
 4593SOL    HW225242   0.310   3.626   8.092 -1.1875  0.9201  0.7357
 4594SOL     OW25243   0.543   3.939   4.086  0.0692  0.2149  0.0559
 4594SOL    HW125244   0.465   3.918   4.138 -1.9814  0.6806 -2.8485
 4594SOL    HW225245   0.550   3.862   4.029 -1.1572  0.1308  0.0096
 4595SOL     OW25246   0.896   1.898   3.959  0.1482  0.5714  0.0839
 4595SOL    HW125247   0.824   1.845   3.993  0.6835 -0.2263 -0.0408
 4595SOL    HW225248   0.944   1.917   4.040 -1.5984  0.9510  1.0287
 4596SOL     OW25249   3.888   0.092   8.012 -0.2503  0.2892 -0.4645
 4596SOL    HW125250   3.944   0.169   8.006 -0.3286  0.3789 -0.0798
 4596SOL    HW225251   3.920   0.041   7.938  0.9162  0.0770  0.1859
 4597SOL     OW25252   0.317   4.687   1.903  0.1384 -0.2276 -0.1391
 4597SOL    HW125253   0.406   4.704   1.873  1.0297  0.8149  3.0645
 4597SOL    HW225254   0.336   0.001   1.989  1.5383 -0.2305 -0.4533
 4598SOL     OW25255   0.074   4.148   6.647  0.1776 -0.0289 -0.8641
 4598SOL    HW125256   0.103   4.205   6.576  1.7310 -0.4790 -0.5876
 4598SOL    HW225257   0.156   4.107   6.673 -0.6178 -1.7697 -1.1050
 4599SOL     OW25258   2.657   3.050   3.597  0.2213  1.0808 -0.0811
 4599SOL    HW125259   2.720   3.090   3.536  1.6192 -1.5518 -0.3549
 4599SOL    HW225260   2.704   2.975   3.632 -0.5133 -0.2636 -1.9451
 4600SOL     OW25261   0.328   3.279   9.462  0.9798 -0.3058  0.0535
 4600SOL    HW125262   0.331   3.310   9.372 -3.2764 -0.5414 -0.1323
 4600SOL    HW225263   0.422   3.272   9.483  0.8784 -0.5350  0.4245
 4601SOL     OW25264   2.472   1.029   2.352  0.9440  0.3515 -0.0786
 4601SOL    HW125265   2.401   1.054   2.412  0.4543 -1.6032  0.1695
 4601SOL    HW225266   2.504   1.108   2.309 -2.3188  0.9330 -1.4680
 4602SOL     OW25267   1.050   4.367  12.728  0.4928 -0.2037 -0.2600
 4602SOL    HW125268   1.102   4.438  12.767 -0.5635 -0.8981  2.3904
 4602SOL    HW225269   1.009   4.337  12.809 -1.0694 -1.1899 -1.4187
 4603SOL     OW25270   3.225   3.533   8.129  0.0600  0.1198  0.6162
 4603SOL    HW125271   3.307   3.532   8.080 -0.0027 -1.8762  0.5496
 4603SOL    HW225272   3.167   3.593   8.081  0.8482  0.3135 -0.1064
 4604SOL     OW25273   0.392   1.949  17.580  0.0861 -0.2136  0.3258
 4604SOL    HW125274   0.474   1.994  17.558 -0.3454 -1.2692 -3.3349
 4604SOL    HW225275   0.406   1.904  17.663 -0.8013  1.2614  1.2839
 4605SOL     OW25276   4.105   4.149   3.768  0.4238 -0.0376  0.1082
 4605SOL    HW125277   4.094   4.244   3.775 -0.1162 -0.0890 -0.0353
 4605SOL    HW225278   4.026   4.121   3.814  0.6263  5.1872  3.7126
 4606SOL     OW25279   2.185   1.472   8.737  0.0444 -0.3225 -0.3727
 4606SOL    HW125280   2.175   1.566   8.751 -1.3182 -0.7338  1.3119
 4606SOL    HW225281   2.098   1.439   8.759 -0.5152  2.1641  1.0889
 4607SOL     OW25282   4.483   3.071  11.691  0.0651 -0.1623 -0.3725
 4607SOL    HW125283   4.413   3.015  11.727  0.1357  0.3037  0.5010
 4607SOL    HW225284   4.436   3.152  11.673  1.7555  1.0426  0.6730
 4608SOL     OW25285   2.434   2.114   1.033 -0.1984 -0.1772  0.1038
 4608SOL    HW125286   2.432   2.035   1.087  1.5210  0.4776  1.1153
 4608SOL    HW225287   2.529   2.112   1.019 -0.1877  0.1466  0.1344
 4609SOL     OW25288   3.680   1.796   2.937 -0.6204 -0.1140 -0.1780
 4609SOL    HW125289   3.613   1.848   2.980 -2.4134 -1.6295 -1.1551
 4609SOL    HW225290   3.733   1.864   2.897 -2.4028  1.0298 -0.5768
 4610SOL     OW25291   3.003   2.837  12.017 -0.3535 -0.0322 -0.0839
 4610SOL    HW125292   3.042   2.910  12.064 -2.5588  2.4445 -2.0668
 4610SOL    HW225293   2.973   2.792  12.096 -1.8279 -0.5227 -0.9217
 4611SOL     OW25294   3.063   2.676  16.441  0.3123  0.5416 -0.6993
 4611SOL    HW125295   3.147   2.691  16.398  1.2507 -1.3571  0.4873
 4611SOL    HW225296   3.010   2.633  16.374 -1.1198 -1.3200  1.6283
 4612SOL     OW25297   3.681   3.902  11.896 -0.2024 -0.0440 -0.3895
 4612SOL    HW125298   3.743   3.974  11.892 -0.0234 -0.1617  0.4063
 4612SOL    HW225299   3.642   3.914  11.982  0.9454  0.9869 -0.0222
 4613SOL     OW25300   4.134   4.439   3.483 -0.1591  0.1083 -0.0284
 4613SOL    HW125301   4.150   4.519   3.434  1.5614  0.9767  1.9211
 4613SOL    HW225302   4.223   4.415   3.510  0.6623  0.7081 -2.2499
 4614SOL     OW25303   3.976   0.962   7.312 -0.5330 -0.0028 -0.2153
 4614SOL    HW125304   4.000   1.039   7.260 -0.6856  0.0733 -0.1714
 4614SOL    HW225305   3.896   0.928   7.270 -0.3851 -1.7095  0.8582
 4615SOL     OW25306   2.683   4.696   0.518  0.0524 -0.1018 -0.2535
 4615SOL    HW125307   2.747   4.636   0.556  1.2155  1.7363  0.6994
 4615SOL    HW225308   2.654   4.641   0.445  2.4159  1.0685 -2.0918
 4616SOL     OW25309   2.876   3.585   4.662 -0.8211 -0.6159 -0.4334
 4616SOL    HW125310   2.878   3.671   4.620  0.1123 -0.9650 -1.0787
 4616SOL    HW225311   2.829   3.621   4.737 -0.1692 -0.1257 -0.2688
 4617SOL     OW25312   1.359   0.408   3.641 -0.4176 -0.2564 -0.5046
 4617SOL    HW125313   1.370   0.420   3.735  1.2846 -0.3371 -0.6949
 4617SOL    HW225314   1.439   0.444   3.602 -2.0752  0.7446 -3.0244
 4618SOL     OW25315   4.052   2.981   5.414 -0.2185 -0.1375  0.1729
 4618SOL    HW125316   4.138   2.942   5.427  0.2429  0.4550 -1.0866
 4618SOL    HW225317   4.003   2.917   5.465 -0.7323 -0.6568 -0.9783
 4619SOL     OW25318   0.278   3.303   6.365  0.2361  0.0108  0.4081
 4619SOL    HW125319   0.213   3.233   6.356 -1.1767  1.1339  1.7253
 4619SOL    HW225320   0.250   3.332   6.452 -2.1992 -0.7520 -0.1252
 4620SOL     OW25321   4.510   2.614   3.523  0.1031  0.1582  0.2297
 4620SOL    HW125322   4.516   2.535   3.577  0.0602 -1.6417 -2.4080
 4620SOL    HW225323   4.525   2.674   3.597 -1.9994  2.7730 -1.4672
 4621SOL     OW25324   3.909   2.647  11.462  0.1403  0.2374 -0.4036
 4621SOL    HW125325   3.882   2.559  11.487  1.1931  0.4691  1.4928
 4621SOL    HW225326   3.825   2.690  11.443  0.5658  0.2416 -2.2617
 4622SOL     OW25327   2.269   1.441   6.894 -0.0031  0.0232 -0.0208
 4622SOL    HW125328   2.220   1.374   6.942 -1.8710  1.2971 -0.1270
 4622SOL    HW225329   2.260   1.403   6.807 -1.1172 -0.0518  0.1255
 4623SOL     OW25330   2.845   0.158   4.799  0.3860  0.2333  0.5403
 4623SOL    HW125331   2.852   0.244   4.839 -0.3622  0.3824  0.3599
 4623SOL    HW225332   2.893   0.165   4.717  0.9469  0.0022  0.8433
 4624SOL     OW25333   1.982   4.631  17.533 -0.4363  0.1167  0.5459
 4624SOL    HW125334   1.964   4.603  17.443 -1.3839  2.5640 -0.0123
 4624SOL    HW225335   1.990   4.548  17.580 -0.1314 -0.9446 -1.3611
 4625SOL     OW25336   0.572   0.891  16.581 -1.0187 -0.0604  0.4680
 4625SOL    HW125337   0.567   0.917  16.489  0.0429 -0.9926  0.1581
 4625SOL    HW225338   0.559   0.981  16.610  0.0722  0.1580  0.2660
 4626SOL     OW25339   2.453   4.136   8.500 -0.5767  0.4443 -0.1639
 4626SOL    HW125340   2.499   4.216   8.474 -0.1453  0.4501  0.6219
 4626SOL    HW225341   2.406   4.165   8.578 -1.3474  1.6585 -1.0780
 4627SOL     OW25342   0.944   2.542   2.912  0.2154  0.4411 -0.5271
 4627SOL    HW125343   0.906   2.486   2.844  0.2187 -1.1209  0.7655
 4627SOL    HW225344   1.015   2.485   2.942 -0.4574 -0.6164 -0.9177
 4628SOL     OW25345   2.813   0.372   4.130 -0.4253 -0.6037  0.3052
 4628SOL    HW125346   2.907   0.358   4.133 -0.1767  0.9198 -0.1326
 4628SOL    HW225347   2.793   0.280   4.146  0.2498 -0.3403  2.6722
 4629SOL     OW25348   2.244   3.640   9.756  0.2001  0.0510 -0.3681
 4629SOL    HW125349   2.229   3.606   9.844 -1.3227  1.0732 -0.2440
 4629SOL    HW225350   2.337   3.663   9.757  1.1298 -3.7880  2.0232
 4630SOL     OW25351   3.709   3.453  11.662 -0.3083  0.2650  0.8369
 4630SOL    HW125352   3.639   3.397  11.693 -1.3979  0.7942 -0.6929
 4630SOL    HW225353   3.737   3.402  11.587  1.0938  0.3852  1.2779
 4631SOL     OW25354   3.477   4.009   2.905 -0.0570  0.2813 -0.0283
 4631SOL    HW125355   3.406   3.945   2.893 -0.1905  0.5802 -0.7910
 4631SOL    HW225356   3.478   4.030   2.998 -2.3188  1.5946 -0.2969
 4632SOL     OW25357   1.504   2.844   6.589 -0.3692 -0.0885  0.2981
 4632SOL    HW125358   1.524   2.919   6.532  1.2314 -1.3428 -0.7778
 4632SOL    HW225359   1.507   2.894   6.671  0.4176 -0.9690  0.8046
 4633SOL     OW25360   0.546   0.300   2.147 -0.3102 -0.1900  0.8953
 4633SOL    HW125361   0.618   0.310   2.208 -1.0671 -0.7249  1.8703
 4633SOL    HW225362   0.588   0.327   2.065 -0.3476  0.0727  0.9647
 4634SOL     OW25363   0.811   3.488   6.022  0.2053 -0.3709 -0.2446
 4634SOL    HW125364   0.819   3.490   6.117  0.0589  0.8144 -0.2648
 4634SOL    HW225365   0.715   3.488   6.014 -0.1460  2.1163  4.0547
 4635SOL     OW25366   2.091   0.137   8.571  0.6526 -0.5038 -0.2450
 4635SOL    HW125367   2.177   0.146   8.530  0.4126  0.5969 -0.4949
 4635SOL    HW225368   2.070   0.046   8.552 -1.7963 -0.3358  1.5822
 4636SOL     OW25369   4.201   1.142   4.680 -0.0864  0.0698 -0.2876
 4636SOL    HW125370   4.156   1.071   4.727  1.5991 -0.2996  0.7706
 4636SOL    HW225371   4.243   1.190   4.751  0.7133 -0.2893 -0.5246
 4637SOL     OW25372   0.394   4.409   4.164 -0.0343  0.2360 -0.0316
 4637SOL    HW125373   0.386   4.504   4.173 -1.7705  0.0207  0.5693
 4637SOL    HW225374   0.307   4.388   4.130 -0.9402  3.0383  0.4907
 4638SOL     OW25375   1.306   2.323  11.155  0.3306  0.0831  0.5196
 4638SOL    HW125376   1.393   2.362  11.154 -0.7132  2.4288  1.7470
 4638SOL    HW225377   1.324   2.231  11.137 -0.0506 -0.1035  1.0625
 4639SOL     OW25378   4.595   2.858  14.601  0.3633 -0.1082  0.2317
 4639SOL    HW125379   4.613   2.919  14.673  0.4492  0.3359 -0.1648
 4639SOL    HW225380   4.649   2.782  14.621 -0.2588 -0.9027 -1.1481
 4640SOL     OW25381   4.707   1.443  16.091 -0.5145  0.0025 -0.3140
 4640SOL    HW125382   4.676   1.380  16.026 -0.1387  0.6970 -1.1616
 4640SOL    HW225383   0.019   1.521  16.049  2.2642 -1.8297 -1.3747
 4641SOL     OW25384   0.894   0.083   2.424  0.6394  0.3107  0.1899
 4641SOL    HW125385   0.891   4.720   2.465 -2.1159  1.4554  2.4124
 4641SOL    HW225386   0.978   0.092   2.379  0.7921 -0.4272  0.3175
 4642SOL     OW25387   4.724   3.993   5.640  0.0762  0.1201  0.1205
 4642SOL    HW125388   0.070   3.940   5.677  0.4460 -0.0412 -0.8054
 4642SOL    HW225389   4.661   4.009   5.711 -1.2431  0.1629 -1.0508
 4643SOL     OW25390   2.488   2.925   8.937 -0.1691  0.1941  0.5569
 4643SOL    HW125391   2.484   2.863   8.865 -0.2987  1.3713 -0.4475
 4643SOL    HW225392   2.542   2.996   8.901  0.2061  0.5006  1.7100
 4644SOL     OW25393   2.366   0.648   7.819  0.5831 -0.4891 -0.1936
 4644SOL    HW125394   2.345   0.572   7.764  0.7329 -2.3763  2.3918
 4644SOL    HW225395   2.445   0.606   7.851  0.6764 -0.8545 -0.9075
 4645SOL     OW25396   1.789   1.560   8.231 -0.2101 -0.2423  0.4702
 4645SOL    HW125397   1.807   1.515   8.149  2.0292  1.8309 -0.1668
 4645SOL    HW225398   1.878   1.571   8.265 -0.1410 -2.6023  1.0398
 4646SOL     OW25399   0.346   1.132  16.187 -0.1208  0.5885 -0.2083
 4646SOL    HW125400   0.296   1.212  16.173 -0.3782  0.3359 -0.7762
 4646SOL    HW225401   0.285   1.063  16.214 -0.2820  0.3251 -1.2389
 4647SOL     OW25402   3.956   0.090  16.494 -0.0640  0.4864  0.1050
 4647SOL    HW125403   3.951   0.086  16.590 -0.1995  1.7227  0.1432
 4647SOL    HW225404   3.983   0.180  16.482 -0.2629  0.9070  2.7980
 4648SOL     OW25405   4.685   0.717   8.886  0.2739  0.3908  0.0737
 4648SOL    HW125406   4.631   0.777   8.835 -1.4430 -3.0139 -2.1155
 4648SOL    HW225407   4.675   0.638   8.833  0.4643  1.6483 -1.8459
 4649SOL     OW25408   1.210   1.775   7.874  0.1768 -0.5656  0.0102
 4649SOL    HW125409   1.274   1.761   7.944 -0.5698 -0.2555  0.7556
 4649SOL    HW225410   1.137   1.788   7.935 -1.2680  0.6068 -1.9560
 4650SOL     OW25411   4.559   3.852   8.924 -0.1172 -0.2644 -0.0475
 4650SOL    HW125412   4.596   3.921   8.978 -2.5393  0.8433  0.1915
 4650SOL    HW225413   4.564   3.773   8.977 -0.2683 -0.7689 -0.7784
 4651SOL     OW25414   4.019   0.805   3.874 -0.1885  0.3153 -0.6045
 4651SOL    HW125415   4.062   0.872   3.927 -0.3532 -0.0379 -0.0238
 4651SOL    HW225416   3.941   0.804   3.929  0.6458  0.0914  0.5594
 4652SOL     OW25417   2.079   3.200   4.475 -0.1226 -0.1972  0.1946
 4652SOL    HW125418   2.089   3.185   4.381 -0.1625 -1.4620  0.3985
 4652SOL    HW225419   2.073   3.296   4.472  0.2669 -0.1140  2.3653
 4653SOL     OW25420   1.438   1.331  17.571 -0.9346 -0.5486  0.0597
 4653SOL    HW125421   1.507   1.265  17.561 -0.0646  0.7094 -2.2979
 4653SOL    HW225422   1.400   1.340  17.484  0.8248  0.9592 -0.5453
 4654SOL     OW25423   0.211   0.637   5.335 -0.0955  0.5231 -0.1628
 4654SOL    HW125424   0.235   0.721   5.372 -2.1693  1.2175 -0.3530
 4654SOL    HW225425   0.291   0.585   5.345 -1.5831 -2.0985 -1.6107
 4655SOL     OW25426   3.068   3.822  10.707  0.1998  0.6801  0.2536
 4655SOL    HW125427   3.028   3.827  10.793  0.0052  0.0140  0.2061
 4655SOL    HW225428   3.103   3.733  10.716 -0.8975  0.2710  0.5110
 4656SOL     OW25429   3.351   0.295   5.547  0.2449  0.0202 -0.2800
 4656SOL    HW125430   3.356   0.369   5.487 -0.9088  0.8235  0.6038
 4656SOL    HW225431   3.283   0.311   5.613  1.5831  1.4754  0.7605
 4657SOL     OW25432   4.567   1.705  14.651  0.2954 -0.2129  0.1557
 4657SOL    HW125433   4.624   1.739  14.720  0.5503  3.7380 -1.9585
 4657SOL    HW225434   4.631   1.646  14.612 -0.4452  0.5982 -2.2687
 4658SOL     OW25435   2.581   0.241   1.805 -0.3424  0.7310 -0.1597
 4658SOL    HW125436   2.501   0.190   1.822  0.7231 -0.9088 -0.0997
 4658SOL    HW225437   2.561   0.262   1.714 -1.8986  3.1618  0.7518
 4659SOL     OW25438   0.032   1.222   7.976 -0.7095 -0.1957 -0.1058
 4659SOL    HW125439   4.708   1.243   7.896  2.2521  2.3534 -1.2367
 4659SOL    HW225440   0.068   1.310   7.990 -0.5720 -0.1959 -0.4678
 4660SOL     OW25441   1.367   1.147   2.776  0.4475 -0.0943 -0.2142
 4660SOL    HW125442   1.434   1.107   2.832  0.3373  2.3299  1.5932
 4660SOL    HW225443   1.339   1.219   2.832 -0.1601 -0.8688  0.4880
 4661SOL     OW25444   1.216   1.847   3.284 -0.5038 -0.2953  0.0283
 4661SOL    HW125445   1.155   1.794   3.335 -1.7483  0.1103 -1.0189
 4661SOL    HW225446   1.270   1.783   3.238 -0.1069  0.0701 -0.0110
 4662SOL     OW25447   4.325   0.235  14.036 -0.3120 -0.4555  0.1120
 4662SOL    HW125448   4.278   0.251  14.118 -0.2359  0.6887 -0.0805
 4662SOL    HW225449   4.278   0.159  14.002 -1.5097  0.3744 -0.0693
 4663SOL     OW25450   4.296   4.174   8.838 -0.8709 -0.0103  0.1988
 4663SOL    HW125451   4.312   4.081   8.855  2.7339  0.7555  1.0092
 4663SOL    HW225452   4.338   4.214   8.914  0.3547 -0.5056 -0.2173
 4664SOL     OW25453   2.256   0.260  15.000  0.5522  0.7666  0.1099
 4664SOL    HW125454   2.220   0.335  15.046 -3.6102 -1.4350  0.4741
 4664SOL    HW225455   2.323   0.303  14.947  2.0095  0.7560  1.9536
 4665SOL     OW25456   2.910   3.752   3.333 -0.1801 -0.1472  0.2733
 4665SOL    HW125457   2.889   3.659   3.329 -3.0323  0.4538  0.9751
 4665SOL    HW225458   2.820   3.783   3.323 -0.4973 -1.2636 -0.2276
 4666SOL     OW25459   3.342   0.067   2.371  0.3118  0.6749 -0.0505
 4666SOL    HW125460   3.389   0.042   2.450 -0.5706 -1.8077 -0.3015
 4666SOL    HW225461   3.295   4.709   2.354  0.5570  0.4689  0.2652
 4667SOL     OW25462   4.061   4.459   8.952  0.3370  0.1346 -0.1332
 4667SOL    HW125463   4.064   4.422   8.864 -0.5855 -3.2954  1.2581
 4667SOL    HW225464   4.043   4.550   8.930 -2.8565 -0.5125 -0.2296
 4668SOL     OW25465   3.362   0.653  17.633  0.2548  0.3959  0.3670
 4668SOL    HW125466   3.320   0.653  17.547 -1.4506 -2.8569  1.1810
 4668SOL    HW225467   3.444   0.698  17.616  0.4222 -0.4582 -1.0750
 4669SOL     OW25468   3.607   3.263   8.215 -0.2118  0.2259 -0.0960
 4669SOL    HW125469   3.586   3.202   8.285  0.6351 -1.4074 -1.2490
 4669SOL    HW225470   3.684   3.214   8.185 -0.0488  1.0592 -1.0642
 4670SOL     OW25471   1.791   0.706  14.664  0.0523  0.6165  0.3323
 4670SOL    HW125472   1.851   0.777  14.640 -0.4069  1.1009  0.6243
 4670SOL    HW225473   1.773   0.726  14.755  1.1151  0.3125  0.6152
 4671SOL     OW25474   2.621   0.812   7.627 -0.5607 -0.0008 -0.7018
 4671SOL    HW125475   2.533   0.806   7.664 -0.7015 -1.0406 -1.1924
 4671SOL    HW225476   2.649   0.721   7.635 -1.7278 -0.2975  0.0888
 4672SOL     OW25477   0.408   0.482  16.074 -0.1876 -0.5514  0.9591
 4672SOL    HW125478   0.461   0.408  16.102  0.7567 -0.7615 -1.4179
 4672SOL    HW225479   0.324   0.437  16.075  0.8645 -2.5954 -1.7403
 4673SOL     OW25480   0.739   1.644   4.795 -0.2576  0.4996 -0.0953
 4673SOL    HW125481   0.736   1.645   4.891  1.7755 -1.0579 -0.0194
 4673SOL    HW225482   0.789   1.725   4.787  1.0457 -0.1301  1.6425
 4674SOL     OW25483   1.261   1.209   3.622  0.0453  0.4450  0.4309
 4674SOL    HW125484   1.218   1.284   3.664 -2.5777 -1.3305  0.8930
 4674SOL    HW225485   1.209   1.218   3.542 -1.1723 -2.4830  0.9179
 4675SOL     OW25486   0.977   1.222  17.467  0.5050 -0.4766 -0.1856
 4675SOL    HW125487   1.051   1.283  17.467  0.9002 -0.9635  1.9632
 4675SOL    HW225488   0.988   1.163  17.542  0.7620  2.4151  2.0189
 4676SOL     OW25489   1.982   0.163   8.849  0.4581  0.2334 -0.2543
 4676SOL    HW125490   2.052   0.227   8.865  0.0422  0.6726 -0.1926
 4676SOL    HW225491   2.005   0.128   8.763 -1.2284 -2.0420  0.2315
 4677SOL     OW25492   4.167   2.484  11.631 -0.0889  0.6754 -0.4544
 4677SOL    HW125493   4.121   2.400  11.630  0.1406  0.5612 -1.1097
 4677SOL    HW225494   4.256   2.454  11.616  0.4725  1.3865  1.4440
 4678SOL     OW25495   2.581   4.085   4.619 -0.5577  1.0196  0.3253
 4678SOL    HW125496   2.526   4.162   4.629  0.0811  1.5551 -0.2259
 4678SOL    HW225497   2.556   4.022   4.687 -0.7220 -1.2447 -1.8277
 4679SOL     OW25498   3.906   4.231   6.585  0.1131  0.1017  0.2221
 4679SOL    HW125499   3.911   4.155   6.641 -0.6751  0.2726  0.5184
 4679SOL    HW225500   3.976   4.285   6.622 -0.4589  1.1435 -0.2127
 4680SOL     OW25501   0.642   3.311   4.882 -0.5292  0.0427 -0.1720
 4680SOL    HW125502   0.555   3.336   4.851 -1.2190 -1.0165  0.8961
 4680SOL    HW225503   0.643   3.215   4.882  3.4569  0.1043  1.3152
 4681SOL     OW25504   1.161   2.088  16.131  0.3973  1.1824 -0.0289
 4681SOL    HW125505   1.217   2.150  16.178  0.0982  1.2612  0.2281
 4681SOL    HW225506   1.175   2.001  16.168  1.7162  0.6411 -1.7752
 4682SOL     OW25507   3.522   1.656   8.344  0.3765  0.5438 -0.2458
 4682SOL    HW125508   3.529   1.598   8.419  0.8907  1.2422  0.2454
 4682SOL    HW225509   3.595   1.614   8.298  0.4729  0.5889 -0.1344
 4683SOL     OW25510   1.184   4.113   5.428  0.1372 -0.2346  0.0340
 4683SOL    HW125511   1.191   4.176   5.356  1.6809 -0.6154 -0.1455
 4683SOL    HW225512   1.227   4.038   5.387 -1.5065  0.1904 -2.5069
 4684SOL     OW25513   3.514   4.457  15.611  0.0123 -0.0839  0.0222
 4684SOL    HW125514   3.580   4.433  15.677  1.3741  2.0605 -0.5452
 4684SOL    HW225515   3.570   4.504  15.549 -1.2644  1.2941 -0.0821
 4685SOL     OW25516   4.507   4.037   4.656  0.4224  0.3780  0.1473
 4685SOL    HW125517   4.555   3.986   4.721 -0.2870  0.9583  1.1227
 4685SOL    HW225518   4.554   4.120   4.649 -1.2070  0.9990 -3.7850
 4686SOL     OW25519   1.716   3.124   7.263 -0.8187  0.1358  0.7222
 4686SOL    HW125520   1.744   3.211   7.291  1.4482 -1.0674  2.2413
 4686SOL    HW225521   1.778   3.089   7.199 -1.7947 -1.7293  0.7884
 4687SOL     OW25522   2.933   1.615   8.093 -0.3462  0.2369  0.2919
 4687SOL    HW125523   3.023   1.626   8.064 -0.5629  1.4391  0.0509
 4687SOL    HW225524   2.933   1.591   8.185 -0.2703 -1.5327 -0.1721
 4688SOL     OW25525   0.708   4.074   6.125 -0.1408 -0.3363 -0.4804
 4688SOL    HW125526   0.643   4.022   6.078  0.8274  0.7360 -3.0279
 4688SOL    HW225527   0.786   4.049   6.075  0.8070 -2.2342  1.9731
 4689SOL     OW25528   4.664   4.340   5.502  0.3129 -0.2987  0.0153
 4689SOL    HW125529   4.708   4.289   5.433  0.4813  1.3328 -1.0693
 4689SOL    HW225530   4.661   4.421   5.451  1.0637 -0.4472 -0.2704
 4690SOL     OW25531   1.256   3.324   3.589  0.2288 -0.2687  0.6143
 4690SOL    HW125532   1.163   3.316   3.566  0.4035 -0.0795 -0.1641
 4690SOL    HW225533   1.257   3.243   3.641  1.1121  0.9062  2.4189
 4691SOL     OW25534   0.887   4.030   3.810  0.0658 -0.1322 -0.1857
 4691SOL    HW125535   0.880   4.124   3.828 -1.9147 -0.7603  2.3360
 4691SOL    HW225536   0.941   4.030   3.731  0.8453 -3.2522  0.3333
 4692SOL     OW25537   2.508   1.231   3.976  0.7416  0.4872 -0.0226
 4692SOL    HW125538   2.562   1.174   3.921  1.4912 -0.1428  1.3796
 4692SOL    HW225539   2.563   1.310   3.973 -1.8321  2.3337  2.0617
 4693SOL     OW25540   3.874   3.189  14.528  0.1236  0.3352  0.0297
 4693SOL    HW125541   3.821   3.179  14.607 -0.4290  0.9116 -0.2567
 4693SOL    HW225542   3.927   3.110  14.526 -0.3702  0.0693 -3.4459
 4694SOL     OW25543   2.844   2.517   2.493  0.8756 -0.0986  0.4194
 4694SOL    HW125544   2.814   2.565   2.416  0.8484 -1.3435 -0.3342
 4694SOL    HW225545   2.926   2.480   2.461  0.5222 -2.0128  1.6933
 4695SOL     OW25546   1.441   3.740  14.733 -0.6870  0.0239  0.2422
 4695SOL    HW125547   1.444   3.746  14.638  0.5044  1.6615  0.3865
 4695SOL    HW225548   1.458   3.648  14.751  1.5966  0.2272 -0.8786
 4696SOL     OW25549   1.321   4.235  14.126 -0.1937 -0.4571 -0.2394
 4696SOL    HW125550   1.416   4.239  14.136 -0.0463  1.2827 -2.0904
 4696SOL    HW225551   1.307   4.328  14.146 -1.1645 -1.1707  2.3340
 4697SOL     OW25552   1.299   1.618   3.154 -0.3631 -0.1416 -0.4376
 4697SOL    HW125553   1.367   1.607   3.088 -1.0499 -0.1953 -1.1327
 4697SOL    HW225554   1.321   1.539   3.203  0.1728 -1.0720 -2.1987
 4698SOL     OW25555   0.835   3.231   7.140  0.1708 -0.4359 -0.0676
 4698SOL    HW125556   0.833   3.167   7.069 -0.9238 -0.6244  0.1215
 4698SOL    HW225557   0.742   3.252   7.134 -0.5822 -3.5339  0.3642
 4699SOL     OW25558   3.870   4.342  11.289 -0.4967  0.6122  0.3183
 4699SOL    HW125559   3.957   4.357  11.325 -0.9045 -0.9849  1.9724
 4699SOL    HW225560   3.817   4.342  11.368  0.8456  1.1150  1.2169
 4700SOL     OW25561   4.114   3.278  14.091  0.1424 -0.5575  0.3104
 4700SOL    HW125562   4.134   3.302  14.181 -0.6481 -1.3616  0.7041
 4700SOL    HW225563   4.037   3.330  14.069  0.5525 -0.0590  0.0690
 4701SOL     OW25564   0.098   3.244   2.460  0.0633 -0.8368 -0.7998
 4701SOL    HW125565   0.099   3.247   2.365  1.0214  0.6578 -0.7576
 4701SOL    HW225566   0.145   3.325   2.483  0.1655 -0.9856 -0.4838
 4702SOL     OW25567   1.973   2.247   1.024 -0.1910 -0.4752 -0.2086
 4702SOL    HW125568   1.886   2.206   1.024  1.0000 -2.9663  1.0180
 4702SOL    HW225569   2.002   2.235   0.933  0.8923  0.8834 -0.0358
 4703SOL     OW25570   1.322   2.322   0.253 -0.6210 -0.4456  0.1866
 4703SOL    HW125571   1.372   2.241   0.261  0.4764  0.1458 -0.5990
 4703SOL    HW225572   1.260   2.300   0.322 -0.7863  1.6638  0.7157
 4704SOL     OW25573   3.727   4.156  16.254  0.1565 -0.7209 -0.0286
 4704SOL    HW125574   3.776   4.092  16.305 -2.6009 -2.7157  0.0986
 4704SOL    HW225575   3.783   4.233  16.266  0.6941 -1.2210  0.6302
 4705SOL     OW25576   0.657   4.677   0.200 -0.6934 -0.1341  0.6458
 4705SOL    HW125577   0.629   0.038   0.235  1.2559  0.2976  1.1721
 4705SOL    HW225578   0.729   4.710   0.147 -0.8059  0.1148  0.6475
 4706SOL     OW25579   1.230   3.482   6.086  0.6741 -0.0594 -0.1439
 4706SOL    HW125580   1.151   3.461   6.037 -0.0291 -0.1776  1.0455
 4706SOL    HW225581   1.257   3.390   6.088 -0.1612 -0.3413 -1.5801
 4707SOL     OW25582   0.069   1.022  11.525  0.2953  0.1730 -0.1725
 4707SOL    HW125583   0.161   1.045  11.510  0.4129 -0.4842 -0.4620
 4707SOL    HW225584   0.072   0.930  11.500 -0.5625  0.2311 -0.4754
 4708SOL     OW25585   3.408   4.317   8.501 -0.3148  0.1499 -0.1925
 4708SOL    HW125586   3.417   4.261   8.578  2.5719  1.5423  0.4530
 4708SOL    HW225587   3.477   4.381   8.514 -1.3053  1.3189 -0.6714
 4709SOL     OW25588   3.298   1.937  16.243 -0.3263 -0.2665 -0.1463
 4709SOL    HW125589   3.240   1.861  16.245  0.9740 -1.1959  2.2956
 4709SOL    HW225590   3.312   1.959  16.151  0.4281  3.8316  0.9471
 4710SOL     OW25591   0.544   3.180  14.719  0.4380 -0.6696  0.3677
 4710SOL    HW125592   0.618   3.156  14.776 -1.2928 -2.8892  1.6701
 4710SOL    HW225593   0.543   3.271  14.750  0.0970  0.3307 -2.5902
 4711SOL     OW25594   2.200   0.037  14.590  0.5742  0.2531  0.5122
 4711SOL    HW125595   2.159   0.055  14.675 -1.1438 -0.6596 -0.1301
 4711SOL    HW225596   2.194   4.666  14.599 -1.1358  0.6234  3.5229
 4712SOL     OW25597   0.863   0.928   6.148 -0.2066 -1.1117  0.2396
 4712SOL    HW125598   0.929   0.997   6.144 -0.0796 -1.0579  2.9861
 4712SOL    HW225599   0.813   0.949   6.070 -1.3035  2.9438  2.0189
 4713SOL     OW25600   3.233   0.937  11.535 -0.0590 -0.3233  0.0277
 4713SOL    HW125601   3.220   1.005  11.601 -2.3263 -0.3493 -0.3849
 4713SOL    HW225602   3.144   0.936  11.501  0.4266  2.4232 -1.3193
 4714SOL     OW25603   2.433   0.240  11.068  0.1636  0.4809  0.2227
 4714SOL    HW125604   2.508   0.279  11.024  0.6726  0.8278  1.4161
 4714SOL    HW225605   2.365   0.248  11.001 -0.6306  1.3772  1.1461
 4715SOL     OW25606   0.684   2.159   6.393 -0.0333  0.0015 -0.1394
 4715SOL    HW125607   0.663   2.107   6.470  3.5500  1.7523  2.0267
 4715SOL    HW225608   0.596   2.167   6.356 -0.1450 -0.2058  0.0814
 4716SOL     OW25609   3.969   3.146   8.196 -0.2502  0.2634 -0.2908
 4716SOL    HW125610   4.058   3.140   8.161  0.5641  1.7394  1.5107
 4716SOL    HW225611   3.958   3.237   8.167 -0.9833 -0.3113 -1.8404
 4717SOL     OW25612   3.168   3.043   2.855 -0.4391 -0.3131 -0.1343
 4717SOL    HW125613   3.210   2.996   2.783  0.8676  1.4932 -0.5477
 4717SOL    HW225614   3.181   3.135   2.834  2.5525 -0.7964 -0.4493
 4718SOL     OW25615   1.463   3.448   4.722 -0.2143  0.2848 -0.0600
 4718SOL    HW125616   1.469   3.406   4.808  3.4588  1.4638  0.2782
 4718SOL    HW225617   1.382   3.499   4.729 -1.8284 -2.5741  2.0025
 4719SOL     OW25618   4.690   1.906  15.376  0.2675  0.1346  0.0760
 4719SOL    HW125619   4.638   1.960  15.435  0.1474 -0.1565  0.2364
 4719SOL    HW225620   4.646   1.908  15.291  3.1591 -0.0820 -1.4351
 4720SOL     OW25621   2.107   3.384   9.587 -0.3708 -0.1912 -0.3126
 4720SOL    HW125622   2.196   3.414   9.607 -1.5156  2.0022  1.5156
 4720SOL    HW225623   2.059   3.452   9.634 -0.1650  1.1008 -1.9365
 4721SOL     OW25624   1.680   0.120   5.832 -0.0350  0.4012  0.5606
 4721SOL    HW125625   1.709   0.130   5.741  2.9236  0.0103  1.4582
 4721SOL    HW225626   1.627   0.044   5.809  0.4181 -0.4184  2.2398
 4722SOL     OW25627   4.316   3.191   6.457  0.1858 -0.0770 -0.0494
 4722SOL    HW125628   4.317   3.285   6.476 -1.2076 -0.2351  0.8391
 4722SOL    HW225629   4.238   3.178   6.402  0.0306 -1.2931  0.4610
 4723SOL     OW25630   1.308   4.536  13.710  0.1291  0.1150 -0.1877
 4723SOL    HW125631   1.260   4.480  13.648 -1.4945  3.6008 -2.0587
 4723SOL    HW225632   1.377   4.475  13.735 -0.1579 -0.0045  0.3050
 4724SOL     OW25633   0.779   1.792   8.677 -0.1471  0.5887  0.1290
 4724SOL    HW125634   0.704   1.762   8.728 -0.2641  1.1528  0.2905
 4724SOL    HW225635   0.742   1.824   8.595 -0.2824 -1.1612 -0.4933
 4725SOL     OW25636   0.705   1.041   5.033  0.4848 -0.0845  0.1722
 4725SOL    HW125637   0.782   1.070   5.082  2.5327 -1.8408 -1.9589
 4725SOL    HW225638   0.634   1.093   5.070 -0.0805  0.0751 -1.1333
 4726SOL     OW25639   1.730   2.501   1.171  0.7086 -0.4030  0.3269
 4726SOL    HW125640   1.782   2.541   1.101  1.7028  0.2818  1.4599
 4726SOL    HW225641   1.682   2.576   1.206 -1.0075  0.7154 -4.4315
 4727SOL     OW25642   0.133   0.438   4.107 -0.0057 -0.1981  0.1814
 4727SOL    HW125643   0.213   0.448   4.055  0.0546 -1.6722 -0.0279
 4727SOL    HW225644   0.090   0.363   4.066  1.9206 -1.7446  0.9448
 4728SOL     OW25645   1.312   4.119   4.790  0.0716 -0.1784 -0.7443
 4728SOL    HW125646   1.257   4.146   4.717  0.8933  2.0458 -0.5449
 4728SOL    HW225647   1.330   4.028   4.766 -0.1208  0.1410 -2.0810
 4729SOL     OW25648   1.459   4.634  16.011 -0.3609  0.2247  0.5333
 4729SOL    HW125649   1.384   4.693  16.010 -0.3556  0.2013 -0.9545
 4729SOL    HW225650   1.412   4.551  16.026  0.9274 -0.4322  0.9245
 4730SOL     OW25651   0.497   0.232   4.181 -0.8205  0.0602  0.1697
 4730SOL    HW125652   0.521   0.203   4.269 -1.9757 -0.2947  0.3640
 4730SOL    HW225653   0.479   0.326   4.188  0.2919  0.2413  0.5864
 4731SOL     OW25654   0.725   1.700   5.076 -0.0778  0.2234  0.3893
 4731SOL    HW125655   0.733   1.786   5.116  0.2624  1.2492 -1.9268
 4731SOL    HW225656   0.800   1.660   5.121  0.7782  1.0546 -0.2941
 4732SOL     OW25657   1.222   0.676  16.985 -0.5241  0.2181  0.2312
 4732SOL    HW125658   1.303   0.714  16.951 -0.3417 -0.6423 -0.2875
 4732SOL    HW225659   1.150   0.739  16.973 -0.7776  0.0754  0.9718
 4733SOL     OW25660   4.310   3.600   5.361 -0.2637  0.8517 -0.4309
 4733SOL    HW125661   4.396   3.641   5.369  0.0620  0.2353 -0.7032
 4733SOL    HW225662   4.243   3.668   5.362 -0.6060  0.5006  0.3097
 4734SOL     OW25663   1.333   3.141   3.258 -0.3902  0.1602  0.7136
 4734SOL    HW125664   1.338   3.073   3.326  0.2461  0.4656  0.9777
 4734SOL    HW225665   1.381   3.216   3.293 -0.9555  0.9333 -0.1643
 4735SOL     OW25666   0.810   0.922   7.487  0.1201 -0.0841 -0.5338
 4735SOL    HW125667   0.811   0.851   7.552 -1.7470  0.6361  0.3045
 4735SOL    HW225668   0.831   0.995   7.545  1.3046 -1.0319  0.2439
 4736SOL     OW25669   1.909   2.158   2.409  0.7131 -0.3293  0.3612
 4736SOL    HW125670   1.816   2.137   2.418  0.4840  1.2432  1.6311
 4736SOL    HW225671   1.922   2.158   2.314  1.2344 -1.4087  0.4369
 4737SOL     OW25672   3.518   4.515  12.186 -0.0778  0.1029 -0.3664
 4737SOL    HW125673   3.443   4.516  12.245 -0.5335  0.9514 -0.9668
 4737SOL    HW225674   3.475   4.565  12.117 -0.5439 -0.6315 -0.6094
 4738SOL     OW25675   1.329   0.638   3.842 -0.0145  0.0427  0.1246
 4738SOL    HW125676   1.390   0.692   3.792  1.0015 -0.9819  0.2490
 4738SOL    HW225677   1.246   0.639   3.795 -0.4221  1.0769  0.8576
 4739SOL     OW25678   1.492   1.212   8.125  0.1413 -0.5327 -0.5560
 4739SOL    HW125679   1.416   1.157   8.141  1.0660 -1.1916  1.5330
 4739SOL    HW225680   1.566   1.162   8.160  1.6008  1.1366 -1.2305
 4740SOL     OW25681   3.841   0.047   2.515 -0.0505  0.0235  0.1975
 4740SOL    HW125682   3.887   0.131   2.512 -3.0210  1.6806  0.9638
 4740SOL    HW225683   3.900   4.712   2.468  1.5498  2.9068 -1.4322
 4741SOL     OW25684   3.155   3.204   0.085  0.1301 -0.6953  0.1721
 4741SOL    HW125685   3.188   3.214  17.694  1.7133  2.4879  1.1315
 4741SOL    HW225686   3.211   3.257   0.140  2.0044 -0.8796 -1.5554
 4742SOL     OW25687   0.628   1.884   5.718 -0.0052  0.1734 -0.7209
 4742SOL    HW125688   0.561   1.828   5.758 -0.4597  2.4124  1.6632
 4742SOL    HW225689   0.569   1.923   5.653  0.7998  1.9561 -0.3616
 4743SOL     OW25690   1.322   2.839  14.948  0.7809 -0.4372  0.1555
 4743SOL    HW125691   1.382   2.781  14.902  0.9389 -1.6517  1.9317
 4743SOL    HW225692   1.374   2.917  14.926 -2.4731  1.8098  0.4587
 4744SOL     OW25693   3.501   0.444  11.446 -0.4187 -0.1876  0.2859
 4744SOL    HW125694   3.469   0.401  11.367 -0.3672  0.8806 -0.3113
 4744SOL    HW225695   3.440   0.393  11.500 -0.7644 -0.2400 -0.1511
 4745SOL     OW25696   2.142   2.087  11.907  0.3670 -0.2930  0.4377
 4745SOL    HW125697   2.094   2.151  11.959 -0.9055 -0.6559 -0.2868
 4745SOL    HW225698   2.089   2.075  11.828  1.7686 -0.1663 -0.5260
 4746SOL     OW25699   4.381   2.884   2.543  0.5900 -0.0893  0.2422
 4746SOL    HW125700   4.436   2.814   2.508  1.3422 -0.1097  1.4446
 4746SOL    HW225701   4.438   2.928   2.606  1.5177 -0.5198 -0.3139
 4747SOL     OW25702   3.762   3.705   2.426  1.3004  0.2007 -0.1137
 4747SOL    HW125703   3.726   3.765   2.361 -1.3944  0.7215  1.9009
 4747SOL    HW225704   3.689   3.693   2.486  2.6492 -0.0713  1.4680
 4748SOL     OW25705   2.083   1.357   8.400  0.2484 -0.2626  0.2895
 4748SOL    HW125706   2.150   1.290   8.416 -0.0759 -0.7274 -0.2879
 4748SOL    HW225707   2.045   1.326   8.318 -0.4932 -0.1597  0.6004
 4749SOL     OW25708   2.781   2.670   5.442  0.0113  0.7621 -0.6575
 4749SOL    HW125709   2.852   2.607   5.447  1.8947  3.0392  1.0555
 4749SOL    HW225710   2.705   2.622   5.407 -0.9720  0.5820  1.6826
 4750SOL     OW25711   3.550   1.632   6.144 -0.3257 -0.0847  0.0118
 4750SOL    HW125712   3.587   1.715   6.114 -0.4054 -0.2429 -0.5242
 4750SOL    HW225713   3.629   1.607   6.192  0.2248  1.6746  0.0083
 4751SOL     OW25714   1.456   1.463   4.445  0.1407  0.1759 -0.2471
 4751SOL    HW125715   1.452   1.553   4.475  0.4101  0.6373 -1.5734
 4751SOL    HW225716   1.366   1.434   4.439  0.3632 -0.1240 -2.2919
 4752SOL     OW25717   4.484   1.348   6.220  0.6124  0.5491  0.5931
 4752SOL    HW125718   4.491   1.274   6.280 -1.6953 -0.2978 -0.1936
 4752SOL    HW225719   4.572   1.341   6.183  0.4638  0.9766  0.1627
 4753SOL     OW25720   1.911   1.387   4.398  0.2221  0.5171  0.0700
 4753SOL    HW125721   1.997   1.346   4.386  0.6291  2.3133 -3.2466
 4753SOL    HW225722   1.863   1.336   4.332  1.9968  0.4770 -1.2019
 4754SOL     OW25723   1.819   4.689   5.306  0.3976  0.0840  0.2424
 4754SOL    HW125724   1.883   4.634   5.260  1.3803  2.1512 -0.9129
 4754SOL    HW225725   1.791   0.034   5.245 -0.6113 -0.6667 -0.1512
 4755SOL     OW25726   2.870   1.953   2.062  0.0778 -0.0277 -0.0791
 4755SOL    HW125727   2.776   1.940   2.063 -0.1736  1.6830 -1.4899
 4755SOL    HW225728   2.888   2.040   2.096 -0.7882 -0.2582  0.9546
 4756SOL     OW25729   1.354   1.374   3.263 -0.2622  0.3410  0.0313
 4756SOL    HW125730   1.381   1.293   3.306  0.1199 -0.1135 -1.0724
 4756SOL    HW225731   1.271   1.373   3.311 -0.9307  1.0772 -1.1028
 4757SOL     OW25732   3.504   4.516   5.001 -0.7121 -0.3907  0.1463
 4757SOL    HW125733   3.439   4.468   5.053  1.9954 -2.6199  1.5015
 4757SOL    HW225734   3.460   4.505   4.916  1.3038 -2.4164 -0.6618
 4758SOL     OW25735   3.452   1.664  15.658  0.1098 -0.0507  0.1872
 4758SOL    HW125736   3.515   1.671  15.586  0.1409 -0.2087  0.1990
 4758SOL    HW225737   3.444   1.569  15.660 -0.8501  0.0075 -0.8435
 4759SOL     OW25738   4.090   3.779   5.360  0.3671 -0.2794  0.2128
 4759SOL    HW125739   4.115   3.854   5.415  2.1122  1.4802 -3.0120
 4759SOL    HW225740   4.067   3.825   5.280 -0.2776  1.2966  1.2945
 4760SOL     OW25741   0.029   1.680   9.453 -0.1082  0.1343  0.4516
 4760SOL    HW125742   0.013   1.773   9.439 -1.3957 -0.3108 -1.0504
 4760SOL    HW225743   0.119   1.682   9.485  0.4330  0.6484 -1.1020
 4761SOL     OW25744   0.409   4.246   8.369 -0.0646 -0.2260 -0.0002
 4761SOL    HW125745   0.472   4.260   8.298  0.3498 -0.7583  0.2590
 4761SOL    HW225746   0.452   4.287   8.444 -0.7481 -0.2668  0.4090
 4762SOL     OW25747   1.103   0.601   4.231 -0.1181  0.0739 -0.1602
 4762SOL    HW125748   1.155   0.543   4.286 -0.1036 -0.0829 -0.3382
 4762SOL    HW225749   1.079   0.680   4.280  0.8004 -1.1376  2.2291
 4763SOL     OW25750   3.503   0.404  13.665 -0.0488  0.5082  0.5933
 4763SOL    HW125751   3.539   0.459  13.595 -0.5718 -0.0883 -0.1380
 4763SOL    HW225752   3.504   0.468  13.736 -0.6747  1.8062 -0.5731
 4764SOL     OW25753   3.134   4.615   4.317 -0.1359  0.3530 -0.1284
 4764SOL    HW125754   3.226   4.619   4.344  0.0614 -0.1745 -0.7082
 4764SOL    HW225755   3.087   4.632   4.399  0.1391  2.1974 -0.3669
 4765SOL     OW25756   4.315   1.380  16.700 -0.0606 -0.3981 -0.4574
 4765SOL    HW125757   4.357   1.362  16.615  0.0525 -1.7230 -0.1171
 4765SOL    HW225758   4.344   1.303  16.748 -0.8590  0.5209  1.5077
 4766SOL     OW25759   2.818   1.618  14.059 -0.4050  0.1391 -0.1868
 4766SOL    HW125760   2.787   1.527  14.058 -0.5303  0.1803  0.0231
 4766SOL    HW225761   2.789   1.636  13.969 -2.4469 -0.2304  0.3925
 4767SOL     OW25762   1.921   2.057   6.436 -0.6528 -0.3798 -0.0420
 4767SOL    HW125763   1.865   2.044   6.512 -0.5532  3.4082  0.7080
 4767SOL    HW225764   1.991   1.999   6.464  0.9714  0.6485 -1.9477
 4768SOL     OW25765   0.720   1.096   1.515  0.1810 -0.4687 -0.4606
 4768SOL    HW125766   0.649   1.153   1.488  1.0664  0.4847 -0.7651
 4768SOL    HW225767   0.679   1.053   1.590  2.5567 -1.3217  0.3365
 4769SOL     OW25768   0.882   0.601   5.152  0.6498 -0.5685  0.4179
 4769SOL    HW125769   0.932   0.613   5.072  0.1138 -0.9956  0.0159
 4769SOL    HW225770   0.946   0.633   5.215  0.9481  0.3456 -0.3531
 4770SOL     OW25771   0.838   3.963   7.382  0.3223 -0.4197  0.4638
 4770SOL    HW125772   0.879   3.998   7.303 -1.3312  1.1565  0.3296
 4770SOL    HW225773   0.890   3.885   7.401 -1.2999 -1.1193  2.0079
 4771SOL     OW25774   3.431   1.731  14.832 -0.1168 -0.2440 -0.5946
 4771SOL    HW125775   3.379   1.743  14.911 -1.4803  0.8382 -1.6695
 4771SOL    HW225776   3.359   1.688  14.786 -0.7734 -1.3052  1.4391
 4772SOL     OW25777   1.549   2.294  14.148 -0.7453  0.2387 -0.5750
 4772SOL    HW125778   1.599   2.328  14.073  0.2445 -1.1506 -0.5495
 4772SOL    HW225779   1.523   2.374  14.193  3.1069  0.5842  1.0459
 4773SOL     OW25780   2.394   2.084   2.272 -0.3692  0.8106  0.1178
 4773SOL    HW125781   2.451   2.064   2.197  1.2837  0.1264  1.5468
 4773SOL    HW225782   2.329   2.022   2.239  0.4430 -2.2888  4.4654
 4774SOL     OW25783   3.148   1.091   1.437  0.1615 -0.0995  0.6071
 4774SOL    HW125784   3.062   1.049   1.435 -0.0920  0.4694 -0.7460
 4774SOL    HW225785   3.171   1.094   1.344 -0.3758 -0.9670  0.4458
 4775SOL     OW25786   3.681   3.021   6.521 -0.0924  0.4904  0.0095
 4775SOL    HW125787   3.722   2.964   6.586  1.9321  1.6736 -0.2064
 4775SOL    HW225788   3.724   3.106   6.530  0.4770  0.2197 -0.1474
 4776SOL     OW25789   2.502   2.560   4.870 -0.0129  0.2737  0.3086
 4776SOL    HW125790   2.554   2.481   4.857  0.0794  0.1333  1.4906
 4776SOL    HW225791   2.496   2.595   4.782 -1.1532 -0.0757  0.2531
 4777SOL     OW25792   0.816   0.711   8.810  0.3544  0.0221 -0.1608
 4777SOL    HW125793   0.792   0.767   8.883  1.8589 -0.5626  0.7821
 4777SOL    HW225794   0.788   0.625   8.842  1.6259 -1.0668 -1.9271
 4778SOL     OW25795   2.504   0.762  14.547 -0.5926  0.2098 -0.3167
 4778SOL    HW125796   2.512   0.767  14.451 -0.7049  1.7186 -0.2483
 4778SOL    HW225797   2.533   0.849  14.576 -0.8927  0.8485 -1.9126
 4779SOL     OW25798   0.062   2.329   6.285  0.5399 -0.0359 -0.3985
 4779SOL    HW125799   4.705   2.350   6.240 -0.7547 -1.5177  1.2354
 4779SOL    HW225800   0.031   2.248   6.325  1.2869 -0.4177 -0.5796
 4780SOL     OW25801   1.431   2.022  12.315  0.4330  0.2247 -0.2114
 4780SOL    HW125802   1.508   2.002  12.368  1.0318  1.7897 -0.4983
 4780SOL    HW225803   1.365   1.970  12.360 -0.0596 -0.3950 -1.6538
 4781SOL     OW25804   1.304   3.261   2.289 -0.1295 -0.2830 -0.0533
 4781SOL    HW125805   1.209   3.261   2.292 -0.1148  0.2703  0.6004
 4781SOL    HW225806   1.324   3.174   2.322  3.4538  0.8136  0.7176
 4782SOL     OW25807   2.663   3.879   2.198 -0.7226 -0.5591  0.2653
 4782SOL    HW125808   2.628   3.899   2.111 -0.8470  0.0316  0.4484
 4782SOL    HW225809   2.685   3.970   2.218 -0.9043 -0.5412  0.3832
 4783SOL     OW25810   1.915   1.660  12.881 -0.0274  0.3248  0.3551
 4783SOL    HW125811   1.880   1.633  12.795  0.1543  1.6713 -0.1469
 4783SOL    HW225812   2.004   1.625  12.872  0.1677  0.5214  1.5513
 4784SOL     OW25813   2.980   3.686  16.539 -0.5598  0.0116 -0.5683
 4784SOL    HW125814   2.898   3.726  16.510  0.3219  0.8150 -1.9864
 4784SOL    HW225815   3.046   3.756  16.532 -0.3459 -0.1833 -0.5114
 4785SOL     OW25816   3.761   0.666   7.711 -0.2224  0.1101 -1.0129
 4785SOL    HW125817   3.741   0.606   7.783 -1.7614  1.0365 -0.6660
 4785SOL    HW225818   3.856   0.667   7.706 -0.2334 -1.7098 -1.4108
 4786SOL     OW25819   3.088   4.000   6.690  0.0942 -0.2633  0.1655
 4786SOL    HW125820   3.099   3.918   6.737 -1.6931  0.0559  1.1282
 4786SOL    HW225821   2.999   3.997   6.655  0.3279  0.1511 -0.4648
 4787SOL     OW25822   4.447   1.448   6.608 -0.5088  0.8278  0.1965
 4787SOL    HW125823   4.506   1.458   6.683 -0.9245  0.0782  0.6162
 4787SOL    HW225824   4.514   1.430   6.542  0.8458  1.8759  1.2820
 4788SOL     OW25825   3.224   1.168  11.713 -0.5638 -0.0373  0.6294
 4788SOL    HW125826   3.254   1.219  11.638 -0.1679 -1.0047  0.1203
 4788SOL    HW225827   3.263   1.221  11.782 -1.0935 -0.6528  1.3867
 4789SOL     OW25828   1.143   2.889   9.424 -0.2040  0.0117  0.7134
 4789SOL    HW125829   1.229   2.865   9.390 -0.5211 -1.5413  1.0337
 4789SOL    HW225830   1.153   2.982   9.445  0.5855  0.2535 -0.7920
 4790SOL     OW25831   4.213   1.942  12.233  0.3232 -0.0223 -0.1821
 4790SOL    HW125832   4.232   1.865  12.286 -0.1157  1.1701  1.6752
 4790SOL    HW225833   4.166   1.901  12.160 -0.3831 -0.7305  0.6704
 4791SOL     OW25834   0.995   1.047   4.594  0.7487 -0.0784  0.2727
 4791SOL    HW125835   1.036   1.099   4.663 -0.1698  0.2945  0.5370
 4791SOL    HW225836   0.924   1.100   4.556  0.5959  0.1115  0.8251
 4792SOL     OW25837   1.091   2.263   5.742  0.2279  0.0449  0.4060
 4792SOL    HW125838   1.171   2.300   5.780 -0.1649  0.2330  1.0421
 4792SOL    HW225839   1.078   2.184   5.794 -0.5511 -0.1033 -0.0134
 4793SOL     OW25840   2.433   0.500   3.562  0.1996  0.5039 -0.2906
 4793SOL    HW125841   2.356   0.543   3.525  0.3395  0.2056 -0.9228
 4793SOL    HW225842   2.425   0.534   3.652  0.0327  1.6122 -0.7233
 4794SOL     OW25843   2.694   2.948  14.539  0.2555 -0.6173  0.1473
 4794SOL    HW125844   2.757   2.911  14.602 -1.3081 -0.5026  1.8005
 4794SOL    HW225845   2.754   2.969  14.468 -1.6146  0.9057 -0.9645
 4795SOL     OW25846   3.400   0.794   3.343 -0.6149 -0.1826 -0.2152
 4795SOL    HW125847   3.377   0.736   3.270 -1.3629 -2.2438  1.6390
 4795SOL    HW225848   3.470   0.839   3.296 -0.2802  1.2187  1.6302
 4796SOL     OW25849   3.790   4.194   8.206 -0.3921  0.1552 -0.4007
 4796SOL    HW125850   3.855   4.123   8.204  2.4407  2.6806  0.9554
 4796SOL    HW225851   3.759   4.195   8.297 -2.0831  3.1275 -1.0103
 4797SOL     OW25852   1.887   1.189  12.107  0.1094  0.2861  0.2913
 4797SOL    HW125853   1.865   1.277  12.138 -1.3861 -0.1248  0.4258
 4797SOL    HW225854   1.967   1.211  12.060 -0.5590  2.5681  0.1920
 4798SOL     OW25855   0.904   1.165   3.316  0.2475 -0.3947  0.5841
 4798SOL    HW125856   0.837   1.183   3.382  0.3396  3.0992 -0.2811
 4798SOL    HW225857   0.850   1.155   3.237  0.3124  1.6577  0.2865
 4799SOL     OW25858   3.131   1.419   0.665 -0.2463  0.1281  0.2402
 4799SOL    HW125859   3.183   1.498   0.645 -0.0559  0.1240  0.7220
 4799SOL    HW225860   3.179   1.377   0.736 -1.8800 -0.3552  1.0356
 4800SOL     OW25861   4.107   1.956   7.728  0.5466  0.7697  0.1425
 4800SOL    HW125862   4.039   1.919   7.672 -2.5932  2.1756  3.0170
 4800SOL    HW225863   4.056   1.962   7.808 -0.4393 -2.1379 -0.2795
 4801SOL     OW25864   0.701   1.421   0.016  0.5926 -0.0223  0.4186
 4801SOL    HW125865   0.696   1.330   0.044 -1.5522 -0.0437  0.0046
 4801SOL    HW225866   0.783   1.449   0.056  1.5895 -3.7701  1.0052
 4802SOL     OW25867   3.141   4.521   1.747 -0.3169 -0.4281 -0.0146
 4802SOL    HW125868   3.151   4.528   1.652 -0.0231  2.1905  0.1885
 4802SOL    HW225869   3.216   4.567   1.784 -0.5135 -0.4063  0.3607
 4803SOL     OW25870   3.756   1.589   0.380 -0.1356  0.1738 -0.3707
 4803SOL    HW125871   3.734   1.503   0.416  1.1157  0.6187  1.4853
 4803SOL    HW225872   3.850   1.596   0.396 -0.1540  0.0301 -0.1925
 4804SOL     OW25873   1.728   4.487   0.584 -0.1743  0.2653 -0.5438
 4804SOL    HW125874   1.776   4.478   0.666 -0.9258 -2.9082 -0.4401
 4804SOL    HW225875   1.638   4.499   0.613  0.0790  0.2931  0.2220
 4805SOL     OW25876   1.782   1.478   4.978  0.5026  0.0205 -0.3135
 4805SOL    HW125877   1.862   1.484   5.029  0.0259 -0.6059  0.5049
 4805SOL    HW225878   1.815   1.479   4.888  1.4326  0.5772  0.0345
 4806SOL     OW25879   0.270   4.091   9.559  0.1849  0.5099 -0.0267
 4806SOL    HW125880   0.361   4.071   9.578 -0.1415  1.1735  2.1710
 4806SOL    HW225881   0.232   4.012   9.599 -0.7935  1.5045  1.0118
 4807SOL     OW25882   1.853   1.689   2.487  0.0740 -0.5014 -0.1161
 4807SOL    HW125883   1.875   1.641   2.407  1.5791 -0.8588  0.5186
 4807SOL    HW225884   1.758   1.681   2.491 -0.1804  2.9837  0.5349
 4808SOL     OW25885   0.634   0.627   8.517 -0.1526 -0.4670 -0.0457
 4808SOL    HW125886   0.607   0.546   8.473  3.3442 -0.7935 -1.6563
 4808SOL    HW225887   0.608   0.607   8.607  2.4517 -1.4009  0.5016
 4809SOL     OW25888   3.055   4.335   5.650  0.0776  0.8261  0.5262
 4809SOL    HW125889   3.102   4.419   5.646  1.1010  0.2401  0.1676
 4809SOL    HW225890   3.098   4.283   5.718  0.5955  1.1094  0.4228
 4810SOL     OW25891   3.625   0.551   4.124  0.5838 -0.4517  0.2021
 4810SOL    HW125892   3.619   0.647   4.128  1.3999 -0.4374  1.1847
 4810SOL    HW225893   3.552   0.528   4.067  1.0865 -0.0480 -0.6134
 4811SOL     OW25894   4.210   2.230  17.614 -0.0063  0.3124 -0.7890
 4811SOL    HW125895   4.132   2.220  17.560 -0.0730 -2.4355 -0.1881
 4811SOL    HW225896   4.250   2.146  17.595 -2.2308 -1.0628  0.5435
 4812SOL     OW25897   3.452   1.139   8.703  0.0226 -0.7212  0.9872
 4812SOL    HW125898   3.548   1.136   8.710  0.1780 -0.4506 -0.9086
 4812SOL    HW225899   3.425   1.178   8.786 -1.8489  2.8918 -1.3108
 4813SOL     OW25900   1.691   1.442   5.485 -0.2440  1.1227 -0.0936
 4813SOL    HW125901   1.659   1.470   5.570 -0.6871  0.1236  0.0660
 4813SOL    HW225902   1.610   1.451   5.434  0.3161 -2.5150 -1.6467
 4814SOL     OW25903   1.070   4.140   7.001 -0.1461 -0.2622  0.4086
 4814SOL    HW125904   1.001   4.195   7.040  0.1640  0.2393  0.2474
 4814SOL    HW225905   1.127   4.211   6.973  0.6848 -1.7172 -1.5108
 4815SOL     OW25906   1.711   3.561   8.637 -0.6306 -1.0240 -0.0755
 4815SOL    HW125907   1.732   3.535   8.548  0.8967 -2.1150  0.6068
 4815SOL    HW225908   1.684   3.474   8.665 -2.2801 -0.0902  1.2692
 4816SOL     OW25909   3.057   2.352   6.651 -0.2331  0.3920  0.0387
 4816SOL    HW125910   3.055   2.403   6.570 -0.1431 -0.3951 -0.4596
 4816SOL    HW225911   3.031   2.410   6.722  0.8307  1.2616 -0.2826
 4817SOL     OW25912   2.437   2.283  11.206  0.0857 -0.0952  0.5014
 4817SOL    HW125913   2.410   2.278  11.114 -0.1000 -1.2103  0.6183
 4817SOL    HW225914   2.374   2.349  11.236  1.7722  3.0727 -2.8768
 4818SOL     OW25915   2.312   4.187  13.188  0.7714  0.2096  0.4001
 4818SOL    HW125916   2.222   4.181  13.155  0.6687  0.2470  0.6660
 4818SOL    HW225917   2.292   4.149  13.274 -1.5433  0.6806  0.0805
 4819SOL     OW25918   2.454   2.759   7.820 -0.1161 -0.0568  0.1712
 4819SOL    HW125919   2.503   2.773   7.901  1.5797 -2.4988 -0.4271
 4819SOL    HW225920   2.513   2.803   7.759  0.4750 -0.0874  0.7157
 4820SOL     OW25921   1.012   1.375   4.088 -0.8513  0.0867  0.1210
 4820SOL    HW125922   1.046   1.439   4.025 -2.7847  0.9682 -0.0174
 4820SOL    HW225923   1.032   1.285   4.060  0.1403 -0.1694  1.6652
 4821SOL     OW25924   3.475   3.249   4.270  0.4558 -0.0421 -0.1552
 4821SOL    HW125925   3.552   3.294   4.304  0.8243  0.7424 -2.0108
 4821SOL    HW225926   3.508   3.164   4.241 -0.4001 -0.6295  0.6013
 4822SOL     OW25927   4.141   3.396   6.997 -0.2589  0.1783  0.2491
 4822SOL    HW125928   4.146   3.318   6.942  4.3483  0.7319 -0.1602
 4822SOL    HW225929   4.049   3.416   7.015 -0.6018 -1.0329 -0.1792
 4823SOL     OW25930   3.316   4.700  12.078  0.6327 -0.3560  0.0331
 4823SOL    HW125931   3.281   4.635  12.017 -1.2040  0.1380  0.5377
 4823SOL    HW225932   3.337   0.047  12.018 -0.6718 -0.5328 -0.6501
 4824SOL     OW25933   1.332   3.745   9.261 -0.0726 -0.1559  0.4406
 4824SOL    HW125934   1.328   3.792   9.178 -1.8254 -0.6113  0.2726
 4824SOL    HW225935   1.416   3.705   9.240 -0.6527 -0.6117 -0.9572
 4825SOL     OW25936   4.527   0.210  15.142 -0.1101 -0.3643 -0.2765
 4825SOL    HW125937   4.612   0.227  15.102 -0.8309 -0.7364 -1.9600
 4825SOL    HW225938   4.487   0.295  15.162  0.3398  0.0366 -1.1131
 4826SOL     OW25939   4.658   4.163   6.211  0.4091  0.4791  0.5768
 4826SOL    HW125940   4.713   4.086   6.225  1.5572  1.2037  0.1484
 4826SOL    HW225941   0.001   4.230   6.194  0.5571 -0.0529 -0.8590
 4827SOL     OW25942   3.303   3.736   0.143 -0.3258 -0.0679  0.0774
 4827SOL    HW125943   3.383   3.717   0.192  0.8874 -1.3314 -2.4295
 4827SOL    HW225944   3.352   3.769   0.068  0.6394 -0.4192  0.5505
 4828SOL     OW25945   4.436   2.584   4.238 -0.2282 -0.7368 -0.2959
 4828SOL    HW125946   4.359   2.588   4.296 -0.0360 -1.9241  0.0473
 4828SOL    HW225947   4.471   2.501   4.269  2.8291  0.5467 -0.3999
 4829SOL     OW25948   4.701   2.139   4.186  0.7494  0.5628 -0.0347
 4829SOL    HW125949   4.633   2.109   4.125  2.7928  1.8910 -2.9419
 4829SOL    HW225950   0.059   2.136   4.138  1.0979 -0.2489  0.6331
 4830SOL     OW25951   3.256   2.270   7.222 -0.3598  0.0000  0.6877
 4830SOL    HW125952   3.239   2.232   7.309 -1.4480  1.5927  1.1737
 4830SOL    HW225953   3.173   2.249   7.178  0.4365  1.8844 -1.7106
 4831SOL     OW25954   3.238   0.352  12.409  0.2676  0.2595  0.0324
 4831SOL    HW125955   3.236   0.310  12.495 -0.4984  1.7374  0.7350
 4831SOL    HW225956   3.198   0.289  12.349  0.4461 -0.7694  0.9804
 4832SOL     OW25957   0.630   3.316   9.477 -0.1133 -0.2701  0.3250
 4832SOL    HW125958   0.604   3.392   9.529 -0.7597 -1.8109  2.2517
 4832SOL    HW225959   0.623   3.238   9.532  1.0644 -1.4009 -1.1288
 4833SOL     OW25960   0.008   3.888  16.897  0.5815  0.2538 -0.0076
 4833SOL    HW125961   0.049   3.930  16.973 -0.2240  2.0193 -0.5647
 4833SOL    HW225962   0.079   3.888  16.833  1.8332  0.7220  1.3915
 4834SOL     OW25963   1.410   1.280  13.218 -0.0618 -0.1416 -0.5997
 4834SOL    HW125964   1.452   1.273  13.304 -2.4360 -0.7123  0.5074
 4834SOL    HW225965   1.317   1.265  13.235 -0.0770  1.4856  0.7836
 4835SOL     OW25966   1.260   2.330   7.005 -0.4784  0.3622  0.1604
 4835SOL    HW125967   1.247   2.314   7.098 -0.7571 -1.5062 -0.2060
 4835SOL    HW225968   1.211   2.256   6.969  0.5959 -0.2268 -0.0864
 4836SOL     OW25969   3.990   3.947  11.285  0.5026 -0.3940 -0.2607
 4836SOL    HW125970   4.024   4.033  11.261  0.1391  0.1265  1.1069
 4836SOL    HW225971   3.918   3.978  11.340 -1.0386 -0.1737 -2.4133
 4837SOL     OW25972   0.493   4.723   7.810 -0.3549  0.1267  0.0698
 4837SOL    HW125973   0.470   4.656   7.875  2.2321 -0.3355  0.5057
 4837SOL    HW225974   0.502   0.078   7.863  0.6808  1.0510 -1.4860
 4838SOL     OW25975   1.298   1.458  12.937  0.4585 -0.1625  0.1154
 4838SOL    HW125976   1.350   1.476  13.015  1.0094 -1.7398  0.1043
 4838SOL    HW225977   1.363   1.410  12.885 -0.3391 -3.1824  1.8862
 4839SOL     OW25978   4.235   0.465   5.919 -0.4048  0.0494 -0.1130
 4839SOL    HW125979   4.203   0.551   5.947  0.6172  0.4815 -0.2820
 4839SOL    HW225980   4.249   0.489   5.827  0.3930 -0.0134 -0.0064
 4840SOL     OW25981   0.154   1.368   6.470  0.2807  0.1343  0.1274
 4840SOL    HW125982   0.147   1.273   6.475  0.2904  0.0904 -0.6361
 4840SOL    HW225983   0.180   1.381   6.379  2.1489  1.2747  0.8358
 4841SOL     OW25984   1.630   1.279   4.352  0.1937  0.8354  0.1036
 4841SOL    HW125985   1.575   1.351   4.383 -0.6089  1.0299 -1.7775
 4841SOL    HW225986   1.658   1.310   4.266  1.9893  0.3653  0.5153
 4842SOL     OW25987   3.054   3.385   9.583 -0.7516 -0.0144  0.5170
 4842SOL    HW125988   3.067   3.330   9.506 -0.1307  2.0434 -0.8391
 4842SOL    HW225989   2.989   3.336   9.634 -0.5963 -3.5799 -2.6948
 4843SOL     OW25990   4.238   2.657   5.070  0.7231  0.0774  0.1872
 4843SOL    HW125991   4.283   2.608   5.001 -0.5998 -0.9587  0.0509
 4843SOL    HW225992   4.165   2.686   5.016  0.3225  1.5658  1.5360
 4844SOL     OW25993   1.163   4.666   2.569 -0.7605  0.3774 -0.2867
 4844SOL    HW125994   1.141   4.595   2.509  1.6155 -0.5486 -0.0660
 4844SOL    HW225995   1.089   4.673   2.629  1.2627 -0.3151  2.2872
 4845SOL     OW25996   1.637   3.753   5.679  0.4745  0.0680  0.4704
 4845SOL    HW125997   1.602   3.842   5.686  1.9065  0.4656  2.5849
 4845SOL    HW225998   1.563   3.694   5.695 -0.7241  1.7080  1.0583
 4846SOL     OW25999   2.558   2.255   2.457  0.2840  0.1909 -0.3197
 4846SOL    HW126000   2.529   2.180   2.404  0.9284  0.5168 -1.1386
 4846SOL    HW226001   2.575   2.309   2.380  3.2660  0.4048  0.4881
 4847SOL     OW26002   2.699   2.536  13.501  0.3366  0.7957 -0.1053
 4847SOL    HW126003   2.763   2.607  13.494  0.8084  0.3654 -0.1857
 4847SOL    HW226004   2.755   2.472  13.546 -1.1134 -1.0738 -0.9649
 4848SOL     OW26005   4.270   0.117   8.513  0.8042  0.1793 -0.6254
 4848SOL    HW126006   4.230   0.171   8.445 -1.8321 -0.6375  0.2872
 4848SOL    HW226007   4.289   0.188   8.575  1.3467 -1.6938  1.3703
 4849SOL     OW26008   4.383   0.750   6.206  0.5212 -0.4099  0.8326
 4849SOL    HW126009   4.292   0.721   6.199  0.1024  0.7313  1.6073
 4849SOL    HW226010   4.396   0.815   6.136  3.1842 -1.1937  0.5912
 4850SOL     OW26011   1.541   2.104   8.730  0.2567  0.9895  0.4230
 4850SOL    HW126012   1.597   2.167   8.684 -0.8515  0.5438 -1.5447
 4850SOL    HW226013   1.557   2.021   8.686  3.1528  0.2758  2.8317
 4851SOL     OW26014   1.713   1.649   8.555 -0.6340  0.2295 -0.1323
 4851SOL    HW126015   1.800   1.621   8.529 -1.2730 -0.1469 -1.8667
 4851SOL    HW226016   1.670   1.563   8.547 -0.6520  0.3308 -1.0667
 4852SOL     OW26017   1.273   0.161   6.353  0.0634  0.7596 -0.4201
 4852SOL    HW126018   1.298   0.208   6.273  0.3997 -0.9242 -1.3012
 4852SOL    HW226019   1.333   0.086   6.356 -0.2269  0.4586 -2.2312
 4853SOL     OW26020   4.296   2.505  15.128  0.7920 -0.3327  0.5063
 4853SOL    HW126021   4.319   2.549  15.046  0.2381 -2.0771 -0.5876
 4853SOL    HW226022   4.270   2.584  15.176 -1.5488 -0.2931 -0.8160
 4854SOL     OW26023   3.517   3.431   0.680 -0.1029  0.4011 -0.1264
 4854SOL    HW126024   3.430   3.425   0.640  0.7373 -0.2003 -1.8604
 4854SOL    HW226025   3.534   3.522   0.652  1.2993 -0.2433 -1.4222
 4855SOL     OW26026   0.018   0.084   7.287 -0.0498  0.0760  0.0822
 4855SOL    HW126027   4.719   0.038   7.368  0.6792  1.8356  1.3044
 4855SOL    HW226028   0.077   0.021   7.246 -1.6844 -1.8515  0.6900
 4856SOL     OW26029   4.420   1.402   5.222  0.0311  0.1290 -0.1489
 4856SOL    HW126030   4.404   1.483   5.175 -0.5043 -0.3469 -0.7890
 4856SOL    HW226031   4.515   1.411   5.224  0.1359 -0.7559 -0.8415
 4857SOL     OW26032   2.537   2.566   8.483  0.3897 -0.7758 -0.6249
 4857SOL    HW126033   2.446   2.546   8.504 -0.2088  1.9690 -0.6065
 4857SOL    HW226034   2.578   2.480   8.486  0.3137 -0.8942 -2.9851
 4858SOL     OW26035   3.689   4.628   2.671 -0.3134 -0.1820  0.0443
 4858SOL    HW126036   3.745   4.669   2.606  0.1614  0.7351  1.0442
 4858SOL    HW226037   3.611   4.613   2.617 -0.7287 -0.4614  0.7105
 4859SOL     OW26038   2.752   3.441   6.232  0.2294 -0.0832 -0.2461
 4859SOL    HW126039   2.680   3.497   6.203 -1.0514 -2.3218 -1.4088
 4859SOL    HW226040   2.791   3.418   6.148  1.1109  0.3969  0.0306
 4860SOL     OW26041   1.286   4.122   1.235  0.3829 -0.0292  0.2975
 4860SOL    HW126042   1.269   4.211   1.203 -3.8246 -1.4001 -1.2664
 4860SOL    HW226043   1.381   4.119   1.222  0.0538 -1.4413 -1.7416
 4861SOL     OW26044   1.574   2.670  16.714 -0.4136 -0.0949 -0.5839
 4861SOL    HW126045   1.507   2.733  16.689 -0.6409  0.6233  1.8043
 4861SOL    HW226046   1.551   2.589  16.667 -0.2493 -0.0342 -0.7693
 4862SOL     OW26047   3.239   2.594   4.064 -0.7757  0.2733 -0.1973
 4862SOL    HW126048   3.304   2.640   4.117 -1.4995 -1.1473  1.9085
 4862SOL    HW226049   3.184   2.558   4.134 -0.7767 -1.0555 -0.8767
 4863SOL     OW26050   0.317   2.385  13.869  0.2517  0.0584  0.5651
 4863SOL    HW126051   0.389   2.341  13.823 -1.0300 -1.1364 -0.3068
 4863SOL    HW226052   0.243   2.352  13.818 -0.1971  2.4000 -0.3035
 4864SOL     OW26053   4.087   2.778  11.654  0.0612 -0.1836  0.2580
 4864SOL    HW126054   4.036   2.818  11.724  1.5514  1.6292  0.2917
 4864SOL    HW226055   4.178   2.788  11.683  0.6868  1.0369 -2.1063
 4865SOL     OW26056   2.669   4.115   9.314  0.0905  0.0233 -0.0542
 4865SOL    HW126057   2.710   4.040   9.358  1.8458  1.1649  0.2727
 4865SOL    HW226058   2.643   4.167   9.390  0.3417 -1.8984  1.3436
 4866SOL     OW26059   3.014   2.575   6.470 -0.2751 -0.1469  0.2410
 4866SOL    HW126060   2.991   2.572   6.377 -2.9279  3.7211  0.7506
 4866SOL    HW226061   3.091   2.631   6.465  1.6559 -2.6736  1.9105
 4867SOL     OW26062   4.395   3.487   3.593 -0.0062 -0.0704  0.2435
 4867SOL    HW126063   4.399   3.405   3.641  1.3344 -0.8008 -1.1142
 4867SOL    HW226064   4.485   3.496   3.562  0.0020  1.5009  0.7102
 4868SOL     OW26065   2.076   0.230   3.153  0.8627  0.1965  0.0042
 4868SOL    HW126066   2.027   0.311   3.137  0.4419  0.1414  1.0108
 4868SOL    HW226067   2.031   0.195   3.230  3.1121 -0.9767  0.7649
 4869SOL     OW26068   0.066   0.310   4.688  0.1174 -0.4367  0.6702
 4869SOL    HW126069   0.093   0.315   4.779 -1.2677 -1.9930  1.1757
 4869SOL    HW226070   0.152   0.304   4.645  0.1888 -1.2601  0.9191
 4870SOL     OW26071   3.766   0.247   3.537  0.4112  0.0285 -0.1110
 4870SOL    HW126072   3.773   0.161   3.495 -0.4439 -0.0631 -0.0704
 4870SOL    HW226073   3.724   0.233   3.622 -2.0822  0.6330 -1.2583
 4871SOL     OW26074   1.737   0.355   8.828 -0.0643  0.6641  0.3558
 4871SOL    HW126075   1.681   0.393   8.896 -0.3518 -1.3107  1.2207
 4871SOL    HW226076   1.695   0.272   8.809  0.2411  0.0815  2.2454
 4872SOL     OW26077   3.323   1.090  10.993  0.2621  0.0127  0.0158
 4872SOL    HW126078   3.392   1.154  11.012 -0.3338  1.1335 -1.5675
 4872SOL    HW226079   3.352   1.029  11.060  1.6087 -0.0951 -0.6742
 4873SOL     OW26080   2.652   1.647   9.808  0.4014  0.5089  0.1080
 4873SOL    HW126081   2.704   1.723   9.783  2.2623 -0.9993 -0.5975
 4873SOL    HW226082   2.675   1.624   9.898 -0.0539  1.8497  0.5720
 4874SOL     OW26083   2.640   1.669   3.078  0.2874  0.3057 -0.1788
 4874SOL    HW126084   2.709   1.610   3.046  0.1047  0.3823 -0.7037
 4874SOL    HW226085   2.578   1.610   3.120 -1.3774  0.3530 -2.6162
 4875SOL     OW26086   1.616   2.471  11.333 -0.1432 -0.0953  0.2668
 4875SOL    HW126087   1.669   2.488  11.255  1.0213  0.3097  1.1466
 4875SOL    HW226088   1.668   2.515  11.400  0.2301  0.2154 -0.2156
 4876SOL     OW26089   0.206   1.108   0.620 -0.1955  0.2153  0.2570
 4876SOL    HW126090   0.122   1.144   0.650  0.2519  0.7682  0.8325
 4876SOL    HW226091   0.267   1.144   0.684 -0.2678  0.0705  0.4065
 4877SOL     OW26092   0.911   2.559  13.939 -0.6413  0.4644  0.0782
 4877SOL    HW126093   0.850   2.632  13.952 -0.0614  0.7854  0.9842
 4877SOL    HW226094   0.982   2.573  14.002 -0.8604  1.0210  0.2048
 4878SOL     OW26095   3.540   1.285   6.425 -0.0159 -0.3065 -0.1329
 4878SOL    HW126096   3.635   1.294   6.415 -0.0106  0.0865  0.2360
 4878SOL    HW226097   3.519   1.226   6.353 -0.6149 -1.7851  1.2437
 4879SOL     OW26098   1.605   4.286   7.629 -0.3874 -0.1178 -0.3583
 4879SOL    HW126099   1.640   4.202   7.658  1.0517  0.5754 -0.0863
 4879SOL    HW226100   1.685   4.336   7.644 -0.6310  0.5201 -1.1449
 4880SOL     OW26101   2.818   3.585   9.910 -0.6999  0.8247 -0.1389
 4880SOL    HW126102   2.806   3.504   9.960 -1.7664  1.0212 -0.0808
 4880SOL    HW226103   2.868   3.641   9.969  0.1412 -0.0109 -0.0417
 4881SOL     OW26104   3.000   1.916  15.489 -0.6685  0.0925 -0.3589
 4881SOL    HW126105   2.985   1.823  15.510 -1.0657  0.1304 -0.4922
 4881SOL    HW226106   3.001   1.919  15.394  2.0373  3.2495 -0.2375
 4882SOL     OW26107   2.042   3.938   2.173 -0.2528  0.5617 -0.0912
 4882SOL    HW126108   2.080   3.930   2.260 -1.8581 -1.3135  0.4400
 4882SOL    HW226109   2.116   3.960   2.116 -0.2010  2.0973  0.5841
 4883SOL     OW26110   1.821   2.725   9.346  0.0628  0.1676  0.3215
 4883SOL    HW126111   1.915   2.742   9.350 -0.0262  0.7141  0.0614
 4883SOL    HW226112   1.804   2.640   9.306  0.7960  0.1927 -0.0405
 4884SOL     OW26113   1.256   2.195   9.714  0.6090 -0.4871  0.6860
 4884SOL    HW126114   1.290   2.282   9.732  0.7629 -0.6190  1.0311
 4884SOL    HW226115   1.161   2.205   9.714  0.7427  0.7128 -0.5871
 4885SOL     OW26116   1.526   4.261   3.018 -0.4499 -0.3811 -0.3185
 4885SOL    HW126117   1.473   4.296   2.945  0.6611  1.0572 -0.4393
 4885SOL    HW226118   1.470   4.185   3.035  1.8039 -1.5426  1.7819
 4886SOL     OW26119   3.631   4.606   5.775  0.0284 -0.0540  0.1979
 4886SOL    HW126120   3.583   4.648   5.704 -2.0764  2.2032  2.9671
 4886SOL    HW226121   3.711   4.573   5.734  2.5332  2.2962  3.1511
 4887SOL     OW26122   2.148   0.531   1.466  0.1520 -0.4537  0.2713
 4887SOL    HW126123   2.227   0.477   1.465 -0.6451 -1.6063  0.8783
 4887SOL    HW226124   2.084   0.461   1.468  0.0297 -0.4148 -2.2489
 4888SOL     OW26125   1.121   4.548  16.564  0.1121 -0.0224 -0.2469
 4888SOL    HW126126   1.039   4.502  16.548  0.2376 -0.1203 -0.6156
 4888SOL    HW226127   1.129   4.597  16.483  1.9428  1.8931  1.1029
 4889SOL     OW26128   3.405   2.663   1.226 -0.1783 -0.2790 -0.6690
 4889SOL    HW126129   3.325   2.667   1.172  0.6552  1.0447 -1.8034
 4889SOL    HW226130   3.366   2.649   1.313  1.1500  2.5895  0.3749
 4890SOL     OW26131   3.839   1.583   7.129  0.6684 -0.0549 -0.2119
 4890SOL    HW126132   3.809   1.601   7.219 -1.0044  1.9531 -1.1858
 4890SOL    HW226133   3.932   1.602   7.142 -0.0575  1.8564  2.3251
 4891SOL     OW26134   3.564   2.458  13.635  0.3063  0.2898  0.2089
 4891SOL    HW126135   3.652   2.490  13.652  0.7962 -0.8493 -0.1924
 4891SOL    HW226136   3.575   2.413  13.552  1.3634  0.1500  0.4257
 4892SOL     OW26137   1.134   4.198   3.801 -0.4217 -0.4304 -0.1421
 4892SOL    HW126138   1.229   4.193   3.792 -0.1814  0.8469  1.8375
 4892SOL    HW226139   1.106   4.167   3.714 -1.4355  0.9120 -0.2900
 4893SOL     OW26140   3.053   3.824   6.013 -0.0997  0.2637 -0.1720
 4893SOL    HW126141   3.014   3.886   6.076 -0.3543  1.0900 -1.1457
 4893SOL    HW226142   2.979   3.794   5.962 -1.7858  0.9180  1.8841
 4894SOL     OW26143   0.228   0.324   2.919  0.0753  0.6562  0.4662
 4894SOL    HW126144   0.282   0.246   2.933 -2.2024 -0.6575  1.8637
 4894SOL    HW226145   0.252   0.349   2.830 -1.1674  1.5632  0.3927
 4895SOL     OW26146   4.400   4.295   3.290  0.3846  0.1757  0.1821
 4895SOL    HW126147   4.350   4.215   3.308 -2.8178  2.0508 -0.3833
 4895SOL    HW226148   4.427   4.326   3.376  0.8195 -1.1644  0.5300
 4896SOL     OW26149   4.583   3.856   4.309  1.2816  0.1008  0.0145
 4896SOL    HW126150   4.487   3.863   4.315  0.9646 -2.0252 -2.5563
 4896SOL    HW226151   4.599   3.867   4.215  0.3399  1.8724  0.0652
 4897SOL     OW26152   2.569   4.404   6.002 -0.8862 -0.2589  0.1206
 4897SOL    HW126153   2.654   4.432   5.967 -0.6216 -0.6367  0.4643
 4897SOL    HW226154   2.536   4.359   5.924 -0.5585  0.7788 -0.6179
 4898SOL     OW26155   4.249   2.556  13.558  0.0140  0.0824 -0.3172
 4898SOL    HW126156   4.305   2.553  13.636  0.2201  0.9197 -0.4293
 4898SOL    HW226157   4.232   2.650  13.555 -1.4114 -0.2110 -1.2820
 4899SOL     OW26158   2.305   3.503  16.854 -0.1469  0.1890 -0.3198
 4899SOL    HW126159   2.246   3.573  16.826  0.0826  1.1628  1.6733
 4899SOL    HW226160   2.351   3.543  16.928 -0.8132  1.4825 -0.6182
 4900SOL     OW26161   2.097   3.759   1.576  1.0182 -0.2416 -0.9448
 4900SOL    HW126162   2.085   3.725   1.488 -0.4340 -0.6209 -0.6065
 4900SOL    HW226163   2.164   3.707   1.620  0.3364 -0.1153  0.2684
 4901SOL     OW26164   3.849   3.226  12.797 -0.2550 -0.0959 -0.3069
 4901SOL    HW126165   3.923   3.205  12.854 -0.9863 -1.2618  0.1926
 4901SOL    HW226166   3.791   3.153  12.814  1.8892 -1.6155  0.5131
 4902SOL     OW26167   3.107   1.839   4.601  0.6221  0.1156 -0.5012
 4902SOL    HW126168   3.124   1.849   4.507  2.8769 -1.2457 -0.2366
 4902SOL    HW226169   3.050   1.913   4.621  1.6540  0.2494  1.8458
 4903SOL     OW26170   1.336   2.752  14.149 -0.5027 -0.6833  0.5489
 4903SOL    HW126171   1.322   2.801  14.229  1.8763  1.0229 -0.0753
 4903SOL    HW226172   1.366   2.667  14.181  0.4435  0.6983  3.2832
 4904SOL     OW26173   4.196   0.765   2.643 -0.3229  0.2980 -0.0243
 4904SOL    HW126174   4.203   0.682   2.689 -1.1602  0.8804  1.1492
 4904SOL    HW226175   4.210   0.748   2.550 -0.5752  2.2862 -0.4295
 4905SOL     OW26176   1.217   1.684   5.102  0.2357  0.5324 -0.3909
 4905SOL    HW126177   1.269   1.722   5.031  0.3880  0.7828 -0.1439
 4905SOL    HW226178   1.127   1.716   5.097  0.1713  0.4898  0.4638
 4906SOL     OW26179   4.524   2.602   2.213 -0.7054 -0.2571 -0.8535
 4906SOL    HW126180   4.480   2.527   2.252 -1.3883  2.1006  2.8675
 4906SOL    HW226181   4.596   2.555   2.171  1.0535  0.7761  0.9905
 4907SOL     OW26182   1.142   1.647   5.719 -0.2897 -0.0480 -0.3731
 4907SOL    HW126183   1.053   1.631   5.687 -0.0125 -0.9138 -0.6955
 4907SOL    HW226184   1.148   1.591   5.796  0.3666  0.0414 -0.3562
 4908SOL     OW26185   4.474   3.071   4.738 -0.4998 -0.3804 -0.2290
 4908SOL    HW126186   4.418   3.149   4.747  3.5769  2.6300 -0.7989
 4908SOL    HW226187   4.409   3.007   4.765  0.5926 -1.0968  0.6960
 4909SOL     OW26188   4.183   3.324   5.856  0.2268  0.0962  0.0203
 4909SOL    HW126189   4.181   3.392   5.789  0.1634  1.0397  0.9816
 4909SOL    HW226190   4.229   3.258   5.805 -0.8571 -0.6932  0.0660
 4910SOL     OW26191   0.398   2.539   2.370 -0.7931 -0.9856  0.1176
 4910SOL    HW126192   0.475   2.485   2.351  0.1615 -0.1645  1.6315
 4910SOL    HW226193   0.339   2.468   2.345 -0.4596 -1.1952 -0.0747
 4911SOL     OW26194   4.211   2.698   2.929  0.3422  0.3893 -0.0972
 4911SOL    HW126195   4.152   2.760   2.887 -1.8041 -0.2832  1.8960
 4911SOL    HW226196   4.250   2.655   2.854  0.8665  0.1443  0.3168
 4912SOL     OW26197   3.538   4.215   5.582  0.2555  0.1798  0.3244
 4912SOL    HW126198   3.486   4.143   5.616  0.0083 -0.0778 -0.5969
 4912SOL    HW226199   3.563   4.183   5.495  2.4091  1.5960  0.4074
 4913SOL     OW26200   2.991   2.060  17.362 -0.1870  0.0390 -0.3056
 4913SOL    HW126201   2.904   2.022  17.365 -0.4237  0.6747  0.9807
 4913SOL    HW226202   2.995   2.102  17.276 -0.1042  1.0126  0.1741
 4914SOL     OW26203   2.280   4.047   2.315 -0.2421 -0.1796  0.3985
 4914SOL    HW126204   2.358   4.060   2.369 -0.6093 -2.2154  1.4337
 4914SOL    HW226205   2.218   4.109   2.354 -2.0795 -0.9576 -1.3014
 4915SOL     OW26206   2.216   2.491   6.337 -0.4453  0.0199 -0.0618
 4915SOL    HW126207   2.191   2.400   6.353 -2.3407  0.7287  1.0521
 4915SOL    HW226208   2.173   2.540   6.407  1.2971  1.4917 -0.0148
 4916SOL     OW26209   3.057   0.733  15.852 -0.3589 -0.2010  0.1432
 4916SOL    HW126210   3.077   0.787  15.929  1.2009 -1.5845  0.7064
 4916SOL    HW226211   2.998   0.792  15.805  0.5960 -0.3517 -1.2343
 4917SOL     OW26212   3.515   0.738   2.667 -0.3450 -0.0343  0.0877
 4917SOL    HW126213   3.584   0.693   2.717  0.1702  1.7699  0.9758
 4917SOL    HW226214   3.507   0.667   2.603  2.6990  1.1026 -1.5424
 4918SOL     OW26215   1.467   3.364   2.820 -0.3288 -0.3651  0.1159
 4918SOL    HW126216   1.555   3.326   2.821  0.4888  1.4798 -0.8100
 4918SOL    HW226217   1.498   3.453   2.841  1.5734 -0.7410 -1.1096
 4919SOL     OW26218   2.824   0.340   2.027  0.0831 -0.1482 -0.1186
 4919SOL    HW126219   2.755   0.299   1.976 -1.8861  2.0772  0.7359
 4919SOL    HW226220   2.885   0.373   1.961  0.0450 -1.0900 -0.6232
 4920SOL     OW26221   2.617   3.604  15.064 -0.2029 -0.0887  0.2867
 4920SOL    HW126222   2.596   3.562  15.147 -1.7298  0.4617  0.1746
 4920SOL    HW226223   2.625   3.533  15.000  3.0157  1.1191 -0.6428
 4921SOL     OW26224   3.323   1.695   7.204 -0.0070  0.6882  0.4112
 4921SOL    HW126225   3.233   1.676   7.179  0.1471 -0.4372  0.7337
 4921SOL    HW226226   3.375   1.702   7.124 -0.1522 -3.1749 -0.0159
 4922SOL     OW26227   2.731   3.373   0.396 -0.0996  0.0342  0.0261
 4922SOL    HW126228   2.768   3.461   0.388 -2.7291  0.9624 -1.7605
 4922SOL    HW226229   2.653   3.391   0.343 -1.2055  0.9301  1.9480
 4923SOL     OW26230   4.040   2.290   1.442 -0.2720 -0.0242 -0.3148
 4923SOL    HW126231   3.956   2.259   1.408 -0.8833  0.5807  0.6266
 4923SOL    HW226232   4.022   2.383   1.428  0.0819  0.0708 -0.1453
 4924SOL     OW26233   4.227   2.243   5.419  0.4166 -0.2094  0.4871
 4924SOL    HW126234   4.161   2.180   5.391 -1.7889  1.9203  0.9585
 4924SOL    HW226235   4.307   2.196   5.394 -0.0301 -0.9191  0.3982
 4925SOL     OW26236   1.948   1.637   3.225 -0.3552 -0.4005 -0.3397
 4925SOL    HW126237   1.893   1.708   3.257 -1.5694 -0.6642 -1.8507
 4925SOL    HW226238   1.893   1.599   3.157 -1.3852 -0.6104  0.6120
 4926SOL     OW26239   3.892   2.571   7.464 -0.0365  0.1468 -0.2603
 4926SOL    HW126240   3.823   2.624   7.425  1.1785  1.5703 -0.4579
 4926SOL    HW226241   3.904   2.503   7.398 -0.0420  0.1992 -0.3153
 4927SOL     OW26242   3.772   3.094  16.941 -0.4590  0.8356 -0.0750
 4927SOL    HW126243   3.800   3.185  16.940  0.2002  0.6404  0.3642
 4927SOL    HW226244   3.765   3.089  16.846 -1.8594  0.9147  0.0338
 4928SOL     OW26245   0.656   2.323   5.095 -0.1997 -0.1965  0.7255
 4928SOL    HW126246   0.713   2.289   5.164 -2.5000 -0.0483  2.6961
 4928SOL    HW226247   0.605   2.246   5.072 -1.4162  0.0549  2.5578
 4929SOL     OW26248   0.723   4.103  13.863  0.1808 -0.2610 -0.3182
 4929SOL    HW126249   0.651   4.165  13.852 -0.2442 -0.4879  1.1930
 4929SOL    HW226250   0.677   4.023  13.838 -0.7706 -0.4596  2.0884
 4930SOL     OW26251   3.742   3.746  15.657 -0.1346  0.1536 -0.1791
 4930SOL    HW126252   3.663   3.760  15.709 -0.1547  0.0570 -0.1825
 4930SOL    HW226253   3.755   3.840  15.645 -1.0754  0.3641  0.4544
 4931SOL     OW26254   1.480   2.883   7.646  0.3017 -0.3146  0.7899
 4931SOL    HW126255   1.466   2.885   7.741 -0.6274 -2.2965  0.6899
 4931SOL    HW226256   1.565   2.927   7.637 -0.0477  0.1469 -0.2277
 4932SOL     OW26257   4.390   3.784   3.505  0.1593  0.1314 -0.2748
 4932SOL    HW126258   4.451   3.790   3.579  1.5339 -0.5252 -1.3648
 4932SOL    HW226259   4.370   3.691   3.491 -2.0075  0.8191 -1.7744
 4933SOL     OW26260   3.824   2.105   4.229 -0.3245  0.4052 -0.1066
 4933SOL    HW126261   3.799   2.106   4.321 -0.5780  1.0147 -0.1784
 4933SOL    HW226262   3.822   2.198   4.207  0.1437  0.4440  0.0316
 4934SOL     OW26263   0.313   1.668  13.579  0.4724  0.3364 -0.1525
 4934SOL    HW126264   0.231   1.654  13.533  0.4066  0.3144 -0.0303
 4934SOL    HW226265   0.289   1.632  13.665  0.6622  3.4817  1.2309
 4935SOL     OW26266   3.286   2.034   0.397  0.1845 -0.7534  0.0162
 4935SOL    HW126267   3.235   2.093   0.342  2.6678  1.7910  0.4815
 4935SOL    HW226268   3.316   2.090   0.468  3.2935 -1.0077 -1.1004
 4936SOL     OW26269   3.232   3.069   7.936  0.1634  0.0266  0.0042
 4936SOL    HW126270   3.165   3.041   7.999 -2.0294  0.3860 -2.1465
 4936SOL    HW226271   3.235   3.003   7.867 -2.1440  0.7481 -0.7736
 4937SOL     OW26272   2.139   1.211   7.847  0.5526  0.1965 -0.2806
 4937SOL    HW126273   2.205   1.172   7.790  0.4847  1.6790 -1.3657
 4937SOL    HW226274   2.143   1.154   7.924 -1.3032 -0.5815 -0.7378
 4938SOL     OW26275   0.768   1.240   5.667  0.2309 -0.7966 -0.1914
 4938SOL    HW126276   0.678   1.234   5.699 -0.1399 -2.8966 -1.6143
 4938SOL    HW226277   0.820   1.263   5.744  0.6673  1.1992 -1.0944
 4939SOL     OW26278   4.184   0.354   7.670 -0.3031 -0.4441 -0.1714
 4939SOL    HW126279   4.248   0.302   7.622  1.6603  2.0047 -0.2021
 4939SOL    HW226280   4.232   0.428   7.707 -0.9460 -0.3077  0.4039
 4940SOL     OW26281   2.786   1.476   4.739 -0.3135 -0.0914  0.5366
 4940SOL    HW126282   2.834   1.499   4.819 -0.0557 -0.5380  0.5127
 4940SOL    HW226283   2.710   1.443   4.786 -0.0881  0.3172  1.1850
 4941SOL     OW26284   1.639   1.988   5.051 -0.1240  0.5920 -0.7204
 4941SOL    HW126285   1.714   2.032   5.092  0.4360 -1.0375  0.0004
 4941SOL    HW226286   1.680   1.980   4.964 -2.6932 -0.9701 -1.7627
 4942SOL     OW26287   2.388   0.565   8.256  0.5212  0.0587 -0.0123
 4942SOL    HW126288   2.481   0.588   8.267  0.6291 -0.1196 -0.5453
 4942SOL    HW226289   2.354   0.642   8.210 -0.6610  0.7759  2.0963
 4943SOL     OW26290   2.385   3.312   4.984  0.1858 -0.5343 -0.5109
 4943SOL    HW126291   2.312   3.330   5.043 -1.3991  0.2729 -2.7112
 4943SOL    HW226292   2.436   3.258   5.044 -2.8017 -1.3509  1.2582
 4944SOL     OW26293   3.737   0.446  16.631 -0.4654  0.3444 -0.3211
 4944SOL    HW126294   3.655   0.445  16.682 -1.1970 -0.4762 -1.5051
 4944SOL    HW226295   3.698   0.453  16.544 -1.2279 -0.1633 -0.0253
 4945SOL     OW26296   1.722   4.589   1.812 -0.2125 -0.8227  0.3090
 4945SOL    HW126297   1.654   4.522   1.819 -1.8567  0.9289  1.3102
 4945SOL    HW226298   1.696   4.652   1.880  0.6486  1.2667 -1.3089
 4946SOL     OW26299   3.263   0.519   2.547 -0.0932 -0.2205 -0.1680
 4946SOL    HW126300   3.352   0.494   2.523 -0.3191 -1.0376 -0.1633
 4946SOL    HW226301   3.217   0.448   2.503 -3.3791  2.3302 -0.8619
 4947SOL     OW26302   2.707   2.287   6.385 -0.4344  0.2715 -0.1894
 4947SOL    HW126303   2.732   2.323   6.300  1.3830  0.1533  0.2800
 4947SOL    HW226304   2.723   2.193   6.374  0.7183  0.3802  0.4353
 4948SOL     OW26305   3.504   1.931  11.533 -0.0920 -0.2344  0.1429
 4948SOL    HW126306   3.526   2.008  11.585 -1.9678  0.7560 -0.5559
 4948SOL    HW226307   3.450   1.887  11.598 -1.6150  1.1396 -0.2157
 4949SOL     OW26308   3.736   4.017   3.122 -0.0057  0.3506 -0.0337
 4949SOL    HW126309   3.774   4.099   3.092  0.8058  0.3937  1.1165
 4949SOL    HW226310   3.784   3.991   3.201  0.6058  2.1334  0.1685
 4950SOL     OW26311   3.443   0.173   1.273 -0.3230  0.7336  0.2011
 4950SOL    HW126312   3.392   0.135   1.345 -0.0386 -0.0838 -0.0334
 4950SOL    HW226313   3.378   0.217   1.218  1.1434  3.2410  0.4919
 4951SOL     OW26314   1.786   2.616  17.642  0.3864 -0.0593 -0.2194
 4951SOL    HW126315   1.824   2.629   0.031 -2.5112 -0.5726  1.1263
 4951SOL    HW226316   1.710   2.560  17.661  0.7690 -0.1252  1.1225
 4952SOL     OW26317   4.236   4.581   0.791 -0.1840  0.6223  0.0277
 4952SOL    HW126318   4.181   4.505   0.810  2.5318 -0.4694  3.5759
 4952SOL    HW226319   4.286   4.547   0.716 -2.3421 -0.0450 -1.0869
 4953SOL     OW26320   1.730   4.659  16.042 -0.0386 -0.1319  0.0118
 4953SOL    HW126321   1.644   4.672  16.001  0.2570 -0.8780 -0.8432
 4953SOL    HW226322   1.697   4.653  16.132  0.3225  0.1349  0.1618
 4954SOL     OW26323   4.341   1.127   5.680  0.0802  0.0688 -0.1348
 4954SOL    HW126324   4.331   1.131   5.585  0.6856  0.7530 -0.1712
 4954SOL    HW226325   4.257   1.158   5.712  0.1007 -0.9655  0.9122
 4955SOL     OW26326   4.260   4.280  16.960  0.0573 -0.0940 -0.0149
 4955SOL    HW126327   4.236   4.254  17.049  3.0287  0.9109  1.0991
 4955SOL    HW226328   4.223   4.369  16.956 -0.8807 -0.4574  0.5403
 4956SOL     OW26329   2.151   0.873   4.042  0.4861 -0.4676  0.3537
 4956SOL    HW126330   2.214   0.801   4.038 -0.3391 -1.2387  1.2344
 4956SOL    HW226331   2.142   0.889   3.948 -1.1872 -2.3150  0.1768
 4957SOL     OW26332   4.503   3.315   5.632  0.9725  0.1779  0.0471
 4957SOL    HW126333   4.477   3.235   5.586 -2.3332  0.7720  0.8829
 4957SOL    HW226334   4.433   3.365   5.590 -0.6322 -0.8861  1.5036
 4958SOL     OW26335   2.749   0.966   7.828  0.0157  0.0448 -0.1680
 4958SOL    HW126336   2.726   1.055   7.799  1.7058  1.3908  2.5687
 4958SOL    HW226337   2.690   0.916   7.772 -0.0129 -0.5528  0.4018
 4959SOL     OW26338   2.468   4.421   9.540 -0.1735  0.0651 -0.0564
 4959SOL    HW126339   2.537   4.384   9.595 -0.6925 -1.7093 -0.6007
 4959SOL    HW226340   2.452   4.341   9.489 -0.5874 -0.0601  0.2620
 4960SOL     OW26341   1.431   1.044   4.313 -0.7563  0.3732  0.4362
 4960SOL    HW126342   1.345   1.084   4.319 -0.7845  0.4187 -0.2621
 4960SOL    HW226343   1.482   1.091   4.379 -0.0495  1.5233 -0.9227
 4961SOL     OW26344   2.958   3.828   8.759 -0.0306 -0.0982  0.0847
 4961SOL    HW126345   2.960   3.812   8.853  1.0789  0.7985  0.2147
 4961SOL    HW226346   2.884   3.889   8.761 -0.6190 -0.6794 -2.7516
 4962SOL     OW26347   4.269   1.422   8.902  0.0858 -0.2481  0.1850
 4962SOL    HW126348   4.214   1.495   8.929  0.4784 -0.1051  0.6050
 4962SOL    HW226349   4.206   1.371   8.852  1.1749 -1.9901  0.5994
 4963SOL     OW26350   0.064   1.479  11.979 -0.0886 -0.3033  0.1090
 4963SOL    HW126351   0.144   1.472  11.928 -0.0051 -3.9491  0.7452
 4963SOL    HW226352   4.722   1.440  11.921  0.6700  1.0048 -1.6282
 4964SOL     OW26353   2.643   0.729   8.312  0.3267  0.0622 -0.2899
 4964SOL    HW126354   2.736   0.729   8.290  0.3832 -1.3969 -0.0173
 4964SOL    HW226355   2.624   0.820   8.288 -0.5318  0.1241  0.5827
 4965SOL     OW26356   4.126   0.970   7.736 -0.2958 -0.6807 -1.1810
 4965SOL    HW126357   4.123   0.944   7.828 -1.3893  0.8795 -0.7740
 4965SOL    HW226358   4.217   0.943   7.725 -0.2114 -1.5030  1.4944
 4966SOL     OW26359   0.451   2.707  13.920 -0.5794 -0.0406 -0.0657
 4966SOL    HW126360   0.366   2.691  13.880  0.0285 -0.6726 -1.1331
 4966SOL    HW226361   0.456   2.800  13.940 -0.2623 -0.2258  0.7116
 4967SOL     OW26362   1.908   0.362   9.609  0.4332 -0.2813  0.5223
 4967SOL    HW126363   1.900   0.425   9.538  0.1177  1.3570  1.9917
 4967SOL    HW226364   1.822   0.366   9.651  0.9007 -1.3619  1.5965
 4968SOL     OW26365   1.515   0.304   2.031 -0.2336  0.0971 -0.1633
 4968SOL    HW126366   1.445   0.331   1.972  0.3630  0.6285 -0.6404
 4968SOL    HW226367   1.471   0.241   2.087 -1.2130 -0.0287 -1.0727
 4969SOL     OW26368   3.482   0.971   2.016 -0.2413  0.1266  0.5005
 4969SOL    HW126369   3.567   1.012   2.029  0.1187 -1.8237  4.2024
 4969SOL    HW226370   3.436   1.049   1.984  0.4480  0.2935 -0.0770
 4970SOL     OW26371   3.580   3.833   7.545  0.1747 -0.4683 -0.3917
 4970SOL    HW126372   3.665   3.823   7.502  0.6072 -1.4350  0.6972
 4970SOL    HW226373   3.539   3.747   7.538  1.4569 -1.1737  0.6198
 4971SOL     OW26374   1.556   0.507  13.222  0.6257  0.4249 -0.4865
 4971SOL    HW126375   1.506   0.454  13.284  1.1028  0.3546 -0.1602
 4971SOL    HW226376   1.646   0.478  13.238  0.3634  0.2986  0.7140
 4972SOL     OW26377   0.865   2.432  11.679  0.1007  0.0089 -0.3283
 4972SOL    HW126378   0.924   2.363  11.650  0.8116 -0.0877  1.3112
 4972SOL    HW226379   0.864   2.504  11.616 -1.0300  0.2397 -0.0473
 4973SOL     OW26380   3.794   1.060   6.599 -0.2768 -0.1440 -0.1534
 4973SOL    HW126381   3.734   0.993   6.631  0.2851 -1.0316 -0.9462
 4973SOL    HW226382   3.782   1.132   6.660 -2.3105  0.3238 -1.1010
 4974SOL     OW26383   4.665   1.198   0.603 -0.5216 -0.1299  0.4828
 4974SOL    HW126384   4.639   1.126   0.545  0.4135  0.3642 -0.5637
 4974SOL    HW226385   4.629   1.278   0.566 -1.7086 -1.0259 -0.2836
 4975SOL     OW26386   1.731   1.938   2.228  0.6352 -0.6421  0.2888
 4975SOL    HW126387   1.793   1.997   2.186  1.9970 -1.2424  1.4298
 4975SOL    HW226388   1.729   1.972   2.318 -1.8654  0.3998 -0.1591
 4976SOL     OW26389   1.647   2.088   2.442 -0.0219  0.3276 -0.0069
 4976SOL    HW126390   1.610   2.024   2.504  0.3540 -0.8540 -1.0063
 4976SOL    HW226391   1.634   2.167   2.494 -2.5447  0.4427 -0.7736
 4977SOL     OW26392   4.253   1.432   7.307 -0.2852 -0.0555  0.0078
 4977SOL    HW126393   4.281   1.368   7.242 -0.0049  1.3379 -1.2256
 4977SOL    HW226394   4.195   1.378   7.361 -1.5220  0.6944 -0.5487
 4978SOL     OW26395   3.912   1.951   1.969  0.4659  0.4050 -0.2368
 4978SOL    HW126396   3.976   1.916   1.907 -0.8326 -3.1530  0.4014
 4978SOL    HW226397   3.967   1.991   2.036  0.8362 -0.9105  0.2492
 4979SOL     OW26398   4.222   2.678   9.115  0.2706  0.4776 -0.2869
 4979SOL    HW126399   4.247   2.615   9.183 -0.0879  1.5500  0.8304
 4979SOL    HW226400   4.132   2.696   9.144  0.9989 -1.0152  2.8626
 4980SOL     OW26401   2.660   0.235   6.013 -0.4908  0.3099  0.2150
 4980SOL    HW126402   2.638   0.307   6.071  1.2450  2.0594 -1.3199
 4980SOL    HW226403   2.599   0.253   5.941 -1.8458  0.5302  1.4210
 4981SOL     OW26404   0.193   3.514   2.451  0.1486  0.0875  0.7908
 4981SOL    HW126405   0.276   3.512   2.498 -0.2101 -1.9446  1.3269
 4981SOL    HW226406   0.129   3.546   2.515 -0.2674 -0.0076  0.4199
 4982SOL     OW26407   1.271   4.677   5.191  0.0280 -0.2588 -0.2174
 4982SOL    HW126408   1.319   4.650   5.112 -0.1995  1.2035 -0.8593
 4982SOL    HW226409   1.310   0.040   5.193  1.0196 -0.6698 -1.6338
 4983SOL     OW26410   1.571   0.708   6.517 -0.1625  0.7151  0.1213
 4983SOL    HW126411   1.546   0.684   6.428  0.2737 -0.1137  0.2155
 4983SOL    HW226412   1.657   0.748   6.504  1.2613 -2.4075 -0.0495
 4984SOL     OW26413   4.424   2.243   7.998 -0.6372 -0.9852 -0.6124
 4984SOL    HW126414   4.417   2.252   7.903 -0.0365 -1.6805 -0.7243
 4984SOL    HW226415   4.447   2.151   8.013  0.7910 -0.9353 -2.5875
 4985SOL     OW26416   0.307   2.670   6.950 -0.6916  0.2916 -0.1429
 4985SOL    HW126417   0.261   2.731   7.007 -1.1780  3.2417 -3.6197
 4985SOL    HW226418   0.233   2.617   6.922 -0.1270 -1.4643  1.6961
 4986SOL     OW26419   0.943   2.516   6.877 -0.1904  0.0443  0.1894
 4986SOL    HW126420   0.927   2.507   6.971  1.7170 -1.7417  0.3556
 4986SOL    HW226421   0.906   2.437   6.837 -2.0677  0.3664  1.3172
 4987SOL     OW26422   3.227   3.165  11.665  0.5039  0.0177  0.2616
 4987SOL    HW126423   3.165   3.096  11.686 -0.1829  0.0351 -1.6824
 4987SOL    HW226424   3.228   3.160  11.569  0.1435 -2.6605  0.3989
 4988SOL     OW26425   0.755   1.609   7.646 -0.0457 -0.3719 -0.2330
 4988SOL    HW126426   0.799   1.690   7.619  0.6997 -0.6092  0.2620
 4988SOL    HW226427   0.832   1.564   7.680 -0.5299 -1.6439 -0.8208
 4989SOL     OW26428   2.460   3.030   3.400  0.3203 -0.1489  0.6984
 4989SOL    HW126429   2.476   2.953   3.345  1.0125 -0.5437  1.4617
 4989SOL    HW226430   2.528   3.020   3.466 -0.2468 -2.7184  0.9131
 4990SOL     OW26431   3.296   2.086   8.911  0.5994  0.2035 -0.0475
 4990SOL    HW126432   3.215   2.045   8.943  0.1845  1.1021  0.0571
 4990SOL    HW226433   3.286   2.082   8.816  1.7074  0.0510 -0.1502
 4991SOL     OW26434   2.485   2.249  15.663 -0.3525 -0.2534 -0.0349
 4991SOL    HW126435   2.455   2.306  15.734  2.6523 -1.3865  2.1266
 4991SOL    HW226436   2.462   2.161  15.692 -0.7746 -0.0565  0.2201
 4992SOL     OW26437   0.931   0.369   0.831  0.1341 -1.1310 -0.3192
 4992SOL    HW126438   0.840   0.347   0.851  0.5238 -2.9940 -0.6333
 4992SOL    HW226439   0.952   0.349   0.740 -0.2797 -0.6738 -0.5200
 4993SOL     OW26440   4.603   1.316   9.182 -0.7486  0.0947 -0.2717
 4993SOL    HW126441   4.519   1.280   9.154 -0.1102  0.1033 -2.2413
 4993SOL    HW226442   4.581   1.378   9.251 -1.6871 -1.2478  0.6098
 4994SOL     OW26443   0.206   4.220   0.041 -0.0648 -0.1915  0.5203
 4994SOL    HW126444   0.150   4.297   0.032  2.5655  1.7041  0.3376
 4994SOL    HW226445   0.242   4.238   0.129  0.5407  1.7345 -0.1118
 4995SOL     OW26446   2.004   0.876  14.632  0.2050  0.4657  0.0911
 4995SOL    HW126447   2.062   0.921  14.693 -0.1730  1.4540 -0.2757
 4995SOL    HW226448   2.063   0.869  14.557 -1.6993  0.2671 -1.4017
 4996SOL     OW26449   3.179   1.641   2.238  0.6567 -0.0558 -0.3483
 4996SOL    HW126450   3.176   1.558   2.286 -2.6757  0.2092 -0.1354
 4996SOL    HW226451   3.151   1.704   2.304 -0.4797  0.2509 -1.1159
 4997SOL     OW26452   0.615   2.171   5.878  0.5486 -0.6089 -0.6108
 4997SOL    HW126453   0.681   2.239   5.887 -1.5040  0.6938  4.8920
 4997SOL    HW226454   0.625   2.111   5.952 -0.9433  0.9590  0.8496
 4998SOL     OW26455   0.903   3.593   8.904 -0.5250  0.0823  0.1797
 4998SOL    HW126456   0.893   3.566   8.813 -0.4111 -0.6316  0.3788
 4998SOL    HW226457   0.974   3.657   8.902  0.4007 -0.9244  0.7119
 4999SOL     OW26458   4.364   0.510   3.288 -0.6990  0.1465 -0.2024
 4999SOL    HW126459   4.357   0.563   3.208 -2.3952  2.9208  1.7569
 4999SOL    HW226460   4.280   0.464   3.284  0.5453 -2.1062 -0.3953
 5000SOL     OW26461   0.259   1.924   6.262  0.5832 -0.5763  0.2199
 5000SOL    HW126462   0.257   1.832   6.289 -1.3077 -0.3346  0.9169
 5000SOL    HW226463   0.173   1.959   6.286  1.7646  1.0305  2.1037
 5001SOL     OW26464   0.615   1.676   0.016 -0.0340  0.0551 -0.4087
 5001SOL    HW126465   0.642   1.587  17.692 -0.5466  0.2867 -1.9320
 5001SOL    HW226466   0.522   1.665  17.693  0.0336  0.2442 -0.7970
 5002SOL     OW26467   0.058   1.677  15.543 -0.0331  0.7906 -0.8975
 5002SOL    HW126468   4.709   1.739  15.538 -1.8868 -1.3617 -0.3950
 5002SOL    HW226469   0.061   1.655  15.636  1.1186  1.9282 -0.6603
 5003SOL     OW26470   0.211   1.558   3.856 -0.0554  0.0645  0.0555
 5003SOL    HW126471   0.152   1.537   3.784  0.3180  2.3170 -0.8825
 5003SOL    HW226472   0.177   1.500   3.925 -0.8688 -1.5895 -1.7388
 5004SOL     OW26473   2.128   3.782   4.101  0.2379 -0.0334 -0.3953
 5004SOL    HW126474   2.119   3.845   4.172 -2.3203 -0.2076 -0.5801
 5004SOL    HW226475   2.157   3.707   4.152  0.9423  0.9988  0.7170
 5005SOL     OW26476   0.279   0.376   3.310 -0.1540 -0.1032 -0.0332
 5005SOL    HW126477   0.223   0.387   3.387 -2.3195  2.8684 -2.0378
 5005SOL    HW226478   0.311   0.289   3.332  0.7903  0.3876  0.5408
 5006SOL     OW26479   0.647   0.924   6.972  0.1738  0.3783  0.0809
 5006SOL    HW126480   0.652   0.947   7.064  1.9106 -1.3907  0.4208
 5006SOL    HW226481   0.571   0.865   6.969 -0.6394  1.3768  1.2216
 5007SOL     OW26482   0.939   1.885   6.894 -0.0916  0.0881 -0.0066
 5007SOL    HW126483   0.894   1.965   6.866 -0.5405  0.0465  0.5885
 5007SOL    HW226484   0.967   1.909   6.983  0.8437 -0.5026 -0.1425
 5008SOL     OW26485   3.923   4.353   7.566  0.1986  0.0197 -0.5641
 5008SOL    HW126486   4.009   4.363   7.527  0.1769  3.4566  0.2898
 5008SOL    HW226487   3.881   4.439   7.565 -2.6331 -1.3230  0.0991
 5009SOL     OW26488   2.378   3.184   7.525 -0.3248 -0.0686  0.7817
 5009SOL    HW126489   2.458   3.135   7.542 -0.1480  0.9412  2.8483
 5009SOL    HW226490   2.327   3.183   7.607  1.0431  0.4312  1.6267
 5010SOL     OW26491   4.625   1.113   4.199  0.0823  0.2498  0.1560
 5010SOL    HW126492   4.665   1.034   4.162  0.9826  1.2227 -0.9163
 5010SOL    HW226493   4.556   1.075   4.253  1.0233 -1.9249 -0.1779
 5011SOL     OW26494   2.097   0.305  16.935 -0.2045 -0.0168  0.0039
 5011SOL    HW126495   2.100   0.248  16.858  0.7074  0.3234 -0.2063
 5011SOL    HW226496   2.039   0.258  16.995 -0.8160  2.0206  1.0002
 5012SOL     OW26497   2.108   1.199   6.926  0.2203 -0.0246  0.5494
 5012SOL    HW126498   2.161   1.144   6.984 -0.6645 -0.6392  0.7771
 5012SOL    HW226499   2.041   1.140   6.892 -0.1550  0.1955  0.9193
 5013SOL     OW26500   1.508   0.914   4.940 -0.0398 -0.0012  0.1700
 5013SOL    HW126501   1.588   0.952   4.904 -1.2119 -0.4325 -2.8528
 5013SOL    HW226502   1.535   0.867   5.019 -1.8404 -0.8403  0.2941
 5014SOL     OW26503   3.187   3.588   6.118  0.1335 -0.2642 -0.4394
 5014SOL    HW126504   3.134   3.641   6.058  1.8860  1.0779 -0.7960
 5014SOL    HW226505   3.276   3.600   6.084  0.8867 -1.1952  1.1759
 5015SOL     OW26506   4.331   1.831  10.455  0.1038  0.1956 -0.4889
 5015SOL    HW126507   4.277   1.884  10.515 -2.5245 -1.9159 -1.0140
 5015SOL    HW226508   4.283   1.826  10.373 -3.6690  1.7749  1.6319
 5016SOL     OW26509   3.980   1.936  15.515 -0.3445 -0.0924 -0.1116
 5016SOL    HW126510   3.937   1.970  15.594 -0.2686 -0.7941  0.2369
 5016SOL    HW226511   3.905   1.887  15.481 -2.1370 -0.1822  3.9863
 5017SOL     OW26512   3.744   1.785   1.797 -0.1483 -0.5869 -0.3867
 5017SOL    HW126513   3.780   1.837   1.869  0.9081 -1.5721 -0.2095
 5017SOL    HW226514   3.794   1.822   1.724 -1.4299 -0.2909 -1.1214
 5018SOL     OW26515   1.736   0.383   3.827  0.4894  0.3332  0.9094
 5018SOL    HW126516   1.767   0.371   3.916  0.6445  0.2229  0.8409
 5018SOL    HW226517   1.642   0.383   3.844  0.3011  4.0667 -0.0794
 5019SOL     OW26518   1.474   4.393   8.417  0.2574 -0.1380 -0.3721
 5019SOL    HW126519   1.379   4.398   8.404  0.0229 -1.5891  0.7800
 5019SOL    HW226520   1.484   4.459   8.486  0.6356 -0.5719 -0.0048
 5020SOL     OW26521   0.623   0.634   7.497  0.0011  0.6617 -0.3358
 5020SOL    HW126522   0.646   0.603   7.584 -0.1929 -1.3140 -0.9785
 5020SOL    HW226523   0.702   0.610   7.449  0.0883 -0.5919  0.4207
 5021SOL     OW26524   1.643   0.496   3.576  0.0206 -0.5203  0.1069
 5021SOL    HW126525   1.679   0.584   3.569 -0.9745 -0.3023 -2.4847
 5021SOL    HW226526   1.701   0.461   3.643 -2.9349 -2.3993  1.6926
 5022SOL     OW26527   1.842   3.505  12.941  0.2583  0.3559 -0.0619
 5022SOL    HW126528   1.912   3.477  13.001  1.0659  0.9532 -0.7127
 5022SOL    HW226529   1.766   3.498  12.999  0.1179  1.6845 -0.0889
 5023SOL     OW26530   1.414   1.758   7.684 -0.0182 -0.2159 -0.2000
 5023SOL    HW126531   1.335   1.772   7.736  1.3954 -0.2236  1.9832
 5023SOL    HW226532   1.404   1.663   7.676 -0.3664 -0.1785 -0.2014
 5024SOL     OW26533   2.794   3.777   5.913  0.1818 -0.0270  0.0397
 5024SOL    HW126534   2.725   3.712   5.903 -0.7583  0.4698  3.2387
 5024SOL    HW226535   2.732   3.850   5.920  1.1268  0.7345  0.4404
 5025SOL     OW26536   4.373   2.291   1.696 -0.0466  0.3041 -0.1920
 5025SOL    HW126537   4.394   2.380   1.724  0.6012  0.1266 -0.1226
 5025SOL    HW226538   4.333   2.305   1.610  0.3834 -1.3384 -0.6613
 5026SOL     OW26539   2.597   1.895   3.494 -0.3723  0.1146  0.0968
 5026SOL    HW126540   2.557   1.981   3.512 -1.2733 -0.0492 -1.0863
 5026SOL    HW226541   2.585   1.887   3.399 -0.6115 -0.1448  0.1483
 5027SOL     OW26542   0.528   0.824   3.215  0.2989 -0.7411 -0.0542
 5027SOL    HW126543   0.521   0.795   3.124  1.0829  1.8269 -0.9124
 5027SOL    HW226544   0.545   0.733   3.241 -0.5870 -0.2286  2.2901
 5028SOL     OW26545   3.301   0.389   1.116 -0.2429 -0.3784  0.7993
 5028SOL    HW126546   3.323   0.445   1.191 -2.4068 -0.2796  1.3690
 5028SOL    HW226547   3.220   0.431   1.088 -0.1552 -0.7056  0.0533
 5029SOL     OW26548   0.306   1.152  12.686 -0.1609 -0.0082  0.0769
 5029SOL    HW126549   0.363   1.139  12.761  0.7362  0.3687 -0.5281
 5029SOL    HW226550   0.323   1.244  12.665 -4.3271  0.3766 -1.6987
 5030SOL     OW26551   3.189   2.172  15.817  0.2997 -0.3810  0.2122
 5030SOL    HW126552   3.216   2.130  15.735 -2.5385 -1.0528 -0.3893
 5030SOL    HW226553   3.202   2.264  15.796  0.6172 -0.7211 -1.0614
 5031SOL     OW26554   0.405   0.030   0.004  0.8918  0.5615 -0.6802
 5031SOL    HW126555   0.474   4.700  17.664 -0.7500 -0.9358 -1.5061
 5031SOL    HW226556   0.441   0.119  17.698 -1.2210  1.4281 -0.2670
 5032SOL     OW26557   2.309   0.003   1.316 -0.7498  0.1309  0.5040
 5032SOL    HW126558   2.291   0.044   1.232 -0.6104  2.4307  1.5948
 5032SOL    HW226559   2.244   4.657   1.312  0.8424 -1.1143 -3.0603
 5033SOL     OW26560   0.219   2.168   6.817  0.4496 -0.1247 -0.0956
 5033SOL    HW126561   0.196   2.092   6.871 -2.1731  0.7989  0.0801
 5033SOL    HW226562   0.139   2.220   6.815 -0.1892 -1.0613  0.6776
 5034SOL     OW26563   1.647   0.423   4.265 -0.1017 -0.0266  0.2638
 5034SOL    HW126564   1.712   0.382   4.207 -1.7789 -0.7150 -1.1322
 5034SOL    HW226565   1.586   0.469   4.207  2.0421  0.0533 -1.9583
 5035SOL     OW26566   3.235   3.897   4.280  0.5929 -0.0130  0.1975
 5035SOL    HW126567   3.181   3.861   4.350  1.0675 -0.5626  0.2812
 5035SOL    HW226568   3.284   3.822   4.246 -2.1488 -0.7932 -2.0307
 5036SOL     OW26569   2.689   0.063  10.302 -0.2589  0.5581  0.0516
 5036SOL    HW126570   2.764   0.020  10.343 -0.0626 -0.4386 -1.3313
 5036SOL    HW226571   2.663   0.118  10.375  0.4284  1.4572 -0.3756
 5037SOL     OW26572   2.429   2.211   2.693  0.2007 -0.1704 -0.4837
 5037SOL    HW126573   2.484   2.233   2.618 -0.2593  0.2658 -0.6939
 5037SOL    HW226574   2.356   2.169   2.647 -1.7849  1.1242  1.4958
 5038SOL     OW26575   0.960   4.322   6.592 -0.6172  0.6818 -0.2980
 5038SOL    HW126576   0.917   4.296   6.510  0.7328 -0.7770 -0.5347
 5038SOL    HW226577   0.981   4.237   6.629  1.2068  0.1546 -2.5594
 5039SOL     OW26578   4.369   4.597   0.020  0.0279  0.2361  0.4380
 5039SOL    HW126579   4.328   4.532  17.661  0.8350 -0.4524  0.6273
 5039SOL    HW226580   4.424   4.639  17.652 -0.7123 -1.0895 -1.0143
 5040SOL     OW26581   1.398   1.286   8.382  0.0850 -0.1510 -0.0679
 5040SOL    HW126582   1.412   1.230   8.305  1.2218 -0.9707  0.7247
 5040SOL    HW226583   1.416   1.224   8.453 -0.5757  1.0587  1.1403
 5041SOL     OW26584   3.720   3.712  11.556  0.2383  0.0787 -0.4725
 5041SOL    HW126585   3.702   3.621  11.576  1.7898  0.0808  0.9127
 5041SOL    HW226586   3.804   3.709  11.510  0.6833 -0.5300  0.3876
 5042SOL     OW26587   2.288   4.315   1.888  0.1350  0.3619 -0.3062
 5042SOL    HW126588   2.195   4.341   1.889 -0.2652 -1.0280 -2.0203
 5042SOL    HW226589   2.341   4.392   1.907  2.9393 -1.2955 -1.5331
 5043SOL     OW26590   1.823   3.708  13.255  0.3671 -0.7648  0.1465
 5043SOL    HW126591   1.834   3.669  13.341  0.1634 -2.4836 -0.5958
 5043SOL    HW226592   1.895   3.668  13.206  1.4553  0.0374  1.0977
 5044SOL     OW26593   2.441   3.693   8.328  0.0280  0.2365 -0.0460
 5044SOL    HW126594   2.476   3.758   8.389 -1.9647  0.5807  0.7078
 5044SOL    HW226595   2.517   3.684   8.270 -0.2456 -0.0597 -0.3536
 5045SOL     OW26596   2.586   4.588   7.421  0.8180  0.1315  0.0920
 5045SOL    HW126597   2.591   4.645   7.498 -0.8789 -1.6234  1.5059
 5045SOL    HW226598   2.497   4.554   7.429  0.3449  0.9418 -1.8258
 5046SOL     OW26599   3.992   2.364  16.568 -0.1008 -0.2158 -0.2539
 5046SOL    HW126600   3.915   2.416  16.545  0.3702  1.0560  1.0541
 5046SOL    HW226601   3.949   2.304  16.629  1.1909  0.5291  1.4033
 5047SOL     OW26602   0.450   3.543   7.225 -0.2597  0.0946 -0.0956
 5047SOL    HW126603   0.359   3.519   7.205 -0.0849 -1.0438  0.4743
 5047SOL    HW226604   0.490   3.548   7.138  1.3201  0.0171  0.6378
 5048SOL     OW26605   2.396   2.678   5.610  0.8784 -0.0549 -0.1900
 5048SOL    HW126606   2.304   2.654   5.597  0.4262  1.8460 -0.4789
 5048SOL    HW226607   2.438   2.626   5.541 -0.2018  1.4559 -1.9948
 5049SOL     OW26608   2.256   3.745  11.969  0.3579 -0.3951  0.5184
 5049SOL    HW126609   2.266   3.836  11.939  0.4739 -0.2408  1.0331
 5049SOL    HW226610   2.334   3.746  12.024  0.4669  0.4460  0.3509
 5050SOL     OW26611   4.598   3.066  13.524 -0.2569  0.5277  0.4901
 5050SOL    HW126612   4.577   3.061  13.617  1.0305  0.7592  0.7939
 5050SOL    HW226613   4.582   2.973  13.507 -0.8778  0.8007 -0.4253
 5051SOL     OW26614   3.561   2.034   5.692  0.0877 -0.0144  0.6278
 5051SOL    HW126615   3.519   1.967   5.745 -1.3226  0.7319  0.4568
 5051SOL    HW226616   3.494   2.058   5.627 -2.0422 -0.3879  2.6694
 5052SOL     OW26617   3.832   2.079  10.737 -0.0566 -0.7115  0.1841
 5052SOL    HW126618   3.811   1.999  10.690  1.8493 -0.8232 -0.4986
 5052SOL    HW226619   3.869   2.124  10.661 -1.1048  1.2284  0.8126
 5053SOL     OW26620   1.673   4.058   7.748  0.6561  0.2922 -0.1489
 5053SOL    HW126621   1.606   3.991   7.738 -1.1785  2.2931 -1.1139
 5053SOL    HW226622   1.665   4.083   7.840 -0.9369 -3.0695  0.6165
 5054SOL     OW26623   2.936   0.787   7.906 -0.2546 -0.3069 -0.2598
 5054SOL    HW126624   2.949   0.713   7.847 -0.9682 -0.4392 -0.2506
 5054SOL    HW226625   2.858   0.824   7.865  0.9270  2.2259 -0.2288
 5055SOL     OW26626   0.436   2.016   8.874 -0.3619 -0.0026  0.8593
 5055SOL    HW126627   0.492   2.053   8.942 -2.5379  2.2868  1.4385
 5055SOL    HW226628   0.429   1.923   8.892 -2.1311 -0.3189 -1.5233
 5056SOL     OW26629   1.808   3.076   7.764  0.0651  0.2192 -0.0033
 5056SOL    HW126630   1.794   3.052   7.673  0.9134 -1.9010  0.4095
 5056SOL    HW226631   1.881   3.138   7.772  0.6029 -0.7633  2.8242
 5057SOL     OW26632   2.454   1.555  13.814  0.5005 -0.1802 -0.1519
 5057SOL    HW126633   2.549   1.567  13.810  0.5658 -0.2601  1.1190
 5057SOL    HW226634   2.431   1.571  13.722  1.0642  0.0439 -0.2555
 5058SOL     OW26635   0.063   2.058   3.270  0.3296 -0.7276  0.4957
 5058SOL    HW126636   0.110   1.975   3.276  1.1108 -0.6370 -4.0663
 5058SOL    HW226637   0.089   2.076   3.180 -2.2748 -1.7368 -0.4401
 5059SOL     OW26638   4.051   3.689  14.905 -0.5351 -0.9663 -0.0388
 5059SOL    HW126639   4.083   3.684  14.995  1.2731 -2.0130 -0.7390
 5059SOL    HW226640   4.028   3.779  14.881  0.9403 -0.7096 -0.4719
 5060SOL     OW26641   1.930   2.116   2.117  0.4311  0.1969 -0.2574
 5060SOL    HW126642   2.022   2.096   2.135  0.0146 -1.2272  0.3263
 5060SOL    HW226643   1.925   2.081   2.028 -0.7002  2.3683 -1.0430
 5061SOL     OW26644   3.580   0.239   3.767  0.8719  0.3404  0.9553
 5061SOL    HW126645   3.576   0.267   3.859  1.4550  0.9789  0.7879
 5061SOL    HW226646   3.495   0.267   3.732  0.8567  0.2009  0.8828
 5062SOL     OW26647   0.983   3.019  12.699 -0.0704  0.3887  0.0383
 5062SOL    HW126648   1.077   3.016  12.717  0.4772  3.8826 -2.2981
 5062SOL    HW226649   0.963   3.094  12.756 -3.3493 -0.4053 -0.0183
 5063SOL     OW26650   0.521   3.581   8.876 -0.4868  0.2065  0.2084
 5063SOL    HW126651   0.580   3.644   8.836  0.6991 -1.1597 -0.2125
 5063SOL    HW226652   0.565   3.571   8.960 -0.8448  0.5417  0.4366
 5064SOL     OW26653   4.133   0.305   3.020 -0.6267  0.3723 -0.0224
 5064SOL    HW126654   4.096   0.294   2.932 -0.4521  4.6039 -0.6249
 5064SOL    HW226655   4.195   0.232   3.021  0.1113  1.0079  0.1807
 5065SOL     OW26656   2.427   2.784   3.705  0.2952  0.2437 -0.0542
 5065SOL    HW126657   2.496   2.733   3.748 -0.3924  0.2111  1.0252
 5065SOL    HW226658   2.460   2.788   3.615 -0.8138 -0.3598 -0.4940
 5066SOL     OW26659   4.592   3.562   4.414 -0.4340  0.3714  0.5058
 5066SOL    HW126660   4.597   3.643   4.364  0.1371 -1.0620 -1.7605
 5066SOL    HW226661   4.498   3.546   4.408 -0.9054  2.8980  1.2545
 5067SOL     OW26662   0.501   1.553   5.024  0.2718  0.6387 -0.0824
 5067SOL    HW126663   0.587   1.595   5.031  0.8357 -0.1654 -2.3207
 5067SOL    HW226664   0.452   1.616   4.973 -1.1888  0.3987  1.0257
 5068SOL     OW26665   3.693   4.352   4.414 -0.1117  0.2404 -0.7734
 5068SOL    HW126666   3.687   4.319   4.503  0.9673  3.3875  0.4517
 5068SOL    HW226667   3.613   4.323   4.370 -0.7546 -2.0906  1.9864
 5069SOL     OW26668   2.938   1.642  16.387 -0.5683  0.2214 -0.6630
 5069SOL    HW126669   2.898   1.668  16.470 -0.4737 -0.6277 -0.3429
 5069SOL    HW226670   2.860   1.610  16.341  0.1438 -0.0336 -1.7021
 5070SOL     OW26671   3.781   3.041   5.125 -0.1566  0.6166 -0.6101
 5070SOL    HW126672   3.874   3.062   5.120  0.0790 -0.6121 -1.4110
 5070SOL    HW226673   3.755   3.029   5.033 -1.6888 -0.0150 -0.1071
 5071SOL     OW26674   0.786   1.859   3.550 -1.1631 -0.4499 -0.5262
 5071SOL    HW126675   0.748   1.906   3.625 -0.5972 -3.4389  1.6637
 5071SOL    HW226676   0.867   1.909   3.550 -2.9140  2.3670 -0.3907
 5072SOL     OW26677   3.343   2.726   6.237 -0.6885 -0.3247 -0.2381
 5072SOL    HW126678   3.418   2.759   6.286 -1.2678  1.1694 -0.3563
 5072SOL    HW226679   3.272   2.754   6.295 -0.4213 -2.2213  1.0324
 5073SOL     OW26680   2.802   2.111  16.919 -0.1337 -0.1212 -0.1048
 5073SOL    HW126681   2.837   2.107  16.830  2.8058  0.5464  1.0328
 5073SOL    HW226682   2.733   2.176  16.906  0.8292  1.1735  1.2723
 5074SOL     OW26683   2.110   3.546   7.788 -0.5786 -0.7399  0.6005
 5074SOL    HW126684   2.135   3.639   7.797  0.4779 -1.0592  0.9861
 5074SOL    HW226685   2.043   3.547   7.720  0.1076 -0.2711 -0.0741
 5075SOL     OW26686   0.081   0.347   8.498 -0.0167 -0.3531  0.4438
 5075SOL    HW126687   0.162   0.325   8.452  0.0136  2.1594 -0.6598
 5075SOL    HW226688   0.064   0.268   8.550  0.6656 -0.3128  0.7292
 5076SOL     OW26689   3.250   3.066  10.734  0.3672 -0.0257 -0.2466
 5076SOL    HW126690   3.300   3.134  10.779 -1.6567  2.3229 -1.5597
 5076SOL    HW226691   3.216   3.012  10.805 -0.8482  2.6773  1.2197
 5077SOL     OW26692   0.126   3.710   5.012 -0.3393 -0.3318 -0.2101
 5077SOL    HW126693   0.099   3.783   5.068 -1.8357 -0.1098 -1.2206
 5077SOL    HW226694   0.164   3.650   5.076  0.9604 -0.1617 -0.8287
 5078SOL     OW26695   3.412   4.654  12.560 -0.5557 -0.0384  0.6775
 5078SOL    HW126696   3.426   0.012  12.513  0.3848  0.2989  1.5436
 5078SOL    HW226697   3.493   4.656  12.612 -0.2327  2.9118  0.0554
 5079SOL     OW26698   4.171   0.096   3.496  0.1190  0.6191 -0.0419
 5079SOL    HW126699   4.254   0.048   3.499 -0.4709 -0.3895 -0.0044
 5079SOL    HW226700   4.196   0.181   3.460 -1.0900 -0.9089 -4.4833
 5080SOL     OW26701   3.536   2.658   4.089  0.1101 -0.1850  0.4063
 5080SOL    HW126702   3.586   2.599   4.033  0.7048  0.8714 -0.1949
 5080SOL    HW226703   3.566   2.744   4.058  2.9237 -0.7589  1.5362
 5081SOL     OW26704   1.840   2.655   4.901 -0.0745  0.2568 -0.0839
 5081SOL    HW126705   1.797   2.705   4.831  1.6671  1.0869 -0.5797
 5081SOL    HW226706   1.852   2.732   4.958 -0.5213  1.5217 -1.6916
 5082SOL     OW26707   2.662   0.431   1.081  0.3365 -0.1659  0.1732
 5082SOL    HW126708   2.627   0.402   1.165  2.0389  0.7039  1.2070
 5082SOL    HW226709   2.748   0.460   1.114  0.8447 -1.4024 -0.0741
 5083SOL     OW26710   1.148   1.408   0.829  0.1334 -0.2749 -0.0390
 5083SOL    HW126711   1.195   1.329   0.855  0.3027 -0.6295 -1.3936
 5083SOL    HW226712   1.132   1.383   0.738  0.1573 -1.9726  0.4313
 5084SOL     OW26713   2.135   0.242   4.899  0.7555 -0.4239 -0.1999
 5084SOL    HW126714   2.188   0.189   4.840  0.0275 -2.5365  0.9980
 5084SOL    HW226715   2.051   0.240   4.853  1.0004 -0.0669 -0.6542
 5085SOL     OW26716   4.307   3.179   9.979 -0.2896  0.7768  0.3289
 5085SOL    HW126717   4.320   3.114  10.048 -2.0655  2.1695  1.9632
 5085SOL    HW226718   4.246   3.138   9.917 -0.9781  2.1110  0.1325
 5086SOL     OW26719   3.015   2.765   1.707  0.4351  0.0830 -0.0353
 5086SOL    HW126720   2.970   2.763   1.792  0.6265 -1.3777  0.0387
 5086SOL    HW226721   3.020   2.856   1.677  1.7008  0.1929  0.5165
 5087SOL     OW26722   3.047   0.575   1.488 -0.2889  0.2928  0.1342
 5087SOL    HW126723   2.963   0.578   1.533 -1.4607 -1.3643 -1.9181
 5087SOL    HW226724   3.104   0.607   1.559 -0.7646  0.5925  0.3805
 5088SOL     OW26725   1.267   2.851   6.199 -0.4051 -0.2877  0.3537
 5088SOL    HW126726   1.359   2.831   6.184 -0.4782  0.6950 -1.4424
 5088SOL    HW226727   1.235   2.761   6.207 -0.3657 -0.4136 -0.9272
 5089SOL     OW26728   1.197   1.993  11.543  0.2878 -0.5750 -0.0054
 5089SOL    HW126729   1.259   1.920  11.538  0.6207 -0.1970 -1.5188
 5089SOL    HW226730   1.140   1.964  11.614 -0.5607  0.0978 -0.4073
 5090SOL     OW26731   3.289   3.765   2.897 -0.5220  0.2327 -0.3071
 5090SOL    HW126732   3.366   3.715   2.870 -0.3880 -0.7212  1.7948
 5090SOL    HW226733   3.213   3.713   2.871 -2.5755  1.9782  2.2773
 5091SOL     OW26734   4.229   1.722  17.527 -0.3472 -0.1911 -0.1022
 5091SOL    HW126735   4.204   1.804  17.486  0.1334 -0.2868 -0.5918
 5091SOL    HW226736   4.324   1.729  17.535 -0.6285  0.9157  2.0655
 5092SOL     OW26737   4.202   1.929   8.083 -0.0101 -0.1579  0.3079
 5092SOL    HW126738   4.235   1.856   8.031 -1.2481 -0.8584  0.4869
 5092SOL    HW226739   4.122   1.947   8.033 -1.1129 -4.5285  0.4918
 5093SOL     OW26740   0.365   4.713   5.601  0.4457  0.1732 -0.1699
 5093SOL    HW126741   0.275   4.688   5.581  0.4821  0.1306 -0.2815
 5093SOL    HW226742   0.398   4.698   5.512 -1.4713 -0.1026 -0.8361
 5094SOL     OW26743   1.166   0.914   9.201  0.4225  0.1415  0.1694
 5094SOL    HW126744   1.170   0.941   9.293 -0.6596 -2.9639  1.1513
 5094SOL    HW226745   1.200   0.824   9.205 -0.2537 -0.0553  1.4369
 5095SOL     OW26746   3.747   1.596  17.388 -0.2688 -0.0636  0.1321
 5095SOL    HW126747   3.654   1.605  17.404  0.0733 -0.6434  2.3799
 5095SOL    HW226748   3.759   1.661  17.318 -1.0533  0.8373  0.8435
 5096SOL     OW26749   2.856   2.482   3.450 -0.5564  0.2632  0.9237
 5096SOL    HW126750   2.857   2.390   3.424 -2.3635  0.3521  0.4707
 5096SOL    HW226751   2.820   2.490   3.539 -0.8212  0.4606  0.7997
 5097SOL     OW26752   0.813   1.363   6.812 -0.2314 -0.8091  0.0514
 5097SOL    HW126753   0.781   1.326   6.895  0.3380  1.0495  1.1083
 5097SOL    HW226754   0.843   1.452   6.834  0.3769 -1.3415  1.4149
 5098SOL     OW26755   1.937   4.062   8.257 -0.3634  0.0625 -0.1120
 5098SOL    HW126756   1.872   3.997   8.232  0.8472 -0.0379 -3.0983
 5098SOL    HW226757   2.000   4.012   8.308  1.4320  1.5834 -0.8177
 5099SOL     OW26758   1.950   0.125   9.761 -0.1060 -0.0608  0.1894
 5099SOL    HW126759   1.883   0.073   9.717 -1.6763  1.6036  0.6480
 5099SOL    HW226760   1.926   0.209   9.722 -1.5382 -0.6335 -0.1640
 5100SOL     OW26761   1.201   0.297  13.636  0.2638 -0.6812 -0.0323
 5100SOL    HW126762   1.271   0.341  13.685 -1.2618  1.1595  0.4787
 5100SOL    HW226763   1.143   0.372  13.622  0.4880 -0.4850  0.0893
 5101SOL     OW26764   0.325   3.646   3.160 -0.2690  0.1510  0.3919
 5101SOL    HW126765   0.355   3.724   3.113  2.2275  0.1138  1.8740
 5101SOL    HW226766   0.409   3.631   3.203 -0.7108 -0.5459  1.0174
 5102SOL     OW26767   2.001   2.690   7.184 -0.2720  0.3787  0.1376
 5102SOL    HW126768   2.038   2.739   7.258 -0.2029  2.1040 -1.0512
 5102SOL    HW226769   2.064   2.717   7.118  0.0689 -0.4772  0.1241
 5103SOL     OW26770   2.032   0.998  13.204  0.7149 -0.2325  0.0977
 5103SOL    HW126771   1.984   1.066  13.251  0.9526  0.5023 -0.7265
 5103SOL    HW226772   2.112   0.997  13.256 -0.1426 -1.4597  1.3682
 5104SOL     OW26773   0.039   2.525   9.800 -0.1620  0.2440  0.1872
 5104SOL    HW126774   0.002   2.473   9.729 -0.8220  1.6708 -0.5184
 5104SOL    HW226775   0.011   2.466   9.870  1.5254 -0.2245  0.4712
 5105SOL     OW26776   3.496   3.498  12.347 -0.3993  0.5661  0.8803
 5105SOL    HW126777   3.450   3.414  12.338  2.1759 -0.7855  0.0697
 5105SOL    HW226778   3.519   3.517  12.256 -3.2664 -1.6376 -0.2892
 5106SOL     OW26779   2.457   1.623   5.240 -0.2890 -0.1950  0.1620
 5106SOL    HW126780   2.442   1.577   5.322  0.8142  2.9574  2.1495
 5106SOL    HW226781   2.551   1.605   5.233 -0.3608 -0.8947  0.9945
 5107SOL     OW26782   2.505   1.682   4.180  0.0174 -0.1217  0.4012
 5107SOL    HW126783   2.447   1.644   4.114  0.5273 -0.5813  0.2124
 5107SOL    HW226784   2.437   1.685   4.246 -1.1783  1.5472 -0.9114
 5108SOL     OW26785   3.827   3.405   7.520  0.2959  0.1522 -0.1912
 5108SOL    HW126786   3.918   3.432   7.515  0.2953 -0.1869 -2.0260
 5108SOL    HW226787   3.834   3.311   7.537 -4.1207 -0.0510  0.6001
 5109SOL     OW26788   1.716   1.261   9.335 -0.3696  0.2170 -0.4490
 5109SOL    HW126789   1.717   1.297   9.246  0.6259  0.1227 -0.4777
 5109SOL    HW226790   1.725   1.167   9.318 -1.4067  0.0434  0.0260
 5110SOL     OW26791   2.422   0.505   5.267 -0.6201 -0.2596 -0.1798
 5110SOL    HW126792   2.343   0.506   5.214 -1.7320 -1.8118  1.4628
 5110SOL    HW226793   2.389   0.444   5.333  1.9595 -1.0109  0.4236
 5111SOL     OW26794   1.732   0.067   8.812  0.2061 -0.3176  0.0021
 5111SOL    HW126795   1.817   0.109   8.827  1.4998 -3.2192  0.9222
 5111SOL    HW226796   1.746   0.040   8.721 -0.8262  0.5245 -0.3975
 5112SOL     OW26797   2.083   1.705   2.075  0.1184 -0.2933  0.0518
 5112SOL    HW126798   2.037   1.645   2.016  0.5194  0.6446 -1.1973
 5112SOL    HW226799   2.063   1.653   2.153 -1.4368  0.3414  0.0819
 5113SOL     OW26800   0.858   4.471   1.961  0.0422  0.4173 -0.1207
 5113SOL    HW126801   0.786   4.428   1.915 -0.5786  0.8451  0.4459
 5113SOL    HW226802   0.884   4.533   1.893 -0.7769  1.0329  0.1377
 5114SOL     OW26803   3.176   4.118  15.129 -0.6875 -0.1581  0.0977
 5114SOL    HW126804   3.146   4.198  15.172  0.2918  0.1471  0.1965
 5114SOL    HW226805   3.129   4.046  15.172 -0.6102 -0.0090  0.4279
 5115SOL     OW26806   1.238   0.035   8.317 -0.4121  0.6236 -0.6581
 5115SOL    HW126807   1.171   4.701   8.281  0.1563 -0.3032 -0.2146
 5115SOL    HW226808   1.229   0.019   8.411  1.3504 -1.1057 -0.7686
 5116SOL     OW26809   1.125   1.782  16.021 -0.2979  0.0742  0.2396
 5116SOL    HW126810   1.032   1.793  16.006 -0.2781 -0.1222 -0.0230
 5116SOL    HW226811   1.132   1.813  16.111 -0.9448 -0.5841  0.5123
 5117SOL     OW26812   1.865   3.416   2.225  0.3876 -0.2272  0.2468
 5117SOL    HW126813   1.904   3.490   2.271  2.2373  0.1297 -1.9038
 5117SOL    HW226814   1.841   3.359   2.298 -1.7486 -2.4476 -2.1817
 5118SOL     OW26815   3.207   1.899   2.041 -0.2194  0.5174 -0.2142
 5118SOL    HW126816   3.141   1.860   2.098  0.7318  2.4278  2.1897
 5118SOL    HW226817   3.189   1.874   1.950  1.7244 -2.7507  0.2864
 5119SOL     OW26818   1.465   0.817   3.701 -0.0059  0.5121  0.0317
 5119SOL    HW126819   1.475   0.775   3.615  1.4025  0.2770  0.3082
 5119SOL    HW226820   1.399   0.873   3.660 -0.4517  0.0166  0.0713
 5120SOL     OW26821   1.666   0.368   6.338 -0.3647 -0.3431 -0.0145
 5120SOL    HW126822   1.579   0.402   6.316  0.4095  0.8222 -1.2623
 5120SOL    HW226823   1.721   0.404   6.268 -0.5971 -1.9548 -1.0413
 5121SOL     OW26824   2.099   0.434   9.028  0.0673  0.3841  0.6231
 5121SOL    HW126825   2.120   0.357   8.975 -1.2521  0.7727 -0.4698
 5121SOL    HW226826   2.163   0.427   9.100  0.5237  0.2492  0.2040
 5122SOL     OW26827   3.724   2.738  11.158 -0.0662 -0.0619 -0.0612
 5122SOL    HW126828   3.637   2.703  11.138 -0.6150  1.8509 -1.0493
 5122SOL    HW226829   3.713   2.778  11.245 -1.6857 -0.2044 -0.1936
 5123SOL     OW26830   1.996   1.339  12.874 -0.2243  0.1664  0.0187
 5123SOL    HW126831   2.046   1.268  12.833 -1.9897 -0.3640 -1.1859
 5123SOL    HW226832   2.041   1.418  12.843  1.5395 -1.0516 -0.5623
 5124SOL     OW26833   4.070   0.886   2.039 -0.2685 -0.2058 -0.3309
 5124SOL    HW126834   4.010   0.920   1.972 -0.1212 -1.3629 -1.0445
 5124SOL    HW226835   4.147   0.917   1.992  0.1849 -1.4063 -0.3830
 5125SOL     OW26836   3.596   3.813  10.481  0.3022  0.5847  0.0850
 5125SOL    HW126837   3.508   3.817  10.444  1.1184 -0.0527 -1.8987
 5125SOL    HW226838   3.648   3.851  10.410 -0.9917 -1.3634 -1.9081
 5126SOL     OW26839   4.704   4.284   2.941  0.9872 -0.5231 -0.0250
 5126SOL    HW126840   4.636   4.268   3.006  1.1279  0.5669  0.4045
 5126SOL    HW226841   4.710   4.200   2.896  2.4140 -1.7824  2.5284
 5127SOL     OW26842   3.843   4.320   5.436 -0.7274  0.0937  0.4730
 5127SOL    HW126843   3.853   4.411   5.464 -0.1496 -0.0349  0.7006
 5127SOL    HW226844   3.830   4.283   5.523 -1.5051 -1.2194 -0.2008
 5128SOL     OW26845   2.503   0.160   8.753  0.5697 -0.1766 -0.0556
 5128SOL    HW126846   2.587   0.117   8.769  1.0228  1.0136  0.6889
 5128SOL    HW226847   2.497   0.159   8.657 -0.7533  0.0407  0.0212
 5129SOL     OW26848   4.202   1.036   8.785 -0.3825  0.5439  0.2618
 5129SOL    HW126849   4.275   1.068   8.733  1.4431 -1.5493  1.5641
 5129SOL    HW226850   4.163   0.976   8.722  2.4219 -0.1365 -0.8371
 5130SOL     OW26851   1.586   4.522  10.744 -0.4482 -0.2694 -0.3551
 5130SOL    HW126852   1.612   4.490  10.658  0.3786  1.7591 -0.8612
 5130SOL    HW226853   1.491   4.520  10.741 -0.3452 -0.7362 -3.2989
 5131SOL     OW26854   3.419   4.218   7.418  0.0054 -0.2700  0.0812
 5131SOL    HW126855   3.381   4.298   7.455  1.3957  1.2034 -1.6562
 5131SOL    HW226856   3.387   4.153   7.480 -1.4738  0.5864  0.2381
 5132SOL     OW26857   2.824   3.501   3.315 -0.1819  0.2518  0.5506
 5132SOL    HW126858   2.812   3.507   3.220  2.0159 -0.8879  0.2268
 5132SOL    HW226859   2.905   3.450   3.317 -1.9314 -2.5624 -0.2698
 5133SOL     OW26860   1.834   2.405   7.992 -0.6669 -0.7448  0.1150
 5133SOL    HW126861   1.803   2.437   7.908  0.4038  2.1625  0.8015
 5133SOL    HW226862   1.803   2.315   7.991  0.1514 -1.0307  0.1230
 5134SOL     OW26863   0.494   3.212   9.179 -0.4820 -0.0565  0.0637
 5134SOL    HW126864   0.575   3.238   9.134  0.0817 -0.5981  0.7866
 5134SOL    HW226865   0.444   3.294   9.188  0.0196  0.2038  0.4903
 5135SOL     OW26866   2.379   2.405   2.892  0.5742  0.5565 -0.5372
 5135SOL    HW126867   2.352   2.329   2.945  0.3847  1.3856  0.5620
 5135SOL    HW226868   2.417   2.369   2.812 -1.0061  1.1005 -1.5269
 5136SOL     OW26869   3.887   3.794   8.767 -0.3117 -0.6885 -0.4567
 5136SOL    HW126870   3.842   3.799   8.851  1.5935 -1.6530  0.6121
 5136SOL    HW226871   3.944   3.719   8.782 -0.3211 -0.6106 -0.0310
 5137SOL     OW26872   2.570   1.878   4.417 -0.5576 -0.5447  0.1327
 5137SOL    HW126873   2.644   1.848   4.470  1.6321 -0.0697 -2.6648
 5137SOL    HW226874   2.493   1.881   4.473 -0.5859  1.0794  0.0113
 5138SOL     OW26875   3.314   3.761   3.186  0.3103  0.5057  0.5878
 5138SOL    HW126876   3.348   3.709   3.113 -1.1610  0.3256  0.0356
 5138SOL    HW226877   3.366   3.841   3.177 -0.4232  1.2473  2.6852
 5139SOL     OW26878   3.276   2.859   7.761 -0.4235 -0.6137 -0.0137
 5139SOL    HW126879   3.236   2.800   7.696 -0.7274  0.1524 -0.5147
 5139SOL    HW226880   3.284   2.792   7.830  1.2705 -1.1100 -0.6863
 5140SOL     OW26881   1.633   1.350   3.188 -0.0789  0.0464  0.2874
 5140SOL    HW126882   1.629   1.294   3.111  0.7889 -0.7755  0.8457
 5140SOL    HW226883   1.554   1.404   3.182 -1.0642 -1.5237 -0.9477
 5141SOL     OW26884   4.485   1.742   3.588  0.1931 -0.2060  0.3934
 5141SOL    HW126885   4.392   1.731   3.609  0.1938 -0.7673  0.0832
 5141SOL    HW226886   4.521   1.705   3.668  0.6891 -1.9848 -0.6646
 5142SOL     OW26887   1.975   1.856   6.812  0.4099  0.3658  0.2739
 5142SOL    HW126888   1.903   1.879   6.754  1.9298  1.1308 -1.3309
 5142SOL    HW226889   1.934   1.868   6.897  0.8657  0.3532  0.4937
 5143SOL     OW26890   1.595   3.202   6.746 -0.0014  0.8205 -0.2895
 5143SOL    HW126891   1.659   3.131   6.755 -0.0930  0.7769 -0.0002
 5143SOL    HW226892   1.547   3.168   6.670 -0.8132 -0.3606  0.7539
 5144SOL     OW26893   3.544   2.218   6.299  0.0428 -0.0538 -0.0610
 5144SOL    HW126894   3.544   2.313   6.292  2.2675 -0.0992 -0.8357
 5144SOL    HW226895   3.497   2.204   6.381  1.9767 -0.2874  1.0123
 5145SOL     OW26896   0.220   0.555  17.266  0.5689  0.2217 -0.2201
 5145SOL    HW126897   0.196   0.566  17.357 -0.2249 -1.3666 -0.2493
 5145SOL    HW226898   0.314   0.572  17.276  0.6902  0.4983 -1.7158
 5146SOL     OW26899   3.298   4.514   3.832  0.4258  0.4535 -0.3199
 5146SOL    HW126900   3.214   4.561   3.828 -0.1455 -0.5447 -0.1586
 5146SOL    HW226901   3.351   4.584   3.871  1.9747 -0.5714 -0.6078
 5147SOL     OW26902   3.701   0.176   1.214  0.2053 -0.3001 -0.2720
 5147SOL    HW126903   3.610   0.177   1.244  0.2863 -0.0195 -0.0396
 5147SOL    HW226904   3.698   0.264   1.177  0.3827 -0.5417 -0.8653
 5148SOL     OW26905   0.835   3.216   6.251  0.6483  0.5648 -0.1871
 5148SOL    HW126906   0.899   3.173   6.307  0.0533 -2.2103 -1.6438
 5148SOL    HW226907   0.850   3.308   6.274  0.3613 -0.4128  3.8637
 5149SOL     OW26908   0.827   3.702   1.837  0.4411 -0.3944 -0.7875
 5149SOL    HW126909   0.830   3.606   1.830 -1.5428 -0.5151 -0.0037
 5149SOL    HW226910   0.864   3.713   1.925  0.1615  0.5314 -0.7927
 5150SOL     OW26911   3.132   1.799   7.539 -0.1374 -0.3865 -0.5477
 5150SOL    HW126912   3.084   1.717   7.541  1.0836 -1.0653  0.3978
 5150SOL    HW226913   3.084   1.854   7.601  1.4581  2.5288 -1.8786
 5151SOL     OW26914   4.500   4.031   2.085  0.7831 -0.1825  1.0033
 5151SOL    HW126915   4.573   3.974   2.110 -0.4453 -0.9185  2.8610
 5151SOL    HW226916   4.469   3.994   2.002 -1.7465  1.3728  1.2459
 5152SOL     OW26917   4.192   3.186   0.140  0.3153  0.3457  0.4306
 5152SOL    HW126918   4.107   3.159   0.103  0.7884  0.9591 -1.1108
 5152SOL    HW226919   4.237   3.205   0.057  0.0521  1.1188  0.4723
 5153SOL     OW26920   3.211   1.302   8.261 -0.4984  0.2291  0.1666
 5153SOL    HW126921   3.236   1.264   8.346 -1.4812 -0.3679  0.2006
 5153SOL    HW226922   3.297   1.320   8.224 -0.3686 -1.6116 -0.4437
 5154SOL     OW26923   0.732   3.849   6.290 -0.2221  0.4948  0.0383
 5154SOL    HW126924   0.637   3.846   6.283 -0.2356 -0.6304  0.8688
 5154SOL    HW226925   0.745   3.943   6.301  2.0418  0.0822  1.0136
 5155SOL     OW26926   4.398   3.659   3.068  0.4693  0.3486  0.0821
 5155SOL    HW126927   4.355   3.574   3.058  4.0012 -1.3120 -0.7644
 5155SOL    HW226928   4.398   3.643   3.163 -0.1463  1.9723  0.3610
 5156SOL     OW26929   1.046   4.246   5.639  0.2369  0.0625 -1.0973
 5156SOL    HW126930   1.101   4.170   5.617 -0.6788 -0.4623 -1.5769
 5156SOL    HW226931   1.005   4.269   5.556  2.0725  1.0869 -1.7210
 5157SOL     OW26932   0.355   4.414   2.222  0.1725  0.6900 -0.3308
 5157SOL    HW126933   0.430   4.450   2.174  0.6139  3.2903  2.3079
 5157SOL    HW226934   0.291   4.467   2.176 -3.0534 -0.0205  3.3608
 5158SOL     OW26935   0.455   0.492   4.241  0.0965  0.3638  0.4238
 5158SOL    HW126936   0.440   0.585   4.225 -2.6283  0.4178  3.3365
 5158SOL    HW226937   0.370   0.474   4.281  0.8598 -2.8658  0.5942
 5159SOL     OW26938   2.084   1.497   7.216 -0.0876  0.1106 -0.5892
 5159SOL    HW126939   2.027   1.424   7.192  0.3813  0.5250 -2.9450
 5159SOL    HW226940   2.087   1.545   7.134  2.6244  2.1932  0.7166
 5160SOL     OW26941   0.145   2.404  13.223 -0.4863  0.0361  0.5776
 5160SOL    HW126942   0.061   2.439  13.195 -0.9404 -1.4340  0.1301
 5160SOL    HW226943   0.169   2.459  13.298  2.2634 -0.5360  0.1167
 5161SOL     OW26944   0.068   3.873   7.786 -0.1159  0.0456 -0.5656
 5161SOL    HW126945   4.724   3.809   7.767  0.1726 -0.6149  0.6067
 5161SOL    HW226946   0.025   3.958   7.788  1.6638  0.9497 -0.3901
 5162SOL     OW26947   0.323   1.527   5.228  0.0289 -0.0660 -0.0142
 5162SOL    HW126948   0.252   1.526   5.165  1.4963  0.5203 -1.6869
 5162SOL    HW226949   0.401   1.527   5.171 -0.5115 -0.1803 -0.7544
 5163SOL     OW26950   4.447   2.260   6.874 -0.3490 -0.2038 -0.1888
 5163SOL    HW126951   4.441   2.169   6.901 -1.6316 -0.5612 -1.6308
 5163SOL    HW226952   4.444   2.254   6.778  1.9994  1.8572 -0.3998
 5164SOL     OW26953   0.261   1.187  15.080  0.5473 -0.2916 -0.4862
 5164SOL    HW126954   0.233   1.263  15.029 -1.0418 -0.6215 -0.0824
 5164SOL    HW226955   0.185   1.130  15.086 -1.0214  1.8791  0.0803
 5165SOL     OW26956   0.191   4.344  15.013  0.4556  0.2648  0.2771
 5165SOL    HW126957   0.138   4.265  15.001  0.3011  0.1078  1.9872
 5165SOL    HW226958   0.280   4.309  15.017  0.8040  1.3602  2.0043
 5166SOL     OW26959   3.164   3.405  14.128  0.3597  0.8130  0.4468
 5166SOL    HW126960   3.169   3.488  14.080  0.1283 -0.4494 -1.7670
 5166SOL    HW226961   3.208   3.437  14.207  1.6790 -2.3154  0.9462
 5167SOL     OW26962   2.819   4.637   3.355  0.3534 -0.0811  0.3853
 5167SOL    HW126963   2.724   4.640   3.348  0.4454  2.3990  0.1075
 5167SOL    HW226964   2.839   4.605   3.443  2.7153  0.6689  0.1387
 5168SOL     OW26965   0.317   1.679   2.412 -0.0080  0.6806  0.1246
 5168SOL    HW126966   0.233   1.641   2.386  0.7939 -1.1489  0.1964
 5168SOL    HW226967   0.370   1.600   2.420  1.4230  1.5928 -0.3000
 5169SOL     OW26968   3.553   1.851  15.219  0.3099 -0.1243 -0.3276
 5169SOL    HW126969   3.516   1.784  15.161  0.2874 -0.6321  0.2744
 5169SOL    HW226970   3.600   1.908  15.158  1.9268 -2.8097 -1.5955
 5170SOL     OW26971   0.840   2.841   0.962  0.1913 -0.1288  0.6910
 5170SOL    HW126972   0.844   2.838   1.057  0.1759 -0.1359  0.6914
 5170SOL    HW226973   0.931   2.831   0.935  0.9029  0.4297  2.8972
 5171SOL     OW26974   2.141   0.082   2.647 -0.4794 -0.0472  0.0105
 5171SOL    HW126975   2.212   0.078   2.711  0.1701  1.2222 -0.6419
 5171SOL    HW226976   2.100   0.165   2.672 -0.6813 -0.5544  1.3659
 5172SOL     OW26977   2.161   2.427   1.102  0.5209  0.0841  0.0794
 5172SOL    HW126978   2.110   2.508   1.104  0.2189 -0.1451  2.2745
 5172SOL    HW226979   2.099   2.354   1.095  0.3715  0.2964 -0.8288
 5173SOL     OW26980   4.047   2.092   2.155  0.0580  0.3093 -0.0177
 5173SOL    HW126981   4.045   2.033   2.230  1.6092  1.2993  0.7941
 5173SOL    HW226982   4.139   2.118   2.147 -0.3013  1.9458  1.0430
 5174SOL     OW26983   1.669   0.722   3.363  0.2603 -0.0718 -0.4686
 5174SOL    HW126984   1.604   0.792   3.362  0.1038 -0.2279 -1.1437
 5174SOL    HW226985   1.751   0.772   3.361  0.6258 -0.6993 -1.4748
 5175SOL     OW26986   0.894   2.600   7.149  0.1526 -0.1317  0.2073
 5175SOL    HW126987   0.856   2.673   7.099 -1.7448  0.4703  2.5192
 5175SOL    HW226988   0.987   2.621   7.152  0.4220 -1.6370  2.5241
 5176SOL     OW26989   1.871   3.573   9.364 -0.1549  0.1160 -0.4089
 5176SOL    HW126990   1.959   3.608   9.378 -0.4682  1.0565 -0.8369
 5176SOL    HW226991   1.883   3.504   9.298  2.7697  0.2573 -0.0358
 5177SOL     OW26992   2.137   1.516   0.043  0.4550  0.0793  0.0756
 5177SOL    HW126993   2.121   1.525  17.647 -0.5328 -2.9209 -0.0615
 5177SOL    HW226994   2.056   1.538   0.089  0.5489  1.4129 -0.3865
 5178SOL     OW26995   3.675   2.417   1.031 -0.7189  0.0236 -0.0596
 5178SOL    HW126996   3.766   2.429   1.005 -0.7892  0.9742  0.1586
 5178SOL    HW226997   3.667   2.491   1.091 -0.8960  0.1494 -0.2379
 5179SOL     OW26998   3.938   1.256   1.243 -0.3926 -0.2646 -0.2685
 5179SOL    HW126999   3.953   1.247   1.149  1.1020  0.8101 -0.1425
 5179SOL    HW227000   4.020   1.300   1.267 -0.0581  0.2576 -2.3566
 5180SOL     OW27001   2.921   2.690  12.235 -0.1306 -0.4509 -0.4399
 5180SOL    HW127002   3.002   2.641  12.247  0.0995  0.7033  2.7205
 5180SOL    HW227003   2.865   2.656  12.304 -0.8657 -0.2285 -0.9239
 5181SOL     OW27004   0.072   2.654  11.599  0.0297 -0.1506  0.8660
 5181SOL    HW127005   0.151   2.672  11.651  0.9665 -0.5683 -0.4171
 5181SOL    HW227006   0.000   2.702  11.640 -1.9173 -2.6962  0.4550
 5182SOL     OW27007   0.458   1.025   8.096  0.8345  0.4504 -0.2692
 5182SOL    HW127008   0.391   1.009   8.030  0.8271  0.6726 -0.3158
 5182SOL    HW227009   0.445   1.118   8.113  1.9866  0.6598 -0.5061
 5183SOL     OW27010   2.695   0.093   4.154 -0.1463 -0.1578 -0.2612
 5183SOL    HW127011   2.705   0.001   4.178  2.1824 -0.1068 -1.1205
 5183SOL    HW227012   2.637   0.080   4.079 -2.2018  1.2319  1.0674
 5184SOL     OW27013   2.296   4.215  10.132 -0.4123  0.2136  0.2214
 5184SOL    HW127014   2.222   4.154  10.125 -0.8252  0.8001 -0.5869
 5184SOL    HW227015   2.362   4.172  10.078 -1.7494 -3.8171  1.8211
 5185SOL     OW27016   2.174   3.226   5.502 -0.5181 -0.2228  0.2189
 5185SOL    HW127017   2.140   3.243   5.590  0.0184  0.1637  0.3530
 5185SOL    HW227018   2.203   3.136   5.515  0.4983  0.1886  0.7882
 5186SOL     OW27019   1.254   3.406   8.444 -0.2052 -0.0434 -0.5537
 5186SOL    HW127020   1.340   3.430   8.409  0.3015 -1.7417 -0.4511
 5186SOL    HW227021   1.192   3.469   8.406 -0.2110  0.5132  0.3819
 5187SOL     OW27022   2.991   2.839   0.003  0.5074  0.1797  0.7659
 5187SOL    HW127023   2.986   2.749   0.038 -1.6397 -0.4163 -1.0821
 5187SOL    HW227024   2.920   2.826  17.639  1.9066 -0.5677 -0.6606
 5188SOL     OW27025   0.911   0.599   6.671 -0.3059 -0.3386  0.2493
 5188SOL    HW127026   0.956   0.514   6.664  0.7997  0.4006 -1.4456
 5188SOL    HW227027   0.884   0.598   6.763 -0.8625 -0.6157  0.0840
 5189SOL     OW27028   1.549   0.539   7.709 -0.1477  0.2506 -0.0527
 5189SOL    HW127029   1.585   0.452   7.692  0.9619  1.0961 -2.0776
 5189SOL    HW227030   1.594   0.558   7.792 -1.4601  0.5593  0.5808
 5190SOL     OW27031   4.301   0.107   8.001 -0.6788 -0.2689  0.2778
 5190SOL    HW127032   4.374   0.089   8.060  0.9901  2.3529 -0.9340
 5190SOL    HW227033   4.290   0.017   7.971 -0.9917 -0.4846  1.0476
 5191SOL     OW27034   0.009   2.058   6.383 -0.3296  0.1386  0.6462
 5191SOL    HW127035   0.061   1.995   6.433  0.8084 -0.1760 -0.9236
 5191SOL    HW227036   4.646   2.034   6.413 -0.7908  2.6727  1.4009
 5192SOL     OW27037   3.352   1.397  12.295  0.2998 -0.1655 -0.4412
 5192SOL    HW127038   3.382   1.438  12.376  1.2072 -1.3556 -0.1867
 5192SOL    HW227039   3.413   1.325  12.283  2.7041  1.5536  1.6528
 5193SOL     OW27040   3.408   3.974   6.598 -0.1765  0.1929 -0.1914
 5193SOL    HW127041   3.391   3.880   6.607 -2.4367  0.7709  1.7726
 5193SOL    HW227042   3.365   3.999   6.680  0.6393 -0.6227  0.4815
 5194SOL     OW27043   0.042   2.885  15.632  0.3720 -0.1246 -0.0811
 5194SOL    HW127044   4.709   2.880  15.555 -2.8097  0.2140  2.2429
 5194SOL    HW227045   0.054   2.979  15.644 -1.3137  0.2803 -1.5759
 5195SOL     OW27046   3.590   1.035   1.625 -0.4217 -0.4715 -0.1736
 5195SOL    HW127047   3.608   1.057   1.534  1.5551 -1.1496  0.0642
 5195SOL    HW227048   3.593   0.940   1.628 -0.1011 -0.4399  0.6742
 5196SOL     OW27049   0.933   1.581   8.642  0.5940  0.0364 -0.0744
 5196SOL    HW127050   1.008   1.607   8.588 -0.0087  1.5929 -0.1539
 5196SOL    HW227051   0.874   1.655   8.635 -1.2788 -1.4154  0.2978
 5197SOL     OW27052   0.121   3.479   3.210 -0.4630 -0.2432  0.3496
 5197SOL    HW127053   0.175   3.404   3.184 -0.4384  0.9286 -2.9260
 5197SOL    HW227054   0.184   3.545   3.181  0.4208 -2.1911 -2.1240
 5198SOL     OW27055   1.612   3.091  16.228 -0.0830  0.5178 -0.7271
 5198SOL    HW127056   1.634   3.183  16.211 -2.0900  0.8958 -1.2875
 5198SOL    HW227057   1.629   3.047  16.145  0.5439  1.5047 -1.1281
 5199SOL     OW27058   3.468   4.565   2.996 -0.3182 -0.6379 -0.2457
 5199SOL    HW127059   3.465   4.615   3.078  2.0779 -3.6954  1.7343
 5199SOL    HW227060   3.438   4.479   3.027  0.7928 -0.9537 -0.0506
 5200SOL     OW27061   2.965   4.560  12.048  0.0627  0.4637  0.7300
 5200SOL    HW127062   3.052   4.541  12.014 -0.6648  1.5904 -1.7368
 5200SOL    HW227063   2.929   4.625  11.987  0.3621 -2.3423 -2.4383
 5201SOL     OW27064   3.196   2.453   5.078 -0.2816 -0.4363  0.3337
 5201SOL    HW127065   3.290   2.436   5.086 -0.0259  1.1648  0.6324
 5201SOL    HW227066   3.198   2.461   4.982 -0.6571  1.2969  0.4748
 5202SOL     OW27067   2.294   2.402   2.500  0.1372 -0.3657  0.9654
 5202SOL    HW127068   2.346   2.435   2.427 -0.1822  0.0133  0.9103
 5202SOL    HW227069   2.368   2.363   2.548  1.0943  1.0148  0.6339
 5203SOL     OW27070   0.768   4.283   9.235  0.0170 -0.5394 -0.0712
 5203SOL    HW127071   0.793   4.327   9.317  0.1038  1.3648 -1.1192
 5203SOL    HW227072   0.679   4.254   9.252  0.0932  0.0182  1.2812
 5204SOL     OW27073   4.220   3.126   8.109  0.0181  0.1439  0.5623
 5204SOL    HW127074   4.262   3.041   8.122  0.1432  0.3740  1.7343
 5204SOL    HW227075   4.242   3.134   8.016 -1.7964 -0.5978  0.0824
 5205SOL     OW27076   3.118   2.521   6.042 -0.0115 -0.1294  0.1480
 5205SOL    HW127077   3.172   2.591   6.007 -0.6202  0.4438  0.3546
 5205SOL    HW227078   3.183   2.451   6.050 -1.6532 -1.6464  0.2045
 5206SOL     OW27079   3.111   3.241   4.207  0.3726 -0.5667 -0.4549
 5206SOL    HW127080   3.132   3.308   4.142 -1.6720  0.3466 -0.1711
 5206SOL    HW227081   3.154   3.161   4.176 -1.1019 -1.9028  0.9446
 5207SOL     OW27082   1.208   2.026   2.269 -0.4401  0.0415  0.0084
 5207SOL    HW127083   1.114   2.046   2.267 -0.3191  0.2502 -4.4407
 5207SOL    HW227084   1.208   1.934   2.244  0.2049  0.4470 -1.4681
 5208SOL     OW27085   0.555   4.608   2.495 -0.1204 -0.7703 -0.0041
 5208SOL    HW127086   0.579   4.608   2.587 -0.4078  0.4819  0.0709
 5208SOL    HW227087   0.467   4.573   2.504 -0.0207 -0.2258  2.8769
 5209SOL     OW27088   0.522   0.802  15.112  0.2958 -0.2142 -0.3353
 5209SOL    HW127089   0.590   0.752  15.067  0.0554 -0.3111 -0.5876
 5209SOL    HW227090   0.494   0.850  15.033 -1.3135  0.4581  0.6482
 5210SOL     OW27091   2.249   4.590   9.522 -0.1677  0.3858 -0.3338
 5210SOL    HW127092   2.232   4.567   9.614  0.0633 -0.2771 -0.4609
 5210SOL    HW227093   2.341   4.565   9.524 -0.4444 -0.5390  1.0470
 5211SOL     OW27094   4.079   0.221   4.599  0.1891  0.2906  0.1772
 5211SOL    HW127095   4.027   0.220   4.519 -1.7150 -0.9896  1.4234
 5211SOL    HW227096   4.138   0.148   4.579  0.3981  0.2946  0.7543
 5212SOL     OW27097   3.192   1.332   4.694  0.1235  0.1721 -0.0141
 5212SOL    HW127098   3.222   1.255   4.741  0.0244  0.6183  0.7897
 5212SOL    HW227099   3.150   1.392   4.756 -1.3162 -2.0446  1.1361
 5213SOL     OW27100   1.340   4.693   4.591  0.5596  0.9272 -0.1792
 5213SOL    HW127101   1.276   4.623   4.605  0.5599  0.8820 -0.4112
 5213SOL    HW227102   1.413   4.633   4.582  0.0232  0.2906 -0.3081
 5214SOL     OW27103   4.695   1.082   9.013  0.5415 -0.1077  0.2493
 5214SOL    HW127104   4.669   1.159   9.063 -1.7338 -0.0853 -0.9947
 5214SOL    HW227105   0.057   1.069   9.054  0.3152  0.3739  0.8740
 5215SOL     OW27106   4.434   4.295   9.041  0.2081  0.0773  0.3117
 5215SOL    HW127107   4.509   4.339   9.002  0.8023 -0.6385  0.6430
 5215SOL    HW227108   4.478   4.247   9.112 -1.3159 -0.3889  0.9413
 5216SOL     OW27109   3.803   3.164   4.293  0.1242  0.2268 -0.8181
 5216SOL    HW127110   3.811   3.183   4.199 -0.6920 -0.6074 -1.0605
 5216SOL    HW227111   3.832   3.248   4.328  2.4721 -0.4347 -1.2202
 5217SOL     OW27112   3.140   1.966   0.010 -0.6209 -0.1558  0.1685
 5217SOL    HW127113   3.132   1.896   0.074 -2.4245  0.5354  0.6985
 5217SOL    HW227114   3.128   2.047   0.061  0.0980 -1.0854  1.8109
 5218SOL     OW27115   2.932   1.468   1.751  0.2007  0.4101  0.0271
 5218SOL    HW127116   2.989   1.392   1.740 -0.8914 -0.6290  1.5505
 5218SOL    HW227117   2.952   1.503   1.838 -0.7171  2.3234 -0.5514
 5219SOL     OW27118   0.328   0.385   5.712 -0.5264  0.9380  0.2818
 5219SOL    HW127119   0.265   0.346   5.650  0.0537  0.7715 -0.2023
 5219SOL    HW227120   0.316   0.343   5.797  0.0476 -0.9145 -0.5622
 5220SOL     OW27121   0.245   2.215   8.782  0.0480  0.2392 -0.2885
 5220SOL    HW127122   0.276   2.303   8.759  4.4692 -0.9134  1.3637
 5220SOL    HW227123   0.329   2.173   8.799 -0.4894 -0.5764  0.3614
 5221SOL     OW27124   2.321   4.272  14.710  0.0502  0.0055 -0.4067
 5221SOL    HW127125   2.347   4.332  14.641 -0.1312 -2.4747 -2.6140
 5221SOL    HW227126   2.311   4.331  14.785 -0.6379 -0.6703  0.0447
 5222SOL     OW27127   3.027   2.115  10.451 -0.1250  0.1037  0.1102
 5222SOL    HW127128   3.034   2.207  10.428  2.0277  1.0182  4.3587
 5222SOL    HW227129   3.023   2.068  10.368 -1.1606  2.1119 -0.9634
 5223SOL     OW27130   2.492   2.951   2.959  0.3031 -0.1061  0.4633
 5223SOL    HW127131   2.453   2.863   2.957  1.9624 -0.7828 -1.7556
 5223SOL    HW227132   2.425   3.008   2.922  0.2172 -0.8898 -0.5856
 5224SOL     OW27133   3.576   0.208   0.259  0.1715 -0.2907  0.3288
 5224SOL    HW127134   3.517   0.279   0.284 -0.1899  0.3139 -2.2358
 5224SOL    HW227135   3.540   0.167   0.180 -2.1798 -0.3261  1.4114
 5225SOL     OW27136   0.168   0.084  13.516  0.3349  0.0877  0.2463
 5225SOL    HW127137   0.106   0.098  13.588 -0.7079 -1.5638 -0.3276
 5225SOL    HW227138   0.161   0.170  13.475  0.2214  0.3798  0.8835
 5226SOL     OW27139   3.455   1.826   0.556  0.0364 -0.3794 -0.2077
 5226SOL    HW127140   3.543   1.843   0.591  1.0815 -2.4851 -1.7923
 5226SOL    HW227141   3.413   1.901   0.598  1.0159  0.2088 -0.2769
 5227SOL     OW27142   3.472   4.460   9.413  0.6758  0.5349  0.1227
 5227SOL    HW127143   3.414   4.413   9.472 -0.1341  0.5232 -0.6842
 5227SOL    HW227144   3.553   4.458   9.464  1.3682  0.7517 -0.9674
 5228SOL     OW27145   0.693   2.996  17.678 -0.2634 -0.0770 -0.2792
 5228SOL    HW127146   0.677   3.050  17.600  1.4042  2.7803  1.3264
 5228SOL    HW227147   0.656   3.046   0.052  1.1601 -1.3695  1.3306
 5229SOL     OW27148   1.759   1.088   0.299  0.1620 -0.2078 -0.4390
 5229SOL    HW127149   1.755   1.142   0.378 -3.3547 -1.5668  0.2822
 5229SOL    HW227150   1.790   1.012   0.350  0.6071 -0.9798 -1.8630
 5230SOL     OW27151   2.499   0.482   1.952 -0.2761  0.9590 -0.3354
 5230SOL    HW127152   2.540   0.408   1.908 -2.1731 -0.0908 -0.3290
 5230SOL    HW227153   2.454   0.524   1.879  1.2917  0.1836 -1.7444
 5231SOL     OW27154   0.210   3.861   1.382 -0.5338  0.2606 -0.2055
 5231SOL    HW127155   0.190   3.933   1.322 -1.1510 -0.4538 -0.8525
 5231SOL    HW227156   0.259   3.911   1.447 -0.7588 -2.9048  2.4089
 5232SOL     OW27157   2.842   1.652   2.105 -0.3393 -0.0413 -0.4244
 5232SOL    HW127158   2.847   1.746   2.117 -2.0093  0.2270 -1.8572
 5232SOL    HW227159   2.928   1.635   2.067  0.5682 -1.2673  2.1919
 5233SOL     OW27160   2.566   1.539   0.056 -0.1678 -0.2446 -0.4941
 5233SOL    HW127161   2.639   1.540   0.118 -2.7174  1.8570  2.5035
 5233SOL    HW227162   2.495   1.499   0.106 -0.2851 -1.6418 -1.7792
 5234SOL     OW27163   0.325   2.986   0.408  0.0361 -0.6429 -0.0718
 5234SOL    HW127164   0.417   2.968   0.429  0.1114  1.0764  1.1100
 5234SOL    HW227165   0.290   2.898   0.397 -0.6658 -0.4138  0.3143
 5235SOL     OW27166   4.654   3.556   5.198 -0.3590  0.0152 -0.0024
 5235SOL    HW127167   4.636   3.617   5.269 -1.4310  2.7830 -2.6764
 5235SOL    HW227168   0.024   3.543   5.210 -0.3832 -0.4689 -0.3022
 5236SOL     OW27169   4.318   2.174  11.631 -0.4093 -0.6986  0.2361
 5236SOL    HW127170   4.355   2.262  11.620  0.5952 -0.7216  3.5726
 5236SOL    HW227171   4.225   2.190  11.614 -0.6523 -0.3182  1.9554
 5237SOL     OW27172   1.504   3.746  11.725 -0.3523 -0.6908  0.0335
 5237SOL    HW127173   1.438   3.763  11.792  1.4549  1.6415  1.2204
 5237SOL    HW227174   1.581   3.739  11.780 -0.7008  0.1479  0.6347
 5238SOL     OW27175   1.547   3.323   8.609  0.3119 -0.6579  0.0346
 5238SOL    HW127176   1.539   3.227   8.612 -1.5146 -0.4968  0.6957
 5238SOL    HW227177   1.472   3.340   8.666  1.3710  0.1405  1.1871
 5239SOL     OW27178   3.432   2.115   5.001  0.2391 -0.2327 -0.1750
 5239SOL    HW127179   3.518   2.136   5.037  0.8371  0.5726 -2.0707
 5239SOL    HW227180   3.435   2.149   4.912  1.1697 -1.8717 -0.7636
 5240SOL     OW27181   1.787   2.371   2.842 -0.6405 -0.6594  0.0984
 5240SOL    HW127182   1.861   2.404   2.893 -0.5003 -1.8009  0.6319
 5240SOL    HW227183   1.715   2.416   2.888 -0.0923  1.4663 -1.1084
 5241SOL     OW27184   1.066   2.627   4.593 -0.1701 -0.6254 -0.1558
 5241SOL    HW127185   1.115   2.576   4.657 -2.2049 -1.7659  0.4662
 5241SOL    HW227186   0.980   2.618   4.634 -0.8762  2.8676 -0.8631
 5242SOL     OW27187   3.328   2.786   1.713  0.1746 -0.3286 -0.4127
 5242SOL    HW127188   3.233   2.796   1.716  0.2188 -0.0376  0.0390
 5242SOL    HW227189   3.343   2.881   1.713 -0.1593 -0.2745  0.4698
 5243SOL     OW27190   0.309   0.349   6.009 -0.6605 -0.1078 -0.2747
 5243SOL    HW127191   0.243   0.406   6.049 -0.0060  0.4374  0.0240
 5243SOL    HW227192   0.318   0.280   6.076 -0.6908  0.2534  0.0995
 5244SOL     OW27193   1.698   1.765   0.117  0.1495 -0.3357 -0.7499
 5244SOL    HW127194   1.608   1.736   0.100 -1.0175  2.3325  0.9692
 5244SOL    HW227195   1.687   1.859   0.107  0.6921 -0.1866  0.0531
 5245SOL     OW27196   1.311   3.470   2.573  0.1923  0.2204  0.2730
 5245SOL    HW127197   1.362   3.399   2.612 -1.1342 -0.4813  0.7280
 5245SOL    HW227198   1.219   3.444   2.576  0.5413 -0.9166  0.9698
 5246SOL     OW27199   0.356   0.741  15.297 -0.5626  0.7181 -0.5147
 5246SOL    HW127200   0.355   0.819  15.352 -1.1831 -0.4552  1.1058
 5246SOL    HW227201   0.432   0.767  15.244 -1.3287  1.3190 -1.3334
 5247SOL     OW27202   1.145   0.811   8.374  0.0956  0.0320  0.1498
 5247SOL    HW127203   1.156   0.754   8.450 -0.7610  0.1229  0.3415
 5247SOL    HW227204   1.050   0.816   8.370  0.0792 -0.9906 -0.6547
 5248SOL     OW27205   3.865   1.164   4.899 -0.2966  0.2034  0.5797
 5248SOL    HW127206   3.821   1.080   4.913 -0.5859  0.1526 -0.6565
 5248SOL    HW227207   3.798   1.231   4.892 -0.9744 -0.2404  2.7007
 5249SOL     OW27208   1.268   2.610   7.658 -0.2970  0.1812 -0.1605
 5249SOL    HW127209   1.229   2.678   7.713 -0.8079 -1.3849  1.4199
 5249SOL    HW227210   1.240   2.628   7.568 -1.6092  0.8414  0.3853
 5250SOL     OW27211   0.199   0.981   3.887  0.4153  0.3954  0.1809
 5250SOL    HW127212   0.156   0.923   3.949  0.1324 -0.9197 -1.2556
 5250SOL    HW227213   0.292   0.957   3.891  0.5341  0.8531  0.1649
 5251SOL     OW27214   1.777   0.669   5.566  0.1385 -0.1794 -0.4426
 5251SOL    HW127215   1.864   0.661   5.605 -0.3361  2.2930  1.0964
 5251SOL    HW227216   1.721   0.614   5.620 -1.3380  1.8483  0.0878
 5252SOL     OW27217   4.143   3.427   8.693 -0.2157  0.2443 -0.1130
 5252SOL    HW127218   4.115   3.349   8.645 -0.6274  0.7199 -0.6471
 5252SOL    HW227219   4.113   3.502   8.640 -2.3469 -1.3025 -1.1152
 5253SOL     OW27220   2.112   2.959   1.511 -0.2416  0.1471 -0.0660
 5253SOL    HW127221   2.085   3.031   1.568 -0.1967 -0.7118  1.0316
 5253SOL    HW227222   2.103   3.011   1.431 -0.5882  0.9530  0.4969
 5254SOL     OW27223   2.082   4.548   8.154 -0.6830 -0.7753  0.0299
 5254SOL    HW127224   2.042   4.461   8.145 -0.5802 -0.7923 -0.2537
 5254SOL    HW227225   2.005   4.603   8.137 -1.0434 -1.4923 -0.7007
 5255SOL     OW27226   0.698   2.516   8.978 -0.0142  0.1388  0.1749
 5255SOL    HW127227   0.757   2.591   8.986 -1.8084  1.7628 -1.7731
 5255SOL    HW227228   0.769   2.452   8.971  0.6754  0.8576  0.5252
 5256SOL     OW27229   2.865   2.604   0.999  0.0281 -0.2108  0.5116
 5256SOL    HW127230   2.858   2.596   1.094 -0.7847  0.1308  0.4744
 5256SOL    HW227231   2.773   2.588   0.976  0.0267 -1.0830  1.1268
 5257SOL     OW27232   0.057   2.405   4.578  0.9102  0.5747  0.5509
 5257SOL    HW127233   0.149   2.379   4.568  0.9451  0.8949  0.0668
 5257SOL    HW227234   0.063   2.466   4.505 -3.6403 -0.2232 -0.4519
 5258SOL     OW27235   2.094   4.027   2.944  0.3605  0.3327  0.1338
 5258SOL    HW127236   2.085   4.120   2.923 -0.7724 -0.0760 -1.2340
 5258SOL    HW227237   2.067   3.984   2.863  0.6544 -0.8363  0.6573
 5259SOL     OW27238   2.183   3.886   4.732 -0.1743 -0.6027  0.5041
 5259SOL    HW127239   2.140   3.805   4.703 -1.8266  0.0437  1.1495
 5259SOL    HW227240   2.170   3.879   4.827 -2.2838  0.1531  0.2743
 5260SOL     OW27241   0.146   1.094   6.528 -0.1816 -0.3410 -0.6182
 5260SOL    HW127242   0.190   1.058   6.451  0.6753 -1.6501  0.4798
 5260SOL    HW227243   0.208   1.058   6.591 -0.2063  1.1819  0.2585
 5261SOL     OW27244   2.394   2.840   4.933 -0.3917  0.1658 -0.5466
 5261SOL    HW127245   2.452   2.775   4.893 -0.7851  0.4326 -1.5676
 5261SOL    HW227246   2.349   2.876   4.856 -0.5586 -1.0009 -1.0059
 5262SOL     OW27247   0.410   4.392   4.455 -0.1495  0.0845  0.0620
 5262SOL    HW127248   0.413   4.396   4.360  0.4139 -0.3224  0.0685
 5262SOL    HW227249   0.470   4.464   4.473 -0.4402 -0.0886  1.7176
 5263SOL     OW27250   0.743   3.346   8.101  0.3439  0.4158 -0.1242
 5263SOL    HW127251   0.712   3.403   8.030 -1.7494 -0.3597  0.1710
 5263SOL    HW227252   0.665   3.295   8.122  0.7662  0.1047  0.6824
 5264SOL     OW27253   2.783   1.945   2.386 -0.8443 -0.1272 -0.7777
 5264SOL    HW127254   2.737   1.866   2.355 -0.3816 -0.9594  0.6547
 5264SOL    HW227255   2.809   1.914   2.472 -1.4268 -1.6600 -1.1575
 5265SOL     OW27256   2.549   3.117   8.060 -0.4787  0.1404 -0.3211
 5265SOL    HW127257   2.473   3.091   8.113 -1.5317  1.7668 -1.0198
 5265SOL    HW227258   2.576   3.187   8.119  0.8642  0.6132 -1.5193
 5266SOL     OW27259   4.057   4.359  14.296 -0.1539  0.3670  0.2106
 5266SOL    HW127260   4.118   4.393  14.361 -0.0463  1.7155 -0.5927
 5266SOL    HW227261   3.975   4.371  14.345 -0.5597 -0.1105 -0.3589
 5267SOL     OW27262   2.123   0.274  13.088 -0.1407  0.3067  0.2539
 5267SOL    HW127263   2.105   0.305  12.999  0.6899 -0.3324 -0.1399
 5267SOL    HW227264   2.043   0.223  13.102  0.5910 -0.6347  1.0528
 5268SOL     OW27265   3.318   4.163   5.284  0.4750  0.4772 -0.1279
 5268SOL    HW127266   3.413   4.177   5.280  0.7399 -0.0706  4.2394
 5268SOL    HW227267   3.306   4.145   5.377 -0.5368 -0.1096 -0.3771
 5269SOL     OW27268   1.684   3.050  15.295  0.1909  0.4493  0.4023
 5269SOL    HW127269   1.686   3.129  15.241 -0.3509 -0.0217 -0.3112
 5269SOL    HW227270   1.591   3.026  15.292  1.0226 -2.3628 -2.0081
 5270SOL     OW27271   3.563   2.364   3.560 -0.3773  0.1502 -0.2252
 5270SOL    HW127272   3.607   2.289   3.600  0.6645 -0.2125 -2.0673
 5270SOL    HW227273   3.549   2.324   3.475 -0.7703 -0.7936  0.2856
 5271SOL     OW27274   2.687   1.359  13.211  0.4278  0.1076  0.1099
 5271SOL    HW127275   2.762   1.331  13.159 -0.3090  1.0715 -1.4746
 5271SOL    HW227276   2.630   1.367  13.135  1.3589 -2.0543 -0.8129
 5272SOL     OW27277   1.977   4.468   3.226 -0.3648  0.4832  0.0530
 5272SOL    HW127278   2.028   4.517   3.291  0.2728 -1.9658  1.4029
 5272SOL    HW227279   2.025   4.473   3.143 -0.8092 -0.2970 -0.2463
 5273SOL     OW27280   0.751   3.692  10.060 -0.1407  0.1091 -0.4468
 5273SOL    HW127281   0.835   3.709  10.103 -0.0719  0.1836 -0.6093
 5273SOL    HW227282   0.796   3.660   9.981  2.5950 -0.7186  1.4546
 5274SOL     OW27283   2.360   3.352   3.418  0.0601  0.0387  0.2733
 5274SOL    HW127284   2.356   3.279   3.480  0.5352  0.5848  0.9426
 5274SOL    HW227285   2.345   3.320   3.329  1.2436 -1.8827  0.7728
 5275SOL     OW27286   2.990   3.353   6.810  0.0848  0.5506 -0.1913
 5275SOL    HW127287   2.898   3.352   6.782 -0.5246  1.8220  1.7879
 5275SOL    HW227288   3.032   3.390   6.732  1.7063 -0.2569  0.3083
 5276SOL     OW27289   2.948   4.710   1.225 -0.1929 -0.1898 -0.0582
 5276SOL    HW127290   2.981   4.700   1.315  2.2120 -1.4126 -1.0631
 5276SOL    HW227291   2.936   0.080   1.216  1.5896 -0.3686 -4.0202
 5277SOL     OW27292   2.720   2.307   7.979 -0.0440  0.0753 -0.2777
 5277SOL    HW127293   2.810   2.338   7.966  0.3306 -1.5431 -1.6155
 5277SOL    HW227294   2.726   2.244   8.050  2.3939  3.8749  2.8961
 5278SOL     OW27295   3.596   4.610   7.235  0.2566 -0.2107 -0.0741
 5278SOL    HW127296   3.536   4.598   7.309 -0.8292  0.8772 -0.7648
 5278SOL    HW227297   3.529   4.610   7.166  3.6297  0.5898 -3.3138
 5279SOL     OW27298   0.483   0.911   3.872 -0.6938 -0.4783  0.1340
 5279SOL    HW127299   0.500   0.919   3.779  0.7616 -2.4433  0.2228
 5279SOL    HW227300   0.515   0.821   3.884 -3.7885 -1.2203  2.9170
 5280SOL     OW27301   0.999   4.217   2.660 -0.0357 -0.2808  0.1761
 5280SOL    HW127302   1.072   4.214   2.722 -0.5683 -0.8178  0.7803
 5280SOL    HW227303   1.032   4.270   2.588  1.1862  0.9843  1.6756
 5281SOL     OW27304   3.954   1.352  14.753  1.2853 -0.9565 -0.2998
 5281SOL    HW127305   3.940   1.375  14.661  2.7949  1.6660  0.1285
 5281SOL    HW227306   3.947   1.256  14.750  1.7702 -1.0542  1.4959
 5282SOL     OW27307   2.570   2.695   3.486  0.3302 -0.3197 -0.8619
 5282SOL    HW127308   2.662   2.714   3.505  0.9124 -2.1010 -1.9064
 5282SOL    HW227309   2.546   2.730   3.401  1.5298  0.0448 -1.0481
 5283SOL     OW27310   0.437   0.956   0.011  0.3350  0.2937 -0.2257
 5283SOL    HW127311   0.432   1.007  17.629  2.8580  1.3020  0.2704
 5283SOL    HW227312   0.531   0.959   0.028  0.5598 -1.9925 -1.0556
 5284SOL     OW27313   0.713   2.799   9.618 -0.1213 -0.3818 -0.7869
 5284SOL    HW127314   0.749   2.727   9.670  1.7586 -0.1766 -1.8276
 5284SOL    HW227315   0.764   2.788   9.538  0.1277 -1.0855 -0.5300
 5285SOL     OW27316   0.274   1.370   9.110 -0.1303 -0.1733  0.3113
 5285SOL    HW127317   0.303   1.345   9.022  3.3194 -1.6905  1.8705
 5285SOL    HW227318   0.228   1.292   9.140  2.1948 -1.5795  0.2888
 5286SOL     OW27319   2.349   0.344   7.423  0.0000 -0.0345 -0.2616
 5286SOL    HW127320   2.339   0.273   7.359 -0.6839  0.5716 -0.8305
 5286SOL    HW227321   2.271   0.333   7.478 -0.6993 -1.2894 -1.5162
 5287SOL     OW27322   1.939   1.989   9.912 -0.0240 -0.1603 -0.1205
 5287SOL    HW127323   2.035   1.995   9.916  0.0531 -0.3297 -1.5612
 5287SOL    HW227324   1.921   2.013  10.003 -2.0932 -0.5783 -0.4304
 5288SOL     OW27325   1.594   1.349   9.777  0.5039  0.0096  0.0283
 5288SOL    HW127326   1.633   1.262   9.765  1.7109  0.1619  2.8045
 5288SOL    HW227327   1.596   1.379   9.687  0.5764  0.1054  0.0622
 5289SOL     OW27328   3.993   4.040   6.949 -0.0314  0.0509  0.1898
 5289SOL    HW127329   3.944   3.960   6.929 -1.1111  0.7941 -0.1595
 5289SOL    HW227330   3.930   4.108   6.925  1.1885 -0.1427 -3.4827
 5290SOL     OW27331   3.716   2.897   3.454  0.6221 -0.4196  0.2186
 5290SOL    HW127332   3.793   2.950   3.474 -1.5438  2.4239  0.9487
 5290SOL    HW227333   3.663   2.936   3.523  0.7963  0.6684 -0.2663
 5291SOL     OW27334   1.298   1.290   9.602 -0.0298  0.1397  0.1055
 5291SOL    HW127335   1.234   1.346   9.557  2.4534  2.8066 -0.0955
 5291SOL    HW227336   1.295   1.212   9.547 -0.7290 -1.4420  2.4030
 5292SOL     OW27337   1.539   1.501   6.382 -0.1891 -0.1587 -0.3744
 5292SOL    HW127338   1.471   1.445   6.344  0.4591 -0.9512 -0.3743
 5292SOL    HW227339   1.529   1.476   6.474  1.1102  1.9472  0.3328
 5293SOL     OW27340   2.926   2.773  14.676 -0.3125 -0.2006  0.5456
 5293SOL    HW127341   2.987   2.699  14.667  1.3526  1.0953  1.1381
 5293SOL    HW227342   2.945   2.819  14.594 -1.6246 -0.7066 -0.0317
 5294SOL     OW27343   2.127   4.210   7.184 -0.2586 -0.1083  0.5823
 5294SOL    HW127344   2.208   4.237   7.141 -0.9347 -0.7038 -1.0848
 5294SOL    HW227345   2.066   4.263   7.133  0.1530 -0.3687 -0.1933
 5295SOL     OW27346   3.509   3.130   6.030 -0.2977 -0.3585  0.2287
 5295SOL    HW127347   3.564   3.052   6.033  1.3744  0.8547  0.9903
 5295SOL    HW227348   3.543   3.180   6.104  0.9548 -1.2241  0.2393
 5296SOL     OW27349   0.515   1.807   5.454 -0.4551  0.5074 -0.1206
 5296SOL    HW127350   0.567   1.727   5.451 -0.7769  0.2486  1.1737
 5296SOL    HW227351   0.430   1.771   5.429 -0.2751 -0.2397  0.3288
 5297SOL     OW27352   3.267   2.737   2.967  0.1155 -1.2738  0.6074
 5297SOL    HW127353   3.274   2.792   3.045  1.5335 -0.4949 -0.0800
 5297SOL    HW227354   3.231   2.797   2.902  2.7658 -1.6824 -1.2285
 5298SOL     OW27355   2.942   0.936   6.392  0.7429 -0.2678 -0.0936
 5298SOL    HW127356   3.020   0.918   6.444  1.3712  1.2889 -0.5099
 5298SOL    HW227357   2.976   1.014   6.348 -1.7608  1.6923  1.4375
 5299SOL     OW27358   2.579   1.395   8.110 -0.8415 -0.2244 -0.9571
 5299SOL    HW127359   2.510   1.443   8.156 -0.7426 -0.1849 -0.8493
 5299SOL    HW227360   2.640   1.379   8.182 -0.4066  1.7231 -0.8993
 5300SOL     OW27361   2.770   0.604   3.151  0.2731  0.6166  0.2056
 5300SOL    HW127362   2.863   0.628   3.152  0.2172  0.8080  0.5953
 5300SOL    HW227363   2.748   0.600   3.058  1.5079  1.8218 -0.1386
 5301SOL     OW27364   0.950   2.243   7.730  1.0742  0.0273 -0.1314
 5301SOL    HW127365   0.976   2.162   7.686  0.1356  0.8449 -2.1942
 5301SOL    HW227366   1.005   2.239   7.807 -1.3002  3.1397  1.7437
 5302SOL     OW27367   0.803   0.930  11.213  0.3849 -0.2431  0.1009
 5302SOL    HW127368   0.879   0.938  11.156  0.0206  2.0889 -0.0488
 5302SOL    HW227369   0.759   0.856  11.170 -3.3313  0.6098  2.4429
 5303SOL     OW27370   1.272   0.126   2.418 -0.7049  0.2577 -0.4380
 5303SOL    HW127371   1.238   0.049   2.463 -0.0036 -0.2017 -0.6868
 5303SOL    HW227372   1.264   0.200   2.478  0.7732  0.7212 -0.8006
 5304SOL     OW27373   3.177   2.175   4.401 -0.1849  0.2125 -0.5118
 5304SOL    HW127374   3.261   2.219   4.401  0.2330 -0.5574  2.2726
 5304SOL    HW227375   3.163   2.171   4.307  1.6849  2.3888 -0.8497
 5305SOL     OW27376   4.665   3.626  13.524  0.5289 -0.4414  0.6589
 5305SOL    HW127377   4.692   3.631  13.616 -0.3068 -0.9596  0.9284
 5305SOL    HW227378   4.641   3.717  13.504 -0.5512 -0.8511  0.0860
 5306SOL     OW27379   1.117   1.358   5.274 -0.3368  0.1212  0.8518
 5306SOL    HW127380   1.142   1.385   5.362  0.6530 -1.0288  0.9328
 5306SOL    HW227381   1.205   1.344   5.238  1.0207  0.8351  3.9433
 5307SOL     OW27382   2.806   2.892   6.568 -0.3363 -0.4057 -0.0875
 5307SOL    HW127383   2.822   2.926   6.656 -2.1445  0.3495 -0.0507
 5307SOL    HW227384   2.724   2.934   6.542 -0.1393  0.4737  0.7116
 5308SOL     OW27385   1.923   1.032   2.350 -0.7433  1.0700  0.5636
 5308SOL    HW127386   2.015   1.025   2.372 -0.2231  0.1772 -1.9047
 5308SOL    HW227387   1.927   0.979   2.270 -0.4367  2.2105 -0.1708
 5309SOL     OW27388   3.794   2.971   9.421 -0.3433 -0.8033 -0.4125
 5309SOL    HW127389   3.711   2.927   9.441 -2.2100  2.0653 -1.9487
 5309SOL    HW227390   3.811   2.959   9.327  2.1236 -1.1618  0.0777
 5310SOL     OW27391   2.851   0.559  15.759 -0.0495 -0.5762  0.2378
 5310SOL    HW127392   2.931   0.506  15.766  1.0377  0.8696 -1.4855
 5310SOL    HW227393   2.881   0.630  15.816 -0.5085 -0.8056  0.7651
 5311SOL     OW27394   1.750   0.025  13.381  0.2636  0.0499  0.0058
 5311SOL    HW127395   1.666   0.003  13.342 -1.0565  1.4971  1.9843
 5311SOL    HW227396   1.727   0.118  13.384  0.4105  0.0987 -0.4927
 5312SOL     OW27397   2.239   1.467   9.025 -0.7105  0.3090 -0.3269
 5312SOL    HW127398   2.200   1.544   8.982 -0.2707  0.1951 -0.9398
 5312SOL    HW227399   2.265   1.424   8.943  0.4360  2.9190 -1.3370
 5313SOL     OW27400   2.435   2.803   7.535 -0.0210  0.5307  0.0818
 5313SOL    HW127401   2.480   2.784   7.453  3.5821  2.2557  1.6411
 5313SOL    HW227402   2.486   2.875   7.575 -1.0108  2.1713 -1.6299
 5314SOL     OW27403   3.196   1.052  13.506 -0.5078  0.4773  0.6244
 5314SOL    HW127404   3.104   1.076  13.523 -1.7896 -3.4308 -0.9796
 5314SOL    HW227405   3.230   1.138  13.480 -1.9058  0.6472 -0.6422
 5315SOL     OW27406   1.285   0.336   6.850 -0.3859 -0.2325 -0.7515
 5315SOL    HW127407   1.323   0.297   6.928 -1.0542 -2.1094 -1.3779
 5315SOL    HW227408   1.219   0.388   6.897  1.3651  0.6302  0.7472
 5316SOL     OW27409   2.328   2.530   8.716  0.4728  0.1259 -0.2378
 5316SOL    HW127410   2.236   2.553   8.730 -0.2276 -3.3156  0.7190
 5316SOL    HW227411   2.321   2.436   8.731 -2.5273  0.7331  2.2281
 5317SOL     OW27412   0.583   0.667   4.833  0.4944  0.1201  0.2095
 5317SOL    HW127413   0.545   0.754   4.821  0.7009  0.2960  0.8199
 5317SOL    HW227414   0.518   0.604   4.803  0.0249  0.3190  0.8084
 5318SOL     OW27415   0.820   4.265   3.564 -0.1639 -0.4788 -0.1133
 5318SOL    HW127416   0.751   4.273   3.497 -1.2276  0.4193  1.0827
 5318SOL    HW227417   0.823   4.170   3.571 -0.9182 -0.5055 -0.0803
 5319SOL     OW27418   2.578   0.881  11.500  0.1604  0.1311 -0.1324
 5319SOL    HW127419   2.561   0.848  11.411  0.4999  0.2551 -0.2444
 5319SOL    HW227420   2.489   0.913  11.512  0.4560  1.8656 -2.4379
 5320SOL     OW27421   1.163   4.352   8.446  0.3114 -0.1027 -0.2634
 5320SOL    HW127422   1.089   4.315   8.398 -0.0929 -1.2677  1.2604
 5320SOL    HW227423   1.117   4.415   8.502  1.0335  2.0892 -2.1235
 5321SOL     OW27424   0.101   2.962   3.173 -0.2365  0.3188 -0.3800
 5321SOL    HW127425   0.027   2.919   3.215  1.2571 -1.2562  0.6156
 5321SOL    HW227426   0.161   2.892   3.198 -0.3329  0.5109  0.3769
 5322SOL     OW27427   4.624   4.420  15.900 -0.0905 -0.2126 -0.6711
 5322SOL    HW127428   4.665   4.355  15.843 -0.4428  0.9203 -2.2029
 5322SOL    HW227429   4.621   4.500  15.848  0.4859 -0.2929 -0.8308
 5323SOL     OW27430   0.149   1.655   8.906 -0.1376  0.1920  0.6528
 5323SOL    HW127431   0.157   1.680   8.998 -0.3996  0.5160  0.5874
 5323SOL    HW227432   0.072   1.599   8.900 -1.1101  1.5890  0.0746
 5324SOL     OW27433   3.958   3.062   7.888 -0.3492  0.1492 -0.3538
 5324SOL    HW127434   3.928   2.971   7.882  0.2476  0.1920 -3.8161
 5324SOL    HW227435   4.052   3.052   7.901 -0.6138 -0.2868  1.3057
 5325SOL     OW27436   2.957   2.201   7.201  0.0528  0.9447 -0.2911
 5325SOL    HW127437   2.882   2.197   7.142  0.7399 -0.4659 -1.0532
 5325SOL    HW227438   2.916   2.222   7.285  2.4196 -0.2628  1.1533
 5326SOL     OW27439   0.203   0.929   0.207 -0.2675  0.4872  0.1621
 5326SOL    HW127440   0.210   0.948   0.114  0.9688 -1.6095 -0.1736
 5326SOL    HW227441   0.180   1.015   0.244  0.2243 -0.5334  2.8395
 5327SOL     OW27442   1.818   4.003   3.431 -0.4012 -0.0169 -0.9474
 5327SOL    HW127443   1.837   4.024   3.522  0.4311  0.2818 -1.1873
 5327SOL    HW227444   1.788   3.912   3.429 -4.0181  1.1579  1.1195
 5328SOL     OW27445   3.087   3.383  12.803  0.2127 -0.5103 -0.2920
 5328SOL    HW127446   3.043   3.446  12.860  0.6867 -0.4301 -0.0194
 5328SOL    HW227447   3.171   3.392  12.847 -0.4510  0.6518  0.7397
 5329SOL     OW27448   3.632   4.696  12.704 -0.2361 -0.0067  0.0738
 5329SOL    HW127449   3.589   0.053  12.730 -2.2942 -1.1909  0.3232
 5329SOL    HW227450   3.660   4.662  12.789 -0.4957 -0.9644 -0.2204
 5330SOL     OW27451   0.215   3.489   5.821 -0.6325  0.6112 -0.6466
 5330SOL    HW127452   0.231   3.411   5.875 -4.3415 -0.9765 -1.8221
 5330SOL    HW227453   0.121   3.491   5.805 -0.7072 -1.6500 -0.5070
 5331SOL     OW27454   2.157   1.665   6.981 -0.5023 -0.0892 -0.0311
 5331SOL    HW127455   2.227   1.727   6.997  0.9402 -0.8558 -3.3696
 5331SOL    HW227456   2.205   1.587   6.953  1.7624  1.8882 -1.6383
 5332SOL     OW27457   2.143   4.559   1.176  0.0281  0.3133 -0.1194
 5332SOL    HW127458   2.147   4.572   1.082 -0.1303 -2.5959 -0.5364
 5332SOL    HW227459   2.055   4.523   1.190  0.7758 -0.9456  1.4146
 5333SOL     OW27460   1.475   4.000  13.329 -0.0115  0.8480 -0.1770
 5333SOL    HW127461   1.416   4.021  13.257  1.6219  1.6303 -1.2921
 5333SOL    HW227462   1.416   3.998  13.405  1.3904 -0.7691  0.8713
 5334SOL     OW27463   2.732   1.759   2.817  0.4537 -0.5756 -0.2042
 5334SOL    HW127464   2.695   1.705   2.887 -1.3592  1.0819  0.1152
 5334SOL    HW227465   2.657   1.758   2.757 -0.0800  0.1062  0.4439
 5335SOL     OW27466   3.302   0.586   6.570  0.6316 -0.5466 -0.0609
 5335SOL    HW127467   3.396   0.596   6.561  0.8380 -0.6245  2.2524
 5335SOL    HW227468   3.273   0.611   6.658  0.5869  1.2290 -0.5713
 5336SOL     OW27469   2.608   0.323   0.842 -0.3586  0.1947 -0.4909
 5336SOL    HW127470   2.642   0.373   0.916 -1.5685 -2.5206  1.8763
 5336SOL    HW227471   2.626   0.231   0.863 -0.6231  0.4896  0.9726
 5337SOL     OW27472   3.967   1.578   4.965  0.2258 -0.2736 -0.5202
 5337SOL    HW127473   4.055   1.569   4.929  1.6353  2.1733  2.2889
 5337SOL    HW227474   3.927   1.509   4.913 -2.5632 -1.5611  3.3345
 5338SOL     OW27475   0.620   2.190   5.594  0.3178  0.1670  0.6147
 5338SOL    HW127476   0.601   2.165   5.685  0.3529  0.1638  0.6212
 5338SOL    HW227477   0.713   2.166   5.594  0.8053  2.0775 -0.7430
 5339SOL     OW27478   3.262   2.299   5.815  0.6534 -0.4215  0.3921
 5339SOL    HW127479   3.251   2.222   5.759 -1.5596  0.4727 -0.4084
 5339SOL    HW227480   3.259   2.371   5.752 -1.3192 -2.8258 -2.2455
 5340SOL     OW27481   2.944   3.129   6.982 -0.0498 -0.0931  0.0254
 5340SOL    HW127482   2.888   3.204   7.004  0.0328 -0.5861  1.8891
 5340SOL    HW227483   2.938   3.086   7.067  0.5847  0.6742  0.4553
 5341SOL     OW27484   0.460   0.092   6.950 -0.1659  0.2661 -0.1258
 5341SOL    HW127485   0.403   0.021   6.922  2.2720 -1.5464 -0.4341
 5341SOL    HW227486   0.435   0.118   7.039  1.9620  1.6057  0.1053
 5342SOL     OW27487   0.367   0.167   3.955  0.0290  0.0164  0.5895
 5342SOL    HW127488   0.401   0.166   4.045  3.7823 -0.6980 -0.8480
 5342SOL    HW227489   0.362   0.262   3.948  1.1397  0.1573  1.7063
 5343SOL     OW27490   3.888   2.346   7.283 -0.1381 -0.0330  0.7581
 5343SOL    HW127491   3.825   2.345   7.211  1.7212  0.8615 -0.8806
 5343SOL    HW227492   3.865   2.265   7.329  2.3498 -0.2966  1.5645
 5344SOL     OW27493   2.228   0.167   9.602 -0.2432  0.2572  0.1945
 5344SOL    HW127494   2.226   0.117   9.683  0.4001 -0.9743 -0.5446
 5344SOL    HW227495   2.223   0.104   9.530 -3.6300  2.1622 -1.2323
 5345SOL     OW27496   1.683   3.853  13.448  0.2553  0.0582  0.2110
 5345SOL    HW127497   1.713   3.830  13.360 -0.6192  0.3535 -0.1613
 5345SOL    HW227498   1.623   3.925  13.429  1.0866  0.2149 -1.7518
 5346SOL     OW27499   1.767   4.538   2.341 -0.2006  0.3492  0.0065
 5346SOL    HW127500   1.720   4.620   2.323 -1.6112 -1.1934 -3.3322
 5346SOL    HW227501   1.731   4.513   2.426  0.2149 -1.8967 -0.4889
 5347SOL     OW27502   3.911   2.743   1.912 -0.4118 -0.1574  0.1177
 5347SOL    HW127503   3.880   2.832   1.900  1.6208  0.2610 -1.9418
 5347SOL    HW227504   3.952   2.735   1.998 -0.3445  3.5435  0.4293
 5348SOL     OW27505   3.367   4.001  14.981  0.2651  0.5506  0.0152
 5348SOL    HW127506   3.310   3.947  14.926  0.4677 -0.7033  1.0339
 5348SOL    HW227507   3.305   4.056  15.030 -0.3086 -2.5537  2.7550
 5349SOL     OW27508   1.897   4.437   0.362  0.0881  0.0704 -0.4402
 5349SOL    HW127509   1.951   4.364   0.394 -1.1609 -0.7640 -0.2717
 5349SOL    HW227510   1.834   4.450   0.432 -0.0482 -0.4353 -0.4668
 5350SOL     OW27511   1.736   1.000  14.832  0.4969  0.1993  0.3306
 5350SOL    HW127512   1.820   1.045  14.835  0.5279  0.1091  0.7945
 5350SOL    HW227513   1.686   1.068  14.787 -0.8317 -2.9944 -3.0292
 5351SOL     OW27514   0.960   0.950  11.011  0.2269 -0.5200 -0.1960
 5351SOL    HW127515   1.047   0.949  10.973 -1.0242 -0.4965 -3.0635
 5351SOL    HW227516   0.925   1.003  10.939 -2.3653 -5.1656 -2.2852
 5352SOL     OW27517   0.774   1.240   0.855 -0.0233  0.3856  0.6688
 5352SOL    HW127518   0.718   1.212   0.927  2.4975 -3.0662  1.3040
 5352SOL    HW227519   0.814   1.321   0.886  0.8296  0.4878 -0.6774
 5353SOL     OW27520   4.478   3.581   6.845 -0.1862 -0.3446 -0.1928
 5353SOL    HW127521   4.461   3.600   6.938 -1.4391  0.5901 -0.6108
 5353SOL    HW227522   4.458   3.661   6.796 -0.0155 -0.7861 -0.9717
 5354SOL     OW27523   3.292   4.669   9.666 -0.0349  0.5203  0.4566
 5354SOL    HW127524   3.306   4.599   9.603  1.2907  1.4911 -0.3309
 5354SOL    HW227525   3.206   4.706   9.646 -0.2339 -0.8010 -1.0893
 5355SOL     OW27526   2.187   4.134   9.844  0.8030  0.1481 -0.0740
 5355SOL    HW127527   2.184   4.125   9.748 -0.6528 -1.1307  0.0839
 5355SOL    HW227528   2.229   4.220   9.848  0.7186  0.2132 -0.5467
 5356SOL     OW27529   4.677   4.704   7.541  0.1171 -0.4619  1.0136
 5356SOL    HW127530   0.003   0.042   7.593  0.8441 -1.1112  1.0775
 5356SOL    HW227531   4.712   4.621   7.573  0.9280 -0.5264 -0.0367
 5357SOL     OW27532   4.578   2.724   6.072 -0.1189 -0.1270  0.3820
 5357SOL    HW127533   4.575   2.717   5.976 -0.4035 -1.3137  0.4738
 5357SOL    HW227534   4.501   2.776   6.095 -0.2218  1.1590 -2.7817
 5358SOL     OW27535   1.653   0.570   8.595  0.5443  0.6578 -0.7163
 5358SOL    HW127536   1.696   0.487   8.616 -2.0482 -0.1825  1.2123
 5358SOL    HW227537   1.586   0.560   8.662  1.2390  0.7041 -0.0045
 5359SOL     OW27538   0.793   1.642   6.956  0.2689  0.4633  0.0643
 5359SOL    HW127539   0.734   1.641   7.032  2.0552  0.1123  1.4401
 5359SOL    HW227540   0.827   1.730   6.968 -0.7241  0.7775  0.5950
 5360SOL     OW27541   3.783   0.427   0.097  0.3734  0.1583 -0.1697
 5360SOL    HW127542   3.688   0.438   0.108  0.7057  1.4738  1.3616
 5360SOL    HW227543   3.789   0.504   0.041 -0.0697 -0.1639 -0.6634
 5361SOL     OW27544   3.021   4.222  12.104  0.3082 -0.6763  0.1402
 5361SOL    HW127545   3.000   4.161  12.033 -0.1012  2.3132 -2.3318
 5361SOL    HW227546   2.934   4.231  12.144 -0.9054 -3.0776 -1.9967
 5362SOL     OW27547   4.152   3.381   5.571 -0.4382  0.1410  0.1440
 5362SOL    HW127548   4.195   3.364   5.487  0.8173  1.4332  0.5344
 5362SOL    HW227549   4.081   3.317   5.563 -0.2762 -0.1573  1.1162
 5363SOL     OW27550   3.792   2.136   7.430 -0.1429 -0.5810 -0.5148
 5363SOL    HW127551   3.700   2.116   7.412 -0.9505  0.6307  2.2953
 5363SOL    HW227552   3.803   2.121   7.524 -1.2945  0.0448 -0.2823
 5364SOL     OW27553   3.775   2.352   5.209  0.5709 -0.2282  0.1567
 5364SOL    HW127554   3.710   2.303   5.259 -0.9956  1.4797 -0.1909
 5364SOL    HW227555   3.773   2.435   5.255 -0.0261  0.0976 -0.4670
 5365SOL     OW27556   0.100   1.968  11.088 -0.1480 -0.0193  0.0449
 5365SOL    HW127557   0.165   1.993  11.153  1.4960 -2.1327 -0.8163
 5365SOL    HW227558   0.122   1.875  11.093  2.1181  0.6233  1.7316
 5366SOL     OW27559   1.952   4.602  14.453 -0.0402 -0.0517 -0.4315
 5366SOL    HW127560   1.910   4.535  14.507  1.8626  0.9956  2.3505
 5366SOL    HW227561   2.039   4.576  14.483 -0.7174 -1.0431  0.6828
 5367SOL     OW27562   0.188   4.184  11.726 -0.0151  0.2874 -0.3218
 5367SOL    HW127563   0.185   4.247  11.798 -3.1070 -0.3910  0.1655
 5367SOL    HW227564   0.276   4.149  11.738  0.2634  0.9401 -0.4609
 5368SOL     OW27565   1.313   4.001   2.563  0.1812 -0.5360  0.8449
 5368SOL    HW127566   1.339   4.042   2.480  0.6206 -1.8360  0.3422
 5368SOL    HW227567   1.276   3.918   2.532 -0.7033  0.3648 -0.5199
 5369SOL     OW27568   0.199   2.520   1.851  0.8171  0.3625 -0.6609
 5369SOL    HW127569   0.114   2.548   1.815 -0.2225 -2.1343 -0.1507
 5369SOL    HW227570   0.239   2.606   1.849  1.0347  0.3162  2.0887
 5370SOL     OW27571   1.064   3.563   0.921  0.1349 -0.0118  0.5102
 5370SOL    HW127572   1.047   3.639   0.976 -0.4348  0.0663  0.2222
 5370SOL    HW227573   1.156   3.579   0.900 -0.3757  2.6740  0.4366
 5371SOL     OW27574   1.513   1.967   1.833  0.4260  0.1268 -0.4080
 5371SOL    HW127575   1.481   2.054   1.814  0.4396 -0.0762 -1.3311
 5371SOL    HW227576   1.466   1.952   1.916  0.6700 -1.4622 -0.5458
 5372SOL     OW27577   0.347   4.176   1.782  0.0033 -0.3981 -0.0933
 5372SOL    HW127578   0.338   4.271   1.792 -0.4522 -0.3823 -0.6536
 5372SOL    HW227579   0.399   4.142   1.855  2.7015  2.0552 -0.8690
 5373SOL     OW27580   0.920   4.503   5.105  0.1249  0.4773  0.0702
 5373SOL    HW127581   0.954   4.467   5.022 -1.5097 -2.6077  0.7520
 5373SOL    HW227582   0.832   4.467   5.108 -0.9947  3.1036 -1.2849
 5374SOL     OW27583   3.540   1.102   4.210  0.1490 -0.3296 -0.3241
 5374SOL    HW127584   3.604   1.160   4.169  0.6668 -2.3919 -2.3967
 5374SOL    HW227585   3.472   1.158   4.246 -1.7833 -2.2401 -1.0360
 5375SOL     OW27586   3.474   1.942   0.881 -0.2507  0.2548  0.7962
 5375SOL    HW127587   3.388   1.963   0.916  0.1010  1.9045  0.6946
 5375SOL    HW227588   3.487   1.857   0.924  0.0218 -0.9563 -1.6562
 5376SOL     OW27589   3.948   4.463   1.374 -0.5219  0.0847  0.2458
 5376SOL    HW127590   4.020   4.503   1.422 -2.6835  3.5893  0.5574
 5376SOL    HW227591   3.946   4.379   1.419 -1.3287  0.0098  0.0697
 5377SOL     OW27592   4.034   4.677   3.726 -0.4730  0.3321  0.5626
 5377SOL    HW127593   4.084   4.665   3.807  0.1590 -1.6558 -0.1304
 5377SOL    HW227594   4.094   0.005   3.672 -0.6308  2.3660  2.3283
 5378SOL     OW27595   2.181   0.743   1.921 -0.6650 -0.8924 -0.2215
 5378SOL    HW127596   2.110   0.733   1.858  1.5011  0.7072 -2.9315
 5378SOL    HW227597   2.263   0.733   1.873 -0.0119  0.6682  0.5574
 5379SOL     OW27598   2.636   0.362   1.382 -0.1444  0.1543 -0.1552
 5379SOL    HW127599   2.695   0.289   1.403 -1.1749 -1.0333 -1.4275
 5379SOL    HW227600   2.549   0.322   1.377  0.0367 -0.3074  0.3737
 5380SOL     OW27601   2.366   4.032   5.258  0.3550 -0.4082  0.3069
 5380SOL    HW127602   2.306   4.104   5.277  2.0635  1.2680 -0.5676
 5380SOL    HW227603   2.368   4.023   5.163  0.4255 -1.4837  0.4095
 5381SOL     OW27604   3.676   3.586   5.779  0.0109 -0.2015 -0.4309
 5381SOL    HW127605   3.720   3.501   5.776  0.2383 -0.1518  1.3963
 5381SOL    HW227606   3.613   3.584   5.706 -2.0096  0.3722  1.2825
 5382SOL     OW27607   2.731   1.786   4.107 -0.2892 -0.4060 -0.4437
 5382SOL    HW127608   2.741   1.860   4.168 -0.6624 -0.6552 -0.0771
 5382SOL    HW227609   2.649   1.745   4.135  1.0942 -2.1803  0.9588
 5383SOL     OW27610   1.274   2.538  16.851 -0.2482  0.0949  0.0545
 5383SOL    HW127611   1.325   2.591  16.911  1.0352  0.4875 -1.3713
 5383SOL    HW227612   1.310   2.451  16.867  0.4498  0.6123  1.2868
 5384SOL     OW27613   2.385   4.228   9.401  0.2353  0.1531 -0.4056
 5384SOL    HW127614   2.338   4.151   9.433  1.6846 -0.9879 -1.0234
 5384SOL    HW227615   2.335   4.261   9.326 -0.0489 -0.2899 -0.4096
 5385SOL     OW27616   3.079   2.748   8.678 -0.4533  0.5780 -1.1063
 5385SOL    HW127617   3.031   2.758   8.597 -1.3129 -2.6040 -1.0155
 5385SOL    HW227618   3.132   2.669   8.665  1.2400  2.0341 -3.0058
 5386SOL     OW27619   4.609   1.029  11.759 -0.4294  0.0772 -0.7804
 5386SOL    HW127620   4.650   1.025  11.672  1.9225  1.4483  0.2731
 5386SOL    HW227621   4.640   0.946  11.796  1.5186  0.1669 -2.1967
 5387SOL     OW27622   1.940   0.211   8.234 -0.1781 -0.4027  0.1511
 5387SOL    HW127623   1.951   0.152   8.160  0.7082 -0.4366  0.3105
 5387SOL    HW227624   2.011   0.272   8.215 -0.6892  0.1928  0.1678
 5388SOL     OW27625   0.997   2.304   9.785 -0.3271 -0.1366 -0.1469
 5388SOL    HW127626   1.039   2.302   9.871 -0.9103  1.3332  0.1768
 5388SOL    HW227627   0.935   2.234   9.803 -0.9475  0.6688  0.8871
 5389SOL     OW27628   1.324   1.872   7.451 -0.2145  0.1267 -0.2090
 5389SOL    HW127629   1.385   1.866   7.524  0.8530 -0.0351 -1.1230
 5389SOL    HW227630   1.346   1.955   7.409 -0.5594  0.9041  1.1460
 5390SOL     OW27631   1.946   3.233   8.513 -0.2453  0.5529  0.1736
 5390SOL    HW127632   1.899   3.160   8.473 -2.4872  1.5058  1.0599
 5390SOL    HW227633   1.952   3.200   8.603 -2.0180 -1.5541 -0.5062
 5391SOL     OW27634   1.208   0.658   9.318  0.0604  0.2211  0.3408
 5391SOL    HW127635   1.131   0.605   9.336  0.4438 -0.7849 -0.9562
 5391SOL    HW227636   1.266   0.641   9.392  0.5254 -1.4550 -0.4009
 5392SOL     OW27637   3.508   1.264   3.636  0.4400  0.2314 -0.0726
 5392SOL    HW127638   3.497   1.233   3.726  0.8999 -0.1048 -0.1321
 5392SOL    HW227639   3.492   1.180   3.593  0.2113  1.2177 -1.8984
 5393SOL     OW27640   3.346   0.332   7.559 -0.3422  0.4403  0.7895
 5393SOL    HW127641   3.261   0.290   7.544  0.3065 -0.0559 -1.4891
 5393SOL    HW227642   3.383   0.257   7.606 -0.1242 -0.3868 -0.7052
 5394SOL     OW27643   1.596   3.083   2.269  0.3201  0.0036 -0.3148
 5394SOL    HW127644   1.604   2.992   2.299 -1.1608  0.3203  1.0190
 5394SOL    HW227645   1.597   3.128   2.353 -1.7852 -0.8951  0.1872
 5395SOL     OW27646   2.538   2.438   3.392  0.3693  0.0548  1.2605
 5395SOL    HW127647   2.557   2.514   3.447  1.4678  0.7322 -0.0614
 5395SOL    HW227648   2.458   2.474   3.353  0.7359 -1.8951 -1.2469
 5396SOL     OW27649   3.050   2.000   3.786 -0.1805  0.3403  0.1937
 5396SOL    HW127650   3.043   1.923   3.731 -2.7117  0.5138  0.2990
 5396SOL    HW227651   3.008   2.070   3.737  1.6394  0.2845 -1.4258
 5397SOL     OW27652   2.588   2.471   6.121 -0.4400 -0.1080 -0.4555
 5397SOL    HW127653   2.668   2.515   6.091 -1.2919  1.7177 -0.0522
 5397SOL    HW227654   2.574   2.409   6.050 -0.1376  2.2417 -2.5698
 5398SOL     OW27655   0.623   3.260   1.906 -0.6251 -0.0530 -0.3099
 5398SOL    HW127656   0.558   3.213   1.958 -1.7196 -0.3139 -1.9027
 5398SOL    HW227657   0.654   3.197   1.840  1.0494 -0.2924  0.7133
 5399SOL     OW27658   1.830   4.642   9.617  0.3066 -0.1453  0.4255
 5399SOL    HW127659   1.895   4.580   9.651  0.2425  0.4115  1.5750
 5399SOL    HW227660   1.781   4.573   9.574  2.2217  0.0235 -1.9971
 5400SOL     OW27661   3.859   1.121  10.499 -0.1702 -0.2938 -0.5197
 5400SOL    HW127662   3.828   1.039  10.461 -1.1191 -0.1734 -0.0185
 5400SOL    HW227663   3.953   1.104  10.504 -0.1253 -0.2800 -1.3498
 5401SOL     OW27664   3.762   1.617   5.440  0.3540 -0.4766  0.0542
 5401SOL    HW127665   3.784   1.582   5.354 -2.3690 -0.9816 -0.4275
 5401SOL    HW227666   3.667   1.616   5.444  0.3319  1.0375 -0.2721
 5402SOL     OW27667   2.926   3.718  11.794  0.5031 -0.3544 -0.1094
 5402SOL    HW127668   2.931   3.813  11.796 -1.6455 -0.2946  1.7674
 5402SOL    HW227669   2.884   3.698  11.710 -0.6971 -1.3597  0.7275
 5403SOL     OW27670   3.436   3.114   5.495  0.1028  0.1315  0.5462
 5403SOL    HW127671   3.488   3.138   5.572  0.9320  0.0252  0.0300
 5403SOL    HW227672   3.355   3.082   5.535 -0.0722  1.8438  1.5740
 5404SOL     OW27673   3.365   0.692   5.440  0.3307  0.1700  0.3649
 5404SOL    HW127674   3.392   0.783   5.454 -1.6773  0.5815  1.4916
 5404SOL    HW227675   3.406   0.664   5.521 -0.4425  1.3864  1.1839
 5405SOL     OW27676   1.229   3.477   3.311  0.1372  0.1590 -0.1735
 5405SOL    HW127677   1.135   3.477   3.332  0.0891  0.5856 -0.3716
 5405SOL    HW227678   1.229   3.428   3.228  0.0311  0.9069 -0.6199
 5406SOL     OW27679   4.491   4.474   5.099  0.4126 -0.5911 -0.4105
 5406SOL    HW127680   4.553   4.413   5.059 -1.1784 -1.2015 -1.9473
 5406SOL    HW227681   4.430   4.415   5.144 -1.0787  0.3952 -1.1230
 5407SOL     OW27682   0.874   2.725   6.719  0.2494 -0.2177 -1.0859
 5407SOL    HW127683   0.898   2.664   6.790 -2.9743  0.5109  0.6041
 5407SOL    HW227684   0.784   2.703   6.697 -1.2693  1.6151  3.4056
 5408SOL     OW27685   3.518   0.020   8.645 -0.4252  0.0370  0.2825
 5408SOL    HW127686   3.454   4.697   8.592 -0.8870 -0.1262  0.9893
 5408SOL    HW227687   3.579   4.670   8.653 -0.8428 -0.2587  0.7729
 5409SOL     OW27688   0.629   0.691   3.920  0.0321  0.6368  0.5740
 5409SOL    HW127689   0.706   0.650   3.881 -1.1969 -1.0222 -0.1422
 5409SOL    HW227690   0.646   0.685   4.014 -0.1097 -1.6056  0.4722
 5410SOL     OW27691   3.903   3.898   9.424  0.4639  0.4929 -0.2265
 5410SOL    HW127692   3.998   3.894   9.436  0.8213  2.4988 -2.3122
 5410SOL    HW227693   3.882   3.813   9.462  1.2341  0.5393  0.3116
 5411SOL     OW27694   0.020   3.231   2.170  0.0730 -0.6887  0.3574
 5411SOL    HW127695   0.073   3.154   2.149  3.5697  1.4675  1.2896
 5411SOL    HW227696   0.075   3.307   2.151 -1.1805  0.5053  1.4837
 5412SOL     OW27697   2.325   2.634   4.244  0.5694 -0.1229  0.2842
 5412SOL    HW127698   2.367   2.604   4.324 -0.5980  0.3665  1.0764
 5412SOL    HW227699   2.291   2.716   4.278  0.0846  0.3695 -1.3655
 5413SOL     OW27700   0.290   2.632  11.792  0.0332  0.1233  0.4058
 5413SOL    HW127701   0.377   2.596  11.809 -0.3011 -0.6396  0.5158
 5413SOL    HW227702   0.234   2.581  11.851 -0.2673 -1.7301 -1.4782
 5414SOL     OW27703   4.641   3.004   5.837  0.4701 -0.3514  0.1530
 5414SOL    HW127704   4.609   2.914   5.832  0.9743 -0.5326  0.2505
 5414SOL    HW227705   4.565   3.045   5.878  0.5783 -1.1458  1.1110
 5415SOL     OW27706   3.382   2.448   2.537  0.0091 -0.5859  0.4355
 5415SOL    HW127707   3.460   2.460   2.592 -0.6259  2.5977  0.6688
 5415SOL    HW227708   3.409   2.435   2.446 -0.7261  2.0658 -0.1675
 5416SOL     OW27709   3.939   0.389   6.728 -0.5263 -0.4449  0.3111
 5416SOL    HW127710   3.966   0.307   6.768  1.8320 -0.1387 -0.6637
 5416SOL    HW227711   3.997   0.454   6.767  0.1959 -1.2440  0.5521
 5417SOL     OW27712   1.520   4.103  11.991  0.3819  0.7092 -0.0731
 5417SOL    HW127713   1.561   4.183  11.958  1.0487  0.4213  0.0371
 5417SOL    HW227714   1.476   4.075  11.911  0.0011  1.3646 -0.0929
 5418SOL     OW27715   3.822   2.601   9.366 -0.4721  0.4767 -0.3513
 5418SOL    HW127716   3.823   2.636   9.454  0.9457  1.9857 -0.9851
 5418SOL    HW227717   3.834   2.512   9.399 -4.1461 -0.6859 -2.0881
 5419SOL     OW27718   2.811   4.526   3.633 -0.2098 -0.2477 -0.0206
 5419SOL    HW127719   2.747   4.490   3.694  0.4967  0.8575  1.3734
 5419SOL    HW227720   2.884   4.465   3.635 -0.8341 -0.8414  3.8773
 5420SOL     OW27721   2.290   3.056   8.174  1.2197  0.0069 -0.5406
 5420SOL    HW127722   2.276   2.988   8.108  1.3377 -0.2741 -0.2741
 5420SOL    HW227723   2.281   2.995   8.247 -0.8744  1.5962  0.5391
 5421SOL     OW27724   3.113   1.520   9.745  0.3526  0.1126 -0.0689
 5421SOL    HW127725   3.096   1.447   9.686 -0.8654 -0.6311  1.2101
 5421SOL    HW227726   3.155   1.582   9.685 -4.0565  1.7887 -1.4352
 5422SOL     OW27727   3.070   3.831   4.502  0.0600  0.8687  0.2711
 5422SOL    HW127728   2.979   3.839   4.533 -0.1051 -2.7340  0.8145
 5422SOL    HW227729   3.080   3.737   4.485 -2.5504  0.8465 -1.1977
 5423SOL     OW27730   2.102   3.803  17.429  0.0947 -0.0606  0.3420
 5423SOL    HW127731   2.136   3.871  17.487 -3.0046  2.0319 -0.3094
 5423SOL    HW227732   2.066   3.858  17.360  0.9587 -0.6634 -0.5983
 5424SOL     OW27733   4.042   4.418   1.806 -0.3562 -0.1204 -0.4103
 5424SOL    HW127734   4.010   4.495   1.759  1.5425 -0.8251 -2.8713
 5424SOL    HW227735   3.971   4.396   1.866  0.2650  0.8986  0.7153
 5425SOL     OW27736   1.879   1.222   4.164  0.2781 -0.7489  0.0065
 5425SOL    HW127737   1.917   1.173   4.090  2.2421  2.1678 -0.9049
 5425SOL    HW227738   1.787   1.238   4.144  0.7445 -0.1262 -1.6317
 5426SOL     OW27739   3.266   3.472   0.596 -0.1619  0.4625 -0.0285
 5426SOL    HW127740   3.206   3.478   0.521  0.8426  0.6969 -0.8142
 5426SOL    HW227741   3.207   3.434   0.661 -1.5926  1.0440 -0.9856
 5427SOL     OW27742   1.678   3.348   7.595  0.5766  0.0669 -0.3872
 5427SOL    HW127743   1.636   3.285   7.653  1.2941 -1.6469 -1.7454
 5427SOL    HW227744   1.621   3.357   7.519  0.9449  1.3909 -0.5042
 5428SOL     OW27745   3.539   0.817   7.798 -0.0175  0.5340  0.6233
 5428SOL    HW127746   3.600   0.850   7.864 -0.6744  2.4785  0.2461
 5428SOL    HW227747   3.602   0.755   7.761 -0.3916 -0.4532  1.6084
 5429SOL     OW27748   3.477   4.170   4.197 -0.4134  0.0561  0.2018
 5429SOL    HW127749   3.472   4.097   4.259  0.1269  1.0126  1.3711
 5429SOL    HW227750   3.396   4.217   4.219 -0.2350 -0.7235  2.5447
 5430SOL     OW27751   1.424   2.269   8.461  0.1948  0.2052 -0.2778
 5430SOL    HW127752   1.439   2.353   8.417 -0.0832  0.1469 -0.4815
 5430SOL    HW227753   1.359   2.286   8.529 -1.8136  0.7979 -2.3444
 5431SOL     OW27754   1.316   4.194   7.709 -0.4205 -0.4844  0.1530
 5431SOL    HW127755   1.409   4.207   7.689 -0.3791 -0.8048  0.1402
 5431SOL    HW227756   1.269   4.260   7.657  3.5210  1.8132 -0.5524
 5432SOL     OW27757   0.021   2.541  13.970 -0.7648  0.3055  0.7415
 5432SOL    HW127758   0.040   2.572  13.881 -0.8131 -0.1359  0.5803
 5432SOL    HW227759   0.096   2.579  14.014 -0.4292  2.6375 -1.8017
 5433SOL     OW27760   0.375   1.124   5.044  0.2118  0.0233 -0.1720
 5433SOL    HW127761   0.376   1.173   4.962 -0.7519 -1.3088 -0.9604
 5433SOL    HW227762   0.447   1.171   5.086  0.1770 -0.6740  0.6516
 5434SOL     OW27763   0.199   3.156  11.053 -0.1770 -0.3667 -0.0232
 5434SOL    HW127764   0.293   3.173  11.047  0.0272 -0.7689  1.8204
 5434SOL    HW227765   0.185   3.101  11.130 -3.0936  0.6686  0.1860
 5435SOL     OW27766   2.238   0.980   2.132 -0.5784 -0.4037 -0.1881
 5435SOL    HW127767   2.244   0.902   2.078  0.0903  1.1549 -2.3574
 5435SOL    HW227768   2.236   0.932   2.215 -1.8691 -1.9700 -1.1184
 5436SOL     OW27769   3.417   3.337   2.723 -0.3802 -0.5355  0.3750
 5436SOL    HW127770   3.330   3.334   2.762 -0.8528 -1.0392 -0.6971
 5436SOL    HW227771   3.385   3.352   2.634  2.1583  0.4393 -0.3950
 5437SOL     OW27772   1.628   0.523   5.282 -0.1586 -0.1474 -0.3858
 5437SOL    HW127773   1.705   0.579   5.297  0.0886 -0.5340 -0.2141
 5437SOL    HW227774   1.634   0.529   5.186  1.3731  0.7846 -0.2395
 5438SOL     OW27775   1.451   1.496   3.805  0.8419  0.2309  0.3252
 5438SOL    HW127776   1.427   1.531   3.890 -1.1698 -0.0262 -0.1265
 5438SOL    HW227777   1.491   1.577   3.773  0.4576  0.9000  1.5332
 5439SOL     OW27778   0.197   1.509   3.340 -0.5202 -0.0018 -0.5760
 5439SOL    HW127779   0.244   1.471   3.266  0.0153  0.4519 -0.4714
 5439SOL    HW227780   0.257   1.576   3.374  0.9461 -2.0508  0.8769
 5440SOL     OW27781   2.582   0.598   9.185 -0.3788 -0.3447  0.0272
 5440SOL    HW127782   2.655   0.596   9.123  0.8745  1.4878  1.4556
 5440SOL    HW227783   2.524   0.668   9.154 -1.0392 -1.1163 -0.5065
 5441SOL     OW27784   3.149   3.512   0.911  0.5976  1.0516 -0.1818
 5441SOL    HW127785   3.170   3.428   0.869 -1.3269  0.3380  0.2901
 5441SOL    HW227786   3.103   3.470   0.983  2.1314 -0.8675 -0.2926
 5442SOL     OW27787   2.187   4.655   4.907  0.6254 -0.4781  0.5397
 5442SOL    HW127788   2.150   4.584   4.854  1.0182 -0.9234  0.8619
 5442SOL    HW227789   2.123   4.720   4.879  1.8987  0.6892  0.3735
 5443SOL     OW27790   4.610   2.978  17.531  0.1881  0.4663 -0.0628
 5443SOL    HW127791   4.671   2.961  17.603 -0.6177 -0.1360  0.4688
 5443SOL    HW227792   4.605   2.890  17.494  2.2350  0.4924 -0.3720
 5444SOL     OW27793   2.407   2.914  14.550 -0.3347  0.3183 -0.0347
 5444SOL    HW127794   2.378   2.823  14.558 -0.1239  0.2920  0.5068
 5444SOL    HW227795   2.493   2.902  14.591 -0.1352  0.5758 -0.3750
 5445SOL     OW27796   4.072   3.779  12.526 -0.5016  0.3773 -0.4053
 5445SOL    HW127797   4.019   3.734  12.592  0.7857 -1.8895 -0.9126
 5445SOL    HW227798   4.161   3.752  12.549 -0.6048 -1.0503 -1.6601
 5446SOL     OW27799   2.058   4.485  10.517 -0.2641 -0.4291 -0.3132
 5446SOL    HW127800   2.148   4.501  10.490 -0.6506  2.2038 -0.0726
 5446SOL    HW227801   2.014   4.459  10.436 -0.0877  1.6418 -1.0991
 5447SOL     OW27802   0.966   2.104   6.092  0.1223  0.7387 -0.2055
 5447SOL    HW127803   0.892   2.085   6.151 -1.0776 -0.0414 -1.9586
 5447SOL    HW227804   0.930   2.057   6.018 -1.1776 -1.3997  1.7832
 5448SOL     OW27805   4.505   2.798  13.442  0.2480 -0.1149  0.2432
 5448SOL    HW127806   4.419   2.824  13.408  0.6586 -0.4624 -1.0793
 5448SOL    HW227807   4.556   2.801  13.361  0.8239 -1.1510  0.5712
 5449SOL     OW27808   3.076   2.463  15.655  0.3454  0.0797 -0.0798
 5449SOL    HW127809   2.981   2.474  15.654  0.4389  0.6054 -2.1192
 5449SOL    HW227810   3.091   2.435  15.565 -0.2279 -0.5775  0.0266
 5450SOL     OW27811   1.777   1.944   1.667 -0.2911  0.0779  0.1150
 5450SOL    HW127812   1.793   1.867   1.613  1.5990  1.3001 -1.0943
 5450SOL    HW227813   1.692   1.917   1.700 -0.6292  1.2375  0.1885
 5451SOL     OW27814   3.828   2.318   5.552  0.0178  0.2439  0.2264
 5451SOL    HW127815   3.827   2.304   5.646  1.8928 -1.9918 -0.0834
 5451SOL    HW227816   3.880   2.398   5.547 -0.1449  0.2593 -1.3277
 5452SOL     OW27817   0.130   1.225   2.890 -0.2110  0.1084 -0.0076
 5452SOL    HW127818   0.045   1.243   2.849  0.1025 -0.1420 -0.7644
 5452SOL    HW227819   0.192   1.226   2.817  1.1656  1.0986  1.1628
 5453SOL     OW27820   0.858   2.066  16.559 -0.0853 -0.3015 -0.3714
 5453SOL    HW127821   0.772   2.105  16.577 -0.4339 -0.6363 -1.3587
 5453SOL    HW227822   0.894   2.121  16.490  0.9708 -0.7060 -0.1390
 5454SOL     OW27823   2.414   2.721   9.380 -0.0939  0.2114  0.8973
 5454SOL    HW127824   2.450   2.639   9.345  1.2254  0.9613  0.4955
 5454SOL    HW227825   2.354   2.686   9.446 -0.7109 -0.4381 -0.0082
 5455SOL     OW27826   0.893   0.690   6.003 -0.3937  0.4852 -0.1630
 5455SOL    HW127827   0.988   0.690   5.989 -0.4893 -1.1923 -0.7993
 5455SOL    HW227828   0.881   0.772   6.051  1.6391  0.9900 -0.5222
 5456SOL     OW27829   3.532   1.405   4.114 -0.6318  0.7329 -0.5770
 5456SOL    HW127830   3.495   1.490   4.141  1.4087  1.3057  0.4217
 5456SOL    HW227831   3.597   1.400   4.184  0.1311  0.9690 -1.2760
 5457SOL     OW27832   3.506   2.645  11.060  0.2623 -0.0244 -0.1754
 5457SOL    HW127833   3.479   2.557  11.035  1.7128 -0.7406  0.7833
 5457SOL    HW227834   3.436   2.696  11.019 -0.4257 -0.1487  0.8446
 5458SOL     OW27835   1.465   4.697   5.774  0.0294 -0.3449 -0.0768
 5458SOL    HW127836   1.472   4.652   5.690  0.1689  1.5035 -1.0503
 5458SOL    HW227837   1.392   4.658   5.822  0.1785  0.9092  1.1855
 5459SOL     OW27838   2.867   0.833   9.295  0.6143 -0.0024 -0.9310
 5459SOL    HW127839   2.772   0.839   9.278  0.7381  0.6643 -1.3867
 5459SOL    HW227840   2.892   0.762   9.236  1.0304  0.9648 -1.9130
 5460SOL     OW27841   1.540   4.139   0.638 -0.5489  0.2226 -0.0955
 5460SOL    HW127842   1.585   4.100   0.563  1.7353  1.0723  0.8131
 5460SOL    HW227843   1.612   4.175   0.690  2.9342  2.4209 -6.3217
 5461SOL     OW27844   1.636   3.699   7.569 -0.8325  0.1755  0.2614
 5461SOL    HW127845   1.674   3.641   7.503  0.3822  2.2715 -0.9190
 5461SOL    HW227846   1.705   3.682   7.633  0.3836  0.2500 -1.0065
 5462SOL     OW27847   2.375   0.212   3.111  0.0019  0.1971 -0.2499
 5462SOL    HW127848   2.370   0.124   3.148  0.5611 -0.1293 -0.9424
 5462SOL    HW227849   2.281   0.229   3.113  0.0413  0.0053  3.4876
 5463SOL     OW27850   4.051   0.021   5.481 -0.6103 -0.0626  0.2300
 5463SOL    HW127851   3.982   4.715   5.422 -1.0368  0.6452  0.3691
 5463SOL    HW227852   4.044   0.116   5.475  0.0131  0.0087  0.6371
 5464SOL     OW27853   3.027   3.517   4.116 -0.3633  0.6813 -0.1364
 5464SOL    HW127854   2.961   3.532   4.184 -0.7128 -2.8755  0.3241
 5464SOL    HW227855   3.029   3.590   4.054  1.0146  0.7528 -0.0023
 5465SOL     OW27856   1.766   0.388  16.860  0.4551  0.5112  0.0730
 5465SOL    HW127857   1.686   0.419  16.818 -0.0167  0.9009  1.2323
 5465SOL    HW227858   1.777   0.447  16.935  1.5293 -0.0830  0.3806
 5466SOL     OW27859   4.144   0.027   4.416 -0.5727 -0.3485  0.3052
 5466SOL    HW127860   4.076   0.047   4.351  1.5972 -0.7301 -2.0723
 5466SOL    HW227861   4.194   4.680   4.376 -0.0128 -0.7202  1.6638
 5467SOL     OW27862   2.819   3.337  16.213 -0.1839  0.0738  0.1024
 5467SOL    HW127863   2.821   3.290  16.130 -0.4261 -3.7824  2.2940
 5467SOL    HW227864   2.908   3.321  16.245  0.2258  0.4671 -0.8234
 5468SOL     OW27865   1.033   2.276  16.401 -0.7123  0.3478 -0.5386
 5468SOL    HW127866   1.125   2.277  16.377 -0.0386  0.6465  2.0207
 5468SOL    HW227867   0.990   2.283  16.316  0.3519 -0.0103 -1.0921
 5469SOL     OW27868   0.875   2.106  10.421 -0.3363  0.7471 -0.2611
 5469SOL    HW127869   0.960   2.130  10.459  0.6942 -3.6235  0.2971
 5469SOL    HW227870   0.883   2.037  10.355  1.2844  0.9070 -0.2455
 5470SOL     OW27871   2.162   1.834   8.568 -0.3478  0.2259 -0.0863
 5470SOL    HW127872   2.217   1.780   8.511 -1.4927  0.0348 -1.0335
 5470SOL    HW227873   2.204   1.840   8.654  0.0202  1.8297 -0.3801
 5471SOL     OW27874   2.364   3.238   8.778  0.2586 -0.5547  0.7758
 5471SOL    HW127875   2.365   3.286   8.696  0.3574 -1.3773  0.2971
 5471SOL    HW227876   2.458   3.240   8.794  0.8749 -0.4966 -2.8405
 5472SOL     OW27877   4.166   3.839   6.502  0.0778 -0.2980 -0.4708
 5472SOL    HW127878   4.166   3.900   6.576 -1.8041  0.3808 -1.0513
 5472SOL    HW227879   4.121   3.897   6.442 -0.5203 -2.5004 -2.1399
 5473SOL     OW27880   2.467   3.481   0.307  0.5665  0.7468 -0.0845
 5473SOL    HW127881   2.390   3.449   0.261  1.1124  1.3599 -1.4261
 5473SOL    HW227882   2.503   3.541   0.240 -0.5081  2.7040  1.0907
 5474SOL     OW27883   3.885   1.301   1.687  0.2571 -0.2836 -0.0498
 5474SOL    HW127884   3.905   1.392   1.665  4.0975 -1.3362 -0.9352
 5474SOL    HW227885   3.908   1.250   1.609  0.2792 -0.4328  0.0535
 5475SOL     OW27886   4.548   2.160  14.622  0.6699 -0.0070  0.2027
 5475SOL    HW127887   4.484   2.185  14.555  2.4728 -0.7907 -1.8254
 5475SOL    HW227888   4.593   2.244  14.623  0.7043 -0.0319  0.5934
 5476SOL     OW27889   0.412   4.535  16.831  0.2825 -0.1984  0.1060
 5476SOL    HW127890   0.447   4.455  16.870 -0.0496 -0.0019  0.8090
 5476SOL    HW227891   0.396   4.597  16.901  0.9049 -1.0475  1.0069
 5477SOL     OW27892   1.455   1.587   3.446  0.7651  0.1489 -0.0762
 5477SOL    HW127893   1.393   1.549   3.385  0.6476  1.3082 -0.6809
 5477SOL    HW227894   1.418   1.673   3.467  0.4980 -0.1831  0.8082
 5478SOL     OW27895   3.004   1.019  11.858 -0.1905 -0.2604 -0.0557
 5478SOL    HW127896   3.073   1.073  11.819 -0.2128 -0.1202  0.0998
 5478SOL    HW227897   2.964   0.999  11.774  0.1070  0.3674 -0.3394
 5479SOL     OW27898   2.248   2.099   2.504 -0.2869  0.5345 -0.4158
 5479SOL    HW127899   2.296   2.117   2.423 -0.5653 -0.7556 -0.8662
 5479SOL    HW227900   2.213   2.013   2.479  2.3904 -0.6646 -0.0964
 5480SOL     OW27901   3.181   4.627  13.962  0.0176  0.5692  0.0314
 5480SOL    HW127902   3.192   4.697  13.898 -0.7216  0.0316 -0.6739
 5480SOL    HW227903   3.101   4.669  13.994  0.5432  2.9000 -1.7360
 5481SOL     OW27904   2.119   0.763   8.137  0.0784  0.4507  0.5923
 5481SOL    HW127905   2.123   0.802   8.049 -0.5808 -1.5611 -0.3464
 5481SOL    HW227906   2.206   0.783   8.171  0.8795  0.2815 -1.3439
 5482SOL     OW27907   2.620   1.466  14.292  0.1064  0.6155  0.1127
 5482SOL    HW127908   2.612   1.400  14.223  0.3930  0.0714  0.5995
 5482SOL    HW227909   2.554   1.530  14.266 -1.5726 -1.8343 -1.6267
 5483SOL     OW27910   0.462   1.753   3.403  0.8862 -0.1804  0.2082
 5483SOL    HW127911   0.520   1.828   3.407 -0.8402  1.0812  1.4861
 5483SOL    HW227912   0.378   1.799   3.395  1.6428  1.2044  0.3002
 5484SOL     OW27913   3.268   1.747   6.660  0.7053  0.2460  0.1497
 5484SOL    HW127914   3.330   1.680   6.687  0.0831  0.4164  1.9738
 5484SOL    HW227915   3.205   1.697   6.607 -0.2081 -1.7532  3.1251
 5485SOL     OW27916   1.558   3.035   3.744  0.3741  0.2864  0.2941
 5485SOL    HW127917   1.618   3.049   3.818  1.5914 -2.8486 -0.1297
 5485SOL    HW227918   1.625   3.061   3.681  1.0828 -3.0937 -0.3213
 5486SOL     OW27919   4.653   4.306   7.145 -0.5735  0.1348  0.1278
 5486SOL    HW127920   4.614   4.371   7.087  1.3521  2.6624  1.6193
 5486SOL    HW227921   4.692   4.248   7.080  1.0906  0.7680  0.5674
 5487SOL     OW27922   1.523   3.863   8.737 -0.0782 -0.0420 -0.1889
 5487SOL    HW127923   1.590   3.853   8.804  0.1060 -0.8870 -0.4865
 5487SOL    HW227924   1.583   3.899   8.671  2.3977 -1.5324  1.2475
 5488SOL     OW27925   0.518   0.966   3.616  0.0951 -0.5232 -0.1989
 5488SOL    HW127926   0.463   1.037   3.582  0.0659 -1.3014 -1.7850
 5488SOL    HW227927   0.607   0.990   3.591  1.0720 -4.5768 -0.5649
 5489SOL     OW27928   2.090   4.722   4.236  0.0211 -0.0802  0.3035
 5489SOL    HW127929   2.171   4.691   4.277 -1.4731 -2.0573  1.7389
 5489SOL    HW227930   2.023   4.683   4.291  0.5327 -1.5249 -0.0766
 5490SOL     OW27931   0.227   0.959   9.916  0.5783 -0.4102 -0.3519
 5490SOL    HW127932   0.231   1.041   9.966  1.3199 -0.9337  0.4560
 5490SOL    HW227933   0.146   0.970   9.867 -0.1429 -2.3745  0.3807
 5491SOL     OW27934   3.843   2.479  11.176 -0.2798 -0.4281 -0.5021
 5491SOL    HW127935   3.824   2.394  11.215  0.9451  0.0956  1.2177
 5491SOL    HW227936   3.775   2.536  11.212 -1.8712 -2.8684  0.3203
 5492SOL     OW27937   3.578   3.102   4.064 -0.1089  0.9732  0.5052
 5492SOL    HW127938   3.666   3.139   4.064 -0.3295  1.5395 -1.8220
 5492SOL    HW227939   3.587   3.026   4.007 -0.4730  0.1318  1.5621
 5493SOL     OW27940   1.477   4.555   8.643 -0.7345  0.2478 -0.0136
 5493SOL    HW127941   1.498   4.647   8.652 -0.4958 -0.1874  3.6308
 5493SOL    HW227942   1.451   4.518   8.728  0.9420  0.4526  0.5725
 5494SOL     OW27943   3.129   2.742   7.251 -0.5129 -0.0361  0.0077
 5494SOL    HW127944   3.045   2.746   7.205 -1.4230 -1.3367  1.5762
 5494SOL    HW227945   3.160   2.661   7.212 -1.9379 -1.2156  1.3260
 5495SOL     OW27946   1.048   4.406   3.489  0.3195  0.0745 -0.1288
 5495SOL    HW127947   0.976   4.376   3.545 -0.2913  0.1952 -0.8415
 5495SOL    HW227948   1.026   4.359   3.409 -0.9560 -1.0260  0.8790
 5496SOL     OW27949   1.551   1.740   2.137 -0.4315  0.1156  0.6563
 5496SOL    HW127950   1.492   1.741   2.213 -0.7751  0.9506  0.3713
 5496SOL    HW227951   1.619   1.804   2.160 -1.4674  2.0955 -1.8242
 5497SOL     OW27952   3.334   4.551   7.146 -0.0180 -0.3189  0.1283
 5497SOL    HW127953   3.266   4.560   7.212  0.7436  0.0129  0.8680
 5497SOL    HW227954   3.317   4.630   7.094 -0.1482 -0.6351 -0.3028
 5498SOL     OW27955   1.328   3.787  16.017  0.1125  0.4065 -0.8576
 5498SOL    HW127956   1.329   3.733  15.938  1.6933  0.5073 -0.9082
 5498SOL    HW227957   1.269   3.739  16.076  0.6346 -1.9115 -2.2047
 5499SOL     OW27958   1.251   0.606   1.827  0.8211 -0.4615  0.1429
 5499SOL    HW127959   1.333   0.617   1.874  0.2277  2.1676  0.5658
 5499SOL    HW227960   1.256   0.510   1.833  0.0186 -0.4345  1.2951
 5500SOL     OW27961   1.166   0.452   1.289  0.1538 -0.2321 -0.5014
 5500SOL    HW127962   1.112   0.449   1.210 -1.4041 -0.2035  0.5855
 5500SOL    HW227963   1.134   0.383   1.346  1.0738  1.4403  2.0394
 5501SOL     OW27964   0.577   2.694   7.101 -0.4545 -0.2339  0.5475
 5501SOL    HW127965   0.512   2.716   7.034  0.4014 -2.8887 -1.1615
 5501SOL    HW227966   0.659   2.730   7.066  0.4756 -1.3127  1.6170
 5502SOL     OW27967   1.333   0.751  10.396 -0.5507  0.4993 -0.1811
 5502SOL    HW127968   1.257   0.755  10.337 -1.4624  0.8543  1.0332
 5502SOL    HW227969   1.405   0.775  10.337 -0.0165 -0.0786  0.2331
 5503SOL     OW27970   2.166   3.896   5.028  0.3627 -0.4776 -0.0364
 5503SOL    HW127971   2.129   3.931   5.109  3.4313  0.9481  0.7567
 5503SOL    HW227972   2.210   3.818   5.062  1.0752 -0.6924 -1.4440
 5504SOL     OW27973   3.714   0.304   7.808 -0.0048  0.4145  0.3461
 5504SOL    HW127974   3.808   0.301   7.825 -0.1279  1.8908  1.2536
 5504SOL    HW227975   3.717   0.230   7.747 -1.7206 -0.4573  1.3044
 5505SOL     OW27976   1.971   0.914  14.168  0.0926  0.4381 -0.6044
 5505SOL    HW127977   1.914   0.901  14.244  2.9736  0.0439  1.4899
 5505SOL    HW227978   2.033   0.844  14.188  0.4282  1.3299  1.4933
 5506SOL     OW27979   0.434   2.337  12.205 -0.0184  0.6639 -0.3298
 5506SOL    HW127980   0.376   2.262  12.193  0.4549  0.1503  0.5237
 5506SOL    HW227981   0.370   2.408  12.208 -1.8373 -0.9572 -0.9195
 5507SOL     OW27982   1.149   3.003  16.302  0.0554 -0.1397 -0.0450
 5507SOL    HW127983   1.113   2.927  16.257 -1.4192  1.3259 -1.3722
 5507SOL    HW227984   1.105   2.999  16.387 -0.3525  1.5252 -0.1658
 5508SOL     OW27985   1.660   3.210   8.322  0.2700 -0.0047  0.2118
 5508SOL    HW127986   1.692   3.299   8.337  0.9134 -0.3083  0.6715
 5508SOL    HW227987   1.741   3.162   8.306  0.9530  1.5249 -1.0245
 5509SOL     OW27988   2.305   0.645   9.767  0.2592  0.0069  0.1484
 5509SOL    HW127989   2.391   0.642   9.724 -0.5767 -0.6476 -1.4749
 5509SOL    HW227990   2.256   0.573   9.728  1.0576  0.9225 -2.5775
 5510SOL     OW27991   3.839   0.007   0.771  0.4587 -0.3504  0.2532
 5510SOL    HW127992   3.855   4.639   0.792  1.9333 -0.4944 -1.4800
 5510SOL    HW227993   3.919   0.026   0.721  0.5529 -2.1927 -0.3117
 5511SOL     OW27994   2.304   3.750  17.676 -0.1998 -0.5798  0.2718
 5511SOL    HW127995   2.263   3.836  17.670  1.1915 -0.1144 -2.6027
 5511SOL    HW227996   2.224   3.701  17.656  0.2790  0.0625 -3.3418
 5512SOL     OW27997   1.259   2.931   7.230  0.3042  0.2357  0.1363
 5512SOL    HW127998   1.339   2.880   7.227  0.3513  0.3136  0.0614
 5512SOL    HW227999   1.195   2.868   7.263  0.5903  0.3240  0.8710
 5513SOL     OW28000   1.173   2.521  15.291 -0.1357  0.0052 -0.3166
 5513SOL    HW128001   1.213   2.605  15.269  0.3745  0.2470  1.5252
 5513SOL    HW228002   1.090   2.549  15.330  0.6101 -0.4721  1.6133
 5514SOL     OW28003   0.017   2.699   2.343  0.0940 -0.0654  0.7967
 5514SOL    HW128004   4.672   2.689   2.277 -0.7309  0.0348  1.6484
 5514SOL    HW228005   0.093   2.674   2.291  0.0179 -0.2639  0.7826
 5515SOL     OW28006   3.788   0.551   9.283  0.2390  0.3410  0.0623
 5515SOL    HW128007   3.871   0.562   9.330  1.6891 -0.6841 -2.2863
 5515SOL    HW228008   3.738   0.628   9.309  1.3409  0.3308  2.2769
 5516SOL     OW28009   0.880   2.883   6.499  0.1347  0.2725  0.5925
 5516SOL    HW128010   0.868   2.966   6.545  1.8786  0.4797  0.6986
 5516SOL    HW228011   0.882   2.832   6.580 -0.6315 -0.6730  0.0152
 5517SOL     OW28012   3.516   0.056   4.949  0.0845 -0.9454  0.0142
 5517SOL    HW128013   3.421   0.046   4.953 -0.0387  1.1951  2.2351
 5517SOL    HW228014   3.533   4.686   4.953  1.1159 -0.7606 -0.1909
 5518SOL     OW28015   3.128   4.407  11.156  0.5157 -0.3832 -0.0074
 5518SOL    HW128016   3.128   4.463  11.234 -0.3852  0.4519 -0.6022
 5518SOL    HW228017   3.223   4.394  11.162 -0.1395 -4.6771  1.6544
 5519SOL     OW28018   2.438   0.118   5.155 -0.3923 -0.0676 -0.3237
 5519SOL    HW128019   2.346   0.130   5.132 -1.1797  0.2712  3.1011
 5519SOL    HW228020   2.475   0.194   5.110  1.8489 -0.3925  0.9905
 5520SOL     OW28021   0.343   3.306   5.146 -0.1910  0.4367  0.7278
 5520SOL    HW128022   0.265   3.303   5.091  1.4797 -0.1044 -1.5675
 5520SOL    HW228023   0.312   3.264   5.227 -1.7475 -1.8139 -1.0501
 5521SOL     OW28024   1.906   1.143   9.968 -0.5407 -0.2200 -0.3029
 5521SOL    HW128025   1.986   1.113  10.009  0.3945 -1.3583 -2.9605
 5521SOL    HW228026   1.931   1.126   9.877  1.8069  0.6642  0.1834
 5522SOL     OW28027   1.985   1.772   6.308 -0.0608  0.1425  0.0396
 5522SOL    HW128028   1.918   1.837   6.331 -2.4069 -2.3884  0.3620
 5522SOL    HW228029   1.928   1.706   6.269  0.2691 -0.5776  0.7707
 5523SOL     OW28030   3.830   4.191  11.047  0.5987  0.0225 -0.1129
 5523SOL    HW128031   3.893   4.215  10.980  0.7907 -0.7039 -0.1944
 5523SOL    HW228032   3.851   4.248  11.121 -0.0837  0.7894 -0.5156
 5524SOL     OW28033   2.697   1.752   8.114  1.0646  0.2526  0.6541
 5524SOL    HW128034   2.635   1.768   8.043  1.6951  0.0020  0.0392
 5524SOL    HW228035   2.763   1.691   8.082  0.9218  0.3200  0.2337
 5525SOL     OW28036   0.870   3.863   0.654  0.3339 -0.1165 -0.1929
 5525SOL    HW128037   0.873   3.914   0.573 -0.4684 -1.8531 -1.3239
 5525SOL    HW228038   0.912   3.785   0.617  0.3568  0.3020 -1.0512
 5526SOL     OW28039   4.695   4.138  11.556  0.0854 -0.2115 -0.6337
 5526SOL    HW128040   4.662   4.225  11.535 -0.3808 -0.7334 -2.0482
 5526SOL    HW228041   0.042   4.156  11.618 -0.4798  0.0896 -0.0773
 5527SOL     OW28042   3.084   0.470   0.217  0.0235  0.3782  0.5592
 5527SOL    HW128043   3.119   0.535   0.277  0.6096  0.0767  0.5452
 5527SOL    HW228044   3.153   0.405   0.228  0.2690  0.3801 -0.8867
 5528SOL     OW28045   2.118   2.852   8.244  0.1244 -0.1139  0.2562
 5528SOL    HW128046   2.111   2.851   8.149  3.7333  1.0899 -0.0049
 5528SOL    HW228047   2.091   2.764   8.269 -0.8789 -0.1715 -1.0426
 5529SOL     OW28048   2.107   0.376  14.013 -0.0392 -0.2162  0.4689
 5529SOL    HW128049   2.079   0.359  14.103  0.9244  2.1781  1.2149
 5529SOL    HW228050   2.029   0.357  13.960 -0.7727  0.2447  1.3923
 5530SOL     OW28051   4.046   4.344  11.005  0.0324  0.2519  0.0279
 5530SOL    HW128052   4.018   4.419  10.953 -0.7188 -0.0518 -0.0005
 5530SOL    HW228053   4.134   4.377  11.025  1.0103 -0.8440 -2.5415
 5531SOL     OW28054   1.690   1.545   7.625  0.5256 -0.5280  0.1250
 5531SOL    HW128055   1.636   1.541   7.545 -1.1357 -0.8429  1.2520
 5531SOL    HW228056   1.733   1.630   7.617 -0.6363 -0.0425 -1.1718
 5532SOL     OW28057   4.722   0.310   4.329  0.0659 -0.0520 -0.2199
 5532SOL    HW128058   4.696   0.264   4.249 -2.7884 -0.6590  1.0853
 5532SOL    HW228059   4.716   0.241   4.395 -0.3717  2.6134  2.5209
 5533SOL     OW28060   3.740   2.927   9.172 -0.2531  0.2163  0.4293
 5533SOL    HW128061   3.648   2.911   9.153 -0.1856  1.1647 -0.7015
 5533SOL    HW228062   3.752   3.009   9.123 -0.4408 -1.5112 -2.5060
 5534SOL     OW28063   1.952   2.351  11.296 -0.0200 -0.7114  0.0149
 5534SOL    HW128064   1.925   2.260  11.311 -1.1969 -0.6454 -1.7465
 5534SOL    HW228065   1.930   2.350  11.203 -0.0516  0.0630  0.0134
 5535SOL     OW28066   4.672   3.193   7.362  0.4275 -0.4504  0.0625
 5535SOL    HW128067   0.036   3.176   7.328  0.3620 -0.3938 -0.1351
 5535SOL    HW228068   4.696   3.232   7.446  0.1817 -2.6906  1.1774
 5536SOL     OW28069   2.134   0.728   9.504  0.2448 -0.3080  0.5525
 5536SOL    HW128070   2.192   0.666   9.460 -0.9729 -0.8304 -0.3413
 5536SOL    HW228071   2.056   0.674   9.519 -0.5038  0.5855 -0.0813
 5537SOL     OW28072   0.092   1.992  16.977 -0.0455  0.0871 -0.3537
 5537SOL    HW128073   0.063   1.965  17.064  0.5919 -0.9550 -0.4596
 5537SOL    HW228074   0.015   2.032  16.939 -0.0096  0.2570 -0.2481
 5538SOL     OW28075   4.246   3.710   2.265 -0.3855  0.2452  0.0800
 5538SOL    HW128076   4.185   3.775   2.230 -2.4205 -1.7463 -0.0890
 5538SOL    HW228077   4.185   3.646   2.303  0.5051 -1.1445 -0.8904
 5539SOL     OW28078   3.405   0.298   9.683 -0.1303  0.3098  0.0074
 5539SOL    HW128079   3.375   0.216   9.644 -4.4977  1.1952  1.5109
 5539SOL    HW228080   3.351   0.367   9.645  0.3016  0.5340 -0.1949
 5540SOL     OW28081   1.465   1.547   9.516 -0.0099  0.4997 -0.5593
 5540SOL    HW128082   1.520   1.564   9.439  1.2319  0.1853  0.2599
 5540SOL    HW228083   1.406   1.486   9.472  0.0325  0.9859 -1.2953
 5541SOL     OW28084   2.018   1.384   3.342 -0.2649  0.0788  0.4004
 5541SOL    HW128085   1.934   1.342   3.361  0.4943 -0.1807  3.1961
 5541SOL    HW228086   1.979   1.462   3.303 -0.2247 -0.4651 -0.7216
 5542SOL     OW28087   0.501   2.639   5.273 -1.1639  0.0174 -0.0239
 5542SOL    HW128088   0.487   2.696   5.348 -0.2899  1.7554 -1.1758
 5542SOL    HW228089   0.559   2.571   5.306 -0.5796 -0.5640 -2.2550
 5543SOL     OW28090   2.765   1.048   8.981 -0.0517 -0.1892 -0.0299
 5543SOL    HW128091   2.823   1.062   9.055  0.5133 -0.7867 -0.3669
 5543SOL    HW228092   2.684   1.009   9.014 -1.4799  0.4592 -2.6962
 5544SOL     OW28093   0.291   1.428   6.239  0.0062  0.2967 -0.2898
 5544SOL    HW128094   0.306   1.485   6.315  0.7222 -0.9647  0.5142
 5544SOL    HW228095   0.371   1.375   6.235  0.2825  0.9126 -2.8034
 5545SOL     OW28096   2.573   4.066   6.806  0.0154 -0.0581  0.3737
 5545SOL    HW128097   2.552   4.154   6.838  1.1147  0.2195  0.3175
 5545SOL    HW228098   2.509   4.019   6.858  0.6512 -2.4400 -1.0119
 5546SOL     OW28099   3.817   4.577  14.402 -0.0514  0.0728 -0.1342
 5546SOL    HW128100   3.733   4.614  14.374 -1.3524 -2.9011 -0.1428
 5546SOL    HW228101   3.841   4.620  14.485  2.4360 -1.5273 -0.0299
 5547SOL     OW28102   1.781   3.910   8.118  0.2069 -0.3976 -0.0202
 5547SOL    HW128103   1.755   3.849   8.049  0.5658 -0.0090 -0.4989
 5547SOL    HW228104   1.734   3.985   8.082  0.8739 -1.4522 -3.0751
 5548SOL     OW28105   0.551   3.573   3.391 -0.1337  0.0142 -0.2348
 5548SOL    HW128106   0.591   3.487   3.405 -0.2667 -0.3119 -1.8215
 5548SOL    HW228107   0.609   3.607   3.323  0.6374 -1.6312 -0.4108
 5549SOL     OW28108   0.536   1.599   6.122  0.2518 -0.1432  0.1472
 5549SOL    HW128109   0.515   1.545   6.046 -0.8495 -2.6001  2.2139
 5549SOL    HW228110   0.462   1.592   6.182 -0.5159  1.2215 -0.6343
 5550SOL     OW28111   3.459   3.568   5.985  0.0174  0.6788  0.2698
 5550SOL    HW128112   3.519   3.594   5.916  0.9146 -0.5702  0.5679
 5550SOL    HW228113   3.389   3.529   5.932 -0.5820  0.5511  1.1441
 5551SOL     OW28114   1.212   1.016  10.927 -0.8312 -0.1680  0.4852
 5551SOL    HW128115   1.292   0.966  10.909  0.4068  1.8912  0.2127
 5551SOL    HW228116   1.205   1.061  10.843  2.5713 -1.4629 -0.4953
 5552SOL     OW28117   1.615   3.759  12.648  0.1084 -0.5099  0.0411
 5552SOL    HW128118   1.650   3.712  12.573  1.6567  0.9881 -0.1742
 5552SOL    HW228119   1.690   3.733  12.702  0.0594 -0.8879 -0.0751
 5553SOL     OW28120   4.406   4.600  13.748  0.2715  0.0411 -0.6527
 5553SOL    HW128121   4.420   4.516  13.792 -0.0274 -1.1552 -2.7937
 5553SOL    HW228122   4.468   4.604  13.675  0.3217 -1.1001 -0.6818
 5554SOL     OW28123   1.442   2.540   1.702  0.7120 -0.1246  0.0200
 5554SOL    HW128124   1.415   2.495   1.622 -2.7152 -3.0386  2.8054
 5554SOL    HW228125   1.536   2.542   1.683  1.6212 -0.7982  4.6092
 5555SOL     OW28126   0.694   4.174   4.279 -0.4977 -0.4511 -0.1370
 5555SOL    HW128127   0.667   4.214   4.361 -0.1767 -1.4401  0.4503
 5555SOL    HW228128   0.631   4.103   4.271  1.2411 -2.1820  1.4747
 5556SOL     OW28129   1.856   3.665   4.905  0.1966  0.3490  0.0073
 5556SOL    HW128130   1.780   3.719   4.886  1.1626  1.2489 -1.3177
 5556SOL    HW228131   1.854   3.666   5.001  3.4445 -1.1754  0.0915
 5557SOL     OW28132   3.216   4.602  10.000  0.1903  0.2764 -0.0503
 5557SOL    HW128133   3.228   4.517   9.957  0.7019  0.5067 -0.3721
 5557SOL    HW228134   3.241   4.651   9.921  1.0519  2.5012  1.6137
 5558SOL     OW28135   4.238   4.458  14.463 -0.0486 -0.7576  0.1635
 5558SOL    HW128136   4.315   4.402  14.474  1.0231  0.4509 -1.3051
 5558SOL    HW228137   4.267   4.544  14.493  0.0600 -1.0307  0.8613
 5559SOL     OW28138   0.311   0.777   0.940 -0.0797 -0.2030 -0.0448
 5559SOL    HW128139   0.280   0.787   1.030 -0.0851  1.4619 -0.2452
 5559SOL    HW228140   0.232   0.737   0.903 -0.2962 -0.5720  0.8127
 5560SOL     OW28141   4.329   2.487   8.012  0.1026 -0.1301 -0.8019
 5560SOL    HW128142   4.290   2.508   8.097 -1.2780 -2.1411 -0.9403
 5560SOL    HW228143   4.370   2.402   8.028 -0.4404 -0.3241 -0.4416
 5561SOL     OW28144   3.234   3.685   2.539  0.0437 -0.0956  0.0906
 5561SOL    HW128145   3.168   3.645   2.596  0.2105 -1.2574 -0.5168
 5561SOL    HW228146   3.256   3.619   2.473 -0.4907 -1.0428  0.8582
 5562SOL     OW28147   3.115   2.270   0.019 -0.1092 -0.6944 -0.1076
 5562SOL    HW128148   3.041   2.220  17.683  0.4154 -1.3956 -0.2161
 5562SOL    HW228149   3.095   2.360  17.694  0.9411 -0.1009  1.3072
 5563SOL     OW28150   2.010   1.211   5.166  0.2347  0.0537  0.1846
 5563SOL    HW128151   1.984   1.213   5.258 -0.6135 -0.1530 -0.0489
 5563SOL    HW228152   1.974   1.297   5.141  1.1830  0.5446  0.4984
 5564SOL     OW28153   0.207   1.005  11.808 -0.1041  0.8516  0.1725
 5564SOL    HW128154   0.198   0.910  11.799  0.9092  0.7626  0.1074
 5564SOL    HW228155   0.117   1.031  11.789 -0.5947 -1.8029 -1.1727
 5565SOL     OW28156   3.195   0.121  16.556  0.5080  0.0322  0.2056
 5565SOL    HW128157   3.273   0.077  16.523 -0.2758  0.3150 -2.0202
 5565SOL    HW228158   3.189   0.203  16.507  1.8598  0.6364  1.0427
 5566SOL     OW28159   3.108   3.536  13.193 -0.2476 -0.7342 -0.1771
 5566SOL    HW128160   3.029   3.515  13.144 -0.7671 -0.7030  0.6401
 5566SOL    HW228161   3.130   3.463  13.252  1.6839 -1.3099 -1.6139
 5567SOL     OW28162   3.920   1.509   1.521  0.5703  0.2379  1.0235
 5567SOL    HW128163   3.879   1.584   1.478 -0.8540 -2.1399 -1.7488
 5567SOL    HW228164   4.006   1.504   1.478 -0.8521  1.2636 -1.9344
 5568SOL     OW28165   2.589   3.438   4.849 -0.6591  0.2779 -0.5083
 5568SOL    HW128166   2.638   3.357   4.835 -4.4965 -1.7197 -2.2724
 5568SOL    HW228167   2.512   3.406   4.896  0.0801 -0.9183 -0.0898
 5569SOL     OW28168   4.612   2.465  13.196 -0.2253 -0.6444 -0.7295
 5569SOL    HW128169   4.542   2.512  13.152 -1.0998 -0.1896  1.1831
 5569SOL    HW228170   4.589   2.494  13.284  0.9518  0.2587 -0.7164
 5570SOL     OW28171   3.525   2.425   1.791 -0.6624 -0.1608 -0.2354
 5570SOL    HW128172   3.596   2.435   1.855 -0.9071  0.5097 -0.0712
 5570SOL    HW228173   3.560   2.449   1.705 -2.0203 -1.7789 -1.2238
 5571SOL     OW28174   2.785   2.100   8.154 -0.2422 -0.0086 -0.0627
 5571SOL    HW128175   2.815   2.025   8.205  0.8139  0.6845  0.3375
 5571SOL    HW228176   2.852   2.165   8.174  0.8547 -0.1176 -3.3970
 5572SOL     OW28177   0.216   2.528   8.535 -0.4133  0.3885  0.0793
 5572SOL    HW128178   0.257   2.609   8.506  1.2460 -0.7252 -0.6887
 5572SOL    HW228179   0.254   2.518   8.622  1.1660  2.2158 -0.4203
 5573SOL     OW28180   3.794   2.825   5.511  0.4062  0.1037  0.2888
 5573SOL    HW128181   3.757   2.861   5.591  2.0485 -1.9810  1.9904
 5573SOL    HW228182   3.725   2.845   5.448  1.8030 -0.6581 -1.4737
 5574SOL     OW28183   1.096   0.862   1.853  0.0600  0.0160  0.0671
 5574SOL    HW128184   1.135   0.775   1.860 -0.0199 -0.2333 -2.6524
 5574SOL    HW228185   1.171   0.922   1.857 -1.2808  1.7032  0.1941
 5575SOL     OW28186   3.435   2.835   4.893 -0.4434  0.2100  0.1907
 5575SOL    HW128187   3.399   2.860   4.978 -0.0447 -2.2154  1.0861
 5575SOL    HW228188   3.453   2.925   4.867 -1.2355  0.3746  0.2194
 5576SOL     OW28189   3.831   3.277   2.717 -0.1003 -0.0887  0.0269
 5576SOL    HW128190   3.843   3.357   2.769  0.7707 -0.2965  0.1321
 5576SOL    HW228191   3.885   3.293   2.640  0.8975  1.2299  0.9944
 5577SOL     OW28192   2.335   4.559   8.671  0.4012 -0.0981 -0.4155
 5577SOL    HW128193   2.344   4.587   8.762  2.6401 -0.8732 -0.3935
 5577SOL    HW228194   2.420   4.592   8.642  0.1206 -1.5990 -3.0372
 5578SOL     OW28195   1.174   3.271   9.703  0.1754 -0.1525  0.1555
 5578SOL    HW128196   1.083   3.268   9.734  0.8856 -1.3392  2.0784
 5578SOL    HW228197   1.177   3.367   9.702 -0.4930 -0.1261  0.2449
 5579SOL     OW28198   1.691   1.756   4.008  0.3472  1.2701  0.3305
 5579SOL    HW128199   1.760   1.718   3.953 -1.3683 -0.7874 -0.4233
 5579SOL    HW228200   1.655   1.815   3.942  0.5588  0.1606 -0.7865
 5580SOL     OW28201   2.079   2.393  12.857  0.2762 -0.0505  0.5852
 5580SOL    HW128202   2.097   2.487  12.850 -1.0449  0.1773  0.1672
 5580SOL    HW228203   2.085   2.390  12.952 -2.1380  0.9063  0.7631
 5581SOL     OW28204   3.102   1.128   2.109 -0.3614  0.4392 -0.8446
 5581SOL    HW128205   3.040   1.094   2.045 -1.2383  2.6493 -1.1802
 5581SOL    HW228206   3.171   1.162   2.051  0.6555  2.3778  1.5048
 5582SOL     OW28207   2.567   0.066   7.602  0.3519  0.1336  0.5829
 5582SOL    HW128208   2.557   0.161   7.601  1.9378  0.3069  0.8221
 5582SOL    HW228209   2.535   0.042   7.689  1.3839 -0.2799  0.8578
 5583SOL     OW28210   3.583   2.055   2.987 -0.2673  0.0320  0.3685
 5583SOL    HW128211   3.557   2.144   2.960  0.4098  0.4220  0.9905
 5583SOL    HW228212   3.671   2.082   3.014 -0.0055 -0.1246 -0.3473
 5584SOL     OW28213   2.045   2.516   4.333  0.1612 -0.0342 -0.3849
 5584SOL    HW128214   1.987   2.593   4.334 -0.7726 -0.7456  1.5148
 5584SOL    HW228215   2.098   2.537   4.257 -0.3062  0.2198 -0.6411
 5585SOL     OW28216   1.713   3.288   6.074 -0.4595  0.3204  0.5535
 5585SOL    HW128217   1.808   3.294   6.081 -0.3241 -0.9836 -0.1659
 5585SOL    HW228218   1.690   3.371   6.032 -1.3748  0.1764  0.7551
 5586SOL     OW28219   1.477   2.070  11.164  0.0791  0.3437 -0.3706
 5586SOL    HW128220   1.515   2.118  11.237 -0.4934  1.8235 -1.0395
 5586SOL    HW228221   1.489   1.980  11.195  2.2494  0.1275 -1.8854
 5587SOL     OW28222   3.055   1.326   3.053 -0.0467 -1.1510  0.0503
 5587SOL    HW128223   3.133   1.372   3.022 -0.3156 -0.0147  1.0729
 5587SOL    HW228224   3.066   1.254   2.991 -3.2719 -0.9409 -0.7406
 5588SOL     OW28225   1.673   3.915   4.824 -0.0722 -0.1121 -0.5953
 5588SOL    HW128226   1.731   3.988   4.844  1.0058 -0.7366 -1.4120
 5588SOL    HW228227   1.618   3.908   4.902 -0.5152 -1.0164 -0.9843
 5589SOL     OW28228   4.364   2.007   8.862 -0.2846 -0.3668 -0.3855
 5589SOL    HW128229   4.304   1.957   8.805 -0.1633  1.5265 -2.1556
 5589SOL    HW228230   4.429   1.938   8.872  0.5571  0.7439  1.7265
 5590SOL     OW28231   1.224   3.369   6.702 -0.5489 -0.4516  0.0050
 5590SOL    HW128232   1.272   3.295   6.663  0.7162 -0.0472  0.7853
 5590SOL    HW228233   1.294   3.434   6.696  1.1155 -2.1524  0.9307
 5591SOL     OW28234   0.633   0.978   5.345 -0.8834  0.1432  0.0089
 5591SOL    HW128235   0.686   0.953   5.421  0.1902  0.0446 -0.7887
 5591SOL    HW228236   0.641   1.072   5.356 -1.4829  0.0304  1.5688
 5592SOL     OW28237   3.024   4.626   6.218  0.2258  0.6134 -0.4680
 5592SOL    HW128238   3.094   4.564   6.203 -2.0402 -1.9785 -0.3272
 5592SOL    HW228239   2.944   4.587   6.183 -0.4180  0.3098  1.3471
 5593SOL     OW28240   0.981   0.581  16.280  0.1238 -0.3201  0.1513
 5593SOL    HW128241   0.935   0.544  16.356  0.7507 -0.9695  0.2188
 5593SOL    HW228242   0.995   0.507  16.221  1.6929  2.6906 -3.2699
 5594SOL     OW28243   3.493   0.575  14.987  0.1953 -0.4063 -0.6093
 5594SOL    HW128244   3.401   0.566  15.013 -0.4318  2.3827 -1.8924
 5594SOL    HW228245   3.482   0.664  14.955  2.3291  0.5442  1.3210
 5595SOL     OW28246   3.312   1.565   3.301  0.7762 -0.0246 -0.0326
 5595SOL    HW128247   3.297   1.499   3.368 -0.6700  0.1330 -0.2015
 5595SOL    HW228248   3.219   1.578   3.280  0.3269 -1.2123  1.2307
 5596SOL     OW28249   2.387   4.425   7.299  0.4996  0.3833 -0.8793
 5596SOL    HW128250   2.297   4.427   7.266  0.3702 -0.6980 -0.5878
 5596SOL    HW228251   2.421   4.347   7.254 -0.3472  0.2700 -1.3257
 5597SOL     OW28252   2.290   0.560  11.234  0.1521  0.6153  0.0120
 5597SOL    HW128253   2.210   0.590  11.277 -1.7604 -1.8165 -1.8188
 5597SOL    HW228254   2.261   0.530  11.148 -0.9475  0.5091  0.4132
 5598SOL     OW28255   1.377   3.990  13.585 -0.0918  0.2676 -0.5450
 5598SOL    HW128256   1.437   3.999  13.659 -1.4719 -1.0348  0.7133
 5598SOL    HW228257   1.291   4.012  13.619  0.2604 -0.9499  1.1436
 5599SOL     OW28258   2.900   4.093   5.291 -0.1746  1.0996  0.1246
 5599SOL    HW128259   2.889   4.134   5.377 -0.7383 -1.6778  1.3964
 5599SOL    HW228260   2.817   4.045   5.292  1.3570 -1.5762 -1.3954
 5600SOL     OW28261   1.012   0.477   1.061  0.0145  0.4186  0.2596
 5600SOL    HW128262   0.994   0.444   0.973 -2.2373  0.1129  0.8285
 5600SOL    HW228263   0.987   0.568   1.044  1.1868  1.2800  3.1059
 5601SOL     OW28264   1.468   2.486   2.206  0.2510 -0.3658  0.0236
 5601SOL    HW128265   1.414   2.476   2.285 -0.3965  0.3121 -0.3458
 5601SOL    HW228266   1.438   2.571   2.176 -1.1476 -1.2271 -0.9959
 5602SOL     OW28267   3.155   0.405  11.085  0.3376  0.2929  0.1090
 5602SOL    HW128268   3.247   0.397  11.057 -0.2548  0.2028 -1.7745
 5602SOL    HW228269   3.150   0.353  11.165 -0.8256  0.2525 -0.0002
 5603SOL     OW28270   3.647   1.490   2.936 -0.0647  0.0546  0.8686
 5603SOL    HW128271   3.588   1.534   2.875 -0.4034 -0.5759  0.7425
 5603SOL    HW228272   3.623   1.533   3.018 -0.2059  0.6370  0.5291
 5604SOL     OW28273   0.926   1.944   5.042  0.0773  0.2848 -0.2458
 5604SOL    HW128274   0.951   1.896   4.963 -2.4468 -2.1656  0.4729
 5604SOL    HW228275   0.891   2.028   5.012  0.7241  0.1497 -1.3754
 5605SOL     OW28276   3.495   1.208   3.931 -0.9338 -0.0115 -0.3059
 5605SOL    HW128277   3.408   1.180   3.959 -0.7366 -2.1996 -1.9159
 5605SOL    HW228278   3.515   1.281   3.989 -0.8333 -0.5482  0.3360
 5606SOL     OW28279   1.474   2.760   4.485 -0.5600 -0.2183 -0.6863
 5606SOL    HW128280   1.387   2.800   4.478 -0.0314  0.4929 -3.0501
 5606SOL    HW228281   1.507   2.798   4.404 -0.2200  0.4045 -0.2572
 5607SOL     OW28282   2.378   2.986   2.439  0.6266  0.3663 -0.2414
 5607SOL    HW128283   2.470   2.962   2.431  1.0546  1.0903  2.7050
 5607SOL    HW228284   2.339   2.908   2.480 -0.9556  0.1820 -2.0642
 5608SOL     OW28285   4.714   4.245   4.689  0.0666 -0.2943  0.1959
 5608SOL    HW128286   4.681   4.310   4.751 -1.7815 -0.1953 -0.8634
 5608SOL    HW228287   4.679   4.279   4.606  0.4756 -0.6621 -0.1234
 5609SOL     OW28288   1.266   2.017   5.083  0.0688  0.0703  0.3404
 5609SOL    HW128289   1.321   2.090   5.112 -1.6496  1.8304 -0.8089
 5609SOL    HW228290   1.184   2.044   5.124 -0.7731 -3.7493  1.0951
 5610SOL     OW28291   4.451   1.025   1.244  0.2317 -0.0955 -0.3854
 5610SOL    HW128292   4.538   1.045   1.278 -0.2671  0.9251  0.3222
 5610SOL    HW228293   4.450   1.100   1.184 -1.1841  1.2334  1.2909
 5611SOL     OW28294   2.704   3.753   3.669  0.0471 -0.1349  0.6033
 5611SOL    HW128295   2.627   3.799   3.634  1.5486  1.8658 -0.0346
 5611SOL    HW228296   2.776   3.810   3.643 -0.7381 -0.0407 -1.3605
 5612SOL     OW28297   2.590   1.644   4.926  0.3936  0.2344 -0.6263
 5612SOL    HW128298   2.505   1.637   4.969 -0.1980 -1.1732 -2.0242
 5612SOL    HW228299   2.646   1.603   4.992 -0.3256 -1.0752 -0.8221
 5613SOL     OW28300   2.296   2.357   9.312 -0.1845 -0.4372  0.3972
 5613SOL    HW128301   2.285   2.421   9.242 -0.5187 -0.0834  0.7713
 5613SOL    HW228302   2.206   2.368   9.342 -0.3800 -0.5739 -0.1407
 5614SOL     OW28303   0.368   1.755   4.862 -0.7479 -0.2999  0.1542
 5614SOL    HW128304   0.313   1.689   4.818 -2.3910 -0.0386  1.8367
 5614SOL    HW228305   0.307   1.800   4.919 -0.0815  1.3690 -0.4612
 5615SOL     OW28306   3.407   4.677   6.291 -0.2975 -0.0199  0.4603
 5615SOL    HW128307   3.371   4.650   6.206 -0.8873  0.7585  0.4638
 5615SOL    HW228308   3.428   4.592   6.329  0.9310  0.2596  0.4144
 5616SOL     OW28309   3.032   1.111   6.932  0.1316 -0.2806  0.2145
 5616SOL    HW128310   2.986   1.165   6.996  0.1647  0.5806 -0.4795
 5616SOL    HW228311   2.979   1.130   6.854  1.1732 -2.0808 -0.9608
 5617SOL     OW28312   3.347   4.542   7.829  0.2080 -0.0372  0.0431
 5617SOL    HW128313   3.274   4.501   7.875  1.7131 -0.6565  1.8461
 5617SOL    HW228314   3.405   4.473   7.797 -1.5542  0.0954 -3.5111
 5618SOL     OW28315   4.313   3.115   5.745 -0.4086 -0.7478 -0.1553
 5618SOL    HW128316   4.261   3.038   5.771  1.4964 -2.7755 -2.4498
 5618SOL    HW228317   4.391   3.084   5.699  1.3892  0.6808  1.9431
 5619SOL     OW28318   2.133   3.655   9.361  0.8029 -0.7466 -0.1071
 5619SOL    HW128319   2.121   3.720   9.291  0.8655 -1.4190 -0.7483
 5619SOL    HW228320   2.212   3.608   9.335  1.9717  0.1077  1.9429
 5620SOL     OW28321   2.307   0.622  17.222 -0.0297 -0.5440 -0.1329
 5620SOL    HW128322   2.234   0.584  17.174 -0.0432  0.1017 -0.6162
 5620SOL    HW228323   2.278   0.629  17.313  2.1501 -0.3318  0.5588
 5621SOL     OW28324   0.924   3.499  14.243 -0.4869  0.5024  0.2224
 5621SOL    HW128325   0.939   3.442  14.168  1.8186  0.7448  0.5148
 5621SOL    HW228326   0.961   3.579  14.205 -0.0017 -0.8308 -2.0536
 5622SOL     OW28327   4.202   1.688  15.552 -0.1424 -0.6676  0.0746
 5622SOL    HW128328   4.270   1.711  15.488 -0.0558 -0.6221  0.1824
 5622SOL    HW228329   4.236   1.730  15.631 -1.9178  0.1105  0.4051
 5623SOL     OW28330   1.387   1.818  11.506 -0.5806  0.0873 -0.4153
 5623SOL    HW128331   1.432   1.797  11.588 -0.2866 -1.1220 -0.8823
 5623SOL    HW228332   1.367   1.729  11.476 -0.6560 -0.2379  0.5936
 5624SOL     OW28333   3.808   0.046   2.905  0.1952  0.8934 -0.5136
 5624SOL    HW128334   3.751   0.007   2.838  1.2406 -0.2479 -0.7373
 5624SOL    HW228335   3.836   4.697   2.960 -0.4196  0.4654 -0.7695
 5625SOL     OW28336   1.202   3.963   9.826 -0.1287 -0.9511  0.3494
 5625SOL    HW128337   1.202   3.934   9.917 -0.3959  2.7756  1.5414
 5625SOL    HW228338   1.261   3.896   9.792 -0.6114 -0.0176 -2.3241
 5626SOL     OW28339   2.863   1.067   7.520 -0.3386  0.2355 -0.8137
 5626SOL    HW128340   2.921   1.003   7.478  0.9345  0.0684  1.1581
 5626SOL    HW228341   2.907   1.151   7.511 -2.2841  1.5068  1.6546
 5627SOL     OW28342   0.629   3.939   3.223  0.2991 -0.3577 -0.6821
 5627SOL    HW128343   0.595   3.942   3.312 -1.4207  3.1873 -1.4608
 5627SOL    HW228344   0.557   3.985   3.180  1.2557 -0.3240 -2.2345
 5628SOL     OW28345   1.837   2.178   7.721 -0.0084  0.1435  0.2631
 5628SOL    HW128346   1.803   2.211   7.637 -0.0884 -1.0007 -0.1520
 5628SOL    HW228347   1.931   2.173   7.706  0.4396  2.1505  2.4240
 5629SOL     OW28348   3.463   3.754   7.819  1.0225 -0.2637  0.0710
 5629SOL    HW128349   3.507   3.735   7.736  0.2458 -1.8917  0.0381
 5629SOL    HW228350   3.461   3.677   7.876 -0.0700  0.3813  0.9063
 5630SOL     OW28351   0.494   0.757  13.469 -0.0954  0.4960  0.2104
 5630SOL    HW128352   0.589   0.768  13.475  0.0878 -0.4828 -0.9876
 5630SOL    HW228353   0.482   0.836  13.417 -0.7653 -0.3287 -0.8868
 5631SOL     OW28354   2.515   3.749   3.868 -0.4883  0.5414  0.3125
 5631SOL    HW128355   2.540   3.791   3.950 -2.9342  0.3470  1.1412
 5631SOL    HW228356   2.595   3.763   3.817  0.3389  0.8927  1.6917
 5632SOL     OW28357   1.775   1.753   9.270 -0.3103 -0.1781 -0.0040
 5632SOL    HW128358   1.854   1.799   9.296 -0.5846 -0.5301  1.4277
 5632SOL    HW228359   1.796   1.748   9.176 -0.0642 -1.0898  0.0926
 5633SOL     OW28360   0.862   0.933   1.780 -0.5160  0.2581  0.3439
 5633SOL    HW128361   0.875   0.975   1.695  2.0626 -1.4644 -0.1171
 5633SOL    HW228362   0.944   0.885   1.789  0.2515  1.3680 -0.8044
 5634SOL     OW28363   0.161   0.027   4.946 -0.3482 -0.6617  0.0361
 5634SOL    HW128364   0.176   0.121   4.953  1.3423 -0.9408  0.1199
 5634SOL    HW228365   0.072   0.024   4.980  0.4154  0.4174  2.0926
 5635SOL     OW28366   0.936   2.939   9.216 -0.1275  0.0382 -0.1196
 5635SOL    HW128367   0.912   3.000   9.285  0.4018 -0.7942  0.8066
 5635SOL    HW228368   1.007   2.898   9.264  0.1949 -0.0366 -0.6608
 5636SOL     OW28369   2.078   1.964   0.412 -0.2036  0.2823 -0.3186
 5636SOL    HW128370   2.119   2.010   0.339  2.3859 -0.0790  0.8941
 5636SOL    HW228371   2.093   1.871   0.398  1.3124  0.5156 -0.2726
 5637SOL     OW28372   3.627   0.370   5.539  0.6624  0.3171  0.1283
 5637SOL    HW128373   3.652   0.388   5.448  0.1760 -1.2197 -0.3051
 5637SOL    HW228374   3.539   0.333   5.538  0.8798 -0.1858 -0.5962
 5638SOL     OW28375   2.991   1.230   8.866  0.2822  0.0384 -0.0598
 5638SOL    HW128376   2.934   1.184   8.804 -0.1227  0.2191  0.1852
 5638SOL    HW228377   2.971   1.190   8.950 -1.2160 -0.3287 -0.5856
 5639SOL     OW28378   4.335   3.521   4.422 -0.2327 -0.1369 -0.0953
 5639SOL    HW128379   4.285   3.533   4.502  0.3744 -0.0383  0.2702
 5639SOL    HW228380   4.273   3.557   4.359 -0.6938  1.5084  1.3072
 5640SOL     OW28381   3.491   0.002   3.238 -0.0278  0.0613  0.1290
 5640SOL    HW128382   3.473   0.096   3.247  1.5258  0.1933  1.7560
 5640SOL    HW228383   3.575   0.015   3.194 -0.3895  1.2686 -0.2220
 5641SOL     OW28384   2.847   1.721  10.069  0.0315  0.0006 -0.2398
 5641SOL    HW128385   2.763   1.748  10.104  1.7492  2.8803  1.6822
 5641SOL    HW228386   2.879   1.694  10.156 -0.9612 -0.1236  0.0792
 5642SOL     OW28387   1.167   4.687  16.822  0.2569  0.1884 -0.5674
 5642SOL    HW128388   1.085   0.012  16.830 -0.0127 -0.2699 -0.5299
 5642SOL    HW228389   1.136   4.641  16.744  1.5346 -0.4034 -0.7375
 5643SOL     OW28390   0.712   4.722   6.954  0.3682 -0.3711 -0.2300
 5643SOL    HW128391   0.618   0.011   6.938  0.4561  0.2694 -0.1876
 5643SOL    HW228392   0.729   4.680   6.870 -0.3410  0.4084 -0.7551
 5644SOL     OW28393   2.725   2.737   2.790  0.7721 -0.4642  0.5739
 5644SOL    HW128394   2.763   2.813   2.746  1.2391  0.5165  2.7053
 5644SOL    HW228395   2.676   2.784   2.857 -0.4361  0.4327 -0.9340
 5645SOL     OW28396   1.973   3.689  15.356 -0.2768 -0.1054 -0.0555
 5645SOL    HW128397   1.934   3.771  15.388 -0.0638  0.5094 -1.3668
 5645SOL    HW228398   1.923   3.692  15.275 -0.5753  0.0043  0.1291
 5646SOL     OW28399   0.572   2.571   3.442  0.1419 -0.0498 -0.1686
 5646SOL    HW128400   0.574   2.594   3.349 -2.2181  1.9950  0.2869
 5646SOL    HW228401   0.534   2.485   3.422  0.5822 -0.3514  0.2794
 5647SOL     OW28402   0.066   3.631   7.493  0.0923 -0.8609 -0.6670
 5647SOL    HW128403   0.001   3.624   7.562  0.9175 -0.8590  0.1121
 5647SOL    HW228404   0.134   3.565   7.509 -0.4962 -0.8366  1.9415
 5648SOL     OW28405   4.432   0.899   3.303  0.0755 -0.3988  0.5631
 5648SOL    HW128406   4.375   0.902   3.226  0.3288  0.4624  0.4208
 5648SOL    HW228407   4.517   0.907   3.260  0.8376 -1.6760  1.8238
 5649SOL     OW28408   3.805   1.409   6.100 -0.1270  0.2647 -0.0248
 5649SOL    HW128409   3.803   1.318   6.130 -0.4634  0.4012  0.3567
 5649SOL    HW228410   3.878   1.410   6.037  0.9476 -1.9378  1.1833
 5650SOL     OW28411   2.589   0.894   6.525  0.1604 -0.5547 -0.2376
 5650SOL    HW128412   2.668   0.860   6.482  0.3043 -1.6637  0.8790
 5650SOL    HW228413   2.625   0.893   6.614  0.5312 -0.3412 -0.3882
 5651SOL     OW28414   0.163   3.525   2.879 -0.0095  0.3873 -0.0341
 5651SOL    HW128415   0.080   3.558   2.913 -0.6807 -2.5455  1.2245
 5651SOL    HW228416   0.157   3.431   2.900  3.4776  0.3967  0.9264
 5652SOL     OW28417   2.592   4.302   2.218 -0.1865 -0.4786  0.4093
 5652SOL    HW128418   2.681   4.296   2.253 -0.2642 -1.2116  0.4910
 5652SOL    HW228419   2.578   4.393   2.191 -1.3562 -0.4224  1.1665
 5653SOL     OW28420   3.595   2.256  11.926 -0.0656 -0.0890 -0.2168
 5653SOL    HW128421   3.674   2.307  11.941 -1.0286  2.1940 -3.0300
 5653SOL    HW228422   3.535   2.311  11.976  0.4753  0.3401 -0.0367
 5654SOL     OW28423   1.345   2.972   8.125 -0.6399  0.3546  0.4826
 5654SOL    HW128424   1.379   3.053   8.087  1.6814 -0.7227  0.2023
 5654SOL    HW228425   1.379   2.980   8.214 -1.0171 -1.7060  0.8044
 5655SOL     OW28426   2.386   2.416  15.913 -0.0589  0.2568  0.3665
 5655SOL    HW128427   2.462   2.474  15.912  0.1384  0.0048  1.2553
 5655SOL    HW228428   2.328   2.466  15.970 -2.3626 -0.6059 -1.1595
 5656SOL     OW28429   0.523   0.703   6.449 -0.5497  0.1145 -0.7788
 5656SOL    HW128430   0.559   0.770   6.507 -2.4752 -1.0197  1.6953
 5656SOL    HW228431   0.439   0.677   6.485 -1.4250  1.3451 -1.9370
 5657SOL     OW28432   3.494   2.463   0.619  0.5722 -0.5232 -0.1579
 5657SOL    HW128433   3.526   2.377   0.644  0.0600 -0.4486  0.7326
 5657SOL    HW228434   3.427   2.478   0.685  0.4440  0.0530 -0.4150
 5658SOL     OW28435   0.225   2.265  10.510 -0.0645 -0.1094 -0.1596
 5658SOL    HW128436   0.317   2.244  10.524  0.2483  0.3067 -1.5599
 5658SOL    HW228437   0.220   2.349  10.555 -0.2441  0.1024 -0.5745
 5659SOL     OW28438   0.929   4.459   8.699  0.4209 -0.0232 -0.2980
 5659SOL    HW128439   1.018   4.485   8.722  0.1544  1.6585 -1.0809
 5659SOL    HW228440   0.880   4.509   8.765  0.5737  0.8968 -0.8831
 5660SOL     OW28441   3.185   0.104  13.791 -0.1559  0.1034 -0.1855
 5660SOL    HW128442   3.099   0.123  13.756 -0.6346 -1.1551  0.3047
 5660SOL    HW228443   3.234   0.066  13.718  0.0514 -0.9477  0.5045
 5661SOL     OW28444   4.004   4.436   8.052  0.3315  0.1270  0.1336
 5661SOL    HW128445   4.021   4.404   8.141 -0.7150  1.1568  0.7012
 5661SOL    HW228446   3.972   4.363   8.001 -1.7885  0.3409  1.1721
 5662SOL     OW28447   3.887   1.870   5.415 -0.0200 -0.2251 -0.0570
 5662SOL    HW128448   3.863   1.924   5.490 -1.0743 -1.1878  0.3024
 5662SOL    HW228449   3.876   1.777   5.437  0.1379  0.1104  1.4299
 5663SOL     OW28450   3.295   3.406   7.640  0.0398 -0.3198 -0.7099
 5663SOL    HW128451   3.379   3.367   7.616 -0.8364 -2.3130 -0.5271
 5663SOL    HW228452   3.285   3.378   7.731  1.0581  0.9445 -0.2047
 5664SOL     OW28453   2.167   2.822  10.837 -0.1482 -0.5690 -0.6124
 5664SOL    HW128454   2.186   2.749  10.778 -0.0858 -2.8014  2.1614
 5664SOL    HW228455   2.147   2.770  10.915  1.0056  1.3644  0.9745
 5665SOL     OW28456   2.656   0.671   3.591 -0.0789 -0.0278  0.6130
 5665SOL    HW128457   2.616   0.587   3.569  0.7544  0.0968 -1.3872
 5665SOL    HW228458   2.742   0.669   3.550 -0.7930  1.6225 -0.9741
 5666SOL     OW28459   0.641   2.024   6.104  0.0814  0.4228 -0.0608
 5666SOL    HW128460   0.662   1.960   6.172  0.7095 -0.1687 -0.8082
 5666SOL    HW228461   0.559   2.066   6.130  0.1114  0.6704 -0.3711
 5667SOL     OW28462   1.321   2.639   3.806  0.1095 -0.2268 -0.2936
 5667SOL    HW128463   1.239   2.639   3.757 -0.5580 -2.6027  0.8163
 5667SOL    HW228464   1.337   2.733   3.818 -1.6899  0.0300  0.1077
 5668SOL     OW28465   3.197   2.771  13.813 -0.6017  0.0116  0.4468
 5668SOL    HW128466   3.178   2.733  13.899  2.8965 -0.8439  0.8840
 5668SOL    HW228467   3.293   2.776  13.810 -0.7465  2.8926  1.1065
 5669SOL     OW28468   0.517   2.463   0.909 -0.1351  0.4681  0.1963
 5669SOL    HW128469   0.518   2.504   0.995  1.0310 -0.4540  0.6191
 5669SOL    HW228470   0.532   2.371   0.930 -1.5450  0.3165  0.5792
 5670SOL     OW28471   1.263   1.140   7.188  0.1151  0.0810 -0.1646
 5670SOL    HW128472   1.197   1.117   7.123  0.3784 -2.8345  0.6109
 5670SOL    HW228473   1.339   1.091   7.157  1.6636  1.6524  1.1405
 5671SOL     OW28474   0.483   3.670  10.058 -0.0978 -0.0813  0.0931
 5671SOL    HW128475   0.442   3.658   9.972 -4.5660 -1.7851  2.4604
 5671SOL    HW228476   0.574   3.695  10.043  0.3843 -1.7329  0.2159
 5672SOL     OW28477   0.573   4.561   9.501  0.1936 -0.1030 -0.4593
 5672SOL    HW128478   0.580   4.626   9.431  2.2754  0.6864  0.4908
 5672SOL    HW228479   0.481   4.555   9.528  0.4657 -0.2268  0.4320
 5673SOL     OW28480   1.928   0.265   7.377 -0.3899 -0.2214  0.2603
 5673SOL    HW128481   1.855   0.248   7.317  1.1915 -0.4039 -1.6013
 5673SOL    HW228482   1.952   0.353   7.350  3.1012 -1.8279 -1.9398
 5674SOL     OW28483   4.548   3.002   4.478 -0.1165 -0.4264 -0.1966
 5674SOL    HW128484   4.512   3.016   4.566  0.4763  0.1838 -0.0475
 5674SOL    HW228485   4.600   2.925   4.499  0.2073  0.0355  0.7474
 5675SOL     OW28486   1.381   3.003   5.042 -0.0212 -0.1032 -0.6106
 5675SOL    HW128487   1.353   2.974   4.955 -0.4171  0.3788 -0.6452
 5675SOL    HW228488   1.312   2.967   5.099 -1.4032 -1.3099 -3.0378
 5676SOL     OW28489   3.656   3.021   7.346  0.1050 -0.2050  0.6015
 5676SOL    HW128490   3.600   3.050   7.273  0.1406 -1.2324  0.1739
 5676SOL    HW228491   3.578   3.000   7.398  1.4166 -2.8163  1.4921
 5677SOL     OW28492   0.782   2.820   8.116 -0.2428  0.3915  0.2959
 5677SOL    HW128493   0.767   2.881   8.188 -0.9048  0.4452  0.1195
 5677SOL    HW228494   0.690   2.811   8.089 -0.4544 -2.1964  1.9493
 5678SOL     OW28495   4.390   0.364  16.853  0.1628  0.2281  0.3355
 5678SOL    HW128496   4.348   0.378  16.938 -0.5095 -2.9140  0.5089
 5678SOL    HW228497   4.410   0.458  16.850 -1.4941  0.5585 -0.4250
 5679SOL     OW28498   3.003   2.851  10.172  0.9190 -0.1095  0.2925
 5679SOL    HW128499   2.949   2.784  10.214  0.2368  1.0749  1.2954
 5679SOL    HW228500   3.080   2.854  10.228  3.1116  1.3818 -2.7593
 5680SOL     OW28501   2.898   1.027   3.936 -0.2985 -0.0368 -0.5639
 5680SOL    HW128502   2.862   0.953   3.887  0.5936 -0.6522 -0.2865
 5680SOL    HW228503   2.841   1.101   3.914  1.6520  0.9734 -2.1989
 5681SOL     OW28504   1.526   1.174   3.874  0.0207  0.4189 -0.0650
 5681SOL    HW128505   1.449   1.227   3.856 -0.4893  0.2485  1.6594
 5681SOL    HW228506   1.483   1.095   3.907 -1.3470  1.4968  0.7206
 5682SOL     OW28507   1.633   1.273   0.147  0.5643  0.0186  0.4245
 5682SOL    HW128508   1.706   1.327   0.178  1.2983 -2.2469  2.6212
 5682SOL    HW228509   1.657   1.189   0.187  2.3908  0.8694  1.1005
 5683SOL     OW28510   3.457   3.979   3.211  0.0693  0.3918 -0.2478
 5683SOL    HW128511   3.435   4.053   3.267  1.0060  1.5873 -1.4407
 5683SOL    HW228512   3.552   3.991   3.205  0.3129  0.3644  3.5884
 5684SOL     OW28513   0.220   1.018   9.137 -0.6445 -0.0271 -0.2313
 5684SOL    HW128514   0.221   0.938   9.084  0.1297 -1.0205  1.2857
 5684SOL    HW228515   0.254   0.979   9.217  0.2783  0.2929 -0.4730
 5685SOL     OW28516   0.567   2.466   6.783  0.5681 -0.5802 -0.1932
 5685SOL    HW128517   0.542   2.488   6.872  1.8773  1.1925 -0.2637
 5685SOL    HW228518   0.577   2.550   6.738 -0.0328  1.0311  2.7074
 5686SOL     OW28519   0.282   3.175   5.376 -0.0096  0.4263 -0.2718
 5686SOL    HW128520   0.216   3.158   5.443 -1.3212  0.7274 -1.4862
 5686SOL    HW228521   0.355   3.184   5.437  0.0715 -0.9943 -0.1443
 5687SOL     OW28522   2.218   2.047   0.189 -0.0891 -0.0296  0.2912
 5687SOL    HW128523   2.144   2.086   0.142  0.1583 -0.1566 -0.2046
 5687SOL    HW228524   2.236   1.962   0.148  1.8433 -0.8880  2.9306
 5688SOL     OW28525   3.353   4.094   3.670 -0.1271 -0.5121  0.2832
 5688SOL    HW128526   3.427   4.095   3.730  0.3176 -0.5755 -0.2572
 5688SOL    HW228527   3.282   4.103   3.733 -0.4772  3.2263 -0.6633
 5689SOL     OW28528   0.751   3.723  13.429 -0.7498 -0.6175  0.4817
 5689SOL    HW128529   0.747   3.668  13.507  0.0869 -0.5554  0.5666
 5689SOL    HW228530   0.700   3.800  13.456 -1.8028 -0.9009 -0.6914
 5690SOL     OW28531   4.314   0.726   3.516 -0.9920  0.4210 -0.5959
 5690SOL    HW128532   4.297   0.658   3.450  1.1640  2.0207 -2.8146
 5690SOL    HW228533   4.338   0.797   3.457  2.2025 -0.3076 -0.1594
 5691SOL     OW28534   2.138   0.261   0.330  0.3623  0.1410 -0.4398
 5691SOL    HW128535   2.209   0.260   0.266 -0.1750  1.3825 -1.0610
 5691SOL    HW228536   2.120   0.167   0.329 -0.8473  0.3779 -2.4975
 5692SOL     OW28537   2.380   3.979   2.893  0.1017 -0.0184  0.0815
 5692SOL    HW128538   2.309   4.018   2.943 -0.6397 -1.2947  0.0294
 5692SOL    HW228539   2.376   3.887   2.919 -2.6643 -0.3697 -1.5613
 5693SOL     OW28540   3.713   1.621  14.882  0.4190  0.0560  0.0473
 5693SOL    HW128541   3.626   1.641  14.847  1.1385  3.1638 -0.0457
 5693SOL    HW228542   3.775   1.685  14.846  0.2884 -0.1790 -0.6005
 5694SOL     OW28543   1.635   0.533   1.936  0.2026 -0.2206  0.2671
 5694SOL    HW128544   1.594   0.455   1.972  2.0171 -1.9725 -1.4511
 5694SOL    HW228545   1.718   0.527   1.983  0.1998  0.2136  0.3370
 5695SOL     OW28546   1.920   1.701   4.743 -0.5581  0.4819 -0.2515
 5695SOL    HW128547   1.911   1.668   4.653 -0.2396  2.9554 -1.2073
 5695SOL    HW228548   2.004   1.658   4.755 -0.4723  0.5910 -0.4699
 5696SOL     OW28549   1.840   1.641   3.819  0.1165  0.5481  0.0784
 5696SOL    HW128550   1.769   1.664   3.759  0.4036 -0.9305 -0.8246
 5696SOL    HW228551   1.895   1.577   3.775  1.6033  1.5194  0.5403
 5697SOL     OW28552   3.035   2.600   2.146  0.5663 -0.2574 -0.2229
 5697SOL    HW128553   3.090   2.589   2.224 -0.3888  0.5566  0.5775
 5697SOL    HW228554   3.087   2.663   2.096  2.4269 -0.9798  0.8178
 5698SOL     OW28555   2.986   1.301   8.102  0.0854  0.2591  0.1958
 5698SOL    HW128556   3.062   1.318   8.159  0.9149 -0.0747 -0.8104
 5698SOL    HW228557   2.920   1.360   8.138  0.5749  0.1624  1.2541
 5699SOL     OW28558   2.674   3.004   8.454  0.1506 -0.0944  0.3804
 5699SOL    HW128559   2.714   3.027   8.538 -0.7052 -0.2458  0.8232
 5699SOL    HW228560   2.595   3.057   8.443 -0.7582 -2.1733 -3.0945
 5700SOL     OW28561   3.632   1.092  14.354  0.2681 -0.3653 -0.3387
 5700SOL    HW128562   3.563   1.130  14.408  0.5006 -2.1324  1.2090
 5700SOL    HW228563   3.645   1.161  14.289 -0.5715  1.1780  1.1470
 5701SOL     OW28564   2.197   3.275   7.080  0.0613  0.2385  0.3032
 5701SOL    HW128565   2.177   3.218   7.155 -1.2320 -2.0031 -1.7290
 5701SOL    HW228566   2.145   3.235   7.010  1.2242 -1.1002  0.1977
 5702SOL     OW28567   1.574   1.463  13.113 -0.4425 -0.4460 -0.7587
 5702SOL    HW128568   1.513   1.392  13.135 -0.7615 -0.2250 -0.9349
 5702SOL    HW228569   1.651   1.413  13.140  0.9290  0.9764 -2.0497
 5703SOL     OW28570   4.507   3.080  15.549 -0.0074 -0.5036 -0.3944
 5703SOL    HW128571   4.511   3.002  15.493 -0.0398 -0.4533 -0.4666
 5703SOL    HW228572   4.598   3.097  15.572 -0.1874  1.6453 -1.2399
 5704SOL     OW28573   1.791   1.248   3.371 -0.1682 -0.6699 -0.2289
 5704SOL    HW128574   1.752   1.260   3.285  2.6551  1.4772 -1.1886
 5704SOL    HW228575   1.712   1.211   3.411  0.2778  0.5159  1.7487
 5705SOL     OW28576   4.620   0.783   3.557 -0.3326  0.4619  0.2877
 5705SOL    HW128577   4.677   0.753   3.486 -2.0556  1.8874 -1.6963
 5705SOL    HW228578   4.564   0.707   3.574  1.0361 -0.4627  0.6966
 5706SOL     OW28579   2.070   3.552   5.795 -0.3378  0.0208 -0.4122
 5706SOL    HW128580   2.013   3.490   5.749 -1.4714 -0.2599  1.3496
 5706SOL    HW228581   2.144   3.542   5.735  0.1933  0.9594  0.0868
 5707SOL     OW28582   0.513   2.905   2.741  0.7522 -0.1037  0.2734
 5707SOL    HW128583   0.527   2.937   2.652  1.3327  0.4251  0.5522
 5707SOL    HW228584   0.593   2.937   2.783  1.9358 -0.6826 -1.5810
 5708SOL     OW28585   0.250   0.801   2.307 -0.1888  0.4356  0.2101
 5708SOL    HW128586   0.340   0.769   2.303 -1.1306 -2.0002 -1.4291
 5708SOL    HW228587   0.241   0.823   2.214  0.2449 -0.4997 -0.0500
 5709SOL     OW28588   4.108   2.563   2.612  0.4407 -0.0643 -0.0859
 5709SOL    HW128589   4.193   2.538   2.648  0.5185 -1.4906 -1.2426
 5709SOL    HW228590   4.043   2.524   2.671  0.0580  2.0522  0.8780
 5710SOL     OW28591   3.543   2.133   1.831 -0.1327 -0.3110  0.0609
 5710SOL    HW128592   3.553   2.227   1.818 -1.9100 -0.0048  0.9229
 5710SOL    HW228593   3.502   2.130   1.917  2.0142  0.1988  1.0872
 5711SOL     OW28594   3.718   3.108   0.859  0.5284  0.5971 -0.0167
 5711SOL    HW128595   3.737   3.071   0.773  2.4582  1.1371  0.1844
 5711SOL    HW228596   3.660   3.041   0.895  0.6099  0.7206  0.3429
 5712SOL     OW28597   3.195   1.531  12.087 -0.0540  0.2484 -0.0358
 5712SOL    HW128598   3.206   1.468  12.016  1.1893  1.3856 -0.8403
 5712SOL    HW228599   3.221   1.476  12.162 -0.0449 -0.2036 -0.3676
 5713SOL     OW28600   1.020   0.101   3.019 -0.3958  0.5328  0.2084
 5713SOL    HW128601   1.005   0.195   3.022 -1.4206  0.3578  0.9593
 5713SOL    HW228602   1.052   0.079   3.107 -2.0810 -2.2204  0.1621
 5714SOL     OW28603   2.705   2.890   5.891  0.0443  0.5632  0.1441
 5714SOL    HW128604   2.679   2.918   5.804 -1.2507 -1.5236 -0.1362
 5714SOL    HW228605   2.793   2.927   5.898 -0.1429  0.7927  1.3010
 5715SOL     OW28606   4.261   1.963   6.252  0.2865  0.5752 -0.5161
 5715SOL    HW128607   4.166   1.968   6.245  0.2339 -0.8442 -0.7595
 5715SOL    HW228608   4.262   1.965   6.348 -2.9167 -1.0051 -0.4580
 5716SOL     OW28609   2.280   3.982  17.195  0.2901 -0.0055 -0.1956
 5716SOL    HW128610   2.343   3.968  17.266 -0.1345 -3.1676 -0.4251
 5716SOL    HW228611   2.276   4.077  17.199  0.7290  0.0984 -1.8460
 5717SOL     OW28612   4.208   4.374   9.172 -0.3452  0.4689  0.2106
 5717SOL    HW128613   4.286   4.362   9.116 -0.8236 -1.1168 -0.1179
 5717SOL    HW228614   4.156   4.434   9.119  0.2449  2.9607  2.4330
 5718SOL     OW28615   3.157   0.611   7.136  0.4065 -0.2007  0.9696
 5718SOL    HW128616   3.125   0.700   7.122 -2.4268 -1.3439  0.1936
 5718SOL    HW228617   3.080   0.559   7.114  0.6540  0.0941 -0.6140
 5719SOL     OW28618   3.793   1.938  15.100 -0.0347 -0.2714 -0.0778
 5719SOL    HW128619   3.806   1.976  15.014  0.2452  2.7867  1.3356
 5719SOL    HW228620   3.878   1.935  15.143  0.1417  0.9525 -0.3483
 5720SOL     OW28621   0.799   4.325  10.709  0.3243 -0.3844  0.1768
 5720SOL    HW128622   0.820   4.294  10.796 -0.7233 -4.3062 -0.9804
 5720SOL    HW228623   0.769   4.241  10.674  0.7545  0.3457 -1.9594
 5721SOL     OW28624   1.021   0.823   8.696 -0.5335  0.0546 -0.1522
 5721SOL    HW128625   0.957   0.781   8.754 -0.8580  0.3599 -0.2885
 5721SOL    HW228626   0.948   0.870   8.655 -1.6733 -1.8337 -0.2761
 5722SOL     OW28627   3.068   1.581   1.957 -0.2625  0.3824 -0.4856
 5722SOL    HW128628   3.111   1.543   2.033 -1.8340 -1.9598 -0.7677
 5722SOL    HW228629   3.123   1.653   1.927  1.1745 -0.7855 -0.5905
 5723SOL     OW28630   0.057   2.302   9.425 -0.5141  0.6100  0.5386
 5723SOL    HW128631   0.134   2.246   9.426 -0.9816 -0.0046  2.7754
 5723SOL    HW228632   0.077   2.388   9.463  0.9943  0.6406 -0.3511
 5724SOL     OW28633   0.442   3.193   3.550 -0.2656 -0.0839 -0.0041
 5724SOL    HW128634   0.354   3.229   3.552 -0.3203 -0.3520  2.5092
 5724SOL    HW228635   0.452   3.161   3.460 -0.6086 -0.2871  0.0278
 5725SOL     OW28636   2.411   3.564   2.584 -0.0992  0.4657 -0.2367
 5725SOL    HW128637   2.391   3.515   2.504  0.1467  2.0379 -1.2585
 5725SOL    HW228638   2.428   3.494   2.647 -0.8874  0.8589  0.4137
 5726SOL     OW28639   2.190   4.601   1.658  0.1812 -0.2216 -0.4587
 5726SOL    HW128640   2.102   4.573   1.684  0.2104  0.6625  0.5646
 5726SOL    HW228641   2.214   4.540   1.588  2.6378  1.0207 -0.6937
 5727SOL     OW28642   0.990   2.935  14.584  0.9435  0.4171 -0.6441
 5727SOL    HW128643   1.055   2.912  14.650  1.1366  2.8266 -0.0018
 5727SOL    HW228644   0.911   2.909  14.632  1.0481 -1.0219 -1.2428
 5728SOL     OW28645   3.134   0.651   3.788  0.3746 -0.3392 -0.1624
 5728SOL    HW128646   3.089   0.732   3.764  0.1275  0.0758  1.6616
 5728SOL    HW228647   3.197   0.693   3.846  0.0241  2.4105 -1.7683
 5729SOL     OW28648   0.661   3.579   7.045  0.2284 -0.1482 -0.4209
 5729SOL    HW128649   0.729   3.619   7.098 -2.4510  1.7610  1.6125
 5729SOL    HW228650   0.709   3.536   6.974  0.1430  0.9242 -1.1300
 5730SOL     OW28651   2.446   1.979   3.131 -0.4584  0.2368 -0.0003
 5730SOL    HW128652   2.436   1.968   3.036  0.7952  0.9681 -0.2243
 5730SOL    HW228653   2.540   1.967   3.145 -0.6689  0.0178  1.2064
 5731SOL     OW28654   4.453   3.570   8.722  0.4566 -0.0013  0.9685
 5731SOL    HW128655   4.373   3.584   8.671  1.9817 -0.8039 -1.6621
 5731SOL    HW228656   4.507   3.647   8.701  1.2341 -1.1724 -1.3921
 5732SOL     OW28657   1.709   0.297   3.365  0.0915  0.1662 -0.1586
 5732SOL    HW128658   1.675   0.369   3.312  1.5165  2.9348  2.7071
 5732SOL    HW228659   1.695   0.336   3.452  0.4500  1.6344 -0.7679
 5733SOL     OW28660   1.480   4.475   4.738  0.3078 -0.4628 -0.5993
 5733SOL    HW128661   1.528   4.423   4.673  0.5076 -1.1649  0.1065
 5733SOL    HW228662   1.552   4.476   4.800 -0.9976 -1.3068  0.9159
 5734SOL     OW28663   2.729   2.533   3.685 -0.2507  0.1186 -0.1590
 5734SOL    HW128664   2.676   2.490   3.752 -0.5266  1.2019  0.3111
 5734SOL    HW228665   2.744   2.621   3.719 -0.4059  0.8508 -1.9504
 5735SOL     OW28666   2.600   4.179   5.133 -0.1855 -0.1628 -0.3599
 5735SOL    HW128667   2.608   4.097   5.181 -1.3333  1.0397  1.8724
 5735SOL    HW228668   2.525   4.157   5.077 -1.3841  0.5273  0.9702
 5736SOL     OW28669   0.661   3.554   3.718  0.5551  0.0188  0.3536
 5736SOL    HW128670   0.744   3.512   3.740 -1.8862 -4.8416  0.5032
 5736SOL    HW228671   0.663   3.538   3.624 -1.3846  1.0211  0.1368
 5737SOL     OW28672   4.319   1.826   8.502  0.4304  0.3268  0.0834
 5737SOL    HW128673   4.279   1.813   8.588 -0.0415 -1.1320 -0.3629
 5737SOL    HW228674   4.274   1.899   8.460 -0.0073 -0.8547 -1.4852
 5738SOL     OW28675   4.334   4.358  13.440 -0.3042 -0.1001  0.1788
 5738SOL    HW128676   4.295   4.428  13.492 -0.2133  0.9032 -1.1152
 5738SOL    HW228677   4.412   4.402  13.406 -0.2148  0.1397  0.6852
 5739SOL     OW28678   3.264   1.097   4.799  0.0115  0.0318  0.1152
 5739SOL    HW128679   3.186   1.074   4.850  0.6173 -0.1278  0.9670
 5739SOL    HW228680   3.338   1.063   4.848  0.4851  1.1800  0.1847
 5740SOL     OW28681   3.753   0.882  10.405 -0.0466 -0.4062 -0.3467
 5740SOL    HW128682   3.763   0.794  10.441  0.2354 -0.2736 -0.1023
 5740SOL    HW228683   3.689   0.860  10.336 -0.5728  2.4050 -0.7758
 5741SOL     OW28684   0.832   3.543   7.610  0.1521 -0.5860  0.2647
 5741SOL    HW128685   0.860   3.496   7.531  0.1788 -0.5022  0.2250
 5741SOL    HW228686   0.869   3.483   7.675  2.2079  0.0010 -0.3560
 5742SOL     OW28687   2.386   0.449  13.976  0.4748 -0.2811 -0.2481
 5742SOL    HW128688   2.292   0.446  13.997  0.5820 -1.4040  0.1085
 5742SOL    HW228689   2.424   0.488  14.055  0.8344 -0.7612 -0.1839
 5743SOL     OW28690   0.749   0.170   3.191 -0.6855 -0.1598 -0.6805
 5743SOL    HW128691   0.697   0.120   3.254  1.0889 -1.6777 -0.4515
 5743SOL    HW228692   0.835   0.175   3.232 -0.3308 -1.5964 -1.2823
 5744SOL     OW28693   3.998   3.937   7.714 -0.7372  0.2630 -0.2017
 5744SOL    HW128694   4.083   3.902   7.742 -0.0118  1.3299 -1.0741
 5744SOL    HW228695   4.028   4.001   7.649  1.1183 -1.8001 -1.3764
 5745SOL     OW28696   4.158   4.008  12.369  0.0278 -0.2884  0.0177
 5745SOL    HW128697   4.176   3.958  12.290 -2.2538  1.8409 -1.8668
 5745SOL    HW228698   4.113   3.936  12.412  0.3515 -0.3760  0.2083
 5746SOL     OW28699   3.694   4.291  11.551 -0.2961  0.0617  0.1014
 5746SOL    HW128700   3.766   4.353  11.561  0.5306 -1.0311  0.8010
 5746SOL    HW228701   3.612   4.341  11.557 -0.1664  0.2537  0.2659
 5747SOL     OW28702   2.659   1.947   5.937  0.4904  0.0730  0.1849
 5747SOL    HW128703   2.646   1.964   5.843 -2.6187 -2.5106  0.1441
 5747SOL    HW228704   2.612   1.864   5.944 -0.0897  0.4429  0.6567
 5748SOL     OW28705   3.471   3.121   9.497 -0.1387 -0.4806 -0.1374
 5748SOL    HW128706   3.376   3.125   9.484 -0.0032 -1.8814 -1.5798
 5748SOL    HW228707   3.488   3.027   9.494 -0.4770 -0.4941 -1.6819
 5749SOL     OW28708   3.545   0.749   8.435  0.2719 -0.2055  0.0995
 5749SOL    HW128709   3.596   0.669   8.450  1.2128  0.2400 -0.7438
 5749SOL    HW228710   3.529   0.774   8.526 -0.9727 -0.8073  0.0563
 5750SOL     OW28711   4.661   0.240  14.778  0.2586  0.1727 -0.0581
 5750SOL    HW128712   4.718   0.276  14.846  0.6014 -1.4290  0.5174
 5750SOL    HW228713   4.718   0.167  14.751  0.3632  0.3552 -0.3211
 5751SOL     OW28714   0.331   2.274  11.155 -0.0888  0.2494  0.1932
 5751SOL    HW128715   0.406   2.333  11.146 -1.3155  1.8688  0.7174
 5751SOL    HW228716   0.370   2.191  11.128  0.1456 -0.1504  1.7393
 5752SOL     OW28717   3.266   3.040   5.952 -0.2174  0.0999 -0.2369
 5752SOL    HW128718   3.354   3.070   5.974 -0.5851 -0.1779  1.5441
 5752SOL    HW228719   3.215   3.100   6.005  2.2452  0.8821  1.2512
 5753SOL     OW28720   2.175   0.130  15.226  0.4281 -0.1043 -0.5948
 5753SOL    HW128721   2.232   0.188  15.176  0.3046 -0.2311 -0.8822
 5753SOL    HW228722   2.163   0.060  15.163  1.2606  0.5170 -1.4451
 5754SOL     OW28723   4.281   1.856  14.623 -0.1160 -0.3032  0.2651
 5754SOL    HW128724   4.219   1.876  14.694 -1.6819 -1.8958 -0.6443
 5754SOL    HW228725   4.319   1.943  14.615 -0.8486  0.0207  0.3087
 5755SOL     OW28726   2.083   1.906   7.183 -0.4022  0.0223  0.7603
 5755SOL    HW128727   2.006   1.876   7.135 -0.3457 -0.3983  0.9267
 5755SOL    HW228728   2.122   1.950   7.108  2.0266 -0.2987  1.8573
 5756SOL     OW28729   2.332   1.237  14.771 -0.5002  0.0184 -0.4216
 5756SOL    HW128730   2.316   1.299  14.699 -1.5759 -1.0598 -1.1080
 5756SOL    HW228731   2.345   1.290  14.850 -0.9811 -3.0450  1.7194
 5757SOL     OW28732   1.665   0.451   1.200  0.0849  0.4812  0.3191
 5757SOL    HW128733   1.639   0.474   1.111  0.5496 -0.2850 -0.0183
 5757SOL    HW228734   1.575   0.436   1.231  0.6666  0.2353  1.9161
 5758SOL     OW28735   1.241   1.606   1.077  0.0121 -0.0371 -0.2881
 5758SOL    HW128736   1.336   1.596   1.074  0.1314  0.6396  1.2304
 5758SOL    HW228737   1.236   1.595   1.172 -2.8089 -1.2012 -0.5569
 5759SOL     OW28738   2.791   2.267   6.670  0.1792 -0.7060  0.1577
 5759SOL    HW128739   2.882   2.263   6.639  0.4450  2.1682  0.5572
 5759SOL    HW228740   2.749   2.277   6.584 -1.2860 -0.5619  0.9005
 5760SOL     OW28741   0.960   2.856   6.237  0.4197  0.0893  0.1993
 5760SOL    HW128742   0.910   2.894   6.309  0.7382  1.7473 -0.4539
 5760SOL    HW228743   0.956   2.762   6.256 -0.0756  0.4074  1.6267
 5761SOL     OW28744   2.362   1.015   2.652 -0.0268  0.2780  0.3883
 5761SOL    HW128745   2.371   1.069   2.731  3.1467 -2.5603  1.9350
 5761SOL    HW228746   2.334   0.929   2.682  1.9606 -0.5529 -0.2121
 5762SOL     OW28747   3.291   2.263   0.212 -0.3365 -0.1152 -0.1826
 5762SOL    HW128748   3.230   2.244   0.141 -0.2298 -2.1801  0.2772
 5762SOL    HW228749   3.337   2.338   0.173  1.0521 -1.5494 -1.3230
 5763SOL     OW28750   2.779   4.438   9.919 -0.3486 -0.0222  0.0515
 5763SOL    HW128751   2.837   4.452   9.993 -1.5057  1.3527  0.7067
 5763SOL    HW228752   2.731   4.519   9.937 -1.4901 -0.9696  1.1851
 5764SOL     OW28753   1.415   3.105  16.783 -0.2821 -0.1609  0.1321
 5764SOL    HW128754   1.359   3.127  16.709 -0.6490 -1.4209  0.0336
 5764SOL    HW228755   1.445   3.191  16.813 -1.7330 -0.3617  2.1405
 5765SOL     OW28756   1.231   1.512   6.260 -0.0113 -0.2099 -0.0477
 5765SOL    HW128757   1.217   1.578   6.327 -1.1775 -0.9646  0.4554
 5765SOL    HW228758   1.185   1.442   6.304 -1.2922  0.2098 -0.7222
 5766SOL     OW28759   3.052   4.323   8.759 -0.4424 -0.1726  0.0855
 5766SOL    HW128760   3.042   4.262   8.831  0.8280 -0.6612 -0.1558
 5766SOL    HW228761   2.963   4.322   8.721 -0.0034 -1.2835 -0.9249
 5767SOL     OW28762   4.293   3.264   2.053  0.6000 -0.0837 -0.1709
 5767SOL    HW128763   4.299   3.332   1.986  1.7785 -0.1203 -0.0931
 5767SOL    HW228764   4.199   3.244   2.055  0.2133  1.6443 -0.7654
 5768SOL     OW28765   3.570   1.804   4.622 -0.3155  0.5000  0.0579
 5768SOL    HW128766   3.649   1.856   4.617  0.4387 -0.6843 -0.2784
 5768SOL    HW228767   3.501   1.864   4.591 -0.8417 -0.1367 -0.0160
 5769SOL     OW28768   1.072   3.374   2.605  0.3812 -0.5458  0.5737
 5769SOL    HW128769   1.041   3.322   2.531 -0.2154 -0.2847  0.6384
 5769SOL    HW228770   0.994   3.356   2.659 -0.5661 -1.7399 -1.1883
 5770SOL     OW28771   1.943   3.571   9.763 -0.3918  0.3676 -0.5696
 5770SOL    HW128772   1.950   3.662   9.794  0.0027  0.0330  0.3279
 5770SOL    HW228773   1.873   3.575   9.698 -0.3250 -0.4027 -0.6855
 5771SOL     OW28774   1.891   2.894   5.049 -0.2889  0.0003 -0.4380
 5771SOL    HW128775   1.956   2.933   5.107 -0.1189  0.5803 -1.0138
 5771SOL    HW228776   1.915   2.927   4.962 -1.8965  1.7392 -0.2147
 5772SOL     OW28777   1.291   1.297   1.281 -0.4100 -0.4765 -0.0322
 5772SOL    HW128778   1.333   1.291   1.367 -0.4219 -1.4709 -0.0907
 5772SOL    HW228779   1.329   1.230   1.224 -0.6205 -0.3392 -0.3343
 5773SOL     OW28780   1.282   3.387   8.943 -0.1243  0.2841  0.0511
 5773SOL    HW128781   1.245   3.444   8.876  0.5792  1.1249  0.3855
 5773SOL    HW228782   1.374   3.409   8.926  0.1104 -1.7115 -1.3834
 5774SOL     OW28783   1.091   1.667   2.995 -0.5574  0.1236 -0.0617
 5774SOL    HW128784   1.170   1.678   3.048 -1.2580 -0.9190  1.2036
 5774SOL    HW228785   1.104   1.726   2.921  0.9924  0.7858  0.7449
 5775SOL     OW28786   4.136   0.670   6.129 -0.3025 -0.0594 -0.1844
 5775SOL    HW128787   4.065   0.698   6.188  1.7396 -0.8941  2.6537
 5775SOL    HW228788   4.088   0.686   6.048 -1.2555  2.1695  0.7936
 5776SOL     OW28789   3.963   3.081   3.409 -0.2259 -0.5531 -0.2225
 5776SOL    HW128790   3.917   3.095   3.326  1.9462 -0.4454 -1.3998
 5776SOL    HW228791   4.041   3.036   3.377  0.5569 -0.1228  1.0841
 5777SOL     OW28792   1.418   0.975   8.892  0.5228  0.2993 -0.0721
 5777SOL    HW128793   1.362   1.032   8.839 -0.1793 -0.2048  0.1379
 5777SOL    HW228794   1.491   0.946   8.838  0.6678 -0.2351  0.4037
 5778SOL     OW28795   4.037   1.216   9.086  0.2948 -0.5128  0.5202
 5778SOL    HW128796   4.053   1.254   8.999  3.2380 -0.4115  1.0905
 5778SOL    HW228797   3.942   1.210   9.082  0.3886 -1.3802 -0.5414
 5779SOL     OW28798   0.945   4.486   9.453  0.1022  0.3981  0.3494
 5779SOL    HW128799   0.962   4.563   9.399 -2.3777  1.4156  1.0467
 5779SOL    HW228800   1.002   4.512   9.526  1.3207  0.5348 -0.6453
 5780SOL     OW28801   3.810   4.393  10.027  0.8654 -0.4460 -0.1860
 5780SOL    HW128802   3.823   4.332   9.955 -1.4237 -0.5195 -0.5499
 5780SOL    HW228803   3.877   4.371  10.092  2.1076  0.0101 -1.3330
 5781SOL     OW28804   4.001   3.908   5.784 -0.2636 -0.3056 -0.3745
 5781SOL    HW128805   3.947   3.855   5.727  2.8048 -1.7896 -1.9130
 5781SOL    HW228806   4.024   3.982   5.728  0.6879 -0.4491 -0.1806
 5782SOL     OW28807   4.351   3.343   4.958 -0.3394  0.6065 -0.4903
 5782SOL    HW128808   4.276   3.308   4.910 -1.4432 -0.1837  1.7894
 5782SOL    HW228809   4.419   3.362   4.893  1.5254 -0.2690  1.1989
 5783SOL     OW28810   3.874   1.572   9.105 -0.3587 -0.1913  0.4924
 5783SOL    HW128811   3.854   1.494   9.157  0.5258 -1.1361 -0.5853
 5783SOL    HW228812   3.798   1.625   9.126  0.5093  0.3491  2.2219
 5784SOL     OW28813   1.784   2.474   4.651 -0.5752 -1.3895 -0.3996
 5784SOL    HW128814   1.843   2.523   4.708 -0.1500  0.2820 -2.2547
 5784SOL    HW228815   1.699   2.517   4.661 -1.0116 -1.6548 -3.0310
 5785SOL     OW28816   3.304   0.831  11.800 -0.6436 -0.0330  0.7153
 5785SOL    HW128817   3.221   0.791  11.826 -1.2054  0.6090 -0.0943
 5785SOL    HW228818   3.325   0.858  11.889  1.7499  0.2241  0.0823
 5786SOL     OW28819   4.010   2.978  12.656  0.1169  0.4789  0.7019
 5786SOL    HW128820   4.047   2.998  12.742 -2.3413 -0.2071  1.9208
 5786SOL    HW228821   4.077   2.920  12.622  0.4352 -0.1691  2.4135
 5787SOL     OW28822   0.765   2.771  14.057  0.0071 -0.0453  0.1434
 5787SOL    HW128823   0.693   2.800  14.002  1.5258  1.5878 -0.9750
 5787SOL    HW228824   0.740   2.800  14.145 -1.3178  1.4950 -0.7472
 5788SOL     OW28825   1.785   0.919   9.646  0.0494  0.0666 -0.1181
 5788SOL    HW128826   1.755   1.005   9.676 -0.1512  0.6637 -2.0050
 5788SOL    HW228827   1.741   0.910   9.561  1.8714 -0.3338 -1.0151
 5789SOL     OW28828   4.246   3.855  11.238 -0.5283 -0.1179 -0.1507
 5789SOL    HW128829   4.245   3.882  11.146 -2.6256  1.5162  0.3409
 5789SOL    HW228830   4.152   3.859  11.257 -0.5725 -0.4085 -0.3041
 5790SOL     OW28831   2.420   0.509   4.384  0.0837  0.3139 -0.4098
 5790SOL    HW128832   2.340   0.477   4.342  0.1926 -1.3655  0.6475
 5790SOL    HW228833   2.473   0.538   4.310  1.4891  0.9704  0.8525
 5791SOL     OW28834   4.311   4.174   8.519  0.2419 -0.4880  0.4717
 5791SOL    HW128835   4.349   4.120   8.450 -0.5545 -1.5443  0.8651
 5791SOL    HW228836   4.275   4.249   8.472 -0.3744 -0.2935  1.2552
 5792SOL     OW28837   2.931   1.643   1.486 -0.1407  0.2836 -0.3456
 5792SOL    HW128838   2.846   1.688   1.493  0.3697  0.8085  2.4678
 5792SOL    HW228839   2.917   1.552   1.511 -0.1326  0.3757 -0.0026
 5793SOL     OW28840   2.060   3.294   3.519 -0.0455  0.4776  0.3885
 5793SOL    HW128841   2.083   3.304   3.427  0.0698 -0.8662  0.2700
 5793SOL    HW228842   2.132   3.239   3.549 -1.6709 -0.9334  1.7296
 5794SOL     OW28843   2.686   3.385  14.911  0.1257 -0.3473  0.0359
 5794SOL    HW128844   2.781   3.376  14.926  0.1391  1.8165  1.3391
 5794SOL    HW228845   2.671   3.294  14.886  2.2943 -1.3903  2.4884
 5795SOL     OW28846   2.100   0.843   0.230 -0.0263 -0.5063 -0.0274
 5795SOL    HW128847   2.056   0.817   0.311  1.1176  1.1742  1.1232
 5795SOL    HW228848   2.126   0.758   0.193  1.1736  0.1351 -0.6329
 5796SOL     OW28849   2.581   1.462   6.131  0.3572  0.1507  0.3424
 5796SOL    HW128850   2.574   1.515   6.211  1.6977 -0.5653  0.9362
 5796SOL    HW228851   2.517   1.392   6.145  0.8559 -0.9893 -3.1154
 5797SOL     OW28852   1.984   4.702  16.204  0.2109 -0.3050 -0.1778
 5797SOL    HW128853   1.901   4.706  16.157 -0.9462 -0.3218  1.8962
 5797SOL    HW228854   2.001   0.064  16.244 -1.7570  0.0100 -0.0361
 5798SOL     OW28855   3.560   1.720   8.903  0.6602  0.2316  0.0585
 5798SOL    HW128856   3.592   1.804   8.869 -2.0278  0.5277 -1.7799
 5798SOL    HW228857   3.466   1.730   8.918  0.3830 -2.6323  0.1706
 5799SOL     OW28858   4.575   1.522  10.292  0.0277 -0.0149  0.2335
 5799SOL    HW128859   4.570   1.592  10.357  1.8439 -0.1223  0.4753
 5799SOL    HW228860   4.568   1.581  10.216 -2.7154  0.5490  0.9062
 5800SOL     OW28861   3.932   0.581  16.534  0.7532  0.3175  0.1011
 5800SOL    HW128862   3.972   0.517  16.475 -1.4781  0.3499 -1.4506
 5800SOL    HW228863   3.870   0.529  16.585  0.0173 -0.2960 -1.4190
 5801SOL     OW28864   1.388   2.880   9.302  0.0827 -0.5717 -0.0316
 5801SOL    HW128865   1.386   2.973   9.325  3.3704 -0.6890  0.6855
 5801SOL    HW228866   1.468   2.846   9.342  1.0489  0.6737 -0.9541
 5802SOL     OW28867   3.676   4.143  17.188 -0.2278  0.0668  0.1186
 5802SOL    HW128868   3.586   4.121  17.212  0.0727 -2.1330 -0.7722
 5802SOL    HW228869   3.657   4.190  17.107  2.7240 -1.4682 -1.4668
 5803SOL     OW28870   3.949   4.527  13.461 -0.1866 -0.2895 -0.0527
 5803SOL    HW128871   3.908   4.613  13.460  0.8388  0.1785 -2.6363
 5803SOL    HW228872   4.021   4.547  13.520  1.5365 -1.8746 -1.6127
 5804SOL     OW28873   3.879   0.711   4.505 -0.2244  0.1584 -0.2073
 5804SOL    HW128874   3.869   0.805   4.492 -1.7025 -0.0538 -0.5312
 5804SOL    HW228875   3.966   0.694   4.468 -0.2531 -0.6185  0.0709
 5805SOL     OW28876   3.573   1.656   2.157 -0.2658  0.0315  0.7081
 5805SOL    HW128877   3.499   1.676   2.214 -1.1756  0.5738 -0.6683
 5805SOL    HW228878   3.607   1.742   2.133 -0.2455 -0.6196 -1.5550
 5806SOL     OW28879   2.398   1.589  14.163 -0.4950  0.2554  0.3697
 5806SOL    HW128880   2.383   1.683  14.154  1.0400  0.5882  1.2846
 5806SOL    HW228881   2.338   1.575  14.237 -1.3994 -2.3703 -0.8584
 5807SOL     OW28882   1.950   1.009   1.957 -0.2500  0.0986 -0.3384
 5807SOL    HW128883   1.890   0.943   1.992  1.8738 -2.8430 -2.2648
 5807SOL    HW228884   2.028   0.955   1.971 -0.3287  0.4457  1.4285
 5808SOL     OW28885   3.636   4.297   6.554  0.3094  0.2342  0.1744
 5808SOL    HW128886   3.619   4.330   6.642  0.2619 -1.6835  0.8594
 5808SOL    HW228887   3.727   4.270   6.565  0.5093  1.5141  1.6396
 5809SOL     OW28888   4.118   0.182  16.736  0.0320 -0.7179  0.3549
 5809SOL    HW128889   4.120   0.110  16.798 -0.5814 -0.8550  0.2095
 5809SOL    HW228890   4.073   0.243  16.794  0.7080 -0.0147  0.1415
 5810SOL     OW28891   1.286   4.259   4.326 -0.0270 -0.4956 -0.5394
 5810SOL    HW128892   1.204   4.211   4.316 -0.8480  0.2497  2.8968
 5810SOL    HW228893   1.270   4.331   4.265 -2.0740 -0.1080  0.4771
 5811SOL     OW28894   0.540   2.891  10.268  0.6693 -0.0681  0.2869
 5811SOL    HW128895   0.493   2.855  10.193  0.8014 -4.2699  2.1973
 5811SOL    HW228896   0.473   2.945  10.309 -0.1422  0.1779 -1.3650
 5812SOL     OW28897   1.853   1.803   3.445  0.3061 -0.1232  0.1173
 5812SOL    HW128898   1.837   1.709   3.453  1.9499 -0.5458 -1.2830
 5812SOL    HW228899   1.947   1.802   3.466 -0.1620 -3.1698  1.9956
 5813SOL     OW28900   1.438   0.146  17.290 -0.1225  0.4406 -0.1891
 5813SOL    HW128901   1.516   0.135  17.345  0.6454  1.0336 -1.1579
 5813SOL    HW228902   1.480   0.190  17.217 -1.8258  1.6914 -0.4174
 5814SOL     OW28903   3.089   0.640   6.413 -0.3257  0.5550  0.5508
 5814SOL    HW128904   3.076   0.710   6.478 -1.9487  0.6514  0.1149
 5814SOL    HW228905   3.171   0.602   6.446 -0.9500 -1.3018 -0.0545
 5815SOL     OW28906   4.629   2.016   7.701  0.5549 -0.4219 -0.4383
 5815SOL    HW128907   4.661   2.020   7.611 -0.5614  0.5259 -0.7889
 5815SOL    HW228908   4.570   2.091   7.696 -0.0245 -0.9346 -1.3130
 5816SOL     OW28909   4.114   2.320  13.567  0.2157  0.4368  0.5220
 5816SOL    HW128910   4.187   2.268  13.533 -0.8685 -0.4065 -0.5029
 5816SOL    HW228911   4.144   2.410  13.555  0.8248  0.5553  2.9493
 5817SOL     OW28912   0.186   4.559   9.118 -0.0349  0.6661 -0.2970
 5817SOL    HW128913   0.104   4.608   9.124 -0.9850 -1.1385  1.5555
 5817SOL    HW228914   0.248   4.624   9.150  1.2704 -0.0880 -1.2780
 5818SOL     OW28915   4.593   4.089   3.570 -0.0500 -0.1556 -0.2213
 5818SOL    HW128916   4.615   4.000   3.597 -1.0492 -0.5159 -0.6455
 5818SOL    HW228917   4.498   4.089   3.573 -0.0412  0.4609  0.0690
 5819SOL     OW28918   1.669   0.079   2.011  0.3118 -0.2754  0.0575
 5819SOL    HW128919   1.699   0.058   2.100 -0.8076 -1.6339  0.1123
 5819SOL    HW228920   1.657   0.174   2.018 -0.4659 -0.3345 -0.4791
 5820SOL     OW28921   4.519   0.063   8.391 -0.2186  0.0330 -0.2349
 5820SOL    HW128922   4.526   0.147   8.346 -0.2754 -0.0555 -0.4102
 5820SOL    HW228923   4.432   0.070   8.430 -0.4665 -1.5530 -0.5048
 5821SOL     OW28924   1.295   0.518   7.414  0.1834  0.3278 -0.4814
 5821SOL    HW128925   1.275   0.579   7.485  0.6042  1.6334 -1.4843
 5821SOL    HW228926   1.360   0.465   7.461 -0.0363  1.1599  0.7449
 5822SOL     OW28927   2.618   1.214   6.834 -0.1037  0.2304 -0.0129
 5822SOL    HW128928   2.667   1.167   6.901  0.4740  1.0281  0.1296
 5822SOL    HW228929   2.598   1.297   6.879 -2.6818  0.2994 -1.3114
 5823SOL     OW28930   0.182   2.389   2.323  0.8714 -0.1343  0.6726
 5823SOL    HW128931   0.113   2.416   2.263 -0.3151 -2.7451  0.8584
 5823SOL    HW228932   0.137   2.320   2.373  0.3141 -0.4219 -0.2271
 5824SOL     OW28933   2.081   2.745   9.419 -0.5628  0.3753 -0.0996
 5824SOL    HW128934   2.082   2.813   9.486 -2.3073  0.1418  0.1789
 5824SOL    HW228935   2.141   2.685   9.462 -1.8212  0.5462  1.8769
 5825SOL     OW28936   3.804   4.137  17.563 -0.4673  0.0695  0.5415
 5825SOL    HW128937   3.809   4.041  17.564 -0.6889  0.0489  0.0230
 5825SOL    HW228938   3.775   4.149  17.653  2.1878  0.3381  1.3514
 5826SOL     OW28939   3.096   3.933   0.509 -0.3528  0.5623  0.0260
 5826SOL    HW128940   3.053   3.966   0.430 -1.3572 -0.3229  0.1888
 5826SOL    HW228941   3.114   4.014   0.556  0.4313 -0.2200  1.0813
 5827SOL     OW28942   3.428   4.286   8.771 -0.2954 -0.0408  0.0279
 5827SOL    HW128943   3.367   4.222   8.809  0.7048  0.7610  2.9995
 5827SOL    HW228944   3.507   4.282   8.825 -0.2926  3.3361  0.2684
 5828SOL     OW28945   1.126   1.342   6.867 -0.1958  0.3948  0.0544
 5828SOL    HW128946   1.064   1.331   6.795  0.9779 -1.5467 -0.6710
 5828SOL    HW228947   1.082   1.283   6.928 -1.5594 -0.1578 -1.4727
 5829SOL     OW28948   3.199   2.149   6.029  0.0279  0.0080  0.1870
 5829SOL    HW128949   3.242   2.068   6.003 -1.0398 -0.8422  1.0833
 5829SOL    HW228950   3.224   2.217   5.967  1.1874 -0.9559 -0.4193
 5830SOL     OW28951   1.352   0.544   2.320  0.0525 -0.0505 -0.0308
 5830SOL    HW128952   1.275   0.512   2.273 -2.5805  1.2767  3.3822
 5830SOL    HW228953   1.388   0.592   2.246  2.3378 -0.1942  1.0045
 5831SOL     OW28954   2.878   3.188  11.098 -0.2155  0.3392 -0.1637
 5831SOL    HW128955   2.968   3.190  11.129  0.3170 -1.9597 -1.5916
 5831SOL    HW228956   2.890   3.146  11.013  0.5097 -2.9213  1.5478
 5832SOL     OW28957   0.485   2.151   5.347 -0.4269 -0.3937 -0.0256
 5832SOL    HW128958   0.542   2.151   5.425  1.1174  1.8462 -1.1729
 5832SOL    HW228959   0.540   2.088   5.300 -1.8202 -1.5967 -0.0460
 5833SOL     OW28960   1.291   3.458   3.038  0.1696  0.3911  0.0101
 5833SOL    HW128961   1.368   3.410   3.006 -0.6388 -0.1445 -1.1348
 5833SOL    HW228962   1.328   3.538   3.074 -0.6657  1.3586 -1.2949
 5834SOL     OW28963   4.228   3.058   7.326  0.2026  0.4807 -0.1035
 5834SOL    HW128964   4.272   3.073   7.242  1.4045 -0.9458  0.2784
 5834SOL    HW228965   4.146   3.014   7.301  0.9062 -0.0837 -1.4276
 5835SOL     OW28966   1.127   1.567   9.135 -0.2967 -0.3500 -0.2260
 5835SOL    HW128967   1.218   1.595   9.144 -1.1832  1.3083  3.5026
 5835SOL    HW228968   1.120   1.541   9.043  0.6781  2.1139 -1.0021
 5836SOL     OW28969   2.217   4.030   7.380 -0.4912  0.5764  0.2629
 5836SOL    HW128970   2.200   4.088   7.306 -0.1503  0.1878 -0.1230
 5836SOL    HW228971   2.130   3.994   7.397 -0.9480  2.4750  1.9331
 5837SOL     OW28972   3.827   3.989  12.571  0.0273  0.0113 -0.1311
 5837SOL    HW128973   3.886   4.048  12.524  1.2712  0.6755  2.2307
 5837SOL    HW228974   3.885   3.920  12.603 -0.6778 -1.1228 -1.3081
 5838SOL     OW28975   2.572   4.555   2.121  0.1374 -0.3796  0.0094
 5838SOL    HW128976   2.492   4.554   2.069 -0.3637  1.1364  0.7563
 5838SOL    HW228977   2.629   4.612   2.067 -0.3218 -0.9224 -1.0534
 5839SOL     OW28978   4.611   4.451   8.158 -0.3474  0.0163  0.0237
 5839SOL    HW128979   4.700   4.471   8.186  0.3418 -1.8774 -0.8385
 5839SOL    HW228980   4.629   4.362   8.128 -0.2128 -0.1799  0.6840
 5840SOL     OW28981   0.769   3.089   7.633  0.1215 -0.1976 -0.5321
 5840SOL    HW128982   0.727   3.120   7.553  0.9718  0.0910 -0.8653
 5840SOL    HW228983   0.808   3.010   7.594  2.2779 -0.1132  1.4114
 5841SOL     OW28984   0.961   2.847  10.964 -0.0312  0.4992  0.6515
 5841SOL    HW128985   0.948   2.831  10.871 -1.4776 -0.3918  1.0178
 5841SOL    HW228986   0.932   2.937  10.973  0.6488  0.8356 -0.5450
 5842SOL     OW28987   3.650   3.404   3.412  0.2061  0.3555  0.4751
 5842SOL    HW128988   3.597   3.350   3.471  0.4224  0.2856  0.6066
 5842SOL    HW228989   3.643   3.489   3.455 -2.2723 -0.6406  2.0280
 5843SOL     OW28990   0.770   3.082  17.237 -0.3478  0.5488  0.0250
 5843SOL    HW128991   0.750   3.148  17.303 -0.5697 -0.1312  0.6335
 5843SOL    HW228992   0.681   3.070  17.201  0.6139 -0.7244 -1.9241
 5844SOL     OW28993   0.297   2.142   9.425 -0.1282  0.1697 -0.0179
 5844SOL    HW128994   0.308   2.114   9.334  1.0499  0.7922 -0.0608
 5844SOL    HW228995   0.367   2.099   9.474 -0.7156 -1.0816 -0.2728
 5845SOL     OW28996   3.467   3.886   5.951 -0.0404  0.0739 -0.0062
 5845SOL    HW128997   3.477   3.981   5.944  1.9610  0.0580  2.4138
 5845SOL    HW228998   3.532   3.850   6.012 -0.1018  1.7223  1.0115
 5846SOL     OW28999   1.340   0.860   7.415  0.2051  0.1301 -0.1570
 5846SOL    HW129000   1.363   0.807   7.492 -0.1852  2.4763  1.5640
 5846SOL    HW229001   1.245   0.846   7.417  0.2878 -0.3687  0.6155
 5847SOL     OW29002   4.244   2.241   4.242 -0.0591 -0.3306  0.3039
 5847SOL    HW129003   4.206   2.156   4.219  0.2301 -0.1088 -1.0233
 5847SOL    HW229004   4.163   2.291   4.255  1.1233  1.6089  0.2771
 5848SOL     OW29005   2.581   4.528   0.335 -0.1283  0.1231 -0.4118
 5848SOL    HW129006   2.560   4.560   0.248 -2.2130  1.1341  0.4455
 5848SOL    HW229007   2.629   4.449   0.314 -2.0686 -0.6216 -2.0683
 5849SOL     OW29008   3.254   2.765   5.980 -0.6042  0.0970  0.1013
 5849SOL    HW129009   3.237   2.859   5.987  1.8093  0.6313 -1.3852
 5849SOL    HW229010   3.310   2.751   6.057 -1.6480 -2.3683  0.4212
 5850SOL     OW29011   3.601   0.227   6.387 -0.2597  0.0147 -0.2475
 5850SOL    HW129012   3.662   0.295   6.357  0.4864  0.6381  2.6137
 5850SOL    HW229013   3.619   0.240   6.481 -1.4007 -2.3843  0.3003
 5851SOL     OW29014   1.987   2.456  14.109 -0.3080 -0.8494  0.5887
 5851SOL    HW129015   2.001   2.429  14.200 -2.9331 -0.5438  1.0716
 5851SOL    HW229016   2.059   2.405  14.072  0.3282  0.0903  0.5329
 5852SOL     OW29017   4.092   3.880  16.615  0.2343 -0.5613 -0.1166
 5852SOL    HW129018   4.168   3.824  16.633 -0.1485 -0.6607  1.1537
 5852SOL    HW229019   4.059   3.892  16.704 -2.0367  1.7483 -1.2620
 5853SOL     OW29020   0.982   3.459   4.330 -0.1120  0.4883  0.0014
 5853SOL    HW129021   0.895   3.421   4.316 -0.1838 -0.3152  2.4488
 5853SOL    HW229022   0.956   3.550   4.345 -0.7058  0.3954 -0.4637
 5854SOL     OW29023   1.724   0.838  11.329  0.1010  0.4732  0.3051
 5854SOL    HW129024   1.777   0.879  11.397 -0.0725  0.8779  0.1936
 5854SOL    HW229025   1.670   0.772  11.374 -0.2166  0.0058 -0.7622
 5855SOL     OW29026   3.052   3.135   6.117  0.3204  0.2840  0.4077
 5855SOL    HW129027   2.960   3.163   6.117  0.0136 -0.7094  0.5732
 5855SOL    HW229028   3.093   3.191   6.183  0.0750  2.2730 -1.1484
 5856SOL     OW29029   3.294   3.485   8.372  0.2752 -0.8172 -0.1522
 5856SOL    HW129030   3.339   3.564   8.398 -1.0008  0.5606 -2.0999
 5856SOL    HW229031   3.270   3.506   8.281  1.3647  0.7779 -0.0494
 5857SOL     OW29032   0.640   4.302   8.770  0.0453  0.2092 -0.0030
 5857SOL    HW129033   0.593   4.245   8.830 -0.2560 -0.4657 -0.8843
 5857SOL    HW229034   0.698   4.345   8.833 -0.1779 -1.2776  1.2145
 5858SOL     OW29035   2.185   4.256   5.370 -0.3522  0.2212  0.6146
 5858SOL    HW129036   2.180   4.338   5.419  0.9924  0.5310  0.2575
 5858SOL    HW229037   2.135   4.284   5.293 -1.3948  1.5310  1.7687
 5859SOL     OW29038   3.507   4.199   0.291  0.2080 -0.0480 -0.8094
 5859SOL    HW129039   3.465   4.113   0.292  0.1908 -0.0408 -0.8850
 5859SOL    HW229040   3.514   4.211   0.386  1.7485  0.5140 -0.9977
 5860SOL     OW29041   2.453   4.097  14.939  0.3344 -0.9031 -0.0762
 5860SOL    HW129042   2.469   4.030  15.005  2.8254 -0.9448 -0.7287
 5860SOL    HW229043   2.520   4.157  14.971  0.9521 -2.1402  0.9253
 5861SOL     OW29044   0.059   3.786   8.082  0.6818 -0.3338  0.3630
 5861SOL    HW129045   0.116   3.714   8.054  1.1701  1.5130 -3.5284
 5861SOL    HW229046   0.062   3.769   8.176  1.0710 -1.4403  0.1579
 5862SOL     OW29047   3.527   3.946  12.145 -0.5791 -0.1493 -0.4938
 5862SOL    HW129048   3.444   3.898  12.156 -0.6479  0.1838  0.3719
 5862SOL    HW229049   3.533   3.982  12.233 -2.6651 -0.9065 -0.0290
 5863SOL     OW29050   0.891   2.018   9.816 -0.0978 -0.7755  0.5110
 5863SOL    HW129051   0.898   2.030   9.722 -1.9892  2.1251  0.7450
 5863SOL    HW229052   0.945   1.938   9.820 -1.5207 -1.8224 -1.6558
 5864SOL     OW29053   1.852   3.109   6.513  0.0716  0.6702 -0.8030
 5864SOL    HW129054   1.776   3.068   6.473  0.2715 -1.7764  1.2776
 5864SOL    HW229055   1.894   3.039   6.564  1.0234  1.7551 -0.1201
 5865SOL     OW29056   0.823   2.211   5.285 -0.0877 -0.2915 -0.2612
 5865SOL    HW129057   0.828   2.116   5.297  1.5983 -0.4306 -2.2593
 5865SOL    HW229058   0.917   2.227   5.286 -0.5612  2.4545  2.0858
 5866SOL     OW29059   4.673   0.743   5.280  0.5458 -0.2031  0.3945
 5866SOL    HW129060   4.681   0.801   5.204 -0.4272 -0.2057  0.2810
 5866SOL    HW229061   0.040   0.725   5.302  0.6867 -0.6319 -0.5276
 5867SOL     OW29062   2.644   1.949  14.817  0.1517  0.6371 -0.5920
 5867SOL    HW129063   2.675   2.015  14.879 -0.4556 -1.2654  1.7265
 5867SOL    HW229064   2.554   1.958  14.848  0.1645 -0.8403 -0.1303
 5868SOL     OW29065   0.136   0.307   2.415  0.2742  0.1330  0.3089
 5868SOL    HW129066   0.228   0.279   2.408  0.2403  0.3073 -0.8253
 5868SOL    HW229067   0.129   0.375   2.348 -0.7242 -1.2242 -0.9808
 5869SOL     OW29068   0.829   1.121   7.690 -0.2614  0.4970 -0.2799
 5869SOL    HW129069   0.851   1.214   7.697 -2.0506  0.9827 -0.8964
 5869SOL    HW229070   0.734   1.128   7.700  0.1333  1.3203  3.0935
 5870SOL     OW29071   3.116   0.894   5.244 -1.0503 -0.0659  0.1884
 5870SOL    HW129072   3.123   0.869   5.337 -1.4618 -0.9894 -0.0294
 5870SOL    HW229073   3.023   0.918   5.244 -0.6117  1.6145  1.3220
 5871SOL     OW29074   1.120   0.482   2.168 -0.1217 -0.1599  0.3662
 5871SOL    HW129075   1.044   0.539   2.160 -0.1267 -0.1011  0.8378
 5871SOL    HW229076   1.097   0.416   2.103 -0.8149  0.0452  0.4111
 5872SOL     OW29077   3.925   1.951   1.126 -0.3230 -0.2727 -0.0245
 5872SOL    HW129078   3.876   1.894   1.066 -2.5506  0.8519  0.7095
 5872SOL    HW229079   3.871   1.925   1.201 -1.8870  0.7689 -0.7990
 5873SOL     OW29080   3.154   4.155   4.401 -0.3516  0.2770 -0.3663
 5873SOL    HW129081   3.179   4.101   4.476 -1.4237 -1.3162 -1.1575
 5873SOL    HW229082   3.175   4.089   4.335  0.6854 -1.3058  1.5585
 5874SOL     OW29083   0.649   0.931   2.259  0.7539 -0.0837 -0.1566
 5874SOL    HW129084   0.736   0.961   2.235  0.1831  0.6228 -1.3432
 5874SOL    HW229085   0.603   0.978   2.189  2.4033 -0.2611 -1.3592
 5875SOL     OW29086   2.544   3.412   3.235 -0.2354  0.1073  0.4284
 5875SOL    HW129087   2.634   3.423   3.264 -0.6493  2.8030  0.7372
 5875SOL    HW229088   2.497   3.411   3.319  1.1419  0.3871  1.1993
 5876SOL     OW29089   2.855   1.414  15.768  0.0843  0.2272 -1.1528
 5876SOL    HW129090   2.812   1.491  15.806 -0.5198  0.1784 -1.7343
 5876SOL    HW229091   2.947   1.440  15.764  0.0368  0.6739  0.8425
 5877SOL     OW29092   0.145   1.559  12.652 -0.3471  0.3293  0.1137
 5877SOL    HW129093   0.081   1.592  12.715 -2.4659 -1.6116 -1.0423
 5877SOL    HW229094   0.081   1.505  12.606  0.4775  0.0395 -0.6864
 5878SOL     OW29095   4.036   0.714   7.628  0.4006  0.3229 -0.4441
 5878SOL    HW129096   4.008   0.632   7.586  0.0190  0.5877 -0.7117
 5878SOL    HW229097   4.108   0.685   7.684 -0.7292 -0.2653  0.6977
 5879SOL     OW29098   3.903   4.261   5.959 -0.3520  0.0685  0.4189
 5879SOL    HW129099   3.911   4.354   5.982  1.8928  0.4520 -1.8737
 5879SOL    HW229100   3.815   4.245   5.993  0.5111 -1.3156  1.9561
 5880SOL     OW29101   4.494   2.875  10.939  0.8292  0.4218  0.4185
 5880SOL    HW129102   4.423   2.828  10.984  1.5252 -0.4778  0.5719
 5880SOL    HW229103   4.552   2.866  11.015 -0.5771  2.4603  1.7514
 5881SOL     OW29104   4.438   0.719  10.214  0.1565 -0.5758  0.1025
 5881SOL    HW129105   4.480   0.670  10.143  0.8716  0.0562  0.0941
 5881SOL    HW229106   4.411   0.653  10.278 -1.6103 -0.4163 -0.4549
 5882SOL     OW29107   1.470   0.579   1.024  0.6275  0.1082  0.6673
 5882SOL    HW129108   1.435   0.655   0.978 -1.7827  0.4415  3.0148
 5882SOL    HW229109   1.402   0.515   1.004 -1.3074  3.0616 -2.0949
 5883SOL     OW29110   2.358   0.804   5.608  0.1251  0.3157 -0.0543
 5883SOL    HW129111   2.341   0.898   5.618  1.6344  0.5629  0.0699
 5883SOL    HW229112   2.451   0.808   5.627  0.4931  1.5562 -2.1251
 5884SOL     OW29113   2.129   1.507  12.530  0.4817  0.1144  0.1479
 5884SOL    HW129114   2.155   1.489  12.621 -2.8453  1.4117  1.3393
 5884SOL    HW229115   2.216   1.512  12.490  1.1022 -1.2256  1.3122
 5885SOL     OW29116   3.313   0.709  11.352  0.1333  0.0263  0.1453
 5885SOL    HW129117   3.328   0.645  11.283 -0.2802  3.8417 -3.4976
 5885SOL    HW229118   3.280   0.783  11.301 -2.7709 -1.6283 -0.3661
 5886SOL     OW29119   3.628   4.332  12.663 -0.4435 -0.5200 -0.3128
 5886SOL    HW129120   3.670   4.337  12.577 -2.3130 -1.0157 -1.2678
 5886SOL    HW229121   3.696   4.293  12.717  0.1115  0.1593 -0.5204
 5887SOL     OW29122   2.300   0.259   4.612 -0.3180 -0.1780 -0.4281
 5887SOL    HW129123   2.344   0.225   4.534  0.9898 -0.3870  0.4133
 5887SOL    HW229124   2.368   0.294   4.669  0.3516 -3.1519  0.6083
 5888SOL     OW29125   0.993   2.566  10.927  0.1637  0.4604  0.0764
 5888SOL    HW129126   1.017   2.516  11.006 -0.9154  1.4492  1.0208
 5888SOL    HW229127   1.034   2.648  10.954  1.1064 -0.7910  2.4702
 5889SOL     OW29128   3.736   1.491  12.270 -0.5296 -0.2163 -0.0070
 5889SOL    HW129129   3.763   1.577  12.303  0.7686 -0.2938 -0.8679
 5889SOL    HW229130   3.796   1.483  12.196 -0.4958  0.4527 -0.0484
 5890SOL     OW29131   3.760   3.856  14.849  0.0796  0.4910 -0.1894
 5890SOL    HW129132   3.786   3.764  14.855  2.6884  1.2907  0.8362
 5890SOL    HW229133   3.842   3.904  14.837 -0.5942  2.1616  1.8539
 5891SOL     OW29134   3.767   0.449   6.299 -0.3525  0.2638  0.2467
 5891SOL    HW129135   3.851   0.467   6.342 -0.4791  3.1862 -0.7564
 5891SOL    HW229136   3.777   0.422   6.208  1.1650  1.9956 -0.1095
 5892SOL     OW29137   0.965   1.745   8.900  0.0069 -0.5443  0.2662
 5892SOL    HW129138   0.907   1.724   8.827 -0.6254  2.2598 -0.0576
 5892SOL    HW229139   1.028   1.673   8.895 -0.8243 -1.3057  0.9021
 5893SOL     OW29140   1.499   0.450   2.551 -0.2306  0.0567 -0.2938
 5893SOL    HW129141   1.461   0.457   2.463 -0.7567 -0.4381 -0.1094
 5893SOL    HW229142   1.553   0.371   2.543 -1.0878 -0.6909  1.3891
 5894SOL     OW29143   1.713   0.243   7.163 -0.4759  0.1662 -0.4616
 5894SOL    HW129144   1.748   0.324   7.125  0.0028  0.7963  1.3365
 5894SOL    HW229145   1.730   0.185   7.089  1.7466  0.5474 -0.2534
 5895SOL     OW29146   4.128   0.076  16.998 -0.0805 -0.5137 -0.1797
 5895SOL    HW129147   4.043   0.086  17.040  0.7772  1.6708  0.9976
 5895SOL    HW229148   4.173   0.132  17.062  0.7831 -0.4418 -0.8436
 5896SOL     OW29149   3.242   3.074   7.303 -0.2008  0.2808  0.3624
 5896SOL    HW129150   3.167   3.019   7.280  0.1133  0.1240 -0.2942
 5896SOL    HW229151   3.213   3.124   7.380 -0.8410  0.9566 -0.3163
 5897SOL     OW29152   4.485   3.287   9.786  0.5063  0.7169 -0.1812
 5897SOL    HW129153   4.521   3.201   9.764 -0.0496  0.8813 -1.7667
 5897SOL    HW229154   4.414   3.262   9.844  1.4883 -1.8051 -0.0928
 5898SOL     OW29155   2.916   2.014   0.539 -0.0545 -0.1837  0.2005
 5898SOL    HW129156   2.877   2.098   0.516 -1.5582 -1.3437 -1.5081
 5898SOL    HW229157   2.839   1.966   0.571 -0.2866 -0.5086 -0.8454
 5899SOL     OW29158   3.044   0.909   3.691 -0.3630  0.6746 -0.2496
 5899SOL    HW129159   3.078   0.911   3.601  0.9384  0.7668  0.2521
 5899SOL    HW229160   2.968   0.967   3.689 -1.1562 -0.3584 -0.3087
 5900SOL     OW29161   1.870   4.316   2.215  0.1529  0.3865 -0.7600
 5900SOL    HW129162   1.821   4.387   2.256  2.3926  1.4545  0.0666
 5900SOL    HW229163   1.941   4.300   2.277 -1.6957  1.2403  1.5349
 5901SOL     OW29164   4.007   3.578   2.959  0.0776 -0.0708 -0.2635
 5901SOL    HW129165   4.097   3.588   2.929 -0.2161  0.5018 -0.9655
 5901SOL    HW229166   4.016   3.521   3.035 -1.8949  1.0386  0.8157
 5902SOL     OW29167   0.329   2.347   6.201 -0.4089 -0.2273  0.6010
 5902SOL    HW129168   0.239   2.340   6.232 -0.7231 -0.3863 -0.3290
 5902SOL    HW229169   0.373   2.290   6.264  1.7126  0.9116  0.1707
 5903SOL     OW29170   2.947   3.038  10.885  0.2559 -0.0352  0.0841
 5903SOL    HW129171   3.034   3.004  10.904  0.6314  1.3578  0.8034
 5903SOL    HW229172   2.932   3.009  10.795  0.1526  2.0035 -0.5564
 5904SOL     OW29173   2.312   0.913   6.553 -0.3170  0.0939 -0.4302
 5904SOL    HW129174   2.405   0.896   6.538 -0.1726  0.8500 -0.3929
 5904SOL    HW229175   2.321   0.988   6.612  0.7395  1.4366 -2.2760
 5905SOL     OW29176   4.641   1.978   6.112  0.3767 -0.1859  0.1508
 5905SOL    HW129177   4.654   1.995   6.205 -1.0969  0.8317  0.1721
 5905SOL    HW229178   4.692   1.897   6.111 -2.0460 -1.6853 -0.5577
 5906SOL     OW29179   3.502   0.777   0.226 -0.2257  0.2093 -0.1850
 5906SOL    HW129180   3.512   0.853   0.168  0.5056  1.3891  1.4613
 5906SOL    HW229181   3.594   0.755   0.244 -0.7394 -0.9664  1.0566
 5907SOL     OW29182   0.782   1.489   5.517 -0.0149 -0.0407 -0.1955
 5907SOL    HW129183   0.689   1.491   5.540 -1.0149  1.1448 -4.3458
 5907SOL    HW229184   0.810   1.408   5.559 -1.3168 -0.1083  0.5767
 5908SOL     OW29185   3.410   4.551   7.433  0.2630  0.2273  0.1931
 5908SOL    HW129186   3.367   4.633   7.458 -0.2718 -0.0639  0.2318
 5908SOL    HW229187   3.356   4.485   7.476 -0.6647  1.3131  0.6890
 5909SOL     OW29188   4.112   1.953   4.257  0.2245 -0.2215  0.2731
 5909SOL    HW129189   4.033   1.901   4.242  0.9666 -1.7308  1.6316
 5909SOL    HW229190   4.153   1.942   4.171  1.7618  0.8038  0.8814
 5910SOL     OW29191   2.322   3.231   6.459  0.0968  0.2920  0.4679
 5910SOL    HW129192   2.354   3.277   6.536  1.5199 -1.4358  0.9350
 5910SOL    HW229193   2.316   3.145   6.502  0.6602  0.5628  1.0804
 5911SOL     OW29194   3.480   0.592   5.679 -0.0469  0.3054  0.3436
 5911SOL    HW129195   3.559   0.644   5.692 -1.1470  2.3983 -1.2315
 5911SOL    HW229196   3.522   0.506   5.681  0.0126  0.3242  0.0028
 5912SOL     OW29197   3.182   2.168   8.538  0.2867  0.3266 -0.2705
 5912SOL    HW129198   3.142   2.123   8.612 -1.3417  2.3711  0.0679
 5912SOL    HW229199   3.123   2.243   8.539 -1.1533 -0.8215  0.8268
 5913SOL     OW29200   3.373   1.526   1.544 -0.0715 -0.5729  0.0265
 5913SOL    HW129201   3.448   1.467   1.533  1.2887  1.1287  0.1878
 5913SOL    HW229202   3.310   1.502   1.476 -0.9089 -2.2189  1.3424
 5914SOL     OW29203   4.207   2.043   9.081 -0.1358 -0.1718  0.1200
 5914SOL    HW129204   4.260   2.037   9.002 -1.5098 -0.2288 -0.8011
 5914SOL    HW229205   4.223   2.133   9.112  0.5544 -1.1163  2.5305
 5915SOL     OW29206   4.723   0.798   6.123 -0.5108  0.4691 -0.5295
 5915SOL    HW129207   4.657   0.775   6.057 -0.8273  2.6798 -1.0032
 5915SOL    HW229208   0.068   0.831   6.065 -0.7527  0.5987 -0.7467
 5916SOL     OW29209   1.388   4.279   9.215 -0.4449  0.0066 -0.4565
 5916SOL    HW129210   1.458   4.277   9.149 -0.9392 -0.4191 -0.9727
 5916SOL    HW229211   1.360   4.368   9.195 -1.6478 -0.1440  0.6092
 5917SOL     OW29212   0.966   2.543  11.924  0.4021 -0.3420 -0.4459
 5917SOL    HW129213   0.967   2.454  11.960 -1.3448  0.9497  2.7571
 5917SOL    HW229214   0.940   2.536  11.832  0.9209  0.5025 -0.6499
 5918SOL     OW29215   3.136   3.542  10.704  0.2518  0.0920 -0.4053
 5918SOL    HW129216   3.228   3.517  10.693  0.6485  1.3380  0.0465
 5918SOL    HW229217   3.118   3.567  10.613 -1.3870 -1.7095 -0.5851
 5919SOL     OW29218   2.117   2.383  11.534 -0.4178  0.8116  0.1477
 5919SOL    HW129219   2.130   2.413  11.444 -0.9658 -1.4870 -0.6897
 5919SOL    HW229220   2.205   2.386  11.570 -0.2432 -0.2768 -0.1836
 5920SOL     OW29221   3.295   3.963  13.036  0.0370 -0.1416 -0.2520
 5920SOL    HW129222   3.206   3.967  13.000 -0.5952 -1.0102  1.2134
 5920SOL    HW229223   3.345   3.986  12.957 -0.6989 -0.0698 -0.7010
 5921SOL     OW29224   2.024   3.803   9.927  0.0690 -0.9756  0.3616
 5921SOL    HW129225   2.117   3.789   9.912  0.2464 -0.3221  0.8760
 5921SOL    HW229226   2.019   3.792  10.022  0.8297  0.2547  0.5502
 5922SOL     OW29227   1.454   0.250   8.891  0.6348  0.1197 -0.2389
 5922SOL    HW129228   1.424   0.159   8.878  1.1246  0.2539 -2.3940
 5922SOL    HW229229   1.403   0.282   8.965  2.0305  3.0007 -0.5352
 5923SOL     OW29230   2.222   2.188   1.908  0.3881 -0.0509  0.1191
 5923SOL    HW129231   2.286   2.133   1.864  3.4733  0.8959  3.3625
 5923SOL    HW229232   2.145   2.144   1.873  1.4616 -2.5135  0.8288
 5924SOL     OW29233   3.230   4.172  13.251 -0.4227 -0.4569  0.1864
 5924SOL    HW129234   3.147   4.216  13.232 -0.1636  1.2736  3.0154
 5924SOL    HW229235   3.241   4.123  13.169 -1.7167 -0.9437  0.3052
 5925SOL     OW29236   2.832   0.994  12.907  0.1399 -0.2575 -0.2847
 5925SOL    HW129237   2.776   0.978  12.831  2.0974 -0.5033 -1.6685
 5925SOL    HW229238   2.811   0.918  12.963 -0.5361  0.6226  0.6500
 5926SOL     OW29239   2.968   1.699  10.338  0.6227 -0.4627  0.3540
 5926SOL    HW129240   2.893   1.723  10.394 -0.5928  1.1131 -1.9722
 5926SOL    HW229241   3.036   1.749  10.384 -0.5384  0.8451  0.6537
 5927SOL     OW29242   4.185   2.520   7.415 -0.2175  0.3448  0.3319
 5927SOL    HW129243   4.138   2.569   7.483 -2.8631  1.0920 -2.0191
 5927SOL    HW229244   4.217   2.584   7.351  0.3438  0.6810  0.9475
 5928SOL     OW29245   4.565   1.560   2.809  0.6482 -0.1456  0.3081
 5928SOL    HW129246   4.541   1.634   2.755 -1.2814 -0.7296  0.3549
 5928SOL    HW229247   4.616   1.607   2.875  0.2780 -1.1230  1.2958
 5929SOL     OW29248   4.098   3.828   3.853 -0.4046  0.4727  0.2303
 5929SOL    HW129249   4.115   3.734   3.858 -1.2953  0.2660 -0.6180
 5929SOL    HW229250   4.074   3.850   3.943 -2.4933 -0.2727 -0.1294
 5930SOL     OW29251   4.449   3.258   7.239 -0.3624 -0.0233  0.0649
 5930SOL    HW129252   4.423   3.193   7.174  0.0211 -0.4040  0.2945
 5930SOL    HW229253   4.525   3.219   7.282 -0.2287  0.3506  0.1732
 5931SOL     OW29254   0.941   0.338   6.678  0.1749  0.2130 -0.7156
 5931SOL    HW129255   0.972   0.247   6.670  3.0419  1.1490 -0.3075
 5931SOL    HW229256   0.893   0.338   6.761  1.5188 -1.3457  0.0774
 5932SOL     OW29257   0.170   3.123   3.404 -0.6131 -0.7022  0.4056
 5932SOL    HW129258   0.117   3.079   3.338 -0.4361 -0.1879 -0.0797
 5932SOL    HW229259   0.256   3.101   3.369  0.2245  1.5410  1.0227
 5933SOL     OW29260   1.318   1.037   1.973  0.4189 -0.2100  0.4597
 5933SOL    HW129261   1.360   0.952   1.986  1.1281 -0.1206 -1.2822
 5933SOL    HW229262   1.390   1.099   1.978 -0.1443  0.6641 -2.6218
 5934SOL     OW29263   0.374   0.943  15.498  0.5460 -0.1520 -0.2899
 5934SOL    HW129264   0.376   1.038  15.509  0.1132  0.0003 -1.4622
 5934SOL    HW229265   0.284   0.923  15.524  0.5336  0.7741  0.3798
 5935SOL     OW29266   0.677   1.166  12.055  0.0284  0.3823 -0.3600
 5935SOL    HW129267   0.668   1.096  12.120 -1.3228  0.0398 -0.9152
 5935SOL    HW229268   0.749   1.220  12.086  0.1005 -0.4572  0.9455
 5936SOL     OW29269   2.090   1.952  14.670  0.1600  0.0191 -0.7118
 5936SOL    HW129270   2.140   1.877  14.637 -0.1828 -0.9116  0.9035
 5936SOL    HW229271   2.151   1.989  14.734 -0.3422  0.8166 -0.6995
 5937SOL     OW29272   0.292   0.215   4.545  0.2989  0.7602  0.2783
 5937SOL    HW129273   0.264   0.124   4.549 -3.1802  1.8094 -0.4099
 5937SOL    HW229274   0.349   0.228   4.621  0.5901  1.0014  0.0187
 5938SOL     OW29275   1.429   3.903   6.410 -0.1874 -0.5123  0.2963
 5938SOL    HW129276   1.435   3.810   6.433  1.2661 -0.5193 -0.1394
 5938SOL    HW229277   1.471   3.942   6.486 -3.9800  0.9887  1.6143
 5939SOL     OW29278   2.555   1.909  15.998 -0.0681 -0.7130 -0.7350
 5939SOL    HW129279   2.535   1.962  16.075  1.7282  0.7872 -1.3111
 5939SOL    HW229280   2.650   1.915  15.992  0.0154 -1.0268  0.3000
 5940SOL     OW29281   1.409   1.142   9.377  0.1983  0.6336 -0.1711
 5940SOL    HW129282   1.380   1.164   9.289 -1.1577  1.0987  0.3882
 5940SOL    HW229283   1.490   1.193   9.381  0.4850  0.0963  1.0951
 5941SOL     OW29284   3.699   0.333   6.623  0.1022 -0.2130  0.7070
 5941SOL    HW129285   3.742   0.252   6.595  0.7125 -0.8312  3.3844
 5941SOL    HW229286   3.776   0.383   6.651 -1.3335  2.0941  0.4721
 5942SOL     OW29287   4.386   3.493   7.103 -0.1225 -0.2709  0.0756
 5942SOL    HW129288   4.306   3.467   7.058  0.3702 -1.8140  0.0886
 5942SOL    HW229289   4.424   3.409   7.132 -0.5800 -0.9940 -1.4488
 5943SOL     OW29290   1.301   2.066  13.139 -0.5402 -0.4585  0.3999
 5943SOL    HW129291   1.278   2.151  13.102  1.8428 -0.5211 -1.1860
 5943SOL    HW229292   1.361   2.083  13.213 -0.3234  1.6851 -0.2585
 5944SOL     OW29293   4.313   0.653   8.688  0.2330  0.0461  0.0425
 5944SOL    HW129294   4.327   0.721   8.622 -0.8608  0.2731  0.0380
 5944SOL    HW229295   4.345   0.697   8.767  0.8380  1.6996 -1.1238
 5945SOL     OW29296   4.417   0.467   8.460 -0.1697 -0.9102 -0.4739
 5945SOL    HW129297   4.369   0.543   8.430 -0.4392 -0.7942  0.2631
 5945SOL    HW229298   4.355   0.433   8.524 -1.5300 -0.9163 -1.8054
 5946SOL     OW29299   3.168   1.418   7.211 -0.0057 -0.2923  0.0229
 5946SOL    HW129300   3.248   1.382   7.174  0.3676  2.1756 -1.5726
 5946SOL    HW229301   3.111   1.425   7.135  0.6132 -1.6407 -0.5578
 5947SOL     OW29302   0.815   0.220  15.521 -0.2596  0.0354  0.0421
 5947SOL    HW129303   0.748   0.192  15.458 -0.3494 -0.4138  0.3320
 5947SOL    HW229304   0.765   0.280  15.575 -0.3589  1.0976 -1.2347
 5948SOL     OW29305   2.836   3.299   2.337 -0.4404  0.5238  0.4985
 5948SOL    HW129306   2.785   3.246   2.277 -1.1619 -0.6840  2.1677
 5948SOL    HW229307   2.841   3.381   2.288  1.1172  2.3340  3.6961
 5949SOL     OW29308   4.038   0.229   7.223 -0.5289  0.1772 -0.6271
 5949SOL    HW129309   3.949   0.201   7.247 -1.1077  3.2393  0.9204
 5949SOL    HW229310   4.084   0.146   7.212 -2.0644 -0.4105 -2.6207
 5950SOL     OW29311   1.539   3.989   5.346  0.0866  0.5278 -0.2611
 5950SOL    HW129312   1.497   3.909   5.377 -0.8231  0.3855 -1.8882
 5950SOL    HW229313   1.511   3.988   5.255  0.0966  1.5049 -0.2822
 5951SOL     OW29314   3.727   1.349   9.191  0.1557  0.3678  0.0416
 5951SOL    HW129315   3.647   1.393   9.217  0.0674 -0.4526  1.1619
 5951SOL    HW229316   3.748   1.305   9.273 -1.0216 -0.6324 -0.1995
 5952SOL     OW29317   3.978   2.361   7.668 -0.1079 -0.1447  0.2639
 5952SOL    HW129318   3.907   2.297   7.661  0.9410 -1.3508  0.4121
 5952SOL    HW229319   3.940   2.428   7.613 -0.6613 -1.8964 -1.4833
 5953SOL     OW29320   3.444   4.110   8.168 -0.2093 -0.2337 -0.3798
 5953SOL    HW129321   3.489   4.048   8.110 -0.0523  2.0516 -2.7023
 5953SOL    HW229322   3.471   4.070   8.251  0.6534 -0.1874 -0.6417
 5954SOL     OW29323   3.715   1.227   5.316  0.2485 -0.6825  0.2341
 5954SOL    HW129324   3.650   1.207   5.384  1.0538 -0.6985  1.0030
 5954SOL    HW229325   3.675   1.301   5.270  0.9928  0.7454  1.8722
 5955SOL     OW29326   4.475   2.138   5.477  0.0868 -0.2560 -0.6144
 5955SOL    HW129327   4.529   2.103   5.406 -1.6868  0.1936 -2.2021
 5955SOL    HW229328   4.424   2.063   5.508 -0.8219  1.7580  2.8247
 5956SOL     OW29329   4.010   3.936   5.129  0.0035 -0.5958  0.2064
 5956SOL    HW129330   3.961   4.002   5.082  0.3979  0.8460  1.8215
 5956SOL    HW229331   4.084   3.916   5.072  1.5914  1.2239  1.6267
 5957SOL     OW29332   3.126   3.694   7.398  0.4768 -0.2939 -0.4766
 5957SOL    HW129333   3.127   3.786   7.425  0.0242  0.5794 -3.4222
 5957SOL    HW229334   3.042   3.665   7.434  0.3572 -1.7320 -1.8674
 5958SOL     OW29335   2.728   2.006   0.128 -0.2850  0.2265 -0.2126
 5958SOL    HW129336   2.660   2.030   0.192  1.0070 -0.0008  1.2457
 5958SOL    HW229337   2.688   1.925   0.097  0.5579 -0.8484  1.4722
 5959SOL     OW29338   3.301   1.891   9.719 -0.1000 -0.3290 -0.8315
 5959SOL    HW129339   3.275   1.827   9.652  1.1177 -1.8611  0.1510
 5959SOL    HW229340   3.265   1.847   9.796  0.4225  0.1076 -0.3370
 5960SOL     OW29341   1.142   2.124   3.301  0.7925  0.3960 -0.0987
 5960SOL    HW129342   1.106   2.130   3.213 -1.9161  2.3268  1.1487
 5960SOL    HW229343   1.180   2.037   3.295  1.1439  0.6204 -1.1308
 5961SOL     OW29344   1.546   1.398   8.847  0.7997 -0.1673  0.4010
 5961SOL    HW129345   1.526   1.329   8.784 -3.4005  0.4958  1.0195
 5961SOL    HW229346   1.541   1.477   8.793  0.3283 -0.2895  0.2662
 5962SOL     OW29347   3.406   2.115   1.241  0.6063 -0.1628  0.2585
 5962SOL    HW129348   3.480   2.093   1.298 -0.1143  1.1169  1.7108
 5962SOL    HW229349   3.336   2.067   1.285  0.6387  0.8168  1.3920
 5963SOL     OW29350   0.146   4.288   6.913 -0.1057  0.6125 -0.6756
 5963SOL    HW129351   0.156   4.197   6.941 -0.9178  0.5198 -0.6881
 5963SOL    HW229352   0.208   4.294   6.840 -0.8733  0.4314 -1.3365
 5964SOL     OW29353   3.113   0.538   7.423 -0.2969 -0.3940  0.0956
 5964SOL    HW129354   3.207   0.532   7.439 -0.0311  0.0956 -1.2978
 5964SOL    HW229355   3.123   0.574   7.335  0.5912  3.2390  1.6600
 5965SOL     OW29356   2.455   0.217   9.391  0.0315 -0.1102 -0.0656
 5965SOL    HW129357   2.386   0.216   9.457 -0.4006  2.0119 -0.4687
 5965SOL    HW229358   2.450   0.130   9.352 -2.5287 -1.0043  2.2313
 5966SOL     OW29359   2.290   4.241   1.630  0.3058 -0.0161  0.0744
 5966SOL    HW129360   2.272   4.262   1.721  0.1912  0.3127 -0.0267
 5966SOL    HW229361   2.239   4.160   1.628  0.4510 -0.1242  0.7273
 5967SOL     OW29362   0.989   3.166   5.936 -0.0517 -0.8418 -0.2113
 5967SOL    HW129363   1.025   3.078   5.922  1.4516 -0.6661  2.6317
 5967SOL    HW229364   0.902   3.148   5.970  0.2232  1.6688  1.7786
 5968SOL     OW29365   2.034   1.565   2.295  0.0276 -0.3950  0.2990
 5968SOL    HW129366   1.961   1.506   2.276 -1.6547  1.8838 -0.3574
 5968SOL    HW229367   2.104   1.501   2.310 -0.5757 -1.0037  0.5173
 5969SOL     OW29368   2.173   1.019   5.347 -0.3050 -0.2324  0.0403
 5969SOL    HW129369   2.188   1.107   5.381 -0.4399  1.1248 -3.4152
 5969SOL    HW229370   2.103   0.976   5.397  1.2805 -1.6970  0.9831
 5970SOL     OW29371   0.147   0.281   7.446  0.1302  0.2536  0.5204
 5970SOL    HW129372   0.110   0.210   7.394  0.1241 -0.0329  0.9171
 5970SOL    HW229373   0.203   0.315   7.376 -0.4929 -0.3941 -0.2865
 5971SOL     OW29374   0.971   3.417   3.365  0.1921  0.2382 -0.1797
 5971SOL    HW129375   0.917   3.407   3.286 -1.0702 -0.9117  0.8407
 5971SOL    HW229376   0.936   3.338   3.405  1.3016  0.5691  1.4189
 5972SOL     OW29377   2.660   0.053   9.228 -0.0077 -0.0151  0.0056
 5972SOL    HW129378   2.721   0.027   9.297 -0.4939  1.3878  0.9677
 5972SOL    HW229379   2.647   0.145   9.252 -3.5777 -0.1427 -1.4465
 5973SOL     OW29380   0.483   2.184   1.990 -0.3180  0.1216 -0.5248
 5973SOL    HW129381   0.496   2.208   1.898 -0.4699 -0.7651 -0.7770
 5973SOL    HW229382   0.461   2.270   2.026 -4.1294 -1.8795  1.8888
 5974SOL     OW29383   3.516   0.541  13.904  0.2521  0.1681 -0.6661
 5974SOL    HW129384   3.478   0.621  13.942 -0.4579 -0.8125  0.6746
 5974SOL    HW229385   3.463   0.482  13.958  0.0896 -1.3086 -2.4641
 5975SOL     OW29386   4.309   4.481  17.212 -0.4258 -0.1601  0.0343
 5975SOL    HW129387   4.285   4.563  17.256 -0.1071 -1.1111  1.9902
 5975SOL    HW229388   4.352   4.505  17.130 -0.2590 -1.8681 -0.3719
 5976SOL     OW29389   1.741   0.152   6.484 -0.0342  0.2630  0.4922
 5976SOL    HW129390   1.713   0.226   6.430 -2.8449 -1.6294 -0.7141
 5976SOL    HW229391   1.745   0.191   6.571 -0.7595  0.7046  0.3268
 5977SOL     OW29392   4.660   3.099   4.059 -0.0330  0.7816 -0.6046
 5977SOL    HW129393   0.030   3.100   4.039  0.4462 -1.2806  1.4309
 5977SOL    HW229394   4.634   3.011   4.087  0.5688  1.0044  0.6797
 5978SOL     OW29395   0.997   1.558   9.597 -0.1361 -0.2976 -0.4361
 5978SOL    HW129396   0.901   1.550   9.591 -0.0317 -1.1417 -1.0219
 5978SOL    HW229397   1.017   1.486   9.537 -0.0254 -0.8415  0.2477
 5979SOL     OW29398   2.152   3.458   8.819 -0.2872 -0.1537  0.2553
 5979SOL    HW129399   2.224   3.422   8.767  0.7781  1.2016  0.7908
 5979SOL    HW229400   2.097   3.381   8.833  0.6946 -1.1776 -1.4318
 5980SOL     OW29401   3.096   3.071   5.051  0.2399 -0.8126 -0.4653
 5980SOL    HW129402   3.082   3.009   4.980  0.3827 -0.6095 -0.6698
 5980SOL    HW229403   3.105   3.144   4.990 -1.8689 -1.6029 -1.7258
 5981SOL     OW29404   2.575   3.400   8.633  0.1628  0.0089  0.0974
 5981SOL    HW129405   2.602   3.420   8.543  2.3679  1.2293  1.0214
 5981SOL    HW229406   2.634   3.328   8.654  4.5153  3.5157 -0.0793
 5982SOL     OW29407   0.383   1.368   3.647  0.0148 -0.4470 -0.0114
 5982SOL    HW129408   0.288   1.363   3.637 -0.0033  1.1049 -0.5797
 5982SOL    HW229409   0.380   1.325   3.733  0.0526 -1.0437 -0.3035
 5983SOL     OW29410   3.819   2.018   2.376  0.2173 -0.0992  0.3426
 5983SOL    HW129411   3.760   2.029   2.301  2.1293  0.1948 -1.1207
 5983SOL    HW229412   3.859   1.942   2.333  1.8097  2.3915 -2.5662
 5984SOL     OW29413   2.098   2.183   7.653 -0.1144 -0.3725 -0.0810
 5984SOL    HW129414   2.193   2.178   7.650 -0.1434  0.3764 -2.1507
 5984SOL    HW229415   2.080   2.246   7.583 -1.3588 -0.8236 -0.1629
 5985SOL     OW29416   1.878   0.326   8.453  0.1953  0.1177  0.1420
 5985SOL    HW129417   1.899   0.291   8.366 -0.4510  1.1040 -0.4169
 5985SOL    HW229418   1.926   0.254   8.494 -0.1692 -0.1592  0.0805
 5986SOL     OW29419   3.725   1.970   0.623 -0.4338 -0.0512  0.1229
 5986SOL    HW129420   3.789   1.918   0.574  1.4771  1.5549  0.9085
 5986SOL    HW229421   3.765   1.982   0.710 -0.3342 -1.9776  0.3604
 5987SOL     OW29422   0.466   4.182   1.326 -0.3420 -0.0226  0.3160
 5987SOL    HW129423   0.501   4.201   1.239  0.1571  0.8339  0.7060
 5987SOL    HW229424   0.542   4.135   1.357 -0.7087  0.3163  1.7290
 5988SOL     OW29425   0.152   4.665   5.446  0.1947 -0.1431  0.0499
 5988SOL    HW129426   0.070   4.708   5.424  0.6973  0.2125 -1.1254
 5988SOL    HW229427   0.163   4.594   5.382 -0.3002  0.0785 -0.2731
 5989SOL     OW29428   3.580   1.429   2.566 -0.1959  0.2288 -0.6043
 5989SOL    HW129429   3.614   1.341   2.548  2.3639  1.3746 -1.3700
 5989SOL    HW229430   3.651   1.466   2.618 -0.4736  0.0141 -0.0759
 5990SOL     OW29431   1.519   3.761   4.309 -0.3884 -0.1634 -0.1282
 5990SOL    HW129432   1.520   3.708   4.388  5.2432 -1.3206 -0.9944
 5990SOL    HW229433   1.514   3.688   4.247 -0.4498 -1.1881  1.0867
 5991SOL     OW29434   3.295   3.965   8.627 -0.2878  0.9549  0.8246
 5991SOL    HW129435   3.296   3.898   8.696 -0.8515  0.3567  0.2442
 5991SOL    HW229436   3.243   4.034   8.669 -2.1872  0.6278 -1.0209
 5992SOL     OW29437   4.055   0.415  13.498 -0.6846  0.4806  0.2915
 5992SOL    HW129438   4.076   0.506  13.477 -0.2662  0.9858  2.9319
 5992SOL    HW229439   4.137   0.381  13.534  0.2405  2.6500  0.2163
 5993SOL     OW29440   0.004   1.592   6.503 -0.5273 -0.7640  0.3428
 5993SOL    HW129441   4.643   1.583   6.460  0.3056 -1.1091 -1.2318
 5993SOL    HW229442   0.055   1.520   6.466 -1.0750 -2.4807  2.8768
 5994SOL     OW29443   4.697   1.980   4.420  0.2197 -0.2021 -0.0970
 5994SOL    HW129444   4.686   2.051   4.356  3.8455 -1.0931 -1.7147
 5994SOL    HW229445   4.610   1.994   4.458  0.6037  1.4707  0.1793
 5995SOL     OW29446   0.948   1.617   1.177  0.3763 -0.4221  0.1757
 5995SOL    HW129447   0.879   1.679   1.201  1.2011  0.5341  0.0458
 5995SOL    HW229448   0.998   1.616   1.259  1.6984  0.0603 -0.6211
 5996SOL     OW29449   3.606   4.176   9.819  0.4536 -0.0112 -0.3713
 5996SOL    HW129450   3.598   4.272   9.819  1.4151  0.0731 -0.8831
 5996SOL    HW229451   3.702   4.180   9.818  0.4545 -0.1918 -1.7858
 5997SOL     OW29452   1.279   1.934   7.027 -0.1155  0.1285  0.0014
 5997SOL    HW129453   1.194   1.963   7.061 -0.0239 -0.2498  0.5451
 5997SOL    HW229454   1.291   1.853   7.076  1.6331  1.1810  1.3235
 5998SOL     OW29455   1.522   1.792   6.127 -0.3187 -0.8051 -0.7534
 5998SOL    HW129456   1.560   1.793   6.215 -0.2001  1.0167 -0.8171
 5998SOL    HW229457   1.476   1.875   6.119 -0.6759 -0.8419  0.7529
 5999SOL     OW29458   2.854   3.112   7.797  0.1735 -0.0690 -0.3551
 5999SOL    HW129459   2.812   3.093   7.881 -0.3331  2.2013 -0.0881
 5999SOL    HW229460   2.801   3.190   7.780 -1.4560 -0.8721  1.0503
 6000SOL     OW29461   1.909   3.981   3.685 -0.6990  0.3015  0.3538
 6000SOL    HW129462   1.858   3.998   3.764 -0.3685 -1.5704  0.9693
 6000SOL    HW229463   1.984   3.931   3.717 -0.0400  2.2959  1.9273
 6001SOL     OW29464   0.097   0.618   7.730  0.3360  0.6741  0.6425
 6001SOL    HW129465   0.171   0.630   7.671 -0.8895 -0.6534 -1.1852
 6001SOL    HW229466   0.036   0.556   7.690  0.7067  1.9905 -1.9990
 6002SOL     OW29467   2.754   0.202   4.397  0.2467 -0.7004 -0.3263
 6002SOL    HW129468   2.714   0.289   4.398 -2.4212 -1.9557 -0.3048
 6002SOL    HW229469   2.728   0.166   4.313  1.1903 -1.8182 -0.1422
 6003SOL     OW29470   1.931   0.796   2.189  0.2496 -0.3216  0.0772
 6003SOL    HW129471   1.852   0.754   2.222 -1.0135  0.4458 -1.9576
 6003SOL    HW229472   1.997   0.727   2.189  0.0592 -0.4985  2.7534
 6004SOL     OW29473   3.783   1.145   2.738  0.3114 -0.4519 -0.0641
 6004SOL    HW129474   3.699   1.137   2.691  1.2401  0.8219 -1.9546
 6004SOL    HW229475   3.751   1.132   2.827  1.3235 -0.3802  0.3080
 6005SOL     OW29476   1.111   2.799   5.745 -0.3257  0.3673 -0.1792
 6005SOL    HW129477   1.046   2.836   5.685 -1.0523  0.0558  0.4092
 6005SOL    HW229478   1.092   2.847   5.826  0.9693  1.6322 -0.6318
 6006SOL     OW29479   0.232   3.903   8.937  0.2699 -0.3212 -0.4230
 6006SOL    HW129480   0.260   3.961   8.866 -2.2696  0.0513 -1.1374
 6006SOL    HW229481   0.140   3.927   8.947  0.1720 -0.8788 -0.0530
 6007SOL     OW29482   0.020   3.218   8.966 -0.3659 -0.2582  0.2627
 6007SOL    HW129483   4.714   3.301   8.930  1.8266 -0.3615 -1.7893
 6007SOL    HW229484   0.112   3.239   8.982 -0.8216  3.4151 -1.9836
 6008SOL     OW29485   1.943   4.099   6.636 -0.2192 -0.7279  0.2306
 6008SOL    HW129486   1.988   4.168   6.586 -0.1920 -0.4064  0.6952
 6008SOL    HW229487   1.857   4.142   6.632  0.7389  0.9257 -3.5042
 6009SOL     OW29488   2.416   2.247   3.923 -0.0033 -0.1371  0.5362
 6009SOL    HW129489   2.425   2.153   3.940  1.5274 -0.0860 -0.0587
 6009SOL    HW229490   2.397   2.245   3.829 -0.2656  0.0519  0.5860
 6010SOL     OW29491   3.138   1.143   8.635 -0.1070  0.2437 -0.1498
 6010SOL    HW129492   3.095   1.181   8.711 -0.6021 -1.0817  0.2227
 6010SOL    HW229493   3.204   1.083   8.671 -0.1616  0.6932  0.7041
 6011SOL     OW29494   0.087   1.834   3.825  0.6587 -0.1222 -0.0104
 6011SOL    HW129495   0.116   1.819   3.915  0.8368 -0.5270 -0.1396
 6011SOL    HW229496   0.059   1.744   3.808  0.8021 -0.0798 -0.4561
 6012SOL     OW29497   1.373   1.247   6.203  0.0616  0.1350  0.1154
 6012SOL    HW129498   1.329   1.175   6.156 -3.2195  1.1032  1.6973
 6012SOL    HW229499   1.416   1.295   6.132  0.1433  0.3968  0.3451
 6013SOL     OW29500   3.011   3.303   9.272 -0.5280  0.9362 -0.2564
 6013SOL    HW129501   3.102   3.330   9.258  0.0057 -1.1056 -0.8032
 6013SOL    HW229502   2.959   3.361   9.217 -2.7622 -0.8652 -0.0428
 6014SOL     OW29503   1.780   4.570   7.815  0.1890 -0.1500  0.0313
 6014SOL    HW129504   1.781   4.516   7.895 -0.3128  0.3993  0.4060
 6014SOL    HW229505   1.823   4.508   7.755  0.4966  0.9606 -0.8873
 6015SOL     OW29506   0.917   1.398  17.000 -0.3410 -0.1896  0.5371
 6015SOL    HW129507   0.893   1.454  16.926 -0.7289 -2.4627 -1.0622
 6015SOL    HW229508   0.911   1.311  16.961 -0.7511  1.8152 -3.8323
 6016SOL     OW29509   2.340   3.613   7.508  0.1165 -0.1255 -0.0434
 6016SOL    HW129510   2.418   3.559   7.491  1.7426  2.0265  0.6696
 6016SOL    HW229511   2.376   3.656   7.585 -0.3775 -0.4411  0.3611
 6017SOL     OW29512   1.275   2.831   8.930 -0.1037  0.6548 -0.1006
 6017SOL    HW129513   1.198   2.774   8.942  1.5848 -1.1341  2.2010
 6017SOL    HW229514   1.230   2.907   8.965 -1.5637  0.5290 -1.6610
 6018SOL     OW29515   0.323   3.673  17.189  0.1662 -0.9119 -0.3933
 6018SOL    HW129516   0.408   3.704  17.219 -0.1237 -1.4381  0.9660
 6018SOL    HW229517   0.311   3.695  17.096 -1.9096  0.4319  0.1872
 6019SOL     OW29518   3.541   4.280  17.007 -0.2354 -0.6416 -0.5133
 6019SOL    HW129519   3.508   4.366  16.980  1.6010  0.0523 -0.5294
 6019SOL    HW229520   3.459   4.240  17.036  0.0391  0.1927  1.3974
 6020SOL     OW29521   4.093   0.449   3.284 -0.6225 -0.0242  0.3287
 6020SOL    HW129522   4.102   0.437   3.189  0.8991  1.0609  0.3404
 6020SOL    HW229523   4.051   0.534   3.295 -2.8362 -0.8482 -1.7165
 6021SOL     OW29524   2.024   0.086   1.869 -0.5706 -0.3254 -0.0109
 6021SOL    HW129525   1.976   0.151   1.816  0.8440 -0.6297 -1.6594
 6021SOL    HW229526   2.017   0.004   1.822  0.2024 -1.6149  2.1304
 6022SOL     OW29527   3.786   3.134   3.160 -0.1908 -0.2801 -0.2749
 6022SOL    HW129528   3.715   3.082   3.199 -0.8732  0.0213 -1.1124
 6022SOL    HW229529   3.740   3.214   3.138 -0.1025 -0.6177 -1.6617
 6023SOL     OW29530   2.047   1.799   1.729  0.3112  0.6434  0.0477
 6023SOL    HW129531   2.005   1.726   1.776  0.9627  1.4066  1.8108
 6023SOL    HW229532   2.136   1.763   1.730 -0.1961 -0.6040  1.9084
 6024SOL     OW29533   0.835   0.115   3.973  0.2724  0.5444  0.3881
 6024SOL    HW129534   0.865   0.038   3.924  2.8228  2.4255 -1.0137
 6024SOL    HW229535   0.778   0.161   3.912  2.6095  1.0820 -1.3916
 6025SOL     OW29536   1.517   2.496   5.343  0.1290 -1.0495  0.3391
 6025SOL    HW129537   1.503   2.501   5.249 -0.6141 -1.2182  0.4436
 6025SOL    HW229538   1.599   2.539   5.366  0.0691 -0.8751  0.2193
 6026SOL     OW29539   3.976   1.495   3.120 -0.0809  0.4641  0.2876
 6026SOL    HW129540   3.931   1.471   3.039 -0.2257  0.6548  0.3120
 6026SOL    HW229541   3.967   1.414   3.171  0.8915 -0.7685 -1.5188
 6027SOL     OW29542   0.663   4.235   6.314  0.4701  0.3727 -0.5844
 6027SOL    HW129543   0.683   4.180   6.239 -1.7840 -0.8345 -0.3073
 6027SOL    HW229544   0.749   4.268   6.339  0.8820 -0.1044 -1.3971
 6028SOL     OW29545   1.357   3.569   3.529  0.2572  0.3688  0.0257
 6028SOL    HW129546   1.337   3.540   3.440 -1.2275 -0.6444  0.6746
 6028SOL    HW229547   1.318   3.492   3.571  1.1501 -0.9511 -1.5482
 6029SOL     OW29548   1.014   1.231   8.499  0.2547 -0.2916 -0.0651
 6029SOL    HW129549   1.037   1.307   8.446 -1.0712 -0.2432 -0.5890
 6029SOL    HW229550   1.098   1.202   8.533  0.2073 -1.5797 -1.0738
 6030SOL     OW29551   2.235   0.315   8.250  0.1345  0.9824  0.4601
 6030SOL    HW129552   2.292   0.239   8.262 -0.0494  0.3092 -3.1167
 6030SOL    HW229553   2.290   0.388   8.277 -0.0637  0.6445  1.8048
 6031SOL     OW29554   1.296   1.345   2.978 -0.4485 -0.3160 -0.1374
 6031SOL    HW129555   1.215   1.338   3.028 -0.5863  0.7131 -0.2178
 6031SOL    HW229556   1.355   1.362   3.052  2.0837  0.7060 -2.3664
 6032SOL     OW29557   2.932   0.229   6.615  0.1002  0.3338 -0.2708
 6032SOL    HW129558   2.881   0.171   6.559  0.9011  0.9374 -1.6417
 6032SOL    HW229559   3.007   0.254   6.560  0.6604 -1.8993 -0.5082
 6033SOL     OW29560   2.577   4.442   5.231 -0.1263  0.2705  0.3345
 6033SOL    HW129561   2.504   4.480   5.182  0.6286 -1.5878 -2.2824
 6033SOL    HW229562   2.604   4.374   5.169  1.2513  1.3322 -0.2447
 6034SOL     OW29563   3.935   2.213   0.836 -0.2333  0.6358 -0.2525
 6034SOL    HW129564   3.955   2.287   0.894 -0.8359  0.1426  0.5785
 6034SOL    HW229565   3.849   2.186   0.867 -0.3718  0.9281 -0.3838
 6035SOL     OW29566   1.991   3.291   6.678 -0.1017 -0.6677  0.1380
 6035SOL    HW129567   1.999   3.255   6.590 -1.8081  1.2314 -0.7810
 6035SOL    HW229568   1.986   3.385   6.666 -0.1810 -0.7892 -0.7412
 6036SOL     OW29569   2.203   0.215   5.297 -0.1164 -0.5047 -0.2326
 6036SOL    HW129570   2.249   0.265   5.365  0.5776 -1.9756  0.3633
 6036SOL    HW229571   2.196   0.287   5.234  0.5170  1.0530  1.4445
 6037SOL     OW29572   0.575   4.056  13.340  0.4039  0.7884 -0.2380
 6037SOL    HW129573   0.479   4.059  13.346  0.2968 -1.6184 -0.5749
 6037SOL    HW229574   0.592   4.007  13.421 -0.1370  0.8502 -0.0856
 6038SOL     OW29575   4.180   3.993  14.243 -0.3037  0.2778  0.1883
 6038SOL    HW129576   4.179   4.057  14.172  0.2843  1.0267  0.8517
 6038SOL    HW229577   4.093   3.954  14.243 -0.0904 -0.1936  2.9716
 6039SOL     OW29578   3.724   0.123   3.168  0.1695 -0.4576 -0.0599
 6039SOL    HW129579   3.743   0.106   3.076 -1.2073  2.5505 -0.8737
 6039SOL    HW229580   3.809   0.111   3.211  1.3754  1.1052 -2.0371
 6040SOL     OW29581   2.351   0.964   7.357 -0.3888 -0.3406  0.1311
 6040SOL    HW129582   2.442   0.981   7.381 -0.9200 -0.3728  2.1427
 6040SOL    HW229583   2.351   1.001   7.268 -0.5752 -2.0118 -0.5567
 6041SOL     OW29584   0.050   1.341   6.123 -0.0930 -0.1878 -0.2118
 6041SOL    HW129585   0.086   1.269   6.071  1.3589  0.6134 -0.3222
 6041SOL    HW229586   0.133   1.382   6.149 -0.4759  0.5465 -0.1325
 6042SOL     OW29587   1.608   1.769   8.257 -0.0085 -0.8697 -0.2175
 6042SOL    HW129588   1.632   1.814   8.338  1.5641  0.3949 -1.3788
 6042SOL    HW229589   1.670   1.697   8.262  0.6136 -0.3337 -0.2222
 6043SOL     OW29590   0.730   3.096   2.842 -0.1851  0.9079 -0.5258
 6043SOL    HW129591   0.778   3.069   2.920 -1.2970 -2.2424 -0.9401
 6043SOL    HW229592   0.802   3.141   2.799 -0.1899  0.8995 -0.5425
 6044SOL     OW29593   1.459   1.111   8.568  0.7574  0.1603  0.0050
 6044SOL    HW129594   1.375   1.075   8.597  1.6631 -0.8025  1.4611
 6044SOL    HW229595   1.511   1.030   8.568 -1.0793 -1.0225 -0.0813
 6045SOL     OW29596   2.049   1.125   9.381 -0.2132  0.0383  0.1895
 6045SOL    HW129597   2.103   1.080   9.446 -1.0099 -1.2480 -0.0394
 6045SOL    HW229598   1.982   1.058   9.371  0.5309 -0.7326  0.2850
 6046SOL     OW29599   1.355   4.611   4.934 -0.3554  0.0341 -0.6313
 6046SOL    HW129600   1.354   4.519   4.962 -0.0357  0.3291  0.3376
 6046SOL    HW229601   1.384   4.586   4.846  2.2414  0.0127  0.2321
 6047SOL     OW29602   0.838   0.608   9.264  0.2356  0.4048 -0.6444
 6047SOL    HW129603   0.923   0.568   9.248 -0.3164 -0.6873 -0.8492
 6047SOL    HW229604   0.808   0.547   9.331  0.9479  0.5711 -0.1779
 6048SOL     OW29605   3.243   2.332   3.452 -0.5310 -0.6091  0.1737
 6048SOL    HW129606   3.285   2.300   3.532  1.1388  0.3877 -0.3004
 6048SOL    HW229607   3.187   2.263   3.417  0.5337 -1.1706 -0.4357
 6049SOL     OW29608   1.865   4.415  14.611 -0.4012  0.1013 -0.5098
 6049SOL    HW129609   1.929   4.350  14.579 -0.4958  0.0094 -0.5106
 6049SOL    HW229610   1.848   4.395  14.703 -0.3730 -0.8859 -0.7216
 6050SOL     OW29611   0.499   1.011   0.382 -0.2599 -0.7427 -0.1795
 6050SOL    HW129612   0.465   1.099   0.364  0.6774 -0.2617  0.3566
 6050SOL    HW229613   0.433   0.953   0.346  0.1278 -0.4245 -1.3932
 6051SOL     OW29614   0.375   2.698   8.410  0.3342  0.0609 -0.4936
 6051SOL    HW129615   0.405   2.788   8.425  1.1908 -0.1869 -0.7252
 6051SOL    HW229616   0.444   2.667   8.351 -0.1638  1.6975 -1.9504
 6052SOL     OW29617   4.472   3.980   6.471  0.1927 -0.1028  0.3835
 6052SOL    HW129618   4.470   4.075   6.480  1.4793 -0.1320  0.9745
 6052SOL    HW229619   4.421   3.965   6.391 -1.6196  2.1650  1.0936
 6053SOL     OW29620   3.393   2.145   0.613  0.3540 -0.4895  0.0596
 6053SOL    HW129621   3.486   2.158   0.631 -0.1014  1.2389  1.1706
 6053SOL    HW229622   3.355   2.144   0.700  5.4401  0.1261  2.2677
 6054SOL     OW29623   0.511   1.759  14.397 -0.4318 -0.0668 -0.0741
 6054SOL    HW129624   0.495   1.852  14.409 -2.0054 -0.1545 -1.4314
 6054SOL    HW229625   0.424   1.732  14.368 -1.5103  1.5615  1.6136
 6055SOL     OW29626   2.054   1.585   5.919  0.5738 -0.0216  0.0971
 6055SOL    HW129627   2.088   1.502   5.954  2.3052  0.2750 -0.8894
 6055SOL    HW229628   2.106   1.654   5.960  0.6906 -0.9270  1.4626
 6056SOL     OW29629   3.830   1.603  14.159 -0.3575  0.1873  0.2682
 6056SOL    HW129630   3.822   1.697  14.172  0.6500  0.0070  2.1420
 6056SOL    HW229631   3.919   1.578  14.185 -0.4636 -0.1870  0.2742
 6057SOL     OW29632   1.577   1.498  16.739  0.2697  0.6484  0.0396
 6057SOL    HW129633   1.566   1.547  16.821 -0.0683  0.1052  0.3196
 6057SOL    HW229634   1.596   1.563  16.672  1.1366 -0.2321 -0.5720
 6058SOL     OW29635   1.229   0.108   0.673  0.2184 -0.1824  0.4141
 6058SOL    HW129636   1.203   0.133   0.762  0.2460  0.2212  0.3125
 6058SOL    HW229637   1.280   0.180   0.634 -0.3189 -0.1376 -0.2009
 6059SOL     OW29638   1.379   2.289   9.072 -0.5112 -0.2098  0.0117
 6059SOL    HW129639   1.328   2.289   8.990 -0.9132  1.0656  0.2647
 6059SOL    HW229640   1.456   2.239   9.045  0.1686  1.5760 -1.3471
 6060SOL     OW29641   3.627   3.627  12.573 -0.4426  0.4578  0.5893
 6060SOL    HW129642   3.677   3.547  12.587  3.2782  2.3441 -1.9926
 6060SOL    HW229643   3.563   3.593  12.510 -0.5471  0.2213  0.8227
 6061SOL     OW29644   0.912   4.602   7.590  0.2456  0.0305 -0.5066
 6061SOL    HW129645   0.933   4.545   7.516  1.2079 -0.0044 -0.2047
 6061SOL    HW229646   0.971   4.673   7.570  1.4427 -0.9123 -0.3256
 6062SOL     OW29647   4.701   4.300   7.821 -0.2808  0.4940  0.0474
 6062SOL    HW129648   0.008   4.335   7.738 -2.0438  2.5439  0.2530
 6062SOL    HW229649   4.619   4.254   7.802 -0.2905  1.5785 -2.5934
 6063SOL     OW29650   3.098   2.001   6.991 -0.7520  0.2338  0.1943
 6063SOL    HW129651   3.071   1.915   6.957 -0.2168 -0.1904  0.8516
 6063SOL    HW229652   3.027   2.016   7.053 -0.3560  1.2044  0.4159
 6064SOL     OW29653   4.230   4.717   2.263 -0.0353  0.1131  0.3599
 6064SOL    HW129654   4.155   4.701   2.321  0.8162  0.4850  1.5451
 6064SOL    HW229655   4.306   4.709   2.319  1.9789 -2.6529 -2.7722
 6065SOL     OW29656   2.924   3.198   0.469  0.2259  0.0753 -0.1408
 6065SOL    HW129657   2.849   3.244   0.431  0.6245 -0.2657 -1.3440
 6065SOL    HW229658   2.946   3.261   0.538  0.2015  0.4465 -0.4694
 6066SOL     OW29659   3.696   1.251   3.232 -0.2662  0.0487 -0.1038
 6066SOL    HW129660   3.705   1.345   3.249 -1.4163 -0.2196  1.8916
 6066SOL    HW229661   3.690   1.214   3.319 -4.8314  0.6375 -0.1733
 6067SOL     OW29662   2.969   3.551   5.900  0.4627  0.1156  0.3166
 6067SOL    HW129663   2.902   3.619   5.903  0.8295  0.5890 -2.1296
 6067SOL    HW229664   2.953   3.521   5.811 -1.7949  1.0713  0.3916
 6068SOL     OW29665   1.615   1.689   6.997 -0.1192  0.2424  0.4334
 6068SOL    HW129666   1.617   1.598   6.967 -3.3749 -0.0130  0.9637
 6068SOL    HW229667   1.531   1.687   7.042 -0.5249 -1.3693 -0.3858
 6069SOL     OW29668   4.051   0.209  13.841 -0.8131  0.5780  0.4025
 6069SOL    HW129669   4.013   0.288  13.878  2.7193  2.1120  0.7713
 6069SOL    HW229670   4.008   0.147  13.900  0.7587 -2.7771 -1.9686
 6070SOL     OW29671   1.565   2.265  16.328  0.1058 -0.0069  0.4986
 6070SOL    HW129672   1.602   2.353  16.332 -0.0385 -0.0588  3.0862
 6070SOL    HW229673   1.602   2.215  16.255  1.6209  0.0104  1.2494
 6071SOL     OW29674   1.575   4.401  16.490  0.0343 -0.0156 -0.3109
 6071SOL    HW129675   1.515   4.413  16.564  0.4811  1.1358 -0.1361
 6071SOL    HW229676   1.599   4.308  16.492 -3.0309 -0.6950  4.2007
 6072SOL     OW29677   3.492   4.133  15.818  0.0386  0.0925  0.0648
 6072SOL    HW129678   3.471   4.222  15.789  0.3728  0.6730  1.5985
 6072SOL    HW229679   3.478   4.071  15.747 -1.1546 -1.9523  2.0903
 6073SOL     OW29680   0.559   3.273   7.166 -0.1828  0.1179 -0.4892
 6073SOL    HW129681   0.551   3.368   7.177  1.5629 -0.1784  3.1276
 6073SOL    HW229682   0.513   3.267   7.082  0.3393  0.1772 -0.7782
 6074SOL     OW29683   2.022   4.110   3.203  0.0542 -0.1064  0.2109
 6074SOL    HW129684   2.064   4.048   3.143 -0.4678 -0.1476 -0.1195
 6074SOL    HW229685   1.952   4.063   3.249 -0.7856  0.7280 -0.2080
 6075SOL     OW29686   4.548   4.717   1.914 -0.0380  0.3870 -0.5643
 6075SOL    HW129687   4.592   4.632   1.925  0.5117  0.8262  0.6489
 6075SOL    HW229688   4.600   0.021   1.839  0.8267 -1.8213 -0.8155
 6076SOL     OW29689   0.235   4.161  13.661 -0.4388 -0.3191  0.1131
 6076SOL    HW129690   0.181   4.083  13.670  0.6548 -1.1150 -0.1672
 6076SOL    HW229691   0.172   4.231  13.645  1.3882  1.6756  1.7600
 6077SOL     OW29692   3.226   4.166   6.817 -0.1911  0.1089 -0.7277
 6077SOL    HW129693   3.158   4.133   6.759 -0.0454 -0.1166 -0.7721
 6077SOL    HW229694   3.236   4.099   6.885  1.8973  0.6297 -0.5197
 6078SOL     OW29695   4.723   1.036   1.905 -0.4350 -0.0450 -0.2997
 6078SOL    HW129696   0.000   1.098   1.978  2.7294  1.8181 -1.9646
 6078SOL    HW229697   4.654   0.974   1.930  0.6728 -1.8388 -1.7250
 6079SOL     OW29698   2.467   1.454   5.462 -0.0608  0.3209 -0.0880
 6079SOL    HW129699   2.496   1.515   5.530  1.7449  0.8767 -1.3680
 6079SOL    HW229700   2.549   1.431   5.419  0.8213 -1.2701  2.4330
 6080SOL     OW29701   4.717   1.977  15.045  0.5673 -0.0275  0.0113
 6080SOL    HW129702   4.668   1.995  14.965 -0.3544 -1.3133  0.2967
 6080SOL    HW229703   0.081   1.991  15.011  0.5779 -1.5597 -0.6194
 6081SOL     OW29704   0.243   1.078   7.895  0.0204 -0.4095 -0.3349
 6081SOL    HW129705   0.181   1.132   7.943  0.7202 -0.6802  0.8790
 6081SOL    HW229706   0.182   1.050   7.827 -0.4707 -2.1847  0.8274
 6082SOL     OW29707   1.949   4.385   1.246 -0.3268  0.2348  0.4314
 6082SOL    HW129708   1.872   4.346   1.205  0.5666 -0.1066 -0.9039
 6082SOL    HW229709   1.969   4.335   1.325  1.2610  0.9663  0.4744
 6083SOL     OW29710   3.903   2.890   8.526 -0.2812 -0.2609 -0.3355
 6083SOL    HW129711   3.890   2.951   8.599 -0.2089 -0.1286 -0.4348
 6083SOL    HW229712   3.834   2.825   8.537 -0.2610 -0.5083 -1.7006
 6084SOL     OW29713   3.200   1.564   5.553  0.5700 -0.0809 -0.5164
 6084SOL    HW129714   3.237   1.648   5.582 -0.2167 -0.1435  0.6781
 6084SOL    HW229715   3.150   1.594   5.478 -1.1249 -0.4649  0.4668
 6085SOL     OW29716   1.016   1.133   6.063 -0.2167  0.1209 -0.4880
 6085SOL    HW129717   1.000   1.227   6.060 -1.4844 -0.1275 -1.6855
 6085SOL    HW229718   1.059   1.122   5.978 -1.0037 -0.9544 -0.7545
 6086SOL     OW29719   1.255   3.224   6.166 -0.0748 -0.6866  0.1141
 6086SOL    HW129720   1.201   3.226   6.245  1.0166 -0.1536  0.8485
 6086SOL    HW229721   1.343   3.212   6.200 -0.4822 -1.6162  0.8535
 6087SOL     OW29722   4.252   4.551   9.391  0.0008  0.4398  0.2037
 6087SOL    HW129723   4.336   4.553   9.437 -0.3734 -1.7823  0.9715
 6087SOL    HW229724   4.269   4.491   9.319 -0.6917  0.4187  0.0594
 6088SOL     OW29725   0.457   2.503   4.563  0.0269 -0.6130  0.2662
 6088SOL    HW129726   0.426   2.545   4.643  3.1649  1.4950  0.3614
 6088SOL    HW229727   0.427   2.412   4.559  1.2708 -0.9327 -1.9787
 6089SOL     OW29728   0.591   3.905   3.492 -0.3601 -1.1193  0.3092
 6089SOL    HW129729   0.602   3.915   3.586 -1.3433 -0.6726  0.3708
 6089SOL    HW229730   0.512   3.852   3.478 -1.3595  0.3872  0.1727
 6090SOL     OW29731   1.875   2.695  11.900 -0.2682  0.2441  0.0749
 6090SOL    HW129732   1.829   2.651  11.972 -0.5027  1.8610  0.9172
 6090SOL    HW229733   1.805   2.692  11.835  0.6840 -0.0135 -0.9278
 6091SOL     OW29734   3.820   3.013   6.261  0.3643  0.4881 -0.3506
 6091SOL    HW129735   3.810   2.983   6.351 -0.1664 -1.2213 -0.9783
 6091SOL    HW229736   3.792   3.105   6.266  0.4644  0.4689  0.5137
 6092SOL     OW29737   1.573   2.827   6.184  0.0618  0.5910  0.1874
 6092SOL    HW129738   1.553   2.735   6.167  1.5692  0.4703 -0.9888
 6092SOL    HW229739   1.623   2.855   6.108  2.3755  1.1869  1.9276
 6093SOL     OW29740   3.928   1.350   6.989 -0.1190  0.0241 -0.1289
 6093SOL    HW129741   3.955   1.384   6.904  2.0596  0.6969  0.8297
 6093SOL    HW229742   3.913   1.435   7.030  0.1928 -0.8431  1.7774
 6094SOL     OW29743   4.707   4.493   1.873  0.5256  0.0268  0.0797
 6094SOL    HW129744   4.684   4.434   1.944 -0.1404 -0.8874 -0.8878
 6094SOL    HW229745   4.666   4.448   1.798  0.2955  0.3791 -0.0081
 6095SOL     OW29746   0.910   0.140   5.445  0.3439  0.0330  0.3298
 6095SOL    HW129747   0.942   0.089   5.370  0.0185  2.3860 -1.4278
 6095SOL    HW229748   0.825   0.174   5.418 -0.0123 -0.1477  1.2244
 6096SOL     OW29749   1.762   2.568  12.750 -0.6047 -0.2843 -0.4364
 6096SOL    HW129750   1.792   2.479  12.770  0.5231 -0.0502 -1.1045
 6096SOL    HW229751   1.835   2.605  12.701 -1.0887 -0.6507 -1.4392
 6097SOL     OW29752   0.381   1.074   5.566  0.2246 -0.0350  0.6235
 6097SOL    HW129753   0.389   0.999   5.625  0.5422 -1.0957 -0.7707
 6097SOL    HW229754   0.377   1.032   5.480  0.6958  0.4412  0.3721
 6098SOL     OW29755   1.365   2.630   9.125  0.2477  0.0900 -0.1934
 6098SOL    HW129756   1.369   2.725   9.114 -2.1803  0.1539 -0.4198
 6098SOL    HW229757   1.415   2.624   9.206 -1.9724  0.9064  1.2411
 6099SOL     OW29758   3.593   0.896   6.663  0.2398 -0.2419 -0.0570
 6099SOL    HW129759   3.603   0.808   6.627 -2.0813 -0.1606 -0.8755
 6099SOL    HW229760   3.532   0.940   6.604 -0.9524 -0.1546  1.2436
 6100SOL     OW29761   2.621   0.321   6.938 -1.3941  0.4072 -0.0238
 6100SOL    HW129762   2.629   0.326   6.843 -0.8978 -0.1671 -0.0077
 6100SOL    HW229763   2.577   0.238   6.957 -1.3171  0.0047 -1.6639
 6101SOL     OW29764   3.731   4.008   0.515 -0.4045  0.0974  0.0067
 6101SOL    HW129765   3.750   4.079   0.454 -2.8387  2.7057  2.2914
 6101SOL    HW229766   3.816   3.975   0.544 -0.1823  0.3488 -0.3743
 6102SOL     OW29767   2.969   3.951   6.231  0.1447 -0.0308  0.2572
 6102SOL    HW129768   2.918   3.891   6.286 -1.3089  1.1321  0.2002
 6102SOL    HW229769   3.040   3.961   6.294 -0.7493 -2.4523  1.6628
 6103SOL     OW29770   2.640   3.257   7.765 -0.3834 -0.7379 -0.1909
 6103SOL    HW129771   2.558   3.263   7.813 -1.0857 -0.7328 -1.4018
 6103SOL    HW229772   2.647   3.347   7.734  1.3912 -0.5060  0.8360
 6104SOL     OW29773   2.752   0.637   8.958 -0.5392 -0.4141 -0.4304
 6104SOL    HW129774   2.711   0.560   8.918 -1.5086 -1.5774  2.7831
 6104SOL    HW229775   2.833   0.601   8.994  0.2398 -1.4936 -3.2697
 6105SOL     OW29776   2.730   2.151   6.939  0.4603  0.3556  0.0095
 6105SOL    HW129777   2.742   2.173   6.846  1.4646 -0.9227 -0.1661
 6105SOL    HW229778   2.735   2.056   6.946 -1.0173  0.2716 -0.2041
 6106SOL     OW29779   3.574   3.899   8.647  0.3135 -0.3967 -0.0236
 6106SOL    HW129780   3.668   3.903   8.664  0.0735  1.8606  0.6770
 6106SOL    HW229781   3.550   3.909   8.740  2.4661 -0.3649  0.5366
 6107SOL     OW29782   1.707   2.771   7.389  0.3196  0.6831  0.0767
 6107SOL    HW129783   1.725   2.718   7.311  1.1127  1.8362 -0.5332
 6107SOL    HW229784   1.668   2.709   7.450  1.7904  0.0017  0.3115
 6108SOL     OW29785   0.068   2.165  15.271  0.3938 -0.1817 -0.0215
 6108SOL    HW129786   0.034   2.109  15.202 -0.1611 -0.4074  0.4340
 6108SOL    HW229787   4.723   2.229  15.286  0.7919  0.1426  0.4480
 6109SOL     OW29788   2.168   1.700   8.886 -0.6529  0.3882  0.5564
 6109SOL    HW129789   2.109   1.744   8.947 -0.5703  2.0540 -0.5434
 6109SOL    HW229790   2.249   1.752   8.885  0.3651 -1.2075 -0.9927
 6110SOL     OW29791   1.155   1.115  16.130 -0.0501 -0.1407  0.3846
 6110SOL    HW129792   1.092   1.146  16.195 -1.8254  0.5671 -1.6789
 6110SOL    HW229793   1.152   1.190  16.071  2.9003 -1.3545 -1.3052
 6111SOL     OW29794   2.269   0.297   2.354  0.0944 -0.4206  0.4129
 6111SOL    HW129795   2.205   0.228   2.337 -0.0464 -0.2347  0.1997
 6111SOL    HW229796   2.285   0.332   2.267  0.4129 -1.7567 -0.0602
 6112SOL     OW29797   3.364   4.355   8.191  0.5627 -0.2921  0.5256
 6112SOL    HW129798   3.325   4.300   8.260 -0.9049  2.1883  1.6511
 6112SOL    HW229799   3.403   4.280   8.146 -2.8937  0.0839 -3.0694
 6113SOL     OW29800   0.165   0.385  16.061  0.4174 -0.3376  0.1442
 6113SOL    HW129801   0.102   0.451  16.032 -1.5702 -2.8994 -1.3086
 6113SOL    HW229802   0.111   0.350  16.131 -1.1580 -0.1871 -1.0135
 6114SOL     OW29803   4.601   3.055   9.184  0.3887 -0.0695 -0.5547
 6114SOL    HW129804   4.647   2.971   9.182  3.1866  1.4233  0.7534
 6114SOL    HW229805   4.672   3.107   9.147  0.1028  0.9709  0.3580
 6115SOL     OW29806   3.231   1.491  13.052  0.1079 -0.7154 -0.3682
 6115SOL    HW129807   3.275   1.406  13.049 -1.0552 -1.3496  0.7552
 6115SOL    HW229808   3.259   1.541  12.974  1.3860 -0.4122  0.2764
 6116SOL     OW29809   0.623   4.233   4.536 -0.1060 -0.1201 -0.1886
 6116SOL    HW129810   0.620   4.210   4.629  2.4159 -1.3225 -0.4028
 6116SOL    HW229811   0.532   4.262   4.527 -0.0326 -0.2748 -1.4368
 6117SOL     OW29812   1.474   2.769   7.244 -0.6976  0.2062  0.1078
 6117SOL    HW129813   1.549   2.789   7.299 -0.0507 -1.5828 -0.1380
 6117SOL    HW229814   1.483   2.674   7.249  0.7919  0.4142  1.3200
 6118SOL     OW29815   3.585   2.986   2.498 -0.2368 -0.3166 -0.3340
 6118SOL    HW129816   3.668   2.991   2.545 -0.0383  0.0441 -0.7240
 6118SOL    HW229817   3.559   3.078   2.503 -0.8051 -0.3879 -1.8409
 6119SOL     OW29818   2.724   3.180  10.024  0.4855  0.5674  0.1754
 6119SOL    HW129819   2.673   3.259  10.042  1.5795  1.0231  1.2371
 6119SOL    HW229820   2.793   3.183  10.090  0.0513 -1.9056  0.7533
 6120SOL     OW29821   4.548   2.697   5.798 -0.2213 -0.1887 -0.1159
 6120SOL    HW129822   4.495   2.683   5.719 -1.2329  0.2419  0.4827
 6120SOL    HW229823   4.610   2.627   5.777 -0.7813 -0.7637  0.1661
 6121SOL     OW29824   1.410   1.707   5.660  0.2052 -0.0171  0.4156
 6121SOL    HW129825   1.353   1.728   5.733  1.3208 -1.5137  1.7127
 6121SOL    HW229826   1.397   1.781   5.601  2.6446  2.5545  3.1152
 6122SOL     OW29827   1.222   3.813   0.469  0.3866 -0.3287  0.0890
 6122SOL    HW129828   1.315   3.793   0.484  0.3187 -1.9678 -1.5304
 6122SOL    HW229829   1.196   3.855   0.550  1.6543  0.6714 -0.0230
 6123SOL     OW29830   0.745   0.466  13.081  0.0992 -0.2928 -0.2060
 6123SOL    HW129831   0.784   0.426  13.158 -1.2612 -0.2138  0.5227
 6123SOL    HW229832   0.719   0.384  13.040  1.0046 -1.6333  1.9587
 6124SOL     OW29833   1.443   2.963  15.388  0.2951  0.0399  0.5790
 6124SOL    HW129834   1.433   3.053  15.418 -0.4141  0.2039 -0.1533
 6124SOL    HW229835   1.354   2.929  15.399 -0.1486  1.1810  0.4756
 6125SOL     OW29836   3.711   1.060   9.922 -0.1652 -0.1931  0.0764
 6125SOL    HW129837   3.735   1.068  10.014  0.2723 -3.8046  0.2658
 6125SOL    HW229838   3.627   1.100   9.944 -0.6576 -0.0200 -2.1076
 6126SOL     OW29839   0.595   3.088   9.598  0.5128  0.4850 -0.1539
 6126SOL    HW129840   0.602   3.029   9.523 -1.9447  1.6341 -1.2868
 6126SOL    HW229841   0.579   3.027   9.670  1.2890  1.4044  0.7954
 6127SOL     OW29842   1.312   4.108   7.975  0.3737 -0.2036 -0.0340
 6127SOL    HW129843   1.236   4.156   8.006 -0.5153 -2.0143  0.5565
 6127SOL    HW229844   1.299   4.116   7.880  2.6635 -0.1698 -0.3506
 6128SOL     OW29845   4.347   0.501   4.313  0.5593 -0.4278  0.0279
 6128SOL    HW129846   4.333   0.476   4.404  1.6420  1.4425  0.7032
 6128SOL    HW229847   4.308   0.428   4.265 -1.8758 -0.0654  1.4357
 6129SOL     OW29848   1.980   3.414   4.292 -0.4099 -0.6791 -0.5009
 6129SOL    HW129849   1.906   3.458   4.250  0.2611 -0.0014 -0.9634
 6129SOL    HW229850   2.021   3.362   4.223  0.8658 -0.4708  0.1107
 6130SOL     OW29851   0.860   2.048   8.022  0.0498  0.8026  0.2020
 6130SOL    HW129852   0.765   2.059   8.020 -0.0499 -0.2177 -0.9490
 6130SOL    HW229853   0.887   2.139   8.028  1.6759  0.4015 -0.8783
 6131SOL     OW29854   0.917   0.506   3.382  0.0051 -0.1511  0.1513
 6131SOL    HW129855   0.841   0.499   3.325 -0.5279  3.3202  0.4712
 6131SOL    HW229856   0.902   0.433   3.441  0.6090  0.8821  1.5714
 6132SOL     OW29857   3.325   1.972   6.302 -0.1639 -0.2594 -0.3108
 6132SOL    HW129858   3.311   2.043   6.239  3.9595  1.1618  0.3548
 6132SOL    HW229859   3.264   2.001   6.369 -0.8492 -0.4175 -0.8573
 6133SOL     OW29860   4.593   2.567   6.770 -0.0785  0.2650 -0.3033
 6133SOL    HW129861   4.643   2.551   6.690  0.7994  0.0808  0.2767
 6133SOL    HW229862   4.537   2.490   6.774 -0.8786  0.8956  0.5453
 6134SOL     OW29863   1.281   3.485  12.671 -0.1842 -0.6877  0.0938
 6134SOL    HW129864   1.298   3.395  12.698  0.2526 -0.1529  1.5543
 6134SOL    HW229865   1.187   3.489  12.688 -0.1432  0.3044  0.1112
 6135SOL     OW29866   0.865   4.185   9.004 -0.3039  0.0562 -0.5607
 6135SOL    HW129867   0.846   4.278   8.992 -2.0721 -0.2649 -0.2180
 6135SOL    HW229868   0.783   4.138   8.986 -0.2742 -0.1978 -0.0419
 6136SOL     OW29869   1.484   4.138   7.042 -0.3229  0.0390 -0.1952
 6136SOL    HW129870   1.534   4.085   6.981 -0.4343 -0.2801 -0.0084
 6136SOL    HW229871   1.400   4.108   7.007  1.6406 -3.7363 -1.6735
 6137SOL     OW29872   1.852   3.469   4.692  0.1808  0.2743  0.0792
 6137SOL    HW129873   1.859   3.522   4.772 -1.0130 -0.3180  0.5939
 6137SOL    HW229874   1.921   3.486   4.629  0.0386 -0.3817 -0.2543
 6138SOL     OW29875   3.443   4.638   6.698  0.0670  0.4311  0.0483
 6138SOL    HW129876   3.358   4.679   6.713  0.9272  2.3704 -0.3612
 6138SOL    HW229877   3.409   4.549   6.692  2.1690 -0.4399  0.9622
 6139SOL     OW29878   4.116   1.387   2.180 -0.4275  0.8002 -0.1024
 6139SOL    HW129879   4.068   1.449   2.125  0.1589 -1.0487 -2.6834
 6139SOL    HW229880   4.159   1.334   2.114 -2.0830 -0.8598  0.1544
 6140SOL     OW29881   4.309   4.555   1.792  0.1172  0.3445 -0.4552
 6140SOL    HW129882   4.229   4.516   1.825  0.2470  0.2828 -0.2157
 6140SOL    HW229883   4.317   4.636   1.843 -0.3476 -1.6025  2.6310
 6141SOL     OW29884   3.561   1.476  11.273  0.1853 -0.1988 -0.1479
 6141SOL    HW129885   3.511   1.499  11.351  0.2797 -1.8488  0.4004
 6141SOL    HW229886   3.534   1.390  11.240 -1.1967  1.5858 -3.6306
 6142SOL     OW29887   4.281   4.225   8.123 -0.1758 -0.0296  0.5043
 6142SOL    HW129888   4.349   4.179   8.172  0.9055 -0.1197 -1.0849
 6142SOL    HW229889   4.252   4.273   8.201 -0.9162 -0.7809  0.6911
 6143SOL     OW29890   1.268   2.603   5.652  0.0968 -0.7538  0.4635
 6143SOL    HW129891   1.264   2.653   5.570  1.2426  1.7483  1.9373
 6143SOL    HW229892   1.197   2.650   5.695  1.0372 -0.6788  1.9276
 6144SOL     OW29893   2.127   1.961   4.754  0.0859  0.2666 -0.2335
 6144SOL    HW129894   2.046   1.931   4.796  1.4093 -0.6934  1.6198
 6144SOL    HW229895   2.095   2.019   4.685  0.8428  1.3750  0.3519
 6145SOL     OW29896   3.460   3.647  11.707 -0.3506  0.4097 -0.4363
 6145SOL    HW129897   3.492   3.578  11.649 -1.9876 -0.4433 -0.3167
 6145SOL    HW229898   3.365   3.642  11.708 -0.2843 -1.2381 -1.6951
 6146SOL     OW29899   1.411   3.523   7.870 -0.5419 -0.5567 -0.0013
 6146SOL    HW129900   1.351   3.467   7.919 -1.0515 -1.4708 -1.6763
 6146SOL    HW229901   1.384   3.505   7.780  0.5809 -2.7572  0.0828
 6147SOL     OW29902   0.507   1.792  13.160 -0.5054  0.2428 -0.8131
 6147SOL    HW129903   0.563   1.870  13.166  1.7815 -1.4904  0.3837
 6147SOL    HW229904   0.466   1.798  13.246 -1.5585 -0.4983 -1.2650
 6148SOL     OW29905   2.615   1.504   8.503  0.6835  0.5075  0.5525
 6148SOL    HW129906   2.562   1.430   8.533  0.6426 -0.3272 -1.5268
 6148SOL    HW229907   2.684   1.497   8.569  1.0625  1.9144  0.2933
 6149SOL     OW29908   4.233   0.193  17.244  0.4197 -0.2277 -0.2440
 6149SOL    HW129909   4.192   0.209  17.328 -0.2031 -1.5635 -0.3032
 6149SOL    HW229910   4.298   0.128  17.272 -2.6843 -2.5699  1.4142
 6150SOL     OW29911   4.120   0.365   9.023 -0.2610  0.4371 -0.0262
 6150SOL    HW129912   4.111   0.453   9.058 -2.1798 -0.4409  1.6881
 6150SOL    HW229913   4.061   0.347   8.950 -0.5294  2.2262 -0.2434
 6151SOL     OW29914   3.346   3.728   6.686 -0.1451 -0.5551 -0.1533
 6151SOL    HW129915   3.265   3.748   6.733  0.6007  2.1379  0.0236
 6151SOL    HW229916   3.402   3.702   6.758  0.0464  0.3514  0.0290
 6152SOL     OW29917   3.641   2.143   6.588  0.3990 -0.5253 -0.7398
 6152SOL    HW129918   3.683   2.097   6.516 -0.4125  0.1759 -1.6493
 6152SOL    HW229919   3.646   2.076   6.657 -0.2729 -1.4843 -1.6182
 6153SOL     OW29920   2.884   3.854  10.937  0.4874 -0.3950 -0.4165
 6153SOL    HW129921   2.795   3.821  10.945  0.4037 -0.4047 -1.3813
 6153SOL    HW229922   2.863   3.941  10.903 -1.0802  1.0910  4.2922
 6154SOL     OW29923   0.413   2.511   9.428  1.1554  0.1491  0.0352
 6154SOL    HW129924   0.330   2.498   9.473  1.6451 -1.7176  0.3751
 6154SOL    HW229925   0.391   2.538   9.339 -1.8605 -1.1478  0.4271
 6155SOL     OW29926   2.849   3.246  14.575 -0.0785 -0.1530  0.0620
 6155SOL    HW129927   2.801   3.311  14.525 -0.4231 -1.1336 -0.8800
 6155SOL    HW229928   2.884   3.192  14.504  2.0112 -1.7323  2.3028
 6156SOL     OW29929   0.878   4.297   7.069 -0.4102 -0.3168 -0.3027
 6156SOL    HW129930   0.855   4.364   7.134  2.9684 -0.5393  1.1117
 6156SOL    HW229931   0.797   4.249   7.049 -1.5860  1.3649  0.4782
 6157SOL     OW29932   3.214   1.518   4.007 -0.0916 -0.0601 -0.5075
 6157SOL    HW129933   3.268   1.547   4.081  0.2565 -0.4204 -0.6177
 6157SOL    HW229934   3.127   1.547   4.034 -0.5251  1.9936 -4.1685
 6158SOL     OW29935   3.638   0.276   7.059  0.3188  0.2229 -0.0777
 6158SOL    HW129936   3.697   0.303   7.129  1.5820 -2.6160 -0.0520
 6158SOL    HW229937   3.657   0.183   7.049 -0.1345  0.0589  0.5968
 6159SOL     OW29938   3.684   1.937   8.797  0.1421  0.2372  0.0404
 6159SOL    HW129939   3.650   1.957   8.710  1.4785 -0.3867 -0.6255
 6159SOL    HW229940   3.720   2.020   8.829 -0.1891  0.2073  0.4841
 6160SOL     OW29941   4.286   0.952   7.102 -0.2911  0.0005  0.3578
 6160SOL    HW129942   4.293   1.033   7.152  3.3955 -0.7661  1.1345
 6160SOL    HW229943   4.358   0.893   7.127  0.4653  1.0037  0.5420
 6161SOL     OW29944   1.559   2.591   1.943  0.0874 -0.4123  0.1343
 6161SOL    HW129945   1.620   2.633   1.882  0.4715 -0.1114  0.7216
 6161SOL    HW229946   1.498   2.548   1.883  0.0299 -1.8857  1.2453
 6162SOL     OW29947   2.574   3.538  14.620  0.0515  0.3259 -0.3570
 6162SOL    HW129948   2.628   3.506  14.548  0.2206 -0.4024  0.0937
 6162SOL    HW229949   2.524   3.609  14.580 -0.2456 -0.3552 -1.1849
 6163SOL     OW29950   3.262   2.038  13.397 -0.0002  0.1007  0.0044
 6163SOL    HW129951   3.304   2.042  13.312 -0.1383 -3.1291 -0.2295
 6163SOL    HW229952   3.333   2.064  13.456 -0.4951  1.3653  0.0482
 6164SOL     OW29953   1.721   3.226   9.530  0.0913 -0.2391  0.7484
 6164SOL    HW129954   1.808   3.230   9.569  1.8187 -2.5030 -2.8134
 6164SOL    HW229955   1.703   3.132   9.542 -0.4200 -0.1512  0.6823
 6165SOL     OW29956   2.935   2.809   7.085  0.3466  0.4838 -0.2961
 6165SOL    HW129957   2.997   2.807   7.012  1.8624  0.3842  0.9842
 6165SOL    HW229958   2.864   2.756   7.050  2.9788 -2.2008 -1.5797
 6166SOL     OW29959   2.597   0.611   8.031 -0.1487  0.3830  0.2293
 6166SOL    HW129960   2.647   0.650   8.103  0.7468 -2.0427  0.9223
 6166SOL    HW229961   2.657   0.640   7.961  1.0000 -0.4456  0.8720
 6167SOL     OW29962   4.442   1.549   8.184 -0.4053  0.3936 -0.1625
 6167SOL    HW129963   4.380   1.561   8.256 -2.4058 -1.2383 -1.6319
 6167SOL    HW229964   4.491   1.626   8.213 -0.1028  0.7221 -1.5414
 6168SOL     OW29965   3.903   2.894   4.367  0.6721  0.4292 -0.4567
 6168SOL    HW129966   3.871   2.979   4.337  0.5223 -0.2361 -2.1427
 6168SOL    HW229967   3.981   2.885   4.314  1.4818 -0.3336  0.8577
 6169SOL     OW29968   2.809   1.707   4.556 -0.3017 -0.3236  0.6266
 6169SOL    HW129969   2.801   1.622   4.600  0.0199 -0.0072  1.2905
 6169SOL    HW229970   2.871   1.678   4.490 -0.4409 -0.6974  0.6614
 6170SOL     OW29971   1.341   1.808   5.322  0.2515 -0.0585 -0.1347
 6170SOL    HW129972   1.351   1.896   5.284 -0.1128 -0.5395 -1.3612
 6170SOL    HW229973   1.301   1.762   5.248  0.2932 -1.9086  0.9910
 6171SOL     OW29974   2.827   2.635   8.143 -0.0868  0.2342  0.2424
 6171SOL    HW129975   2.798   2.719   8.179  0.9239  1.6557 -2.2935
 6171SOL    HW229976   2.738   2.600   8.148 -0.5439  1.4519  0.5800
 6172SOL     OW29977   3.675   1.824   4.271  1.0636  0.3978  0.3172
 6172SOL    HW129978   3.689   1.906   4.318 -1.3868  0.9580  0.0661
 6172SOL    HW229979   3.745   1.831   4.205  1.3487 -0.3605  0.5363
 6173SOL     OW29980   2.303   0.001   7.036  0.0609 -0.1164  0.3210
 6173SOL    HW129981   2.215   0.037   7.024  1.1676  2.1187 -1.0563
 6173SOL    HW229982   2.323   0.038   7.122 -1.3261 -1.3928  1.1886
 6174SOL     OW29983   3.427   1.391  15.583 -0.0431  0.3470  0.0673
 6174SOL    HW129984   3.358   1.420  15.522  1.8630  1.9039 -1.3372
 6174SOL    HW229985   3.493   1.364  15.519  1.5210  1.0171  1.4038
 6175SOL     OW29986   0.254   2.439   3.077 -0.5283 -0.2136  0.1161
 6175SOL    HW129987   0.225   2.507   3.016  0.1018 -0.9458 -0.9970
 6175SOL    HW229988   0.252   2.365   3.017  0.6178 -0.2484  0.1182
 6176SOL     OW29989   3.179   4.710   7.427  0.3041 -0.2816  0.4143
 6176SOL    HW129990   3.110   4.704   7.493 -1.0964 -0.1832 -1.0422
 6176SOL    HW229991   3.150   4.639   7.369  2.0451 -2.5908  2.3935
 6177SOL     OW29992   0.116   4.555  13.486 -0.0590  0.7238 -0.2404
 6177SOL    HW129993   0.127   4.649  13.493  1.5428  0.4764  0.6238
 6177SOL    HW229994   0.144   4.532  13.397  2.0140  1.6279  0.1721
 6178SOL     OW29995   3.756   1.720   7.887 -0.2922 -0.0364  0.4528
 6178SOL    HW129996   3.728   1.798   7.839 -1.5704 -1.2926 -0.8390
 6178SOL    HW229997   3.683   1.664   7.860 -0.1266  0.6296 -1.3424
 6179SOL     OW29998   2.338   4.611   3.015  0.0861  0.1182  0.4131
 6179SOL    HW129999   2.261   4.560   2.993 -2.1019  2.6610  2.1679
 6179SOL    HW230000   2.316   4.647   3.101 -1.7030 -1.5761  0.6410
 6180SOL     OW30001   2.987   1.297   2.356 -0.1878 -0.2501  0.3061
 6180SOL    HW130002   2.930   1.347   2.297 -1.7545 -1.0909  1.1032
 6180SOL    HW230003   2.959   1.336   2.439  0.1196 -1.0960  0.8014
 6181SOL     OW30004   0.153   3.209   6.918 -0.5174  0.1848 -0.0230
 6181SOL    HW130005   0.128   3.197   6.827  2.2826  0.9779 -0.9072
 6181SOL    HW230006   0.081   3.257   6.958 -0.5075 -2.9180  3.7128
 6182SOL     OW30007   3.759   2.199   7.720 -0.0617 -0.0683  0.3132
 6182SOL    HW130008   3.711   2.120   7.746  0.8232 -0.7374 -0.0571
 6182SOL    HW230009   3.732   2.262   7.786 -0.8855  0.3901 -0.4618
 6183SOL     OW30010   2.716   1.988   1.589  0.3008 -0.2352 -0.5725
 6183SOL    HW130011   2.783   2.020   1.649  0.9926  2.0965 -2.5879
 6183SOL    HW230012   2.652   2.056   1.613 -1.8656 -2.3311 -0.4429
 6184SOL     OW30013   1.192   1.460   3.743  0.1409 -0.1541 -0.6637
 6184SOL    HW130014   1.284   1.476   3.764  0.6878  0.2905 -3.4648
 6184SOL    HW230015   1.146   1.541   3.763  1.3475 -0.0592  1.7359
 6185SOL     OW30016   2.043   4.376   7.434  0.0518  0.0973  0.0891
 6185SOL    HW130017   2.133   4.359   7.464  0.5439 -1.6796 -2.4046
 6185SOL    HW230018   2.038   4.339   7.346 -3.4850 -1.9435  1.1466
 6186SOL     OW30019   2.506   4.528   8.400 -0.2252  0.1363 -0.4562
 6186SOL    HW130020   2.418   4.560   8.383 -1.2889 -3.1046 -1.1246
 6186SOL    HW230021   2.561   4.585   8.346 -2.1411 -0.2596 -2.7872
 6187SOL     OW30022   3.984   0.380   8.708 -0.3099  0.3589  0.2481
 6187SOL    HW130023   3.990   0.424   8.623  1.0854  0.1265  0.2305
 6187SOL    HW230024   3.897   0.402   8.741 -0.5064  1.5125 -1.0780
 6188SOL     OW30025   0.479   0.545   5.910  0.5592 -0.1542 -0.4568
 6188SOL    HW130026   0.406   0.603   5.887 -0.3024 -1.7733 -1.8788
 6188SOL    HW230027   0.423   0.472   5.939 -0.7274 -0.1794 -2.9977
 6189SOL     OW30028   4.321   3.687   1.731  0.1467 -0.3616 -0.4052
 6189SOL    HW130029   4.239   3.675   1.684 -0.8173  2.2389  0.6107
 6189SOL    HW230030   4.388   3.696   1.663  1.0910  1.3466  0.7375
 6190SOL     OW30031   3.757   4.314  14.803 -0.7321 -0.3298  0.1961
 6190SOL    HW130032   3.690   4.247  14.793 -0.0130 -1.0058 -0.0846
 6190SOL    HW230033   3.809   4.305  14.723 -0.0245  1.2078  0.4787
 6191SOL     OW30034   2.101   4.568   3.447  0.3138 -0.2344 -0.4370
 6191SOL    HW130035   2.122   4.503   3.514 -0.7047  0.0962  0.2011
 6191SOL    HW230036   2.134   4.653   3.474  0.3601  0.1548 -1.7071
 6192SOL     OW30037   1.017   3.902   7.169 -1.1095  0.1203 -0.0472
 6192SOL    HW130038   1.086   3.908   7.235  1.0301 -0.9600 -2.1495
 6192SOL    HW230039   1.042   3.970   7.105  2.1637 -1.9081 -0.9436
 6193SOL     OW30040   3.462   1.500   8.757 -0.1496 -0.8514  0.5834
 6193SOL    HW130041   3.485   1.575   8.811 -0.0367 -1.2740  1.1304
 6193SOL    HW230042   3.381   1.464   8.793 -0.8184 -1.7038 -1.7735
 6194SOL     OW30043   2.941   3.491   9.077  0.1787  0.1904  0.3873
 6194SOL    HW130044   2.897   3.576   9.082 -0.5243 -0.3022  2.7631
 6194SOL    HW230045   3.030   3.507   9.111  0.0887  0.0230  0.7034
 6195SOL     OW30046   2.123   0.959   4.324  0.1330 -0.2513 -0.2068
 6195SOL    HW130047   2.127   0.922   4.236 -1.1619  1.0281 -0.8091
 6195SOL    HW230048   2.030   0.957   4.347  0.0322 -1.9275 -0.7659
 6196SOL     OW30049   2.419   2.389   1.112 -0.1928 -0.6692 -0.0775
 6196SOL    HW130050   2.403   2.295   1.105  0.4952 -0.7911  0.0394
 6196SOL    HW230051   2.326   2.413   1.106  0.1594  0.6196 -0.3910
 6197SOL     OW30052   3.818   2.263   1.309 -0.6914  1.2505  0.1653
 6197SOL    HW130053   3.734   2.302   1.335  0.2743  2.1104  2.0150
 6197SOL    HW230054   3.827   2.302   1.222  0.3979 -0.3216 -0.4110
 6198SOL     OW30055   3.601   1.506   3.503 -0.2570  0.0986  0.3142
 6198SOL    HW130056   3.638   1.563   3.571 -0.7082  0.0441  0.6004
 6198SOL    HW230057   3.585   1.426   3.552  1.0005  0.4449  1.3168
 6199SOL     OW30058   4.035   0.519   2.383 -0.6963 -0.3478 -0.0220
 6199SOL    HW130059   4.022   0.589   2.320  0.5225  1.3606  1.6419
 6199SOL    HW230060   4.121   0.489   2.352 -0.7535  0.5983 -1.0919
 6200SOL     OW30061   1.409   0.651   3.492  0.0334 -0.2178 -0.3995
 6200SOL    HW130062   1.470   0.594   3.445 -1.4244  0.3217 -2.9693
 6200SOL    HW230063   1.328   0.625   3.449  1.3322 -0.9492 -2.4470
 6201SOL     OW30064   2.040   0.306  11.011 -0.1878 -0.4276 -0.9983
 6201SOL    HW130065   2.057   0.400  11.020  0.2057 -0.7069  1.3571
 6201SOL    HW230066   2.020   0.300  10.918 -1.5329 -0.6704 -0.6861
 6202SOL     OW30067   4.126   2.696   5.556  0.3012  0.6174 -0.3485
 6202SOL    HW130068   4.200   2.736   5.510 -0.7264  0.1776 -2.3657
 6202SOL    HW230069   4.120   2.609   5.516 -2.0397  0.8040 -0.3582
 6203SOL     OW30070   0.508   3.029  17.159  0.5371  0.3010 -0.4222
 6203SOL    HW130071   0.529   2.961  17.095  0.1591 -0.7030  0.5170
 6203SOL    HW230072   0.429   2.993  17.200 -0.4318  1.5759 -1.1569
 6204SOL     OW30073   1.088   0.800  10.234  0.0338  0.2846  0.1284
 6204SOL    HW130074   0.996   0.822  10.243 -0.5277 -2.7504  1.7495
 6204SOL    HW230075   1.123   0.888  10.221  2.4179 -1.0269 -2.3144
 6205SOL     OW30076   2.502   0.349   4.760 -0.4243  0.3711  0.0455
 6205SOL    HW130077   2.578   0.350   4.818 -0.8500 -0.7167  0.6127
 6205SOL    HW230078   2.462   0.436   4.772 -0.0016  0.6428 -0.4953
 6206SOL     OW30079   4.070   4.294  17.544  0.4879 -0.4988 -0.4898
 6206SOL    HW130080   4.144   4.355  17.545  0.3804 -0.3727 -0.2898
 6206SOL    HW230081   3.998   4.337  17.499  1.3447  2.8433  1.3339
 6207SOL     OW30082   3.283   0.994   2.268 -0.1919 -0.0099 -0.1541
 6207SOL    HW130083   3.350   1.055   2.239  0.3472 -0.2807  0.5215
 6207SOL    HW230084   3.338   0.916   2.253 -0.0489  0.0436  0.0933
 6208SOL     OW30085   3.549   3.716   4.737  0.0947 -0.0026  0.1171
 6208SOL    HW130086   3.601   3.770   4.796  1.0172 -2.7848  1.8713
 6208SOL    HW230087   3.495   3.787   4.701  2.3820  2.5030  1.7239
 6209SOL     OW30088   3.986   0.708   2.198 -0.2442  0.3676 -0.0439
 6209SOL    HW130089   3.981   0.793   2.154 -1.2632 -0.9517 -2.4615
 6209SOL    HW230090   4.039   0.664   2.132 -1.0653  0.7365 -0.9426
 6210SOL     OW30091   2.595   0.881   0.815 -0.0021 -0.5145 -0.1664
 6210SOL    HW130092   2.653   0.820   0.770  1.4880  0.6730  0.1490
 6210SOL    HW230093   2.642   0.897   0.897  0.2708 -0.6480 -0.2975
 6211SOL     OW30094   3.130   4.102   7.253 -0.2242  0.3858 -0.3866
 6211SOL    HW130095   3.157   4.070   7.339  0.1842  0.1725 -0.5980
 6211SOL    HW230096   3.180   4.041   7.200  3.0903  1.2777  1.7367
 6212SOL     OW30097   2.332   1.111   3.304 -0.3291  0.1009 -0.0348
 6212SOL    HW130098   2.421   1.134   3.331 -0.8560  0.1848  1.6185
 6212SOL    HW230099   2.356   1.061   3.226  0.2722 -1.9811  1.4902
 6213SOL     OW30100   3.690   4.336   3.148  0.8357 -0.1875  0.1441
 6213SOL    HW130101   3.757   4.359   3.212 -0.2324 -1.0413  1.5790
 6213SOL    HW230102   3.746   4.301   3.080 -0.2991  1.1118 -1.4539
 6214SOL     OW30103   4.227   1.476   3.849 -0.0972 -0.2273  0.1783
 6214SOL    HW130104   4.234   1.381   3.843 -1.1962 -0.2402 -1.0346
 6214SOL    HW230105   4.170   1.485   3.925 -0.6953 -1.9856 -0.0611
 6215SOL     OW30106   1.875   3.708   5.910  0.2535  0.2403  0.1935
 6215SOL    HW130107   1.850   3.767   5.839 -2.0651 -2.0131 -0.8589
 6215SOL    HW230108   1.926   3.640   5.867 -2.3129 -2.0332  0.7572
 6216SOL     OW30109   0.891   2.289   8.121  0.4403  0.0468  0.0071
 6216SOL    HW130110   0.859   2.249   8.202 -1.5854  1.3652 -0.1391
 6216SOL    HW230111   0.808   2.330   8.097  0.2137 -0.2037  0.3573
 6217SOL     OW30112   2.839   1.532   9.524  0.1912  0.1476 -0.3856
 6217SOL    HW130113   2.855   1.442   9.555  1.1296  0.0531 -1.1350
 6217SOL    HW230114   2.859   1.524   9.431  0.8074  0.9177 -0.3149
 6218SOL     OW30115   1.012   4.469   3.775 -0.2222  0.0170  0.7868
 6218SOL    HW130116   1.107   4.476   3.775 -0.2435  0.3236  0.1146
 6218SOL    HW230117   0.990   4.379   3.752  2.5611 -0.3631 -0.3387
 6219SOL     OW30118   2.044   1.010   4.710 -0.0197 -0.1002  0.2543
 6219SOL    HW130119   2.110   0.956   4.667 -0.3750  0.3453 -0.8788
 6219SOL    HW230120   1.983   1.000   4.637 -0.2156 -1.0253  0.5500
 6220SOL     OW30121   3.358   3.694   1.001 -0.5789 -0.4257 -0.5760
 6220SOL    HW130122   3.285   3.634   1.013 -0.6542 -0.3522 -0.6686
 6220SOL    HW230123   3.341   3.711   0.908 -1.5421  0.2069 -0.2829
 6221SOL     OW30124   1.676   4.678  10.065  0.3154 -0.2697  0.0678
 6221SOL    HW130125   1.730   4.601  10.050 -0.4495 -0.3221 -2.3785
 6221SOL    HW230126   1.689   4.688  10.159  0.9883  2.6317 -0.3383
 6222SOL     OW30127   2.430   2.048   8.528 -0.9279  0.0385 -0.0724
 6222SOL    HW130128   2.380   2.002   8.595 -0.2410  1.9095  1.7250
 6222SOL    HW230129   2.382   2.131   8.523 -0.2852  0.5457  2.1006
 6223SOL     OW30130   2.457   0.870   3.774 -0.0987  0.3642 -0.4650
 6223SOL    HW130131   2.549   0.877   3.798 -0.0274 -1.3951 -0.1739
 6223SOL    HW230132   2.431   0.960   3.794 -1.4099  0.2139 -1.5025
 6224SOL     OW30133   1.071   2.910   3.321  0.4222 -0.3291 -0.4339
 6224SOL    HW130134   1.117   2.827   3.309  1.7972  0.5668 -1.2986
 6224SOL    HW230135   1.130   2.961   3.376  0.3840 -2.1398  1.3125
 6225SOL     OW30136   3.367   1.957   7.032 -0.1066  0.0321 -0.0017
 6225SOL    HW130137   3.380   1.884   6.971  1.4552  1.1316 -0.9688
 6225SOL    HW230138   3.271   1.965   7.028 -0.1119  1.0995  2.5567
 6226SOL     OW30139   1.478   0.675   2.124 -0.9304  0.2572 -0.0269
 6226SOL    HW130140   1.530   0.617   2.069 -1.9071  1.5782 -2.3423
 6226SOL    HW230141   1.500   0.763   2.094 -1.3360  0.0738 -0.8669
 6227SOL     OW30142   0.011   4.053   2.795 -0.0891  0.4137 -0.4674
 6227SOL    HW130143   4.652   4.050   2.748 -1.3676 -1.8851  1.9805
 6227SOL    HW230144   4.722   3.989   2.865 -0.4773  2.2724  1.1513
 6228SOL     OW30145   3.821   0.117   6.565 -0.4622  0.2272 -0.4197
 6228SOL    HW130146   3.771   0.041   6.536  1.1503 -0.7611 -0.6145
 6228SOL    HW230147   3.893   0.109   6.503 -1.4007 -0.2736 -1.4504
 6229SOL     OW30148   0.013   2.504   8.038  0.3349  0.3411  0.7330
 6229SOL    HW130149   0.085   2.542   8.088  0.5072  1.1433 -0.1322
 6229SOL    HW230150   4.670   2.569   8.019 -0.8987 -0.9497  0.6130
 6230SOL     OW30151   1.030   3.546  12.738 -0.1820  0.1724 -1.0227
 6230SOL    HW130152   1.038   3.536  12.833  3.7972  0.4789 -1.3201
 6230SOL    HW230153   0.996   3.636  12.735 -1.3186 -0.3016 -2.0914
 6231SOL     OW30154   0.832   1.856   9.469 -0.4562 -0.1142 -0.0181
 6231SOL    HW130155   0.883   1.936   9.483 -2.2213  0.6106  2.1881
 6231SOL    HW230156   0.888   1.811   9.406  0.3475  1.0891 -0.1535
 6232SOL     OW30157   1.925   2.947   3.128  0.0073 -0.2932 -0.2089
 6232SOL    HW130158   1.857   3.013   3.119 -2.1245 -2.3934  0.5785
 6232SOL    HW230159   1.868   2.870   3.118  0.1348 -0.5438  1.1188
 6233SOL     OW30160   0.777   4.089   1.108  0.1790  0.3701  0.1477
 6233SOL    HW130161   0.753   4.072   1.199 -0.6567  1.9500  0.2294
 6233SOL    HW230162   0.872   4.092   1.112  0.2274  0.1644 -0.7023
 6234SOL     OW30163   2.091   0.834  17.584  0.1703 -0.3978  0.0834
 6234SOL    HW130164   2.043   0.876  17.656  0.8394  2.8185 -1.3171
 6234SOL    HW230165   2.018   0.804  17.530  0.4142 -2.9430  1.1559
 6235SOL     OW30166   0.256   0.603   6.807  0.1914 -0.2723 -0.4003
 6235SOL    HW130167   0.271   0.655   6.886 -0.4608 -0.5611 -0.0848
 6235SOL    HW230168   0.160   0.601   6.804  0.1873 -1.3281  0.4928
 6236SOL     OW30169   3.540   0.267   8.497 -0.0990  0.7885 -0.1337
 6236SOL    HW130170   3.559   0.202   8.565  0.1392  0.0296 -0.9255
 6236SOL    HW230171   3.502   0.337   8.549  2.2001  1.4880  0.6122
 6237SOL     OW30172   4.018   4.664   7.781  0.3921  0.4086  0.2528
 6237SOL    HW130173   3.938   4.673   7.728 -0.9509  1.2148  2.3958
 6237SOL    HW230174   4.074   4.632   7.711 -1.3242 -0.3459 -0.7996
 6238SOL     OW30175   0.448   1.044  13.448 -0.4031 -0.3900  0.2734
 6238SOL    HW130176   0.510   1.064  13.379 -0.1934 -2.3026 -0.1063
 6238SOL    HW230177   0.433   1.132  13.481  0.6443  0.3725 -1.3006
 6239SOL     OW30178   4.605   3.081   5.290 -0.3775 -0.1613  0.0027
 6239SOL    HW130179   4.699   3.090   5.278 -0.3138 -2.2093 -0.9430
 6239SOL    HW230180   4.580   3.168   5.259  0.8995 -0.0485 -0.7125
 6240SOL     OW30181   4.429   3.282  16.076  0.1625 -0.1281 -0.0303
 6240SOL    HW130182   4.424   3.305  16.169 -2.9141  1.5634 -0.5919
 6240SOL    HW230183   4.495   3.333  16.030 -0.5386  0.2164 -0.6651
 6241SOL     OW30184   1.884   4.066  16.574  0.1932 -0.8953  0.2569
 6241SOL    HW130185   1.902   4.016  16.494  2.4882  0.1052  0.1439
 6241SOL    HW230186   1.908   4.159  16.565  2.2154 -1.4222  0.2580
 6242SOL     OW30187   3.231   1.235   3.317 -0.2097  0.1086 -0.5274
 6242SOL    HW130188   3.143   1.246   3.282 -0.3813 -1.1270 -0.4522
 6242SOL    HW230189   3.278   1.167   3.268 -0.6068 -1.4198  1.2343
 6243SOL     OW30190   2.809   4.459   5.878 -0.0947  0.5531  0.4912
 6243SOL    HW130191   2.806   4.368   5.848  2.6770 -0.1624  2.3198
 6243SOL    HW230192   2.807   4.511   5.798 -2.2982 -0.1051  0.1407
 6244SOL     OW30193   0.738   2.710   5.870 -0.6152  0.7247 -0.4403
 6244SOL    HW130194   0.828   2.684   5.855 -0.3798  1.0889  0.3378
 6244SOL    HW230195   0.693   2.627   5.852  0.4718  0.1786 -0.6068
 6245SOL     OW30196   4.132   2.970  15.315 -0.1817 -0.1380 -0.0601
 6245SOL    HW130197   4.054   3.024  15.299  0.1624  0.6112  0.7480
 6245SOL    HW230198   4.196   3.006  15.254 -0.2872  0.7502  0.3568
 6246SOL     OW30199   3.285   1.245   9.875  0.7865  0.1062  0.1227
 6246SOL    HW130200   3.227   1.204   9.811  0.7231  0.8019 -0.2576
 6246SOL    HW230201   3.370   1.245   9.830  1.0718 -0.3284  0.6625
 6247SOL     OW30202   1.091   1.311   0.577  0.3524 -0.5008  0.7420
 6247SOL    HW130203   1.157   1.306   0.508 -0.1933  0.0992  0.1860
 6247SOL    HW230204   1.017   1.351   0.533  1.8653  0.8441 -0.6086
 6248SOL     OW30205   1.692   4.059   0.423 -0.2746 -0.0552 -0.5033
 6248SOL    HW130206   1.725   4.063   0.333  1.9623 -0.0591  0.3277
 6248SOL    HW230207   1.779   4.064   0.463 -0.1798  0.2429 -0.7402
 6249SOL     OW30208   2.822   2.911  11.099 -0.1502 -0.1463 -0.0183
 6249SOL    HW130209   2.804   2.992  11.148  1.5996 -0.2990  0.8778
 6249SOL    HW230210   2.867   2.943  11.021  0.0605  0.3497  0.3010
 6250SOL     OW30211   0.456   1.442   2.432  0.0034  0.9071 -0.7104
 6250SOL    HW130212   0.487   1.376   2.494  0.3595  1.0049 -0.7838
 6250SOL    HW230213   0.520   1.429   2.361  0.5211 -0.6562  0.0451
 6251SOL     OW30214   2.886   4.629  10.399  0.2372 -0.0081 -0.0683
 6251SOL    HW130215   2.869   4.540  10.429  0.0105  0.2899  0.6734
 6251SOL    HW230216   2.972   4.641  10.438 -0.5091  1.4117  1.1599
 6252SOL     OW30217   1.565   0.158   7.380 -0.2373  0.1285 -0.1574
 6252SOL    HW130218   1.634   0.175   7.316  1.5012  0.3735  1.7591
 6252SOL    HW230219   1.621   0.120   7.448 -0.8135 -0.4391  0.0038
 6253SOL     OW30220   1.740   1.350  17.483 -0.2458  0.0588  0.2089
 6253SOL    HW130221   1.797   1.295  17.535 -2.1614 -0.6239  1.5848
 6253SOL    HW230222   1.712   1.410  17.552 -0.2748  0.6755 -0.3296
 6254SOL     OW30223   0.373   1.592   9.230  0.1800 -0.8955  0.0510
 6254SOL    HW130224   0.346   1.525   9.167 -2.6821 -1.2312  1.6558
 6254SOL    HW230225   0.290   1.639   9.243  1.0803  0.5757  0.4948
 6255SOL     OW30226   3.340   1.362  17.282 -0.0874  0.1496  0.1207
 6255SOL    HW130227   3.364   1.304  17.355  1.9401  1.3502  0.4129
 6255SOL    HW230228   3.380   1.446  17.307  2.3463 -0.3973 -1.9486
 6256SOL     OW30229   3.970   3.746   8.319  0.4447  0.6010  0.4608
 6256SOL    HW130230   3.895   3.740   8.260 -0.3554  1.1691  1.4160
 6256SOL    HW230231   4.032   3.767   8.250  0.0447 -3.3960 -1.1371
 6257SOL     OW30232   2.272   2.655  14.559  0.5561  0.0811  0.0453
 6257SOL    HW130233   2.322   2.576  14.536  0.0281 -0.1189 -0.4418
 6257SOL    HW230234   2.186   2.619  14.535  0.8993  0.2020 -1.3478
 6258SOL     OW30235   2.263   4.321   2.933 -0.2517 -0.6100 -0.2888
 6258SOL    HW130236   2.201   4.311   2.861  1.2252  0.5999 -1.7260
 6258SOL    HW230237   2.347   4.315   2.888 -0.0102  1.5979 -0.1078
 6259SOL     OW30238   1.347   4.723   3.530 -0.3150  0.2057 -0.1129
 6259SOL    HW130239   1.340   0.052   3.450  0.1574  2.5101  1.3897
 6259SOL    HW230240   1.438   4.693   3.531 -0.6628 -0.7798  1.5098
 6260SOL     OW30241   0.526   1.805   9.071 -0.6269 -0.1049  0.8748
 6260SOL    HW130242   0.584   1.865   9.117  0.8979 -0.6140 -0.3992
 6260SOL    HW230243   0.495   1.748   9.142 -0.0915 -0.8289  0.5202
 6261SOL     OW30244   2.036   4.289   0.944  0.1743 -0.3381 -0.0133
 6261SOL    HW130245   1.986   4.241   1.010  0.3884  0.3692  0.6646
 6261SOL    HW230246   2.102   4.225   0.916  0.7068  0.1218  0.1707
 6262SOL     OW30247   4.090   3.476  12.959  0.1259  0.2481 -0.0219
 6262SOL    HW130248   4.068   3.532  13.033  0.2521  0.5786 -0.2359
 6262SOL    HW230249   4.035   3.397  12.957 -1.6752  1.5046  0.3920
 6263SOL     OW30250   0.998   0.044  16.123  0.3837 -0.3249  0.0707
 6263SOL    HW130251   1.041   0.028  16.206  0.6967 -1.2193 -0.2642
 6263SOL    HW230252   1.069   0.045  16.059 -0.7809 -2.5935 -1.3048
 6264SOL     OW30253   4.672   0.666   8.391  0.1826 -0.6875  0.2222
 6264SOL    HW130254   4.680   0.646   8.485  0.7223 -4.2480 -0.5917
 6264SOL    HW230255   4.658   0.760   8.394 -0.4054 -0.7693 -0.1358
 6265SOL     OW30256   0.002   4.340   9.038 -0.3160 -0.4438  0.5926
 6265SOL    HW130257   0.023   4.325   8.945 -0.0392 -1.2431  0.7873
 6265SOL    HW230258   0.066   4.409   9.056 -1.6116  1.4200 -1.8488
 6266SOL     OW30259   4.629   3.634   2.936  0.6565  0.7099 -0.0770
 6266SOL    HW130260   4.599   3.618   2.846  2.1341  1.0513 -0.6342
 6266SOL    HW230261   4.544   3.641   2.979 -0.6726  0.7615 -2.6872
 6267SOL     OW30262   0.782   1.585   3.657 -0.4294 -0.2699  0.3485
 6267SOL    HW130263   0.757   1.675   3.638  0.1513 -0.0693  0.5569
 6267SOL    HW230264   0.698   1.540   3.644 -0.1401 -0.8917  0.5993
 6268SOL     OW30265   0.495   2.785   8.047 -0.1424  0.3500  0.0744
 6268SOL    HW130266   0.459   2.700   8.023  0.1768  0.8760 -2.2861
 6268SOL    HW230267   0.415   2.831   8.073 -0.0431  0.8995 -0.5985
 6269SOL     OW30268   0.599   2.324   3.651  0.1826 -0.0859 -0.4131
 6269SOL    HW130269   0.539   2.338   3.578 -0.4660 -0.4072  0.0535
 6269SOL    HW230270   0.682   2.323   3.603  0.7750  1.4521  0.5675
 6270SOL     OW30271   3.200   3.056   5.633 -0.1679 -0.8128 -0.1113
 6270SOL    HW130272   3.173   3.119   5.699 -1.8685 -1.5628 -0.0837
 6270SOL    HW230273   3.123   3.028   5.583 -0.2483  0.4450 -0.7000
 6271SOL     OW30274   2.228   0.601   4.561  0.4166 -1.1299  0.2363
 6271SOL    HW130275   2.147   0.582   4.514  0.3295  1.3340 -0.5979
 6271SOL    HW230276   2.302   0.574   4.507  1.3090  0.6787  0.5546
 6272SOL     OW30277   2.005   3.344  17.491 -0.3097  0.1720 -0.3593
 6272SOL    HW130278   2.025   3.432  17.525 -2.4380  1.0140 -1.2839
 6272SOL    HW230279   2.093   3.311  17.475 -0.6149  0.5420 -2.7494
 6273SOL     OW30280   2.995   0.163   7.193  0.0383  0.4316 -0.4343
 6273SOL    HW130281   2.936   0.110   7.247  0.0733  1.9490  1.0662
 6273SOL    HW230282   2.992   0.111   7.113 -2.8737 -1.0607  0.6493
 6274SOL     OW30283   4.573   0.342   3.340  0.4983 -0.2325  0.5430
 6274SOL    HW130284   4.506   0.406   3.315  0.2159 -0.8727 -0.3520
 6274SOL    HW230285   4.649   0.354   3.283 -0.8879  0.4067 -1.1654
 6275SOL     OW30286   1.690   2.277   8.563  0.5141  0.6550 -0.4421
 6275SOL    HW130287   1.606   2.314   8.538 -0.2192 -0.2383  0.6953
 6275SOL    HW230288   1.719   2.237   8.480 -0.0614 -1.1722  0.2308
 6276SOL     OW30289   1.472   4.634   0.574 -0.3507 -0.3439  0.8736
 6276SOL    HW130290   1.523   4.715   0.573  0.3956 -0.8446 -1.5325
 6276SOL    HW230291   1.398   4.661   0.629 -0.0532  1.2107  0.4922
 6277SOL     OW30292   1.428   3.933   5.081 -0.4698  0.2335 -0.0243
 6277SOL    HW130293   1.333   3.921   5.079 -0.2060 -2.0361  0.7521
 6277SOL    HW230294   1.463   3.846   5.062 -0.9050  0.2259 -0.7531
 6278SOL     OW30295   0.074   2.280  11.019  0.1754 -0.1096  0.4594
 6278SOL    HW130296   0.162   2.275  11.056  0.2477  2.3252  0.5942
 6278SOL    HW230297   0.087   2.368  10.984 -2.7426 -0.6295 -1.8600
 6279SOL     OW30298   1.035   0.107   4.729  0.2833  0.0195 -0.6695
 6279SOL    HW130299   1.007   0.071   4.645 -0.1404 -3.1402  0.8556
 6279SOL    HW230300   1.061   0.196   4.704 -0.2245  0.2018 -0.5511
 6280SOL     OW30301   2.279   4.504  11.879 -0.0145 -0.0500 -0.1342
 6280SOL    HW130302   2.213   4.564  11.912  1.5330  1.0555  0.9525
 6280SOL    HW230303   2.348   4.568  11.862 -1.4259  1.7499  0.9206
 6281SOL     OW30304   2.624   2.486   1.829 -0.2677 -0.2840  0.2899
 6281SOL    HW130305   2.545   2.539   1.821  0.7596  0.5113 -4.4592
 6281SOL    HW230306   2.585   2.398   1.831  0.6765 -0.7464 -1.6211
 6282SOL     OW30307   1.950   0.552  13.675  0.0742 -0.5995  0.1739
 6282SOL    HW130308   2.011   0.537  13.602 -0.0914 -4.4826  0.8292
 6282SOL    HW230309   1.989   0.633  13.710  0.5066 -1.4090  1.5978
 6283SOL     OW30310   2.982   4.309   3.577 -0.0867  0.1287  0.3726
 6283SOL    HW130311   2.938   4.304   3.492 -1.0660 -1.5310  0.9781
 6283SOL    HW230312   3.070   4.288   3.544  0.0833 -1.2656  1.7108
 6284SOL     OW30313   1.187   4.360   1.148  0.3345  0.0239 -0.1806
 6284SOL    HW130314   1.202   4.345   1.055 -2.9220 -0.6173 -0.5900
 6284SOL    HW230315   1.161   4.452   1.142 -0.4881 -0.0314  2.6882
 6285SOL     OW30316   2.585   1.718  12.816  0.1052 -0.2052  0.4496
 6285SOL    HW130317   2.562   1.809  12.831 -0.9511 -0.2460 -0.9005
 6285SOL    HW230318   2.498   1.681  12.830 -0.1210 -0.6609 -2.1804
 6286SOL     OW30319   2.462   1.769   6.913  0.0200  0.0378  0.3395
 6286SOL    HW130320   2.392   1.821   6.875 -1.1428 -1.6471  0.1751
 6286SOL    HW230321   2.492   1.824   6.986 -1.7174  2.3050 -0.6712
 6287SOL     OW30322   3.645   4.470  12.420  0.2830  0.4649 -0.1318
 6287SOL    HW130323   3.629   4.489  12.328  0.4918  1.4492  0.0359
 6287SOL    HW230324   3.561   4.500  12.456 -0.6349  0.9687 -2.6700
 6288SOL     OW30325   4.220   1.408   6.185 -0.3949 -0.5105 -0.1987
 6288SOL    HW130326   4.212   1.313   6.199  1.6902 -0.3543  2.0370
 6288SOL    HW230327   4.314   1.420   6.201 -0.5109 -1.1260  0.9457
 6289SOL     OW30328   3.774   3.137   6.995  0.2345  0.4607  0.3798
 6289SOL    HW130329   3.689   3.160   6.958  0.3053 -0.1053 -0.1340
 6289SOL    HW230330   3.767   3.201   7.066 -0.0446  1.7042 -0.7730
 6290SOL     OW30331   4.183   1.120   6.225  0.1408 -0.2947 -0.2417
 6290SOL    HW130332   4.173   1.136   6.319 -0.6987  0.7115 -0.5029
 6290SOL    HW230333   4.094   1.095   6.202  0.0247  0.6448 -0.8221
 6291SOL     OW30334   3.791   2.966  12.500  0.2084  0.4394 -0.2114
 6291SOL    HW130335   3.831   2.974  12.587 -1.8322 -2.6779  1.0194
 6291SOL    HW230336   3.820   2.877  12.479 -0.0416 -0.1725  2.0240
 6292SOL     OW30337   1.156   1.202   2.471  0.4932  0.1451  0.1318
 6292SOL    HW130338   1.146   1.154   2.389 -0.5406 -0.4545  0.6088
 6292SOL    HW230339   1.067   1.217   2.503  1.0023  1.7551  0.7667
 6293SOL     OW30340   0.987   3.457   1.804 -0.8596  0.5537 -0.4657
 6293SOL    HW130341   1.009   3.510   1.728 -0.7482 -0.8585 -1.4120
 6293SOL    HW230342   1.052   3.392   1.780  0.4982  2.1286 -1.0659
 6294SOL     OW30343   0.590   1.747  14.662  0.1838 -0.4305 -0.3240
 6294SOL    HW130344   0.559   1.677  14.719  3.5040  0.1863  2.2626
 6294SOL    HW230345   0.550   1.711  14.582 -1.5626 -1.6429  1.1073
 6295SOL     OW30346   1.157   4.258  16.697 -0.0959  0.8468 -0.2399
 6295SOL    HW130347   1.125   4.219  16.779  1.8619  1.1843  0.6661
 6295SOL    HW230348   1.227   4.318  16.723 -0.4376  2.2600 -2.5578
 6296SOL     OW30349   3.522   3.534   8.660  0.3932 -0.6601 -0.5338
 6296SOL    HW130350   3.508   3.589   8.583  0.2345 -0.8031 -0.6051
 6296SOL    HW230351   3.442   3.557   8.707  1.2579 -1.5066  1.3294
 6297SOL     OW30352   3.330   0.219   4.466  0.0355 -0.2356 -0.6566
 6297SOL    HW130353   3.389   0.294   4.463 -0.3299  0.0109 -1.5273
 6297SOL    HW230354   3.247   0.257   4.497  0.9799 -0.8580  2.6096
 6298SOL     OW30355   1.017   1.668   3.771 -0.0968 -0.0828 -0.1028
 6298SOL    HW130356   0.941   1.622   3.737  0.8088 -1.0799 -0.8153
 6298SOL    HW230357   0.979   1.752   3.794  0.7584  0.2176  0.2282
 6299SOL     OW30358   2.706   1.921  17.110 -0.6239 -0.2528  0.4672
 6299SOL    HW130359   2.744   1.940  17.196  1.9708  2.7981 -1.3885
 6299SOL    HW230360   2.768   1.962  17.050  0.6306  0.2342  2.0764
 6300SOL     OW30361   1.581   2.509   2.991 -0.6661 -0.0686  0.0152
 6300SOL    HW130362   1.531   2.500   3.073 -0.3028  3.1261  0.5813
 6300SOL    HW230363   1.531   2.454   2.931 -0.6161  1.4500 -1.4281
 6301SOL     OW30364   2.335   4.578   2.013  0.0754  0.0021  0.8380
 6301SOL    HW130365   2.247   4.583   2.051  0.3034  3.0423  0.9389
 6301SOL    HW230366   2.332   4.633   1.935  2.3486 -1.9785 -0.6477
 6302SOL     OW30367   1.750   1.244   6.145 -0.0332  0.3616  1.0367
 6302SOL    HW130368   1.709   1.160   6.167  1.2129 -0.6556 -0.5407
 6302SOL    HW230369   1.679   1.286   6.096  0.1375  0.4486  0.8650
 6303SOL     OW30370   3.032   0.869   7.114 -0.1812  0.4510 -0.5664
 6303SOL    HW130371   3.059   0.929   7.045 -0.1327  0.3613 -0.6265
 6303SOL    HW230372   3.001   0.927   7.183 -1.2788 -1.0305  0.1802
 6304SOL     OW30373   3.874   1.223   3.761  0.5598  0.3980 -0.9522
 6304SOL    HW130374   3.803   1.161   3.777  1.5966 -0.2690  1.0865
 6304SOL    HW230375   3.906   1.229   3.851 -0.9813  2.2425 -0.5150
 6305SOL     OW30376   4.420   0.138   5.189  0.8357 -0.7678  0.2151
 6305SOL    HW130377   4.357   0.075   5.224  1.0165  0.0605  2.0400
 6305SOL    HW230378   4.368   0.217   5.193  2.5034  0.2482  1.7477
 6306SOL     OW30379   4.580   2.119  11.534 -0.0360  0.0016  0.5878
 6306SOL    HW130380   4.593   2.205  11.573  0.3665 -0.1378  0.7583
 6306SOL    HW230381   4.497   2.105  11.580 -0.5540  0.3896 -0.2143
 6307SOL     OW30382   1.911   4.099   1.761 -0.0117 -0.0821  0.0638
 6307SOL    HW130383   1.870   4.147   1.832 -0.5080 -0.8064  0.2661
 6307SOL    HW230384   1.870   4.013   1.768 -2.3860  0.9145 -1.4677
 6308SOL     OW30385   1.442   0.760   2.502  0.2098  0.1444  0.0485
 6308SOL    HW130386   1.392   0.710   2.437 -1.1032  0.1596  1.0578
 6308SOL    HW230387   1.522   0.707   2.498 -1.1586 -2.0474  1.7175
 6309SOL     OW30388   4.530   4.414   6.188 -0.0552 -0.0522  0.0235
 6309SOL    HW130389   4.596   4.462   6.138  0.1774 -1.8803 -1.4019
 6309SOL    HW230390   4.567   4.328   6.167  0.5757  0.6966 -1.9472
 6310SOL     OW30391   2.740   1.298   1.950  0.1477 -0.4052 -0.1496
 6310SOL    HW130392   2.730   1.342   1.866 -2.6288 -0.5588  0.1110
 6310SOL    HW230393   2.687   1.220   1.936  0.6567 -0.7813  0.0270
 6311SOL     OW30394   3.580   4.702   3.546  0.2156  0.2655 -0.0106
 6311SOL    HW130395   3.533   0.015   3.471 -1.9730 -3.1472 -0.3148
 6311SOL    HW230396   3.658   4.674   3.498 -0.6373 -2.2928  0.0890
 6312SOL     OW30397   0.559   4.114  11.466 -0.5047  0.2476  0.8686
 6312SOL    HW130398   0.645   4.072  11.473 -0.4508  0.1280 -0.5315
 6312SOL    HW230399   0.523   4.083  11.549 -1.1226 -0.4305  0.3511
 6313SOL     OW30400   1.654   0.473   9.140  0.4248  0.3954  0.0375
 6313SOL    HW130401   1.685   0.433   9.221 -0.1129 -1.4685 -0.6623
 6313SOL    HW230402   1.728   0.533   9.130  1.9637 -1.6822 -1.0730
 6314SOL     OW30403   0.597   2.586   8.275  0.3377  0.0484 -0.6176
 6314SOL    HW130404   0.638   2.523   8.216 -0.8459 -0.7950 -0.5382
 6314SOL    HW230405   0.653   2.583   8.353  1.8254 -0.3995 -1.7069
 6315SOL     OW30406   3.365   1.687  16.602  0.2104 -0.8092 -0.0645
 6315SOL    HW130407   3.435   1.705  16.664 -1.9235  0.6637  1.9390
 6315SOL    HW230408   3.388   1.752  16.536 -0.4881  0.2909  0.7605
 6316SOL     OW30409   2.658   0.997   4.728  0.3873  0.2942 -0.0775
 6316SOL    HW130410   2.681   1.070   4.785  0.4814  1.1726 -1.2361
 6316SOL    HW230411   2.566   0.983   4.750  0.2269  1.2091 -0.1810
 6317SOL     OW30412   4.032   3.615   2.533  0.3016  0.2443 -0.2041
 6317SOL    HW130413   4.033   3.561   2.454  0.2066 -0.4201  0.2466
 6317SOL    HW230414   3.963   3.678   2.512 -0.3211 -0.5050 -0.4569
 6318SOL     OW30415   4.506   1.379   4.513  0.3298  0.3206 -0.3588
 6318SOL    HW130416   4.513   1.377   4.417 -0.6987 -0.7181 -0.4104
 6318SOL    HW230417   4.478   1.289   4.531  0.2095  0.9779  2.5909
 6319SOL     OW30418   3.916   0.505  11.132 -0.0777  0.5417 -0.4449
 6319SOL    HW130419   3.969   0.464  11.064  0.3902  1.1658 -0.4602
 6319SOL    HW230420   3.974   0.578  11.157  1.5636 -0.8906 -0.0491
 6320SOL     OW30421   0.173   3.804   5.740  0.2363 -0.0916 -0.2014
 6320SOL    HW130422   0.151   3.743   5.670 -1.6858  1.9599 -1.3965
 6320SOL    HW230423   0.174   3.744   5.814 -0.2494 -0.5238 -0.5425
 6321SOL     OW30424   0.366   3.773   1.683  0.1630  0.2818  0.1240
 6321SOL    HW130425   0.371   3.711   1.611  0.6681  0.7744 -0.2703
 6321SOL    HW230426   0.360   3.856   1.635  3.0860  0.7393  0.5249
 6322SOL     OW30427   1.356   3.648   6.726 -0.0174  0.1670 -0.3382
 6322SOL    HW130428   1.417   3.599   6.669 -1.6286 -0.8634 -1.1923
 6322SOL    HW230429   1.414   3.658   6.801  0.1642  2.2323 -0.7661
 6323SOL     OW30430   3.823   3.773   5.949 -0.4648  0.1149 -0.7107
 6323SOL    HW130431   3.768   3.724   5.889  2.0265 -1.5926 -1.5789
 6323SOL    HW230432   3.889   3.805   5.887  0.0721 -0.5831 -0.5062
 6324SOL     OW30433   1.461   4.262   0.286  0.2639  0.3524 -0.0584
 6324SOL    HW130434   1.422   4.221   0.363 -1.4307  0.6954 -0.7271
 6324SOL    HW230435   1.458   4.191   0.222 -0.3781 -1.2051  1.6788
 6325SOL     OW30436   1.258   3.239   7.611 -0.3816  0.1762  0.2236
 6325SOL    HW130437   1.245   3.144   7.616 -1.9829  0.3097 -1.2341
 6325SOL    HW230438   1.353   3.242   7.623 -0.3819 -1.5017  0.6246
 6326SOL     OW30439   2.855   2.945   2.694  0.1416 -0.2858 -0.0700
 6326SOL    HW130440   2.867   3.008   2.623 -0.0937  0.0095  0.1544
 6326SOL    HW230441   2.945   2.920   2.715  0.2961 -0.2553 -0.6928
 6327SOL     OW30442   3.916   2.495   8.221 -0.0909 -0.1254 -0.1176
 6327SOL    HW130443   3.962   2.421   8.261 -1.2889 -0.4497  0.6783
 6327SOL    HW230444   3.977   2.522   8.152  1.6809  1.3052  2.0137
 6328SOL     OW30445   0.620   0.968   2.791  0.5888 -0.6514  0.3037
 6328SOL    HW130446   0.705   1.012   2.799 -1.0947  2.6093  0.0539
 6328SOL    HW230447   0.617   0.947   2.698  0.7751 -0.3150  0.2248
 6329SOL     OW30448   3.603   0.341  14.871 -0.0650 -0.0916 -0.1179
 6329SOL    HW130449   3.579   0.430  14.896 -0.2413 -1.0402  3.0171
 6329SOL    HW230450   3.662   0.352  14.796 -1.8383  1.2604 -1.3183
 6330SOL     OW30451   3.243   1.212   7.923 -0.6195 -0.0031  0.6096
 6330SOL    HW130452   3.200   1.126   7.922  0.2935 -0.4529 -0.2286
 6330SOL    HW230453   3.223   1.240   8.012 -2.0351 -2.9187  1.2258
 6331SOL     OW30454   2.357   1.327   8.560 -0.1388  0.5072 -0.1097
 6331SOL    HW130455   2.302   1.396   8.595 -0.7992 -1.2936  2.4131
 6331SOL    HW230456   2.378   1.282   8.642  0.0890 -0.9872 -0.9926
 6332SOL     OW30457   1.258   3.176   2.745  0.5505  0.4068  0.0948
 6332SOL    HW130458   1.337   3.122   2.752 -0.2949 -0.9354 -0.7714
 6332SOL    HW230459   1.285   3.259   2.785  0.0769 -0.3028  1.8551
 6333SOL     OW30460   4.323   3.268  15.787 -0.3768 -0.3665 -0.9060
 6333SOL    HW130461   4.285   3.331  15.726  2.3798 -0.0616 -2.3536
 6333SOL    HW230462   4.280   3.299  15.866  2.0529 -0.4313  0.4602
 6334SOL     OW30463   1.083   1.505   2.580 -0.1969  0.1574  0.6235
 6334SOL    HW130464   1.088   1.563   2.504  0.6760 -0.7185  0.0112
 6334SOL    HW230465   1.129   1.429   2.543 -1.8268  0.3033 -1.6802
 6335SOL     OW30466   4.709   1.413   3.486  0.1207  0.1934  0.4397
 6335SOL    HW130467   4.699   1.318   3.478  0.9463  0.1798 -0.4042
 6335SOL    HW230468   0.051   1.428   3.419  0.9280 -1.1287  0.9497
 6336SOL     OW30469   2.249   1.239  12.238 -0.2891 -0.2886 -0.0793
 6336SOL    HW130470   2.240   1.264  12.146 -1.9991  2.8525  0.9595
 6336SOL    HW230471   2.166   1.261  12.280  0.0527  2.3475 -0.8175
 6337SOL     OW30472   1.955   3.658   2.353  0.1432  0.9123  0.4571
 6337SOL    HW130473   2.016   3.690   2.287  1.4506 -0.7012  0.8881
 6337SOL    HW230474   1.902   3.737   2.359 -0.8813  0.1316  1.7789
 6338SOL     OW30475   4.383   4.395   3.562 -0.0142  0.3652  0.0861
 6338SOL    HW130476   4.399   4.310   3.604 -1.2921  0.0072 -0.1624
 6338SOL    HW230477   4.417   4.451   3.632 -1.2213 -0.5792  1.4336
 6339SOL     OW30478   1.629   3.418   5.071 -0.1946  0.2587 -0.4513
 6339SOL    HW130479   1.695   3.361   5.030 -0.8671 -0.5686 -0.3906
 6339SOL    HW230480   1.551   3.367   5.048  1.4950 -1.4198 -2.4471
 6340SOL     OW30481   0.620   3.468  13.962  0.3703 -0.0355 -0.6950
 6340SOL    HW130482   0.527   3.483  13.944  0.1597 -1.1992 -0.5506
 6340SOL    HW230483   0.653   3.556  13.981 -1.7417  1.1002 -2.2935
 6341SOL     OW30484   3.776   1.502   8.792 -0.1787 -0.0747  0.3569
 6341SOL    HW130485   3.680   1.495   8.791 -0.1564 -0.2467 -0.2100
 6341SOL    HW230486   3.793   1.522   8.885  1.4488  1.6019 -0.3038
 6342SOL     OW30487   0.779   4.234   7.448 -0.1990  0.0717  0.3460
 6342SOL    HW130488   0.814   4.148   7.428 -0.6414  0.5422 -2.4566
 6342SOL    HW230489   0.858   4.270   7.408 -0.3842  0.9105  0.7193
 6343SOL     OW30490   2.566   1.287   4.876  0.3483  0.3594  0.2660
 6343SOL    HW130491   2.493   1.348   4.883 -1.8052 -2.1976 -0.2275
 6343SOL    HW230492   2.533   1.198   4.872  0.8879  0.1950 -0.6761
 6344SOL     OW30493   0.282   0.272  12.324 -0.1114 -0.1009 -0.8262
 6344SOL    HW130494   0.312   0.359  12.352 -0.8640 -0.7024  1.9098
 6344SOL    HW230495   0.198   0.261  12.369 -0.2116 -0.9159 -1.2251
 6345SOL     OW30496   1.631   0.054   9.714  0.2405  0.1455 -0.3799
 6345SOL    HW130497   1.595   4.694   9.740 -2.5386  1.0901 -1.1410
 6345SOL    HW230498   1.719   0.025   9.690 -0.6249 -1.4303 -1.6211
 6346SOL     OW30499   1.491   3.991  16.127  0.2924 -0.5884 -0.5616
 6346SOL    HW130500   1.423   3.988  16.194  1.2838  2.6175  0.5829
 6346SOL    HW230501   1.442   3.945  16.059 -2.3706  0.4513  0.6578
 6347SOL     OW30502   2.342   3.872  11.240  0.5424  0.3325  0.0966
 6347SOL    HW130503   2.312   3.947  11.292  0.6987 -0.8890  1.9548
 6347SOL    HW230504   2.309   3.896  11.154 -0.4563  0.9302  0.6443
 6348SOL     OW30505   1.503   0.779  14.196 -0.0273  0.6026 -0.7446
 6348SOL    HW130506   1.522   0.721  14.270  0.6099  0.7218 -0.8153
 6348SOL    HW230507   1.421   0.754  14.153 -0.0256 -0.2640 -0.2396
 6349SOL     OW30508   4.554   4.278   0.328 -0.3662 -0.0390  0.6100
 6349SOL    HW130509   4.589   4.276   0.417 -1.2981 -1.7344  0.9304
 6349SOL    HW230510   4.478   4.222   0.346 -0.7574 -0.3308 -1.8418
 6350SOL     OW30511   0.450   2.655   0.423  0.0567 -0.5118 -0.0818
 6350SOL    HW130512   0.444   2.652   0.518 -0.6058  4.7188  0.0876
 6350SOL    HW230513   0.491   2.740   0.403 -1.9755  0.6351  0.6461
 6351SOL     OW30514   1.807   4.417   4.603 -0.3659 -1.3396 -0.3289
 6351SOL    HW130515   1.759   4.371   4.535 -0.1921 -0.1978 -1.2255
 6351SOL    HW230516   1.780   4.380   4.688  1.4108 -0.9569  0.4047
 6352SOL     OW30517   0.496   0.840  10.684 -0.1171 -0.0678 -0.2212
 6352SOL    HW130518   0.497   0.917  10.627 -0.5165 -0.2761 -0.5104
 6352SOL    HW230519   0.402   0.823  10.688 -0.3387  1.5306  1.2785
 6353SOL     OW30520   4.445   3.744  15.987 -0.7455 -0.6070 -0.0280
 6353SOL    HW130521   4.398   3.776  16.064 -0.4234 -2.3958  0.9318
 6353SOL    HW230522   4.394   3.785  15.917 -2.3819 -0.4829  1.2110
 6354SOL     OW30523   0.869   3.534   2.186  0.4466  0.1210  0.1807
 6354SOL    HW130524   0.880   3.624   2.155 -1.1652 -0.0524 -0.9115
 6354SOL    HW230525   0.831   3.552   2.272  0.8985  1.1295  0.1755
 6355SOL     OW30526   0.208   1.758   4.061  0.1653 -0.2299  0.5417
 6355SOL    HW130527   0.220   1.725   4.149  0.2480 -1.1367  0.1858
 6355SOL    HW230528   0.242   1.684   4.012  0.2212 -0.3768  0.8035
 6356SOL     OW30529   2.050   1.747   4.049 -0.3750  0.2057 -0.1805
 6356SOL    HW130530   1.996   1.817   4.086  1.1212  0.5495  1.3458
 6356SOL    HW230531   1.978   1.688   4.027 -0.4913 -0.2053  1.3263
 6357SOL     OW30532   3.761   4.026  15.645 -0.1280  0.2558  0.1383
 6357SOL    HW130533   3.693   4.063  15.588 -0.1947  0.2605  0.2216
 6357SOL    HW230534   3.768   4.100  15.706  0.8353 -0.9455  1.4922
 6358SOL     OW30535   1.563   2.156   6.623  0.4110  0.0829 -0.0360
 6358SOL    HW130536   1.535   2.126   6.710  0.1415 -2.1293 -0.8964
 6358SOL    HW230537   1.494   2.134   6.561  0.3666 -0.5174  0.2239
 6359SOL     OW30538   2.516   3.895   4.794  0.4306  0.3751  0.3549
 6359SOL    HW130539   2.453   3.832   4.830 -1.2023  0.8714 -1.7111
 6359SOL    HW230540   2.597   3.846   4.810 -0.4622 -1.1344  0.3204
 6360SOL     OW30541   1.439   0.844   2.798  0.4116  0.1910 -0.2610
 6360SOL    HW130542   1.508   0.782   2.775  0.0728 -0.2915  0.0401
 6360SOL    HW230543   1.386   0.849   2.719 -1.1080  0.6368  0.7962
 6361SOL     OW30544   4.098   2.280   3.114  0.6572  0.5605  0.3345
 6361SOL    HW130545   4.085   2.195   3.158 -0.7466 -0.5624 -2.2433
 6361SOL    HW230546   4.126   2.246   3.029 -1.6829 -1.7786  0.4982
 6362SOL     OW30547   0.887   2.174   7.203 -0.1304  0.4361  0.2488
 6362SOL    HW130548   0.820   2.224   7.157  0.0671  0.1775 -0.3271
 6362SOL    HW230549   0.834   2.123   7.265  1.3662  1.4274  2.3224
 6363SOL     OW30550   2.791   3.070   3.896  0.1007  0.2335  0.4177
 6363SOL    HW130551   2.812   3.071   3.802 -0.6642  2.7000  0.2805
 6363SOL    HW230552   2.819   3.157   3.924  0.0012  0.4585 -0.1704
 6364SOL     OW30553   0.809   1.526  16.490  0.5459 -0.1602 -0.4772
 6364SOL    HW130554   0.870   1.460  16.524  1.8446  1.5608  0.4954
 6364SOL    HW230555   0.772   1.474  16.418  1.6057  0.7337 -1.6629
 6365SOL     OW30556   1.769   3.080   2.693 -0.9261 -0.1489  0.2858
 6365SOL    HW130557   1.843   3.018   2.692  2.3138  3.6686  1.9039
 6365SOL    HW230558   1.780   3.127   2.776 -0.1192  2.2377 -1.1929
 6366SOL     OW30559   2.410   0.603   1.710 -0.2559  0.2192 -0.1685
 6366SOL    HW130560   2.409   0.690   1.751 -0.1441  0.9761 -1.7609
 6366SOL    HW230561   2.443   0.644   1.629 -0.8264 -0.0895 -0.5546
 6367SOL     OW30562   1.616   3.637   1.022  0.0912  0.3119  0.2908
 6367SOL    HW130563   1.662   3.661   1.103  0.2993 -0.3563  0.3712
 6367SOL    HW230564   1.544   3.698   1.003  0.6288  0.4344 -1.3454
 6368SOL     OW30565   0.207   4.043   8.383 -0.2172  0.2085  0.0275
 6368SOL    HW130566   0.260   3.978   8.336  0.7018  0.0194  1.3223
 6368SOL    HW230567   0.276   4.109   8.394 -1.3446  1.5063 -0.7799
 6369SOL     OW30568   3.215   2.524  10.241 -0.7100  0.3546  0.5831
 6369SOL    HW130569   3.274   2.456  10.211 -1.8713 -0.3212 -0.1900
 6369SOL    HW230570   3.269   2.601  10.222 -0.9164  0.5802  0.8990
 6370SOL     OW30571   1.106   0.113   5.995 -0.3744  0.5070 -0.1949
 6370SOL    HW130572   1.041   0.153   6.053 -0.3597 -0.4226  0.4602
 6370SOL    HW230573   1.092   0.156   5.910 -1.3509 -1.8293 -1.2056
 6371SOL     OW30574   1.215   2.607   2.747  0.1441 -0.1329  0.3680
 6371SOL    HW130575   1.213   2.533   2.807 -2.5068  0.4080  0.9409
 6371SOL    HW230576   1.285   2.656   2.789  2.0572  0.8391 -3.9287
 6372SOL     OW30577   2.203   3.629   5.445 -0.4442 -0.3317 -0.3632
 6372SOL    HW130578   2.251   3.563   5.495 -2.4173 -1.2231  0.3162
 6372SOL    HW230579   2.112   3.603   5.459 -0.5504  0.0090 -0.4136
 6373SOL     OW30580   0.781   1.777   3.052 -0.1014  0.1519 -0.1961
 6373SOL    HW130581   0.714   1.708   3.048  1.1366 -1.1147  0.7933
 6373SOL    HW230582   0.844   1.748   2.987 -1.3484 -1.5934 -0.6361
 6374SOL     OW30583   3.993   3.376   4.400 -0.7392 -0.0355 -0.0902
 6374SOL    HW130584   3.948   3.461   4.395  1.2779  0.9787 -0.8820
 6374SOL    HW230585   4.049   3.392   4.476 -0.4184 -0.4022 -0.2534
 6375SOL     OW30586   1.539   1.723   8.930 -0.5426  0.4285 -0.2437
 6375SOL    HW130587   1.459   1.755   8.889 -0.2636  1.2910 -0.1210
 6375SOL    HW230588   1.578   1.807   8.954  0.6393 -0.2321  0.1716
 6376SOL     OW30589   1.698   3.158   5.486 -0.1200 -0.2204  0.0428
 6376SOL    HW130590   1.704   3.173   5.580 -0.7045  3.1183 -0.4322
 6376SOL    HW230591   1.639   3.083   5.479  0.3395 -0.5045 -0.7996
 6377SOL     OW30592   2.461   1.747   0.351 -0.3073  0.1917 -0.2307
 6377SOL    HW130593   2.480   1.660   0.386  1.6911  0.3907 -0.8074
 6377SOL    HW230594   2.367   1.756   0.367 -0.7022 -0.2747 -2.3575
 6378SOL     OW30595   2.380   0.626   8.920 -0.1304  0.2513 -0.0510
 6378SOL    HW130596   2.432   0.546   8.930 -0.6831 -0.0324  0.5863
 6378SOL    HW230597   2.324   0.592   8.849 -3.3731 -0.5389  2.8943
 6379SOL     OW30598   4.485   1.351   2.109 -0.5469 -0.1088  0.1243
 6379SOL    HW130599   4.424   1.304   2.166 -1.9996  2.0057  0.3160
 6379SOL    HW230600   4.437   1.339   2.027  1.7927  1.1932 -1.4392
 6380SOL     OW30601   3.713   1.045   8.784 -0.5012  0.9583 -0.9510
 6380SOL    HW130602   3.742   0.954   8.789 -0.4478  0.9601 -1.2518
 6380SOL    HW230603   3.780   1.091   8.734 -0.4467  1.4442 -0.4319
 6381SOL     OW30604   2.118   0.793   1.481 -0.0161 -0.1722  0.2384
 6381SOL    HW130605   2.136   0.701   1.459  2.2463  0.9295 -2.4852
 6381SOL    HW230606   2.056   0.832   1.420  1.9014  0.7182 -1.1152
 6382SOL     OW30607   3.246   2.514   6.841  0.6474 -0.5230  0.1463
 6382SOL    HW130608   3.178   2.496   6.906 -0.0704  4.1430  0.6645
 6382SOL    HW230609   3.271   2.425   6.815  0.5993 -0.7484  0.8615
 6383SOL     OW30610   4.630   2.261   1.780 -0.4796  0.7409 -0.4021
 6383SOL    HW130611   4.645   2.348   1.745 -1.3923  0.2690 -1.9741
 6383SOL    HW230612   4.539   2.256   1.750 -1.0267  2.8591  0.9111
 6384SOL     OW30613   2.084   0.571  11.044 -0.6705  0.7851 -0.2696
 6384SOL    HW130614   2.051   0.579  10.955 -1.5975 -0.5442 -0.0421
 6384SOL    HW230615   2.033   0.630  11.101  0.3506  0.6943  0.7414
 6385SOL     OW30616   1.207   4.513  12.863 -0.2959  0.0746  0.5928
 6385SOL    HW130617   1.294   4.475  12.850 -1.0271 -1.2179 -0.4361
 6385SOL    HW230618   1.202   4.500  12.958 -0.3237  1.1929  0.7439
 6386SOL     OW30619   2.947   2.608   5.014 -0.2461  0.2061  0.2273
 6386SOL    HW130620   2.954   2.653   4.930  0.9726  1.4345  0.9900
 6386SOL    HW230621   3.030   2.561   5.021  0.4535  1.3357 -0.4504
 6387SOL     OW30622   3.824   1.206   7.453  0.0183 -0.2871  0.4490
 6387SOL    HW130623   3.747   1.190   7.398  0.4871  2.5105 -1.0192
 6387SOL    HW230624   3.809   1.137   7.518 -0.1631 -0.7478 -0.0799
 6388SOL     OW30625   0.581   1.280   5.096  0.1236 -0.0950  0.3235
 6388SOL    HW130626   0.579   1.373   5.072 -0.0378  0.4401  2.4082
 6388SOL    HW230627   0.632   1.298   5.175  0.4689  3.2713 -0.6658
 6389SOL     OW30628   3.857   2.926   6.687 -0.7025  0.4174  0.0822
 6389SOL    HW130629   3.876   2.850   6.742  0.9376 -0.5025 -1.7757
 6389SOL    HW230630   3.919   2.986   6.729  1.3700 -0.6456 -1.5190
 6390SOL     OW30631   1.861   4.586   2.784  0.1909  0.7743 -0.1467
 6390SOL    HW130632   1.847   4.674   2.820 -0.8736  0.3244  0.5084
 6390SOL    HW230633   1.925   4.603   2.715  0.8841  2.5208  0.9007
 6391SOL     OW30634   4.474   1.915   4.898  0.0176  0.2025  0.5502
 6391SOL    HW130635   4.481   2.009   4.883 -0.2989 -0.2274 -2.3897
 6391SOL    HW230636   4.500   1.889   4.986  1.8241 -1.8074 -0.5583
 6392SOL     OW30637   0.473   3.748   2.740  0.2536 -0.7143 -0.6240
 6392SOL    HW130638   0.504   3.708   2.821  0.3136 -1.0443 -0.8102
 6392SOL    HW230639   0.418   3.683   2.698  1.0017 -1.6011 -0.2323
 6393SOL     OW30640   0.385   0.768   7.019 -0.1212 -0.2278  0.0144
 6393SOL    HW130641   0.407   0.721   7.099 -0.5767 -0.3296  0.0793
 6393SOL    HW230642   0.290   0.779   7.023 -0.0914  0.6602 -1.5165
 6394SOL     OW30643   1.454   0.754   5.800 -0.3422 -0.5060  0.2094
 6394SOL    HW130644   1.519   0.686   5.785  0.5972  1.0076 -2.6011
 6394SOL    HW230645   1.408   0.744   5.716  1.7417 -0.6260 -0.9186
 6395SOL     OW30646   2.295   3.715   5.214  0.4903  0.0047 -0.7204
 6395SOL    HW130647   2.248   3.669   5.283 -0.8791  2.1491 -0.2538
 6395SOL    HW230648   2.380   3.726   5.257 -0.1059  2.8551 -0.2939
 6396SOL     OW30649   1.120   3.666   3.948 -0.0325 -0.4019 -0.1714
 6396SOL    HW130650   1.042   3.706   3.909 -0.9122  0.2406  2.2633
 6396SOL    HW230651   1.188   3.701   3.891  1.0689 -0.3046  1.2038
 6397SOL     OW30652   3.214   3.342  11.868 -0.0318 -0.4131  0.0087
 6397SOL    HW130653   3.194   3.288  11.792  0.9808 -0.6724 -0.0627
 6397SOL    HW230654   3.237   3.277  11.934 -0.3015  1.6769  2.1802
 6398SOL     OW30655   2.955   0.572   8.604 -0.4348  0.3673 -0.1971
 6398SOL    HW130656   2.870   0.573   8.559 -1.2709 -1.6727  1.3521
 6398SOL    HW230657   2.925   0.520   8.678  0.9714  1.1084  0.9028
 6399SOL     OW30658   0.224   1.331   4.110 -0.1167  0.5002  0.1389
 6399SOL    HW130659   0.301   1.387   4.112  0.3007 -0.0552 -0.3057
 6399SOL    HW230660   0.213   1.304   4.019  0.2810  0.1430  0.1969
 6400SOL     OW30661   3.108   4.030   2.878  0.9316  0.0933  0.2129
 6400SOL    HW130662   3.121   4.109   2.931 -1.5274  0.6588 -0.0259
 6400SOL    HW230663   3.092   3.971   2.951  0.8456  0.6743  0.6659
 6401SOL     OW30664   0.239   0.800  11.490  0.3306  0.8746 -0.2356
 6401SOL    HW130665   0.280   0.839  11.412 -2.6511  2.0328 -1.2128
 6401SOL    HW230666   0.317   0.791  11.546 -0.1569 -0.8489  0.1632
 6402SOL     OW30667   0.438   3.402   0.307 -0.2609  0.3193 -0.3350
 6402SOL    HW130668   0.493   3.480   0.306  1.2173 -0.7350 -1.0462
 6402SOL    HW230669   0.470   3.346   0.377  2.7157 -0.0080 -1.9407
 6403SOL     OW30670   3.969   3.730   2.242  0.4699  0.1506  0.3640
 6403SOL    HW130671   3.893   3.789   2.236  1.0242  0.9393  1.2211
 6403SOL    HW230672   3.928   3.647   2.266  0.4537 -0.1633 -0.7207
 6404SOL     OW30673   1.102   2.328   3.993  0.2926  0.6622  0.3016
 6404SOL    HW130674   1.098   2.417   3.957  0.7840  0.2260 -0.8263
 6404SOL    HW230675   1.026   2.288   3.951  0.6688 -0.6490  0.8580
 6405SOL     OW30676   0.132   0.500  11.678 -0.5764  0.0701 -0.1035
 6405SOL    HW130677   0.081   0.494  11.759  1.2513  0.6956  1.1207
 6405SOL    HW230678   0.224   0.511  11.701 -0.7864  2.0427 -0.1584
 6406SOL     OW30679   4.301   2.886   8.154  0.4190  0.0293 -0.8579
 6406SOL    HW130680   4.296   2.810   8.097  1.6101  0.4447 -1.5295
 6406SOL    HW230681   4.265   2.855   8.236 -0.3786  0.4137 -1.0695
 6407SOL     OW30682   1.225   3.598   4.820  0.4297  0.7546  0.4341
 6407SOL    HW130683   1.151   3.624   4.764  2.0749 -0.4040 -2.2646
 6407SOL    HW230684   1.185   3.553   4.894  1.8063 -1.2490 -0.0468
 6408SOL     OW30685   2.116   1.103   7.202 -0.1432 -0.3524  0.5159
 6408SOL    HW130686   2.090   1.025   7.153 -2.7456  0.1179  1.1391
 6408SOL    HW230687   2.037   1.114   7.255 -0.8888 -1.5909 -0.3439
 6409SOL     OW30688   4.252   4.588   6.723  0.5546 -0.2537 -0.1120
 6409SOL    HW130689   4.331   4.575   6.670 -0.8103 -0.1053 -2.1735
 6409SOL    HW230690   4.197   4.654   6.682 -0.4622 -0.4537  0.9265
 6410SOL     OW30691   4.242   3.850   5.858  0.8240  0.4094 -0.2912
 6410SOL    HW130692   4.283   3.934   5.879  0.6053  0.5046 -0.2423
 6410SOL    HW230693   4.150   3.872   5.843 -0.2671 -2.5330  1.9561
 6411SOL     OW30694   2.647   3.216   8.872 -0.1491 -0.1735 -0.1199
 6411SOL    HW130695   2.688   3.300   8.891 -0.4145 -0.2004  0.5690
 6411SOL    HW230696   2.710   3.155   8.910  3.0491  3.3129  0.2233
 6412SOL     OW30697   3.173   0.888   6.573 -0.0642  0.4687  0.4504
 6412SOL    HW130698   3.179   0.926   6.661 -0.5224 -1.1193  1.1611
 6412SOL    HW230699   3.264   0.889   6.543 -0.6340 -0.9803 -1.3374
 6413SOL     OW30700   2.173   0.982   9.591  0.3652 -0.2418 -0.0763
 6413SOL    HW130701   2.256   0.977   9.639  0.2804 -2.2305 -0.1197
 6413SOL    HW230702   2.146   0.891   9.576 -1.9085  0.3727  0.3082
 6414SOL     OW30703   4.264   1.563   8.373 -0.0383  0.4897 -0.0043
 6414SOL    HW130704   4.197   1.611   8.324  0.3716 -0.0579 -1.1017
 6414SOL    HW230705   4.292   1.636   8.428  0.1787 -0.1860  0.7790
 6415SOL     OW30706   2.075   1.303  11.953 -0.1763 -0.0245 -0.5332
 6415SOL    HW130707   2.031   1.377  11.910 -0.1481  0.9916  1.1816
 6415SOL    HW230708   2.134   1.285  11.880 -1.5955  1.2455 -2.0189
 6416SOL     OW30709   2.450   2.051  10.382  0.9127  0.1954 -0.2166
 6416SOL    HW130710   2.473   2.110  10.311  1.4771  1.8158  1.3177
 6416SOL    HW230711   2.456   2.110  10.457  1.8385 -1.1700  0.7892
 6417SOL     OW30712   3.809   4.285   4.163  0.1777  0.1120  0.0338
 6417SOL    HW130713   3.879   4.326   4.214 -1.5483 -0.4923  2.8601
 6417SOL    HW230714   3.731   4.288   4.217  0.5357  2.2987  0.4180
 6418SOL     OW30715   4.668   3.607   2.337 -0.0216 -0.4589 -0.1614
 6418SOL    HW130716   4.696   3.667   2.269  1.4243 -1.1212 -0.1530
 6418SOL    HW230717   0.030   3.584   2.371  0.3206 -0.7434 -1.2360
 6419SOL     OW30718   1.166   3.926   4.473 -0.0538 -0.2022  1.0220
 6419SOL    HW130719   1.160   3.995   4.406  0.4004  0.9156  2.1412
 6419SOL    HW230720   1.119   3.849   4.439 -0.3942 -0.0389  1.1286
 6420SOL     OW30721   1.031   2.813  16.130 -0.0346  0.4619 -0.4007
 6420SOL    HW130722   1.028   2.718  16.145  0.1188  0.4976 -0.1507
 6420SOL    HW230723   1.000   2.824  16.040  3.3780  0.6513 -1.5588
 6421SOL     OW30724   3.532   1.875   3.856  0.2589  0.1978  0.0777
 6421SOL    HW130725   3.503   1.823   3.780 -0.2752  0.2782  0.2275
 6421SOL    HW230726   3.484   1.831   3.926 -0.7501  0.9745 -0.1318
 6422SOL     OW30727   3.338   3.499  15.778  0.0454  0.5792  0.1738
 6422SOL    HW130728   3.370   3.474  15.691  0.1284 -0.0471  0.3857
 6422SOL    HW230729   3.243   3.505  15.767 -0.4282 -3.5108  1.9610
 6423SOL     OW30730   1.540   4.073   1.905  0.0168  0.1122 -0.2662
 6423SOL    HW130731   1.477   4.145   1.895  0.7575  0.7515 -0.3087
 6423SOL    HW230732   1.620   4.120   1.928 -0.0795 -0.5674  1.4483
 6424SOL     OW30733   2.652   0.780   4.065 -0.1060  0.1466 -0.1613
 6424SOL    HW130734   2.692   0.778   3.978 -0.0959  0.9970 -0.1813
 6424SOL    HW230735   2.605   0.863   4.072  1.3101  0.8468  0.8691
 6425SOL     OW30736   1.003   3.228   6.801  0.9105 -1.0510 -0.4179
 6425SOL    HW130737   1.049   3.173   6.865 -1.2901 -0.9520  1.2192
 6425SOL    HW230738   1.076   3.265   6.751  0.2069  1.4963  0.4747
 6426SOL     OW30739   3.695   4.161  12.324 -0.5557 -0.0958  0.2876
 6426SOL    HW130740   3.767   4.168  12.387 -0.6304 -0.2055  0.3855
 6426SOL    HW230741   3.663   4.251  12.318 -2.0537 -0.6313  0.1651
 6427SOL     OW30742   0.751   0.845   9.383  0.4910  0.1731 -0.1474
 6427SOL    HW130743   0.772   0.764   9.337 -1.0805 -0.0529 -0.4829
 6427SOL    HW230744   0.837   0.879   9.407  0.7664  1.0973 -2.4466
 6428SOL     OW30745   1.844   1.103   8.903  0.1900  0.4769 -0.1726
 6428SOL    HW130746   1.867   1.192   8.875  2.6698  0.6091  2.2922
 6428SOL    HW230747   1.915   1.084   8.964  0.0632  2.2781  0.5228
 6429SOL     OW30748   1.685   1.839   4.732  0.6505  0.0191  0.3042
 6429SOL    HW130749   1.760   1.782   4.715 -0.7465 -1.6451 -0.3352
 6429SOL    HW230750   1.645   1.783   4.798  1.7680 -0.9776  0.1313
 6430SOL     OW30751   2.987   3.275  14.860 -0.8031  0.7847  0.5686
 6430SOL    HW130752   2.954   3.311  14.777 -0.3795 -0.0456  0.0386
 6430SOL    HW230753   2.980   3.181  14.844 -1.0393  0.7656  0.7796
 6431SOL     OW30754   4.157   4.547  13.612 -0.4368 -0.0284  0.8462
 6431SOL    HW130755   4.120   4.503  13.688  0.4510 -3.1312 -0.5173
 6431SOL    HW230756   4.228   4.592  13.657  0.9229 -0.9328 -0.4028
 6432SOL     OW30757   1.544   3.476   4.248  0.0301  0.3734  0.1170
 6432SOL    HW130758   1.502   3.414   4.308 -0.7439 -1.3962 -2.2467
 6432SOL    HW230759   1.459   3.496   4.210 -0.4081 -1.7712 -0.0211
 6433SOL     OW30760   4.304   2.461   6.986 -0.6910 -0.1257  0.5640
 6433SOL    HW130761   4.356   2.385   6.960  0.7302 -0.1187  3.3844
 6433SOL    HW230762   4.281   2.444   7.078 -0.3109  0.8380  0.8338
 6434SOL     OW30763   0.373   0.094   2.905  0.2375 -0.1896  0.1218
 6434SOL    HW130764   0.468   0.107   2.896  0.8557 -3.0753  2.2074
 6434SOL    HW230765   0.360   0.021   2.844 -0.1610 -1.3671  1.6259
 6435SOL     OW30766   4.430   3.006   3.573 -0.0531  0.0328  0.3505
 6435SOL    HW130767   4.425   3.003   3.477  1.2045 -1.6868  0.3250
 6435SOL    HW230768   4.336   3.002   3.588  0.2061  0.5491  2.0908
 6436SOL     OW30769   3.217   3.922  11.775 -0.2472 -0.2431  0.5022
 6436SOL    HW130770   3.260   3.959  11.853 -0.5161  1.4006 -0.1423
 6436SOL    HW230771   3.292   3.920  11.716 -0.4904 -2.6257  0.2705
 6437SOL     OW30772   4.193   0.525   2.776  0.3776 -0.5793 -0.0749
 6437SOL    HW130773   4.223   0.530   2.867 -1.9245  3.4531  0.4562
 6437SOL    HW230774   4.239   0.445   2.751  1.1427 -0.5934  1.3404
 6438SOL     OW30775   4.331   0.116   4.692  1.3843  0.5023  0.5484
 6438SOL    HW130776   4.426   0.121   4.692  1.3170  1.6463  1.7071
 6438SOL    HW230777   4.309   0.037   4.742 -0.2963  1.2406  0.9888
 6439SOL     OW30778   3.844   2.202  10.145 -0.0972  0.3427  0.1008
 6439SOL    HW130779   3.913   2.136  10.160 -0.3572  0.3053  1.1438
 6439SOL    HW230780   3.809   2.175  10.060 -1.4094 -1.6864  1.2831
 6440SOL     OW30781   3.063   2.529   3.861  0.0349 -0.4252 -0.0751
 6440SOL    HW130782   3.022   2.457   3.909  1.8068 -0.1989  1.8016
 6440SOL    HW230783   3.145   2.541   3.908 -0.4014 -0.3711  0.6709
 6441SOL     OW30784   2.775   1.893   7.008 -0.6171  0.0866 -0.1014
 6441SOL    HW130785   2.806   1.875   7.097  0.7459 -1.4886 -0.8890
 6441SOL    HW230786   2.768   1.801   6.982 -1.4797  0.4569 -1.1548
 6442SOL     OW30787   0.472   0.303  11.185 -0.2116  0.5069 -0.1326
 6442SOL    HW130788   0.399   0.355  11.217 -0.2171  0.0704  0.5784
 6442SOL    HW230789   0.418   0.234  11.148  1.7093  0.4625 -2.8473
 6443SOL     OW30790   1.630   0.969  14.044 -0.5280  0.4476  0.2810
 6443SOL    HW130791   1.606   0.905  14.111  1.0270  1.6898  2.0247
 6443SOL    HW230792   1.545   1.009  14.028 -0.7134 -0.6353 -1.4704
 6444SOL     OW30793   4.007   0.514   8.439 -0.1288  0.1062  0.1447
 6444SOL    HW130794   3.922   0.511   8.394  0.8512  0.5897 -1.7822
 6444SOL    HW230795   4.029   0.607   8.427 -1.0686  0.4462  1.0524
 6445SOL     OW30796   4.582   4.471   5.882  0.0071 -0.3130  0.8337
 6445SOL    HW130797   4.498   4.515   5.899 -0.4912 -0.8364 -0.2783
 6445SOL    HW230798   4.637   4.528   5.935  0.0659  0.5173 -0.1014
 6446SOL     OW30799   1.851   1.953  15.417 -0.1112  0.0898 -0.2091
 6446SOL    HW130800   1.886   1.870  15.386  0.0246 -0.6113  1.8635
 6446SOL    HW230801   1.834   1.993  15.332  2.2983 -0.9794 -1.1948
 6447SOL     OW30802   4.475   3.676   5.008  0.4118 -0.2263  0.2815
 6447SOL    HW130803   4.466   3.617   4.933 -1.4544 -0.3241  0.5665
 6447SOL    HW230804   4.521   3.615   5.065  2.6435  1.5631  0.3640
 6448SOL     OW30805   1.084   0.250  10.939 -0.5345  0.4007 -0.2974
 6448SOL    HW130806   1.102   0.165  10.900 -1.1964  0.8920 -1.6799
 6448SOL    HW230807   0.998   0.234  10.977  0.8404 -1.1592  2.1329
 6449SOL     OW30808   3.178   2.076   6.749  0.7516 -0.2655  0.3082
 6449SOL    HW130809   3.141   2.055   6.834 -0.6140 -0.1570 -0.2553
 6449SOL    HW230810   3.182   2.172   6.749  2.0311 -0.3193 -2.0161
 6450SOL     OW30811   3.977   2.419   1.010 -0.3594 -0.3779 -0.3534
 6450SOL    HW130812   4.042   2.421   1.080 -3.4001 -0.7124  2.4944
 6450SOL    HW230813   3.985   2.509   0.978  0.7743 -0.0607  0.8399
 6451SOL     OW30814   4.268   4.133   2.189  0.0797  0.4262 -0.2007
 6451SOL    HW130815   4.325   4.085   2.130  1.1485 -1.5683  2.4775
 6451SOL    HW230816   4.192   4.075   2.195  1.7679 -1.9877 -2.4881
 6452SOL     OW30817   0.442   2.063   8.587 -0.0722 -0.0644  0.4500
 6452SOL    HW130818   0.508   2.128   8.563 -2.7202  2.1116 -1.0373
 6452SOL    HW230819   0.447   2.056   8.683 -1.3923  0.8583  0.5878
 6453SOL     OW30820   2.625   0.074   1.138  0.2186 -0.5032  0.0018
 6453SOL    HW130821   2.531   0.088   1.127  0.2717 -0.6928 -0.6550
 6453SOL    HW230822   2.675   0.095   1.059 -1.8374  2.3148 -0.5536
 6454SOL     OW30823   0.222   0.874   7.370  0.1338  0.6052 -0.0166
 6454SOL    HW130824   0.295   0.837   7.421  1.7368  1.2862 -1.8105
 6454SOL    HW230825   0.186   0.795   7.330 -0.6327 -0.2769  2.4081
 6455SOL     OW30826   3.639   1.872   6.044 -0.4736  0.5535  0.0833
 6455SOL    HW130827   3.586   1.951   6.049 -0.8138  0.2883  0.7015
 6455SOL    HW230828   3.630   1.848   5.952 -1.1629 -1.6465  0.7108
 6456SOL     OW30829   0.819   4.142   8.635  0.0979 -0.2944  0.7356
 6456SOL    HW130830   0.877   4.194   8.579 -0.1820 -0.3045  0.4340
 6456SOL    HW230831   0.793   4.204   8.703  0.4486  0.4611  0.1809
 6457SOL     OW30832   0.678   4.143   6.996  0.8500 -0.1759  0.3321
 6457SOL    HW130833   0.686   4.050   6.974  1.2671 -0.2975  1.0138
 6457SOL    HW230834   0.591   4.147   7.035  1.5810  1.6069  1.7494
 6458SOL     OW30835   1.516   4.280   3.939 -0.2995 -0.0501 -0.8704
 6458SOL    HW130836   1.469   4.279   3.855 -1.5886  0.9422 -0.1613
 6458SOL    HW230837   1.522   4.373   3.963  0.4435 -0.3730  0.1656
 6459SOL     OW30838   2.274   0.411   2.095 -0.0253  0.3431 -0.2698
 6459SOL    HW130839   2.238   0.380   2.012 -2.5735 -0.8370  1.2704
 6459SOL    HW230840   2.357   0.442   2.059  0.8941  1.8275  3.1197
 6460SOL     OW30841   1.344   0.860   6.696  0.2985  0.5264 -0.3203
 6460SOL    HW130842   1.325   0.953   6.687 -0.3950  0.6062  2.0753
 6460SOL    HW230843   1.365   0.828   6.608 -1.1448 -0.1420 -0.4128
 6461SOL     OW30844   2.007   2.544   4.010 -0.7883  0.0263 -0.1885
 6461SOL    HW130845   2.059   2.465   3.998 -0.9236 -0.6266  3.4935
 6461SOL    HW230846   2.073   2.611   3.991 -0.1569 -0.5262  0.0756
 6462SOL     OW30847   2.645   1.744   2.283 -0.1909 -0.2890  0.2466
 6462SOL    HW130848   2.691   1.674   2.237 -0.5290  0.3570 -1.0629
 6462SOL    HW230849   2.587   1.696   2.343  0.0545  0.4826  1.1045
 6463SOL     OW30850   0.989   3.692   6.477 -0.3516 -0.2260 -0.2813
 6463SOL    HW130851   1.074   3.700   6.435  0.2374  0.5435  1.0629
 6463SOL    HW230852   1.003   3.729   6.564 -0.9255 -1.8070  0.4735
 6464SOL     OW30853   4.416   2.212   3.083  0.2207 -0.1767 -0.0060
 6464SOL    HW130854   4.410   2.308   3.089 -1.3654 -0.1813 -1.4613
 6464SOL    HW230855   4.377   2.177   3.163  1.9614 -0.6517  0.6333
 6465SOL     OW30856   3.163   0.526   5.504 -0.3067 -0.1366 -0.3594
 6465SOL    HW130857   3.222   0.585   5.458 -0.1698  0.6116  0.7765
 6465SOL    HW230858   3.145   0.464   5.432 -0.4785  0.7108 -1.0487
 6466SOL     OW30859   0.615   3.223  17.517  0.2071  0.3023  0.3637
 6466SOL    HW130860   0.529   3.204  17.478  0.5078 -1.1414  0.3908
 6466SOL    HW230861   0.589   3.287  17.582 -0.4836 -3.4969  3.8510
 6467SOL     OW30862   2.348   3.773   3.210  0.2911 -0.2816  0.1122
 6467SOL    HW130863   2.305   3.718   3.275  0.2415  2.5898  2.5132
 6467SOL    HW230864   2.321   3.747   3.122  1.9109 -1.0401 -0.1696
 6468SOL     OW30865   0.035   0.081   2.262 -0.7424 -0.4328 -0.4144
 6468SOL    HW130866   4.683   0.129   2.230  0.5327  2.2626  0.5031
 6468SOL    HW230867   0.078   0.153   2.309 -0.8831 -1.8659  1.9343
 6469SOL     OW30868   3.310   0.296  16.340  0.3753 -0.1107  0.3897
 6469SOL    HW130869   3.245   0.364  16.322 -0.0964 -0.3247  1.2972
 6469SOL    HW230870   3.371   0.343  16.397 -0.2111 -0.9457  1.6787
 6470SOL     OW30871   1.156   1.224   3.386 -0.4042  0.5183  0.0592
 6470SOL    HW130872   1.200   1.179   3.314 -1.2151  0.0366 -0.1309
 6470SOL    HW230873   1.063   1.221   3.365 -0.2877  0.0983 -0.3808
 6471SOL     OW30874   1.001   1.881   5.547 -0.2830  0.1946 -0.1190
 6471SOL    HW130875   0.955   1.830   5.480  0.0313 -0.2192 -0.0170
 6471SOL    HW230876   0.952   1.853   5.624  1.8563  0.5557  1.3666
 6472SOL     OW30877   3.808   0.964   0.789 -0.0864 -0.0540  0.6635
 6472SOL    HW130878   3.887   0.941   0.741 -0.3416 -0.0095  0.2124
 6472SOL    HW230879   3.847   1.019   0.856  1.6514  0.2728 -0.6070
 6473SOL     OW30880   2.212   3.293   8.128 -0.8790 -0.0853 -0.6273
 6473SOL    HW130881   2.171   3.305   8.213  1.1358  3.4029 -0.1376
 6473SOL    HW230882   2.239   3.203   8.147 -1.1454 -0.1277 -0.4603
 6474SOL     OW30883   0.389   1.864   2.592  0.0800  0.4378 -0.0601
 6474SOL    HW130884   0.364   1.799   2.527 -0.7931  1.7566 -1.0451
 6474SOL    HW230885   0.480   1.883   2.569 -0.2612  1.4237 -0.5989
 6475SOL     OW30886   2.053   1.631   1.023  0.0788 -0.5074 -0.4802
 6475SOL    HW130887   2.134   1.579   1.031  0.2410 -0.4373 -1.6664
 6475SOL    HW230888   2.077   1.711   1.069  2.4285 -0.3627 -1.9623
 6476SOL     OW30889   0.927   3.903   8.706  0.2272  0.0706  0.4868
 6476SOL    HW130890   0.988   3.881   8.636 -1.5943 -1.3191 -0.6510
 6476SOL    HW230891   0.897   3.990   8.681  1.3923  0.6953  1.2427
 6477SOL     OW30892   3.950   4.553  12.002 -0.0088 -0.1587  0.2460
 6477SOL    HW130893   4.038   4.585  12.020 -1.0482  1.3425  2.6034
 6477SOL    HW230894   3.912   4.555  12.090 -0.6057  1.7367 -0.0428
 6478SOL     OW30895   3.638   4.633   3.808  0.1199  0.1898 -0.0148
 6478SOL    HW130896   3.615   4.647   3.716 -0.6795  0.3753  0.2152
 6478SOL    HW230897   3.568   4.681   3.851  0.3892 -0.2979  0.9671
 6479SOL     OW30898   2.410   1.680   8.465 -0.2121 -0.1038 -0.8474
 6479SOL    HW130899   2.396   1.643   8.378 -0.1823 -0.6104 -0.6375
 6479SOL    HW230900   2.470   1.611   8.495 -1.1369 -0.2089  0.7695
 6480SOL     OW30901   0.298   3.457   8.729  1.0684  0.3629 -0.6464
 6480SOL    HW130902   0.311   3.373   8.772 -1.2785  0.5243  0.3645
 6480SOL    HW230903   0.359   3.510   8.780  1.1430 -0.1086 -0.2439
 6481SOL     OW30904   1.807   0.924  12.272  0.1888 -0.3787  0.1989
 6481SOL    HW130905   1.857   0.993  12.230 -0.6373  1.2900  1.9458
 6481SOL    HW230906   1.778   0.966  12.353 -2.1432 -0.9727 -0.3169
 6482SOL     OW30907   1.860   3.132  17.466 -0.0070 -0.0887  0.0409
 6482SOL    HW130908   1.913   3.211  17.480  1.2735 -0.5841 -1.9831
 6482SOL    HW230909   1.775   3.173  17.479 -0.5634  0.3635 -4.8581
 6483SOL     OW30910   4.585   0.318   8.339  0.1112 -0.6105  0.1020
 6483SOL    HW130911   4.671   0.340   8.375 -1.0107  2.6548  0.7900
 6483SOL    HW230912   4.524   0.369   8.392 -0.6914  0.5475 -1.9659
 6484SOL     OW30913   4.711   3.313   7.617 -0.6338 -0.5614 -0.0676
 6484SOL    HW130914   0.079   3.334   7.630 -0.5256 -1.7096  1.0666
 6484SOL    HW230915   4.670   3.340   7.699 -0.3913 -3.0016  0.8514
 6485SOL     OW30916   3.266   3.053   4.085  0.3296 -0.2324  0.0447
 6485SOL    HW130917   3.359   3.069   4.094  0.4564 -1.0356  0.1913
 6485SOL    HW230918   3.264   2.990   4.013 -0.9992 -0.6741  0.4497
 6486SOL     OW30919   3.463   1.629   2.787 -0.3024  0.0615  0.8128
 6486SOL    HW130920   3.438   1.629   2.695 -1.1634 -2.0042  1.0398
 6486SOL    HW230921   3.458   1.722   2.808  1.4603  0.1864  0.6194
 6487SOL     OW30922   3.899   4.128   3.955 -0.0905  0.3000 -0.5193
 6487SOL    HW130923   3.823   4.162   3.908  0.3694 -0.0846 -1.5512
 6487SOL    HW230924   3.879   4.172   4.038 -0.6748 -1.6416  0.3544
 6488SOL     OW30925   3.828   0.381   8.167 -0.1003  0.2421 -0.1398
 6488SOL    HW130926   3.816   0.475   8.150 -0.3291  0.2460  0.0530
 6488SOL    HW230927   3.896   0.359   8.103 -0.0881 -0.6647  0.1945
 6489SOL     OW30928   0.444   1.696   5.807 -0.4176  0.6950 -0.0974
 6489SOL    HW130929   0.489   1.631   5.861  0.3039 -1.2687 -3.0209
 6489SOL    HW230930   0.376   1.737   5.861 -0.0997  0.6589  0.3292
 6490SOL     OW30931   0.582   2.729  17.188  0.2294 -0.0985 -0.0381
 6490SOL    HW130932   0.586   2.771  17.102 -1.0733 -1.9161 -0.9825
 6490SOL    HW230933   0.504   2.770  17.224 -0.2574 -0.1256 -1.0595
 6491SOL     OW30934   3.011   1.866   8.239 -0.1600 -0.3973  0.0862
 6491SOL    HW130935   2.921   1.835   8.251 -0.6784  0.7873 -0.7609
 6491SOL    HW230936   3.061   1.787   8.258 -0.3991 -1.0049 -1.8431
 6492SOL     OW30937   1.506   3.998  13.842  0.0859 -0.5146 -0.1961
 6492SOL    HW130938   1.592   4.035  13.862  0.7162 -1.2952 -1.4771
 6492SOL    HW230939   1.501   3.927  13.906  1.8513 -0.2969  0.1796
 6493SOL     OW30940   2.404   1.122   6.722  0.3359 -0.0845  0.4760
 6493SOL    HW130941   2.378   1.052   6.781 -0.1157  0.1821  0.5985
 6493SOL    HW230942   2.482   1.158   6.763  0.3020  2.3989 -1.6175
 6494SOL     OW30943   1.242   4.350   4.569  0.3717  0.0639 -0.0609
 6494SOL    HW130944   1.251   4.310   4.482  1.5226  0.0275  0.0700
 6494SOL    HW230945   1.328   4.365   4.609 -0.5952  2.8867  0.9338
 6495SOL     OW30946   2.082   2.266   2.705  0.0724  0.3463  0.2119
 6495SOL    HW130947   2.150   2.220   2.754 -0.1450  1.6571  1.7550
 6495SOL    HW230948   2.031   2.292   2.782 -0.5998 -0.1970 -0.0518
 6496SOL     OW30949   3.155   1.785   1.779  0.1796 -0.0398  0.1283
 6496SOL    HW130950   3.124   1.860   1.729 -0.5829 -0.2228  0.3236
 6496SOL    HW230951   3.097   1.713   1.755 -0.6177  0.1941  1.3606
 6497SOL     OW30952   2.123   4.659   9.308  0.2881  0.6087  0.5647
 6497SOL    HW130953   2.162   0.022   9.312  1.8607 -0.2401  3.1853
 6497SOL    HW230954   2.167   4.624   9.385 -0.2890  0.7801  0.9803
 6498SOL     OW30955   0.493   1.911   7.463 -0.1489 -0.2296 -0.1295
 6498SOL    HW130956   0.549   1.838   7.439  0.5596 -0.2683  1.6469
 6498SOL    HW230957   0.453   1.887   7.547 -1.6496  0.7495 -0.5644
 6499SOL     OW30958   0.859   0.713   7.667 -0.2490  0.7170 -0.2757
 6499SOL    HW130959   0.891   0.721   7.756 -0.2807 -0.7895 -0.1238
 6499SOL    HW230960   0.786   0.651   7.679  0.8498 -0.3163  1.1109
 6500SOL     OW30961   2.640   1.481   3.916  0.5239  0.3502  0.3557
 6500SOL    HW130962   2.732   1.456   3.913  0.3188 -0.4733  0.9570
 6500SOL    HW230963   2.647   1.512   4.007 -1.2817  2.2958 -0.1825
 6501SOL     OW30964   1.696   2.669   5.537  0.0183  0.1565 -0.7349
 6501SOL    HW130965   1.626   2.732   5.552  1.4484  2.3157 -3.1067
 6501SOL    HW230966   1.742   2.714   5.466 -1.1357 -0.6822 -2.0023
 6502SOL     OW30967   1.403   0.699   8.984 -0.1029 -0.3683 -0.3966
 6502SOL    HW130968   1.404   0.792   8.961 -1.2309 -0.1212  0.5900
 6502SOL    HW230969   1.483   0.696   9.036  1.2627 -1.2376 -2.5304
 6503SOL     OW30970   0.445   0.998  11.917 -0.2110  0.1095 -0.5236
 6503SOL    HW130971   0.496   1.061  11.867 -0.7110  0.7192 -0.2661
 6503SOL    HW230972   0.361   1.017  11.876 -0.8752 -1.4096  0.1028
 6504SOL     OW30973   4.166   1.783   7.429  0.4319 -0.1689  0.0624
 6504SOL    HW130974   4.140   1.873   7.410 -0.3787 -0.0973  1.5436
 6504SOL    HW230975   4.213   1.793   7.512 -0.5346  0.5398  0.5286
 6505SOL     OW30976   2.156   4.378   6.282 -0.4964  0.3578  0.1859
 6505SOL    HW130977   2.114   4.421   6.207  1.6049  1.5656 -0.2824
 6505SOL    HW230978   2.247   4.392   6.255 -0.3854  1.8327  1.3827
 6506SOL     OW30979   0.622   3.479   2.045  0.8373 -0.2064 -0.0441
 6506SOL    HW130980   0.708   3.479   2.087  1.7459 -2.7138 -1.8819
 6506SOL    HW230981   0.635   3.411   1.979 -1.8436 -1.5420  0.8107
 6507SOL     OW30982   3.271   3.607   3.411 -0.3003  0.2604  0.3408
 6507SOL    HW130983   3.365   3.595   3.425 -0.3736 -0.9306 -0.1890
 6507SOL    HW230984   3.268   3.655   3.329 -0.1638 -2.2249 -1.1250
 6508SOL     OW30985   3.039   4.716   5.122  0.7483  0.0926 -0.4295
 6508SOL    HW130986   3.100   0.001   5.195  0.3433  0.2263 -0.1038
 6508SOL    HW230987   2.957   4.705   5.171  0.6038  0.4549 -0.5915
 6509SOL     OW30988   3.756   0.212   8.913 -0.0284  0.1614 -0.2679
 6509SOL    HW130989   3.738   0.279   8.847 -0.9092 -0.8348 -1.0268
 6509SOL    HW230990   3.739   0.245   9.002 -1.0026  0.3778 -0.5352
 6510SOL     OW30991   2.824   2.340   4.396 -0.0486 -0.4361 -0.2857
 6510SOL    HW130992   2.837   2.248   4.375  0.7239 -0.2793 -0.5145
 6510SOL    HW230993   2.754   2.373   4.341 -0.5416 -1.2748 -0.1565
 6511SOL     OW30994   0.971   1.222  16.336  0.1688  0.0231  0.2847
 6511SOL    HW130995   0.899   1.268  16.293  0.0102 -1.2129 -0.7756
 6511SOL    HW230996   1.027   1.293  16.366 -0.0988 -0.5267  2.0987
 6512SOL     OW30997   3.781   2.213   3.331  0.1018  0.1194  0.2245
 6512SOL    HW130998   3.821   2.275   3.391  1.6869 -0.6180 -0.0630
 6512SOL    HW230999   3.696   2.206   3.374  0.2526  1.7451  0.7783
 6513SOL     OW31000   0.369   4.241   5.965  0.1280  0.0007 -0.0320
 6513SOL    HW131001   0.357   4.148   5.987 -1.6051  0.6303  1.6603
 6513SOL    HW231002   0.421   4.226   5.885 -0.3699 -1.0651 -0.1591
 6514SOL     OW31003   0.262   2.938   7.459  0.3060  0.1311 -0.4591
 6514SOL    HW131004   0.337   2.880   7.463  1.0051  0.9323 -2.0368
 6514SOL    HW231005   0.224   2.912   7.543  0.1858  0.3278 -0.4511
 6515SOL     OW31006   3.979   4.433   3.929  0.7010  0.1313  0.2979
 6515SOL    HW131007   3.917   4.436   4.003 -0.3783 -0.8743 -0.5531
 6515SOL    HW231008   4.038   4.505   3.947  0.4794  0.5242 -0.5669
 6516SOL     OW31009   0.356   3.831   3.395 -0.4476 -0.1595 -0.4436
 6516SOL    HW131010   0.310   3.809   3.476  0.6669  0.2435  0.2949
 6516SOL    HW231011   0.319   3.760   3.343  0.6265 -2.2792  1.6764
 6517SOL     OW31012   3.986   0.855  15.843  0.7789 -0.0023  0.0491
 6517SOL    HW131013   3.894   0.881  15.838  0.7308 -0.3188 -0.7638
 6517SOL    HW231014   4.000   0.798  15.767  2.8291 -0.2483  0.6085
 6518SOL     OW31015   0.549   3.950  10.157 -1.0091 -0.3893 -0.1635
 6518SOL    HW131016   0.527   3.858  10.141 -1.0714 -0.3512 -0.2905
 6518SOL    HW231017   0.631   3.950  10.107  0.6207 -0.0115  2.5052
 6519SOL     OW31018   2.234   2.454   3.315  0.6120  0.0960 -0.4255
 6519SOL    HW131019   2.215   2.406   3.234  1.1948  1.2234 -1.2278
 6519SOL    HW231020   2.208   2.545   3.303 -0.2666 -0.0125  0.6112
 6520SOL     OW31021   4.446   3.280   8.787  0.3388  0.3194  0.1857
 6520SOL    HW131022   4.353   3.257   8.792  1.1392 -3.2450 -0.7914
 6520SOL    HW231023   4.441   3.360   8.735 -1.0379 -0.3687 -0.7576
 6521SOL     OW31024   1.623   0.578   9.588  0.0820  0.4229 -0.6997
 6521SOL    HW131025   1.647   0.613   9.674  0.1245 -0.8781 -0.1809
 6521SOL    HW231026   1.612   0.489   9.621 -0.7750 -1.2258 -5.3746
 6522SOL     OW31027   0.154   2.310  12.193  0.0526 -0.1073  0.2255
 6522SOL    HW131028   0.128   2.231  12.146  2.0809 -1.6293  1.6931
 6522SOL    HW231029   0.166   2.369  12.118 -0.6634 -0.6396 -0.3099
 6523SOL     OW31030   1.237   3.924   7.646  0.4993 -0.7753 -0.8280
 6523SOL    HW131031   1.165   3.879   7.690 -0.8752  0.9827 -1.2688
 6523SOL    HW231032   1.235   4.016   7.673 -0.2408 -1.1277  0.2861
 6524SOL     OW31033   0.697   1.010  15.402 -0.1528  0.3144 -0.1055
 6524SOL    HW131034   0.676   0.958  15.480  2.3272 -0.0464  0.3086
 6524SOL    HW231035   0.615   1.055  15.380 -0.3727 -0.9696 -1.9325
 6525SOL     OW31036   3.805   2.311  11.405  0.1434 -0.2342 -0.6532
 6525SOL    HW131037   3.823   2.283  11.495  1.4418 -0.7095 -1.0598
 6525SOL    HW231038   3.721   2.270  11.386 -0.2240 -1.1059  2.8301
 6526SOL     OW31039   2.994   4.014  11.946  0.2507  0.1320 -0.2574
 6526SOL    HW131040   2.918   3.987  11.997  0.4321 -0.3176 -0.2233
 6526SOL    HW231041   2.958   4.019  11.857 -1.1053  2.1442  0.4124
 6527SOL     OW31042   1.449   3.039  14.056  0.0291 -0.5600  0.0156
 6527SOL    HW131043   1.433   3.064  14.147  0.6100  2.3705 -0.6867
 6527SOL    HW231044   1.544   3.036  14.049  0.2033  0.3984  1.9165
 6528SOL     OW31045   2.254   1.884   6.768  0.5977 -0.4771 -0.0861
 6528SOL    HW131046   2.167   1.875   6.806  1.3458  2.1141  2.1737
 6528SOL    HW231047   2.249   1.954   6.703 -0.3880  1.8572  2.5222
 6529SOL     OW31048   1.355   0.321   4.962  0.1883 -0.1711 -0.1709
 6529SOL    HW131049   1.326   0.354   4.877 -0.4234  1.2191  0.5688
 6529SOL    HW231050   1.297   0.244   4.963  0.3812 -0.3266 -1.5377
 6530SOL     OW31051   3.786   4.679   1.087  0.5139 -0.3364 -0.5526
 6530SOL    HW131052   3.806   4.722   1.004 -1.6038 -2.5917 -2.2498
 6530SOL    HW231053   3.787   0.035   1.139  0.7522 -0.4292 -0.4168
 6531SOL     OW31054   1.510   0.501   7.013 -0.1761  0.9113 -0.0960
 6531SOL    HW131055   1.496   0.552   6.933 -0.1391  0.9927 -0.0503
 6531SOL    HW231056   1.605   0.512   7.012  0.0571 -1.0338 -0.0628
 6532SOL     OW31057   1.087   3.106   0.907 -0.4636  0.1563  0.2886
 6532SOL    HW131058   1.040   3.046   0.849 -1.1352  1.2670 -0.3088
 6532SOL    HW231059   1.018   3.166   0.935 -0.6313  0.5412 -0.9603
 6533SOL     OW31060   1.114   3.234   6.407 -0.7803  0.4246  0.0535
 6533SOL    HW131061   1.107   3.325   6.436 -0.9821 -0.0112  1.3564
 6533SOL    HW231062   1.061   3.204   6.481 -0.0660  0.6222  0.6386
 6534SOL     OW31063   3.638   3.475   3.104 -0.6663 -0.2932  0.4808
 6534SOL    HW131064   3.649   3.491   3.197  0.2005 -0.8631  0.4755
 6534SOL    HW231065   3.615   3.566   3.085 -1.5486 -0.4601  0.7250
 6535SOL     OW31066   1.658   0.920   5.863 -0.1836  0.3712  0.2107
 6535SOL    HW131067   1.578   0.869   5.858  0.2464 -0.3300  0.4292
 6535SOL    HW231068   1.633   1.002   5.821 -2.6339 -0.2956  0.3516
 6536SOL     OW31069   4.537   1.937   3.890  0.1223  0.2429 -1.0202
 6536SOL    HW131070   4.614   1.976   3.849  1.3027  1.5474  2.4173
 6536SOL    HW231071   4.550   1.843   3.873  3.0438  0.3416  0.6372
 6537SOL     OW31072   4.101   3.175   6.277  0.2334 -0.3213  0.0014
 6537SOL    HW131073   4.048   3.250   6.305  0.9393  0.5320 -0.9331
 6537SOL    HW231074   4.043   3.102   6.255  1.4520 -0.7063 -1.8941
 6538SOL     OW31075   1.153   0.641   3.376 -0.2646 -0.0443 -0.2112
 6538SOL    HW131076   1.127   0.718   3.427  0.1830 -0.1417  0.1659
 6538SOL    HW231077   1.079   0.581   3.384 -0.2422 -0.0387  0.0287
 6539SOL     OW31078   2.785   2.755  11.884 -0.2394  0.1187  0.5831
 6539SOL    HW131079   2.718   2.813  11.920 -0.7695  0.1175 -0.4107
 6539SOL    HW231080   2.863   2.786  11.929  0.0920  1.0943 -0.6783
 6540SOL     OW31081   0.307   3.078   9.028 -0.2632 -0.3685  0.2831
 6540SOL    HW131082   0.364   3.121   9.092 -0.5878 -1.7438  1.4995
 6540SOL    HW231083   0.278   2.997   9.070 -0.1477 -1.1580 -1.1163
 6541SOL     OW31084   4.025   2.252   6.816  0.1634 -0.2023  0.4559
 6541SOL    HW131085   3.974   2.185   6.861 -2.8371 -1.1262 -4.3068
 6541SOL    HW231086   3.964   2.285   6.749  0.9279 -1.4861 -0.8547
 6542SOL     OW31087   3.710   0.506   8.766 -0.1385  0.0727 -0.2747
 6542SOL    HW131088   3.634   0.485   8.711  1.5776 -3.7944 -1.2203
 6542SOL    HW231089   3.668   0.568   8.826 -0.9039 -1.4176  0.7460
 6543SOL     OW31090   1.432   2.882   8.717  0.0425 -0.2795 -0.4770
 6543SOL    HW131091   1.395   2.863   8.803  2.8414  1.5417  1.1269
 6543SOL    HW231092   1.377   2.953   8.684 -0.2333 -0.3565 -0.1773
 6544SOL     OW31093   0.163   0.615   7.282 -0.1499  0.5713 -0.0902
 6544SOL    HW131094   0.081   0.595   7.328  0.3118 -0.0815  0.4573
 6544SOL    HW231095   0.203   0.528   7.282 -1.8158 -0.1918 -0.9419
 6545SOL     OW31096   4.417   2.299   4.026 -0.3797 -0.3276 -0.9333
 6545SOL    HW131097   4.387   2.229   3.968 -0.3064  0.5374 -2.0158
 6545SOL    HW231098   4.352   2.295   4.096  1.3320  0.4069  0.6799
 6546SOL     OW31099   1.749   2.482   9.248  0.6417  0.1033  0.6523
 6546SOL    HW131100   1.763   2.393   9.281  0.2572  0.4458  1.7311
 6546SOL    HW231101   1.765   2.465   9.155  1.4482  0.7145  0.6766
 6547SOL     OW31102   4.240   1.278   6.701 -0.7839  0.0118 -0.7110
 6547SOL    HW131103   4.289   1.208   6.746 -0.1223 -0.3788 -2.0239
 6547SOL    HW231104   4.306   1.341   6.674  0.9644 -0.7747  1.7457
 6548SOL     OW31105   2.513   3.079   4.252  0.7273  0.0789  0.3917
 6548SOL    HW131106   2.543   3.049   4.166  1.6082  0.3185  0.6107
 6548SOL    HW231107   2.515   3.175   4.247  0.8332 -0.0098 -1.1763
 6549SOL     OW31108   1.916   1.358  17.297 -0.1089  0.0531 -0.2117
 6549SOL    HW131109   1.857   1.330  17.227 -1.0116  3.0776 -0.6910
 6549SOL    HW231110   1.859   1.357  17.373 -2.0541 -0.1225 -1.6599
 6550SOL     OW31111   1.375   2.496   1.114  0.3772 -0.0579 -0.1377
 6550SOL    HW131112   1.421   2.576   1.090 -1.6877  0.9725 -0.6537
 6550SOL    HW231113   1.304   2.503   1.051 -1.6802  1.4183  2.3221
 6551SOL     OW31114   3.832   1.596   4.350  0.5993 -0.1901 -0.1657
 6551SOL    HW131115   3.772   1.665   4.322  1.4011  1.2631  1.7392
 6551SOL    HW231116   3.850   1.623   4.440  0.0501  0.4526 -0.2509
 6552SOL     OW31117   2.878   2.216   9.141 -0.0342 -0.2803  0.0720
 6552SOL    HW131118   2.897   2.230   9.234  2.1408  1.2757 -0.6112
 6552SOL    HW231119   2.869   2.309   9.121 -0.6290 -0.1226  1.0953
 6553SOL     OW31120   2.731   2.264   3.301  0.3440  0.2708  0.5975
 6553SOL    HW131121   2.738   2.281   3.207 -0.3703  1.1066  0.6871
 6553SOL    HW231122   2.660   2.322   3.329 -0.4223 -1.2063  1.6827
 6554SOL     OW31123   1.368   2.460   1.397 -0.4160  0.3296  1.0060
 6554SOL    HW131124   1.278   2.427   1.404  0.2684 -1.4786  1.2735
 6554SOL    HW231125   1.378   2.478   1.304 -1.9060 -1.1283  0.5681
 6555SOL     OW31126   0.647   2.027   2.832 -0.2024  0.2729  0.0245
 6555SOL    HW131127   0.731   2.072   2.824  1.0560 -1.3024  4.3263
 6555SOL    HW231128   0.678   1.945   2.872  0.6700  0.3771 -0.4437
 6556SOL     OW31129   2.336   4.612   4.289  0.1497  0.8613  0.4999
 6556SOL    HW131130   2.359   4.529   4.331 -0.5555 -0.1682 -1.1614
 6556SOL    HW231131   2.351   4.582   4.200  0.5039  0.8674  0.5549
 6557SOL     OW31132   2.783   3.506   1.741  0.6198  0.2969 -0.3850
 6557SOL    HW131133   2.802   3.572   1.807 -0.8217 -0.9898  1.3309
 6557SOL    HW231134   2.777   3.425   1.791 -0.2741 -0.2711 -1.4158
 6558SOL     OW31135   4.364   1.880  16.531 -0.1630  0.1599 -0.4013
 6558SOL    HW131136   4.439   1.931  16.559 -0.2010  0.7338 -1.3279
 6558SOL    HW231137   4.364   1.815  16.601 -2.4478  0.4427 -0.1424
 6559SOL     OW31138   1.202   2.770  10.709 -0.3787  0.0689  0.1395
 6559SOL    HW131139   1.128   2.820  10.744 -0.7988  0.8984 -1.9316
 6559SOL    HW231140   1.207   2.811  10.623  2.8710  1.3093  0.9156
 6560SOL     OW31141   1.403   0.519   6.284 -0.4693  0.1530 -0.3565
 6560SOL    HW131142   1.319   0.546   6.322  0.0725 -0.5876  1.3690
 6560SOL    HW231143   1.362   0.476   6.209  0.1033 -2.4109  0.8123
 6561SOL     OW31144   4.536   0.644  13.401  0.6524  0.3360 -0.2984
 6561SOL    HW131145   4.577   0.688  13.327 -2.5694 -0.3734 -2.5168
 6561SOL    HW231146   4.530   0.723  13.455 -1.6910  1.0409 -1.5953
 6562SOL     OW31147   4.108   4.311   2.444  0.6670  0.0366  0.1019
 6562SOL    HW131148   4.092   4.311   2.349 -1.2973  0.2461  0.4464
 6562SOL    HW231149   4.196   4.273   2.449 -0.2502 -1.7979  2.0193
 6563SOL     OW31150   3.605   0.901  14.060 -0.7300  0.0011  0.1811
 6563SOL    HW131151   3.568   0.979  14.016  1.6370  1.7489  1.2929
 6563SOL    HW231152   3.529   0.844  14.057  1.1807 -2.4211 -1.7611
 6564SOL     OW31153   2.144   1.068   8.117 -0.5459 -0.4690  0.0677
 6564SOL    HW131154   2.103   1.087   8.202  1.1437 -0.8069  0.9559
 6564SOL    HW231155   2.228   1.111   8.134 -0.2930 -0.0985 -2.0968
 6565SOL     OW31156   2.643   0.345   9.231 -0.0790 -0.2590 -0.1380
 6565SOL    HW131157   2.633   0.438   9.214  1.4473  0.3162  2.0804
 6565SOL    HW231158   2.555   0.329   9.265 -0.3169  0.2373 -0.5252
 6566SOL     OW31159   4.620   0.015   5.021 -0.1176  0.3191  0.5176
 6566SOL    HW131160   4.567   4.667   5.058  2.4896 -0.8350  2.0128
 6566SOL    HW231161   4.571   0.088   5.058  0.1690  0.4613  0.6166
 6567SOL     OW31162   0.372   4.131   3.341  0.0651 -0.1026 -0.7102
 6567SOL    HW131163   0.374   4.038   3.365 -0.6115 -0.4531 -2.0219
 6567SOL    HW231164   0.305   4.147   3.275 -1.2434 -2.8359 -0.0757
 6568SOL     OW31165   3.163   2.411   1.304  0.1792 -0.3832 -0.1470
 6568SOL    HW131166   3.134   2.480   1.365  1.7437  2.3922 -2.5601
 6568SOL    HW231167   3.232   2.376   1.361  0.0854 -0.7312 -0.2466
 6569SOL     OW31168   4.245   3.592   0.272  0.3227 -0.5075  0.2664
 6569SOL    HW131169   4.307   3.662   0.290  0.9445 -1.0349  0.2031
 6569SOL    HW231170   4.265   3.508   0.313 -1.9398 -0.4028  1.5741
 6570SOL     OW31171   1.950   2.861  10.656 -0.4357 -0.8849 -0.3644
 6570SOL    HW131172   2.028   2.903  10.620 -1.6499  0.9529 -0.8359
 6570SOL    HW231173   1.979   2.846  10.746 -2.5871 -1.7078  0.1879
 6571SOL     OW31174   4.703   2.894   7.380  0.2786  0.0938  0.3194
 6571SOL    HW131175   0.052   2.887   7.440 -0.6771 -0.6683  1.3747
 6571SOL    HW231176   4.656   2.965   7.423  2.9455  1.4704  0.9945
 6572SOL     OW31177   2.198   0.259   6.767  0.5675  0.4512 -0.4998
 6572SOL    HW131178   2.108   0.292   6.769  0.5889  0.4912 -0.2460
 6572SOL    HW231179   2.235   0.305   6.692  1.6174  0.3982 -0.0131
 6573SOL     OW31180   3.158   3.865  17.367  0.4452  0.3286 -0.9869
 6573SOL    HW131181   3.107   3.825  17.296 -1.2488 -2.1837  1.6738
 6573SOL    HW231182   3.240   3.819  17.380 -0.5574 -1.1238  0.1409
 6574SOL     OW31183   3.202   4.278  17.627  0.3593  0.3004 -0.4384
 6574SOL    HW131184   3.263   4.299  17.698  1.0924 -1.3273 -0.5727
 6574SOL    HW231185   3.167   4.365  17.606 -2.0817 -0.2887  1.2579
 6575SOL     OW31186   0.454   1.367   6.908 -0.0267 -0.1137 -0.0334
 6575SOL    HW131187   0.387   1.349   6.842 -1.2113 -1.7720  1.6124
 6575SOL    HW231188   0.472   1.282   6.950  1.7003  0.7035  0.8867
 6576SOL     OW31189   4.040   3.630  13.361  0.6075  0.0821  0.0152
 6576SOL    HW131190   4.079   3.543  13.354 -2.3383 -1.0140 -2.9846
 6576SOL    HW231191   3.981   3.627  13.285 -0.2664 -0.1706  0.7106
 6577SOL     OW31192   2.865   2.913   8.272 -0.6888  0.1695 -0.0703
 6577SOL    HW131193   2.931   2.979   8.294  0.4642 -0.2828 -2.1420
 6577SOL    HW231194   2.788   2.955   8.309 -0.2479  1.5602 -0.7411
 6578SOL     OW31195   2.371   4.077   1.203 -0.3883 -0.2875 -0.5240
 6578SOL    HW131196   2.378   4.096   1.297 -0.0158  0.4476 -0.7034
 6578SOL    HW231197   2.321   4.154   1.179 -2.2928 -0.5271  2.7677
 6579SOL     OW31198   2.677   0.990   2.595  0.6117  0.5939 -0.0577
 6579SOL    HW131199   2.698   0.920   2.533  1.5579  0.2681  0.6269
 6579SOL    HW231200   2.582   0.995   2.592  0.3562 -3.8331 -0.4289
 6580SOL     OW31201   4.350   3.138   6.138  0.1829 -0.4502  0.5222
 6580SOL    HW131202   4.397   3.221   6.145  3.8855 -2.4135 -1.5082
 6580SOL    HW231203   4.258   3.158   6.157  0.6535  3.0623 -0.8475
 6581SOL     OW31204   1.859   2.645   6.867  0.4400  0.4344 -0.4910
 6581SOL    HW131205   1.881   2.574   6.806  0.4657 -0.7084  0.8395
 6581SOL    HW231206   1.935   2.703   6.865 -1.0373  2.4933  2.6628
 6582SOL     OW31207   2.914   0.893   2.017  0.0997  0.5126  0.1860
 6582SOL    HW131208   2.866   0.821   1.975  1.0416  0.7122 -1.2212
 6582SOL    HW231209   2.983   0.911   1.953 -1.6191  0.9132 -1.5587
 6583SOL     OW31210   1.855   0.761   4.385  0.2518 -0.0073  0.1740
 6583SOL    HW131211   1.869   0.719   4.300 -1.1591 -2.2366  1.0332
 6583SOL    HW231212   1.762   0.784   4.387 -0.2116 -1.8534  0.1962
 6584SOL     OW31213   4.241   1.705   3.674 -0.2682  0.1762 -0.3148
 6584SOL    HW131214   4.173   1.758   3.715  0.7133  0.1956  1.3241
 6584SOL    HW231215   4.252   1.632   3.735 -1.1686  1.4246  1.3382
 6585SOL     OW31216   3.923   2.476  14.094 -0.2396 -0.5161 -0.6217
 6585SOL    HW131217   3.908   2.500  14.186 -0.9173 -1.8372 -0.3874
 6585SOL    HW231218   4.016   2.455  14.092 -0.1429  0.1831 -3.0944
 6586SOL     OW31219   2.883   3.748  17.603  0.3885 -0.3697 -0.1591
 6586SOL    HW131220   2.861   3.834  17.638  1.0477 -0.6487  0.9285
 6586SOL    HW231221   2.830   3.680  17.644 -0.5244  0.8010  0.5851
 6587SOL     OW31222   4.510   2.841   8.732  0.0430  0.6942  0.2418
 6587SOL    HW131223   4.492   2.827   8.825 -0.7931 -0.9383 -0.1699
 6587SOL    HW231224   4.520   2.936   8.723  0.3583  0.7672  1.4398
 6588SOL     OW31225   3.827   4.232   2.508 -0.1543 -0.2778 -0.4655
 6588SOL    HW131226   3.804   4.208   2.598 -0.3904  0.1801 -0.4041
 6588SOL    HW231227   3.902   4.290   2.523  0.7361 -1.0817 -1.7946
 6589SOL     OW31228   2.850   2.745   7.400 -0.2780  0.1202  0.1829
 6589SOL    HW131229   2.851   2.676   7.466 -2.4818  0.0737  0.1680
 6589SOL    HW231230   2.865   2.819   7.459 -1.3427 -0.5181  1.2318
 6590SOL     OW31231   0.462   1.382   8.667 -0.3023 -0.1576  0.1050
 6590SOL    HW131232   0.534   1.380   8.604 -1.1473 -1.0851 -0.8371
 6590SOL    HW231233   0.421   1.467   8.652 -1.9641 -0.9668 -0.0252
 6591SOL     OW31234   0.699   3.757   8.376 -0.1477 -0.4903  0.1212
 6591SOL    HW131235   0.610   3.725   8.360 -0.6190  1.2703 -0.7669
 6591SOL    HW231236   0.748   3.698   8.318  0.2840  0.2604 -0.2725
 6592SOL     OW31237   3.840   3.796   7.464 -0.4411  0.2758  0.6294
 6592SOL    HW131238   3.896   3.813   7.388  1.8646  1.7107  2.6640
 6592SOL    HW231239   3.909   3.759   7.519 -0.0205  0.4769  0.2311
 6593SOL     OW31240   4.417   0.205   6.530 -0.5386  1.0946 -1.1144
 6593SOL    HW131241   4.350   0.273   6.524 -0.7120  0.6469 -4.1730
 6593SOL    HW231242   4.447   0.215   6.620 -0.6742 -0.5056 -0.9017
 6594SOL     OW31243   4.354   4.203  17.237 -0.1566 -0.3574  0.1376
 6594SOL    HW131244   4.361   4.224  17.330  1.1089  0.3327 -0.1137
 6594SOL    HW231245   4.378   4.289  17.203  0.9223 -1.4820 -1.9591
 6595SOL     OW31246   3.926   3.420   8.126 -0.5083  0.0026 -0.2551
 6595SOL    HW131247   3.865   3.450   8.059  1.7385  1.5859 -1.5937
 6595SOL    HW231248   3.900   3.480   8.195 -0.8813  0.5118 -0.8405
 6596SOL     OW31249   1.142   2.235  11.993 -0.2335 -0.1709  0.8622
 6596SOL    HW131250   1.140   2.140  12.006  2.4882 -0.4404 -0.6306
 6596SOL    HW231251   1.048   2.252  11.983  0.1986  0.3447 -2.4543
 6597SOL     OW31252   2.537   4.687   5.822 -0.4076  0.0150  0.4563
 6597SOL    HW131253   2.584   4.693   5.905  0.6309 -0.6627 -0.0751
 6597SOL    HW231254   2.457   4.642   5.848  2.4106 -3.4291  3.2124
 6598SOL     OW31255   0.439   0.716  16.731 -0.4009 -0.0398 -0.0820
 6598SOL    HW131256   0.512   0.663  16.700 -1.3883 -1.1409 -0.4861
 6598SOL    HW231257   0.465   0.795  16.684  0.0889  0.2006  0.5823
 6599SOL     OW31258   1.658   2.829   8.126 -0.1486  0.3035 -0.3644
 6599SOL    HW131259   1.620   2.853   8.211  2.3718  0.7570  0.6193
 6599SOL    HW231260   1.719   2.897   8.098 -0.4563  1.4400  1.7832
 6600SOL     OW31261   0.619   4.223   2.688 -0.1178 -0.1515 -0.6100
 6600SOL    HW131262   0.557   4.287   2.723 -0.0771  0.3013 -1.3736
 6600SOL    HW231263   0.595   4.147   2.741 -0.3282  0.0560 -0.4102
 6601SOL     OW31264   2.040   1.110   5.843 -0.4618 -0.4931 -0.6592
 6601SOL    HW131265   1.955   1.111   5.887 -0.0337  0.6638  0.1534
 6601SOL    HW231266   2.045   1.019   5.814  1.2760 -0.4221 -0.5826
 6602SOL     OW31267   2.463   3.374   2.219  0.1681 -0.3722  0.3649
 6602SOL    HW131268   2.437   3.355   2.309  0.9063  1.3466  0.9344
 6602SOL    HW231269   2.530   3.310   2.194  0.1711 -0.3774  0.3860
 6603SOL     OW31270   4.056   0.201   6.884 -0.3491  0.0208  0.4963
 6603SOL    HW131271   4.095   0.133   6.940 -1.4917 -1.3430 -0.3676
 6603SOL    HW231272   3.967   0.170   6.901 -1.1891  1.5303 -1.1287
 6604SOL     OW31273   2.763   2.010   7.564 -0.0339 -0.6830 -0.0183
 6604SOL    HW131274   2.693   2.047   7.618 -2.3571 -1.4704 -2.5124
 6604SOL    HW231275   2.752   1.916   7.578 -1.8771 -0.2417  1.4780
 6605SOL     OW31276   3.464   2.488   7.619  0.3600  0.3760 -0.5006
 6605SOL    HW131277   3.551   2.471   7.655  0.6453 -0.3659 -1.5488
 6605SOL    HW231278   3.488   2.575   7.586 -1.1676  0.2552 -1.9182
 6606SOL     OW31279   3.533   4.287  12.053  0.6849 -0.1008  0.3341
 6606SOL    HW131280   3.546   4.361  12.113 -1.4471  0.1384  0.4897
 6606SOL    HW231281   3.440   4.267  12.051  0.4342  0.9339  1.7052
 6607SOL     OW31282   0.538   3.173   6.754  0.6005  0.1560 -0.1752
 6607SOL    HW131283   0.480   3.211   6.820  0.7263 -0.7495  0.4514
 6607SOL    HW231284   0.495   3.105   6.701 -2.5795  1.6061  0.5289
 6608SOL     OW31285   0.372   2.414   2.051  0.0478 -0.2755  0.0313
 6608SOL    HW131286   0.384   2.446   2.140 -1.0169  0.1164  0.0360
 6608SOL    HW231287   0.299   2.462   2.011  0.5916  0.3871 -0.1744
 6609SOL     OW31288   3.380   0.070  16.243  0.7302  0.0387 -0.3279
 6609SOL    HW131289   3.379   0.009  16.316 -0.4403 -1.6168 -1.7281
 6609SOL    HW231290   3.335   0.145  16.283 -0.1568 -0.3836 -0.5414
 6610SOL     OW31291   2.553   3.614   4.134 -0.2122 -0.0505  0.3598
 6610SOL    HW131292   2.491   3.618   4.061  1.9242  0.2244 -1.4192
 6610SOL    HW231293   2.585   3.702   4.117 -2.0019  0.2410 -1.4866
 6611SOL     OW31294   2.438   0.980   3.073  0.4742  0.1871  0.5756
 6611SOL    HW131295   2.442   0.956   2.980 -0.4923  0.3323  0.4982
 6611SOL    HW231296   2.431   0.894   3.115 -4.4007 -0.8952 -2.4789
 6612SOL     OW31297   3.059   0.841   4.491 -0.0239 -0.0861  0.1689
 6612SOL    HW131298   3.002   0.766   4.476  2.0411 -1.4392 -1.0267
 6612SOL    HW231299   3.001   0.879   4.556 -1.8562  0.0057 -1.5285
 6613SOL     OW31300   0.138   1.849   6.530 -0.5863  0.2948  0.2031
 6613SOL    HW131301   0.099   1.762   6.539  2.7516 -0.9333  2.6718
 6613SOL    HW231302   0.206   1.841   6.596 -0.1345  0.2470 -0.2671
 6614SOL     OW31303   1.720   1.075   6.461  0.0147  0.3752  0.5244
 6614SOL    HW131304   1.630   1.107   6.451  0.5504  1.6324 -0.3509
 6614SOL    HW231305   1.737   1.060   6.368 -1.6775  0.7520  0.1449
 6615SOL     OW31306   1.345   4.670   2.788  0.7638 -0.0972 -0.0038
 6615SOL    HW131307   1.280   4.668   2.717 -0.1418 -3.4301  0.9582
 6615SOL    HW231308   1.304   4.697   2.870  0.6005 -0.3558 -0.0023
 6616SOL     OW31309   2.968   1.118   3.316  0.2985  0.2109  0.0135
 6616SOL    HW131310   2.894   1.079   3.270  0.1416  0.7313 -0.1819
 6616SOL    HW231311   3.040   1.060   3.288  1.3766  1.9760 -0.9192
 6617SOL     OW31312   1.409   2.676  13.567 -0.1826 -0.1375  0.5008
 6617SOL    HW131313   1.454   2.611  13.621  1.2691  0.9866  0.6628
 6617SOL    HW231314   1.472   2.748  13.570 -0.0454 -0.1755 -1.1936
 6618SOL     OW31315   3.515   2.856   9.506  0.3715  0.4824  0.1932
 6618SOL    HW131316   3.436   2.803   9.505  1.3901 -1.0365  0.0921
 6618SOL    HW231317   3.569   2.802   9.564  0.2390 -0.5751 -0.6765
 6619SOL     OW31318   2.371   2.425   7.450 -0.7405  0.1502  0.5419
 6619SOL    HW131319   2.410   2.476   7.521  1.0592 -0.0805 -0.2913
 6619SOL    HW231320   2.437   2.356   7.447 -0.1924  0.7078 -0.3527
 6620SOL     OW31321   3.419   4.501   4.746  0.3287 -0.1722 -0.2324
 6620SOL    HW131322   3.414   4.475   4.654  0.2953  0.0081 -0.2824
 6620SOL    HW231323   3.367   4.581   4.746  0.8619  0.1728  0.5552
 6621SOL     OW31324   2.116   3.998  10.144 -0.1966  0.1201 -0.1414
 6621SOL    HW131325   2.165   3.917  10.130 -1.5832 -0.5829 -0.8472
 6621SOL    HW231326   2.052   3.976  10.211 -0.0245  2.7084  0.8810
 6622SOL     OW31327   1.589   1.747  12.508 -0.0024 -0.4860  0.5325
 6622SOL    HW131328   1.631   1.833  12.511 -0.6956 -0.0364 -2.2855
 6622SOL    HW231329   1.503   1.760  12.549 -0.6340  1.6105 -1.4356
 6623SOL     OW31330   0.928   0.971  13.753 -0.6155 -0.5348 -0.5484
 6623SOL    HW131331   0.876   0.949  13.676 -1.8510  3.1281 -0.7624
 6623SOL    HW231332   0.861   0.964  13.821  1.2043  2.6361  1.5928
 6624SOL     OW31333   0.352   1.493  11.861  0.8073  0.7021  0.2448
 6624SOL    HW131334   0.395   1.448  11.934  3.0686 -0.4010 -1.7942
 6624SOL    HW231335   0.323   1.422  11.804 -0.3053  0.5679  0.9721
 6625SOL     OW31336   3.770   3.411   5.071  0.9642 -0.7094  0.2987
 6625SOL    HW131337   3.750   3.381   5.160  5.2636 -0.1282  1.4571
 6625SOL    HW231338   3.685   3.452   5.060  1.3333  0.8724  3.4243
 6626SOL     OW31339   3.230   0.137   3.461  0.5517  0.0075 -0.2055
 6626SOL    HW131340   3.276   0.193   3.399  1.7053  0.0887  0.7115
 6626SOL    HW231341   3.143   0.150   3.424  0.5619 -0.4479 -0.3833
 6627SOL     OW31342   1.483   3.690  14.494 -0.4996  0.4199  0.5117
 6627SOL    HW131343   1.560   3.639  14.518 -0.7168  0.1834  0.7080
 6627SOL    HW231344   1.473   3.659  14.404 -2.5075 -1.9698  1.5624
 6628SOL     OW31345   3.473   0.504  13.363 -0.3090 -0.5520  0.2259
 6628SOL    HW131346   3.402   0.441  13.375 -0.0970 -0.9539 -0.6449
 6628SOL    HW231347   3.469   0.497  13.267  0.4291 -2.7467  0.3639
 6629SOL     OW31348   0.754   3.500  16.770  0.4202 -0.0620  0.2092
 6629SOL    HW131349   0.724   3.471  16.683 -1.4900  1.4023  0.3814
 6629SOL    HW231350   0.725   3.429  16.828  0.1407  0.3761  0.6042
 6630SOL     OW31351   2.965   0.105   4.551  0.6892  0.2650  0.2438
 6630SOL    HW131352   2.915   0.156   4.487  1.6452  1.4211  0.4110
 6630SOL    HW231353   2.946   0.015   4.523  2.3171  0.2766 -0.9004
 6631SOL     OW31354   0.888   0.625   2.195 -0.7029 -0.4358 -0.1762
 6631SOL    HW131355   0.801   0.615   2.158 -0.9938  0.4348  0.2796
 6631SOL    HW231356   0.876   0.686   2.267 -1.2361 -1.3213  0.4682
 6632SOL     OW31357   0.583   2.920   0.492 -0.2169  0.4861 -0.1024
 6632SOL    HW131358   0.599   2.843   0.547 -0.9335  0.2702 -0.1948
 6632SOL    HW231359   0.646   2.982   0.527 -0.7818  0.9348  0.1076
 6633SOL     OW31360   1.410   0.071   4.336  0.3944 -0.1134 -0.1511
 6633SOL    HW131361   1.486   0.014   4.349  0.0587 -0.7303 -0.8798
 6633SOL    HW231362   1.352   0.057   4.411 -1.2261  1.0051 -1.2108
 6634SOL     OW31363   2.303   3.054  10.934 -0.2672  0.0831  0.1221
 6634SOL    HW131364   2.252   2.976  10.913 -0.3852 -0.1815  1.4042
 6634SOL    HW231365   2.308   3.101  10.851 -0.3698 -2.9319 -1.6120
 6635SOL     OW31366   2.048   3.619  13.605  0.3877 -0.3070  0.6436
 6635SOL    HW131367   1.969   3.623  13.551  0.3650  2.2699  0.8491
 6635SOL    HW231368   1.999   3.583  13.679 -0.1910  3.1542  1.9655
 6636SOL     OW31369   3.666   1.360   4.908 -0.0675  0.6051 -0.1932
 6636SOL    HW131370   3.588   1.334   4.957  0.4150 -0.2192  0.1264
 6636SOL    HW231371   3.663   1.448   4.946 -0.2155  0.0002  1.1831
 6637SOL     OW31372   0.761   4.338  17.155  0.4742  0.6542  0.4572
 6637SOL    HW131373   0.751   4.432  17.141  0.6399  0.3844 -1.4681
 6637SOL    HW231374   0.820   4.345  17.230 -1.0031  1.1299  1.5717
 6638SOL     OW31375   1.741   2.869   9.130 -0.0724  0.1479  0.2554
 6638SOL    HW131376   1.785   2.812   9.068  0.5080  1.3561 -0.4491
 6638SOL    HW231377   1.755   2.829   9.216 -0.3688 -0.0090  0.2298
 6639SOL     OW31378   0.151   2.576   4.156 -0.5902  1.0830  0.4267
 6639SOL    HW131379   0.242   2.582   4.129 -1.5687  0.2895 -3.0936
 6639SOL    HW231380   0.118   2.554   4.068  0.0056  2.0321 -0.0256
 6640SOL     OW31381   1.697   3.906   0.778  0.2521 -0.4169  0.1839
 6640SOL    HW131382   1.636   3.843   0.739  1.1518 -0.2102 -1.5826
 6640SOL    HW231383   1.777   3.888   0.728  0.8083  0.0731  0.9030
 6641SOL     OW31384   0.503   2.508  11.955  0.0565  0.0383  0.2183
 6641SOL    HW131385   0.584   2.548  11.987 -1.9898  2.9512  1.7735
 6641SOL    HW231386   0.486   2.440  12.020 -0.0489 -1.2931 -1.2006
 6642SOL     OW31387   3.640   0.336  17.500 -0.0895  0.1750 -0.2435
 6642SOL    HW131388   3.563   0.348  17.555 -0.2842  0.2806 -0.5400
 6642SOL    HW231389   3.677   0.425  17.501 -0.1910  0.1714  2.4410
 6643SOL     OW31390   3.188   1.804  16.791 -0.4628  0.4686 -0.0768
 6643SOL    HW131391   3.258   1.764  16.739 -0.7339  0.4987 -0.4595
 6643SOL    HW231392   3.117   1.741  16.786 -0.6405  0.6463  0.2126
 6644SOL     OW31393   3.404   4.400   4.486 -0.2221 -0.2225 -0.4650
 6644SOL    HW131394   3.345   4.326   4.469 -0.8505  0.4632 -1.2369
 6644SOL    HW231395   3.402   4.442   4.400  2.4794  1.0114  0.0662
 6645SOL     OW31396   2.211   2.166   2.947 -0.2677 -0.2285 -0.5366
 6645SOL    HW131397   2.243   2.081   2.916  1.7611  1.3561 -2.7581
 6645SOL    HW231398   2.187   2.146   3.037 -1.9571 -0.2227 -0.9838
 6646SOL     OW31399   1.622   1.394   2.801  0.2626  0.3264 -0.3727
 6646SOL    HW131400   1.595   1.365   2.714 -1.6399 -2.4768  1.1442
 6646SOL    HW231401   1.714   1.417   2.784  0.8600 -3.1002 -1.7084
 6647SOL     OW31402   1.956   0.966   6.828  0.1588  0.4200  0.0762
 6647SOL    HW131403   1.945   1.040   6.768  2.3890  0.9245  0.2971
 6647SOL    HW231404   1.913   0.890   6.789 -2.7773  0.5307  3.0168
 6648SOL     OW31405   0.178   4.308   6.449 -0.1211 -0.2195 -0.0358
 6648SOL    HW131406   0.259   4.313   6.398 -0.8957 -0.4992 -1.2907
 6648SOL    HW231407   0.117   4.316   6.376 -1.4523 -1.0016  0.9970
 6649SOL     OW31408   0.829   2.506   4.239  0.6353 -0.0842 -0.3532
 6649SOL    HW131409   0.785   2.521   4.322 -2.2188 -2.5699 -1.4417
 6649SOL    HW231410   0.915   2.546   4.254  0.8352  0.3843 -2.7567
 6650SOL     OW31411   2.157   1.162   2.348 -0.7890  0.3381  0.7288
 6650SOL    HW131412   2.152   1.254   2.325 -0.1561 -0.2306 -1.7703
 6650SOL    HW231413   2.163   1.113   2.266 -2.1630 -1.8823  1.9373
 6651SOL     OW31414   2.105   1.078   6.167 -0.5291  0.0113  0.3833
 6651SOL    HW131415   2.109   1.078   6.072 -0.5827  0.3449  0.3796
 6651SOL    HW231416   2.127   1.171   6.179  0.2030 -0.1108  0.0020
 6652SOL     OW31417   2.295   3.221  14.205  0.0625  0.6933 -0.2627
 6652SOL    HW131418   2.346   3.163  14.262  0.9246  1.6956 -0.0258
 6652SOL    HW231419   2.359   3.292  14.203 -0.6126  1.2928 -0.3330
 6653SOL     OW31420   0.231   2.183   5.460  0.4607 -0.8635 -0.0747
 6653SOL    HW131421   0.320   2.155   5.438 -0.7211 -2.9256 -2.2925
 6653SOL    HW231422   0.221   2.143   5.547 -2.5838 -0.3143 -0.1546
 6654SOL     OW31423   0.093   2.192   9.040 -0.0128 -0.3732 -0.2307
 6654SOL    HW131424   0.009   2.160   9.007 -0.0727  0.8806 -1.2715
 6654SOL    HW231425   0.131   2.220   8.957  3.0218  2.0492  1.9893
 6655SOL     OW31426   3.616   4.085  14.877  0.1303 -0.1929 -0.3523
 6655SOL    HW131427   3.539   4.059  14.928  0.4304 -0.3266  0.0325
 6655SOL    HW231428   3.654   3.997  14.868 -0.5639 -0.3899 -1.4701
 6656SOL     OW31429   1.839   1.431   2.637  0.5956  0.0617  0.2387
 6656SOL    HW131430   1.905   1.485   2.679 -0.7831  2.0748 -0.1951
 6656SOL    HW231431   1.787   1.497   2.591  1.5391 -1.0736 -2.4810
 6657SOL     OW31432   1.833   2.469   7.486  0.0978  0.2808  0.2023
 6657SOL    HW131433   1.922   2.436   7.486 -0.3908 -1.0499  0.3889
 6657SOL    HW231434   1.789   2.444   7.405 -1.3884 -0.6167  1.2779
 6658SOL     OW31435   3.762   2.964   8.127  0.5735 -0.4479 -0.3832
 6658SOL    HW131436   3.753   2.956   8.222 -2.1414  0.3882 -0.5780
 6658SOL    HW231437   3.844   3.013   8.128  0.7855 -0.8383  1.4988
 6659SOL     OW31438   2.546   4.670   3.382  0.3729  0.6485 -0.5249
 6659SOL    HW131439   2.490   0.004   3.331 -0.4548 -0.8706 -1.3423
 6659SOL    HW231440   2.494   4.590   3.387  0.4694  0.6505  0.4128
 6660SOL     OW31441   0.891   0.119   5.756 -0.5281  0.8081  0.3438
 6660SOL    HW131442   0.818   0.136   5.697  0.1521 -1.6932 -1.2438
 6660SOL    HW231443   0.929   0.041   5.715 -0.3637  0.3362  1.4070
 6661SOL     OW31444   0.280   0.732  15.985  0.0523  0.1494 -0.4839
 6661SOL    HW131445   0.324   0.648  15.985 -0.4869 -0.1429  1.2828
 6661SOL    HW231446   0.283   0.742  16.080 -2.0353  1.3795 -0.5366
 6662SOL     OW31447   1.070   2.750  16.766  0.1290  0.1247  0.0668
 6662SOL    HW131448   0.985   2.750  16.811  0.5113  2.1955  0.7717
 6662SOL    HW231449   1.123   2.699  16.828 -0.1291 -1.9813 -1.4300
 6663SOL     OW31450   1.908   2.123  16.710  0.7307  0.0110  0.5582
 6663SOL    HW131451   1.926   2.175  16.788  3.9371 -1.0544  0.5357
 6663SOL    HW231452   1.815   2.145  16.698  0.7008  0.3432  1.4137
 6664SOL     OW31453   3.250   1.525   0.273  0.4591  0.4339  0.3280
 6664SOL    HW131454   3.283   1.454   0.218  1.1065 -0.9065  2.4288
 6664SOL    HW231455   3.327   1.554   0.321  0.8850  0.9088 -0.6432
 6665SOL     OW31456   2.308   1.647  10.760  0.1842  0.0749  0.0141
 6665SOL    HW131457   2.230   1.619  10.809  0.9820 -0.6167  0.8738
 6665SOL    HW231458   2.328   1.736  10.789 -1.0063  0.3111  0.1132
 6666SOL     OW31459   1.524   1.363   5.998 -0.4916 -0.1947 -0.4113
 6666SOL    HW131460   1.497   1.455   5.999  2.5682  0.7086  0.8132
 6666SOL    HW231461   1.560   1.347   5.911 -0.7245 -0.5512 -0.4441
 6667SOL     OW31462   3.108   0.805   4.061  0.5225 -0.3494 -0.4146
 6667SOL    HW131463   3.181   0.813   3.999  0.5815  2.1380 -0.0284
 6667SOL    HW231464   3.049   0.873   4.028  0.4618 -0.2093 -0.0194
 6668SOL     OW31465   3.187   1.368   5.027 -0.3349 -0.1624 -0.3576
 6668SOL    HW131466   3.202   1.421   5.106  2.3547 -1.3134 -0.1075
 6668SOL    HW231467   3.264   1.311   5.029 -0.4180 -0.3051 -1.9080
 6669SOL     OW31468   2.114   3.219   5.823  0.0955 -0.0130 -0.0758
 6669SOL    HW131469   2.073   3.259   5.900 -0.2296  0.0971 -0.3016
 6669SOL    HW231470   2.046   3.158   5.792 -0.6930  0.9940 -0.3394
 6670SOL     OW31471   4.115   2.149   1.648  0.8009 -0.6641  0.2781
 6670SOL    HW131472   4.089   2.198   1.570  0.6293  0.7640  1.2372
 6670SOL    HW231473   4.094   2.216   1.713 -1.0209 -0.4547 -0.5500
 6671SOL     OW31474   1.847   0.804   3.654 -0.2958  0.6290 -0.3346
 6671SOL    HW131475   1.911   0.862   3.694  2.0385 -2.0239 -0.2169
 6671SOL    HW231476   1.771   0.837   3.701 -0.0358 -0.7356  1.0281
 6672SOL     OW31477   0.639   2.407   3.038 -0.3008  0.3766  0.2220
 6672SOL    HW131478   0.683   2.332   3.080 -1.5520  0.3336  1.4939
 6672SOL    HW231479   0.663   2.397   2.946  0.4437 -0.9181  0.5584
 6673SOL     OW31480   0.331   4.311   6.727  0.2682  0.2965  0.3797
 6673SOL    HW131481   0.418   4.347   6.712  1.1175 -1.4415  1.0882
 6673SOL    HW231482   0.325   4.233   6.671 -0.4217 -1.5425  3.0183
 6674SOL     OW31483   0.956   0.010  15.577  0.3699  0.2799 -0.4086
 6674SOL    HW131484   0.899   0.083  15.556  1.1007  0.5206 -1.5611
 6674SOL    HW231485   1.040   0.052  15.558 -0.3303  0.9539 -2.0397
 6675SOL     OW31486   2.272   0.639  17.484  0.0661 -0.4987  0.0588
 6675SOL    HW131487   2.351   0.671  17.526  1.2574  0.4002 -2.8138
 6675SOL    HW231488   2.206   0.695  17.525 -0.4979 -1.2002  0.1216
 6676SOL     OW31489   0.832   2.043  14.623 -0.3608 -0.5917 -0.2966
 6676SOL    HW131490   0.801   2.101  14.553 -1.3940  0.1193  0.7318
 6676SOL    HW231491   0.899   1.989  14.584 -0.5535 -0.6712 -0.5181
 6677SOL     OW31492   1.268   0.946   3.557  0.3623 -0.2529 -0.8947
 6677SOL    HW131493   1.193   0.950   3.498  1.7985 -1.2695 -2.7760
 6677SOL    HW231494   1.247   1.017   3.618  0.3321 -1.4913  0.5162
 6678SOL     OW31495   4.328   1.417   2.778 -0.3731 -0.0841 -0.0395
 6678SOL    HW131496   4.273   1.493   2.798 -0.7624 -0.2668 -0.4202
 6678SOL    HW231497   4.412   1.464   2.776 -0.1075 -0.5892 -1.1136
 6679SOL     OW31498   0.983   3.683   5.216  0.5108 -0.3114 -0.0880
 6679SOL    HW131499   0.970   3.711   5.125 -0.5395 -2.1669 -0.4966
 6679SOL    HW231500   0.924   3.747   5.257  1.4239  0.2470  0.3473
 6680SOL     OW31501   1.501   1.398   1.714 -0.4362  0.2765  0.3201
 6680SOL    HW131502   1.422   1.381   1.766  0.0639  3.2954  2.0465
 6680SOL    HW231503   1.514   1.490   1.736 -0.6100  0.3742  0.0179
 6681SOL     OW31504   0.479   4.119   4.766 -0.5777 -0.2785  0.3417
 6681SOL    HW131505   0.510   4.028   4.776  2.1445  0.6072  0.0797
 6681SOL    HW231506   0.386   4.113   4.788 -0.7309  1.5591  0.1388
 6682SOL     OW31507   1.620   2.559   6.139  0.3179  0.0969  0.7721
 6682SOL    HW131508   1.588   2.484   6.188  0.4634 -0.8314 -0.5650
 6682SOL    HW231509   1.574   2.550   6.055  0.4919 -0.3917  0.7336
 6683SOL     OW31510   0.157   4.585   2.122 -0.1759 -0.0712 -0.2581
 6683SOL    HW131511   0.132   4.617   2.035  0.1177 -0.2487 -0.4069
 6683SOL    HW231512   0.154   4.665   2.174  2.4314 -1.0439  1.3765
 6684SOL     OW31513   0.493   4.199   3.593 -0.0308 -1.0267 -0.6345
 6684SOL    HW131514   0.528   4.114   3.619  2.1745  0.5589  1.5679
 6684SOL    HW231515   0.515   4.204   3.500  0.2736  0.7562 -0.4667
 6685SOL     OW31516   0.665   0.095   4.772 -0.5940  0.7537 -0.2258
 6685SOL    HW131517   0.659   0.082   4.867 -0.2723 -1.7684 -0.5290
 6685SOL    HW231518   0.750   0.138   4.760  0.8040 -1.7951  0.3030
 6686SOL     OW31519   4.327   1.249   2.304 -1.0983 -0.3036  0.3131
 6686SOL    HW131520   4.267   1.322   2.312 -1.4951 -0.3413 -2.3240
 6686SOL    HW231521   4.271   1.173   2.319  0.8502 -1.8223 -0.0216
 6687SOL     OW31522   3.922   1.803   8.827 -0.1231  0.1721  0.0972
 6687SOL    HW131523   3.957   1.829   8.742 -0.6406  0.5510  0.0025
 6687SOL    HW231524   3.834   1.839   8.820 -1.7009 -3.6003  0.4687
 6688SOL     OW31525   0.252   3.228   3.053 -0.1415 -0.2708 -0.5069
 6688SOL    HW131526   0.241   3.138   3.084 -1.5264  0.4393  1.0095
 6688SOL    HW231527   0.338   3.247   3.091  0.6578 -0.8111 -2.0339
 6689SOL     OW31528   3.695   2.899  13.761  0.5697 -0.2592 -0.1867
 6689SOL    HW131529   3.735   2.934  13.841  1.1523 -2.1698  0.3699
 6689SOL    HW231530   3.631   2.841  13.802 -1.6009  2.3668  0.0614
 6690SOL     OW31531   3.631   3.490   4.105  0.0102 -0.4051 -0.2681
 6690SOL    HW131532   3.650   3.576   4.068 -1.8212  0.6011  1.1331
 6690SOL    HW231533   3.707   3.448   4.065 -0.1618 -0.5018 -0.4939
 6691SOL     OW31534   0.964   0.198  12.151  0.4160  0.0552 -0.9912
 6691SOL    HW131535   1.024   0.260  12.110  0.3587 -0.8214 -2.4407
 6691SOL    HW231536   0.888   0.229  12.103  1.4733  1.7013 -1.6157
 6692SOL     OW31537   2.389   3.782   4.483  0.1235 -0.4615  0.6705
 6692SOL    HW131538   2.295   3.783   4.498  0.0715  0.7650  0.2417
 6692SOL    HW231539   2.419   3.742   4.564  1.3781 -0.2145  0.3336
 6693SOL     OW31540   3.188   0.736   1.696 -0.5837  0.5860  0.1408
 6693SOL    HW131541   3.151   0.800   1.757 -1.4987  0.1604  0.0320
 6693SOL    HW231542   3.272   0.718   1.739 -1.3879 -0.7598  1.1370
 6694SOL     OW31543   2.021   3.838   6.542  0.1446  0.2266 -0.2135
 6694SOL    HW131544   1.961   3.901   6.582 -0.6232 -1.1710  0.8279
 6694SOL    HW231545   2.047   3.897   6.471 -1.3482  0.7372 -0.3364
 6695SOL     OW31546   2.064   3.127   6.890  0.2751  0.1739 -0.1794
 6695SOL    HW131547   2.053   3.037   6.860 -0.9294 -0.3029  1.7221
 6695SOL    HW231548   2.050   3.181   6.811 -1.4179  1.9998  1.3659
 6696SOL     OW31549   0.344   0.945  15.834 -0.4703 -0.0983  0.3724
 6696SOL    HW131550   0.277   0.936  15.767  2.8314  1.5082 -3.1507
 6696SOL    HW231551   0.325   0.878  15.899 -1.0842  0.9224  1.2635
 6697SOL     OW31552   0.107   3.936   8.602 -0.0207 -0.0678 -0.3589
 6697SOL    HW131553   0.180   3.934   8.664 -0.5723 -4.1551  0.2013
 6697SOL    HW231554   0.127   3.994   8.529 -1.1910 -2.7426 -2.8313
 6698SOL     OW31555   2.704   0.377   3.284 -0.3197  0.5015  0.5275
 6698SOL    HW131556   2.616   0.356   3.252  0.3319 -1.2654 -0.0562
 6698SOL    HW231557   2.736   0.447   3.227 -0.6669 -0.8437 -1.2881
 6699SOL     OW31558   4.069   2.399  11.383  0.1264 -0.4121  0.1554
 6699SOL    HW131559   4.012   2.373  11.311  3.6256 -3.7046 -1.4509
 6699SOL    HW231560   4.058   2.328  11.447 -0.7429  1.3996  1.9987
 6700SOL     OW31561   2.948   2.576   3.204 -0.1574 -0.4517 -0.1290
 6700SOL    HW131562   2.926   2.556   3.295 -3.7534 -0.5482 -1.0543
 6700SOL    HW231563   3.021   2.517   3.183 -0.3689 -0.0775 -1.9616
 6701SOL     OW31564   2.473   0.259   7.981 -0.6686 -0.4927 -0.2781
 6701SOL    HW131565   2.477   0.349   8.014  0.4956 -0.8547  0.5681
 6701SOL    HW231566   2.564   0.265   7.952 -0.7176  0.6929 -0.2096
 6702SOL     OW31567   2.754   4.065  12.078  0.1559  0.5853 -0.3931
 6702SOL    HW131568   2.697   4.119  12.024 -1.6567 -1.2612 -0.3143
 6702SOL    HW231569   2.741   4.090  12.170  0.9082 -1.4517  0.2648
 6703SOL     OW31570   0.357   3.031   5.660 -0.0919 -0.5647  0.3527
 6703SOL    HW131571   0.392   3.119   5.652 -0.2234 -0.6102 -0.7261
 6703SOL    HW231572   0.397   3.001   5.741  0.9748  1.0314  0.4143
 6704SOL     OW31573   4.368   1.741   7.652  0.2874  0.1164  0.2776
 6704SOL    HW131574   4.396   1.660   7.608 -1.7113 -0.1708 -0.4577
 6704SOL    HW231575   4.449   1.768   7.696  0.7801  2.1546 -1.9528
 6705SOL     OW31576   2.359   1.578  10.394 -0.4759 -0.1525  1.0628
 6705SOL    HW131577   2.283   1.581  10.452  0.9059 -0.3576  2.8701
 6705SOL    HW231578   2.415   1.645  10.432 -1.1351  1.1849 -0.3153
 6706SOL     OW31579   1.966   4.623   6.861 -0.4225  0.4256  0.6015
 6706SOL    HW131580   2.022   4.697   6.837 -1.0633  0.9242  0.6273
 6706SOL    HW231581   1.909   4.677   6.916 -2.4840 -0.1488 -0.9680
 6707SOL     OW31582   0.333   3.152   8.766  0.1093 -0.7099 -0.1353
 6707SOL    HW131583   0.337   3.133   8.860 -1.4710  0.8796  0.2666
 6707SOL    HW231584   0.279   3.079   8.734 -0.7812 -0.3471  0.5565
 6708SOL     OW31585   2.759   1.360  13.992 -0.1544 -0.4475 -0.3607
 6708SOL    HW131586   2.823   1.310  14.044  0.6922  0.7342 -0.2775
 6708SOL    HW231587   2.763   1.321  13.904  0.9233 -2.3455  0.5282
 6709SOL     OW31588   0.573   4.697   4.043  0.2811 -0.4491 -0.9276
 6709SOL    HW131589   0.549   0.064   4.031 -1.0825 -0.7041 -0.1710
 6709SOL    HW231590   0.665   4.701   4.018  0.1543  0.9992 -1.1509
 6710SOL     OW31591   0.366   3.434  11.250 -0.0079  0.3085  0.1506
 6710SOL    HW131592   0.361   3.428  11.345 -0.4108  0.4338  0.1385
 6710SOL    HW231593   0.379   3.342  11.224  2.5905  0.8806 -0.5878
 6711SOL     OW31594   0.894   0.988   2.133  0.0232 -0.0603 -0.1892
 6711SOL    HW131595   0.981   1.006   2.169 -1.6848  3.6247  2.0702
 6711SOL    HW231596   0.910   0.969   2.040 -2.0265  0.0897 -0.5862
 6712SOL     OW31597   0.529   2.203   0.188 -0.3907 -0.3519 -1.0893
 6712SOL    HW131598   0.553   2.286   0.228  0.3992 -0.7730 -0.7033
 6712SOL    HW231599   0.534   2.148   0.266 -0.6795 -0.8389 -1.4170
 6713SOL     OW31600   1.568   2.469  13.682 -0.2900  0.3868 -0.2667
 6713SOL    HW131601   1.558   2.477  13.777  0.6235 -0.0185 -0.1312
 6713SOL    HW231602   1.662   2.461  13.663 -0.5682 -2.1424 -0.5588
 6714SOL     OW31603   1.454   2.571  17.336 -0.0937 -0.0113  0.0075
 6714SOL    HW131604   1.428   2.617  17.257  1.9229  1.5669  0.2495
 6714SOL    HW231605   1.375   2.577  17.389 -1.0934  0.9648 -1.6259
 6715SOL     OW31606   1.587   2.556   0.344 -0.4852 -0.3693  0.2543
 6715SOL    HW131607   1.557   2.495   0.276  1.0176 -1.2122  0.3508
 6715SOL    HW231608   1.640   2.613   0.289 -0.0475  0.2842  1.3607
 6716SOL     OW31609   3.050   2.400   7.019 -0.1486  0.3476 -0.4777
 6716SOL    HW131610   3.020   2.336   7.083  1.4221 -0.6285 -0.7253
 6716SOL    HW231611   2.966   2.432   6.986 -0.1683 -0.1934 -0.9399
 6717SOL     OW31612   0.403   1.213   5.817  0.2301 -0.2509 -0.0527
 6717SOL    HW131613   0.389   1.166   5.734 -0.5243  1.9067 -1.1558
 6717SOL    HW231614   0.418   1.135   5.870  1.4923  0.9584  1.3434
 6718SOL     OW31615   4.068   3.230  11.525 -0.4029 -0.0412  0.0882
 6718SOL    HW131616   4.050   3.138  11.505 -1.0522 -0.2012  1.3890
 6718SOL    HW231617   3.980   3.267  11.524 -0.9679 -1.4342 -2.0106
 6719SOL     OW31618   2.811   0.565   3.908 -0.1491  0.6321  0.0537
 6719SOL    HW131619   2.817   0.516   3.990  1.1109  3.1880  1.5203
 6719SOL    HW231620   2.883   0.524   3.861 -0.3712 -0.7984  0.9508
 6720SOL     OW31621   1.676   2.632   6.530  0.3288  0.8790 -0.0473
 6720SOL    HW131622   1.608   2.606   6.592  0.1461  1.6502  0.0727
 6720SOL    HW231623   1.640   2.715   6.502 -0.2359  1.8266  3.5092
 6721SOL     OW31624   2.324   3.696  10.781 -0.3961 -0.5420  0.3682
 6721SOL    HW131625   2.249   3.643  10.806 -0.5644 -0.7718 -0.6233
 6721SOL    HW231626   2.395   3.632  10.790 -0.5465 -0.5547  1.4826
 6722SOL     OW31627   1.149   3.280   4.449  0.0241  0.1971 -0.1978
 6722SOL    HW131628   1.085   3.347   4.426 -2.5342 -2.0902  0.1240
 6722SOL    HW231629   1.083   3.210   4.446  2.4179 -1.9922 -1.1263
 6723SOL     OW31630   0.740   3.961   7.719  0.2398 -0.5062  0.5647
 6723SOL    HW131631   0.768   3.990   7.632 -1.4607  0.0651  0.2093
 6723SOL    HW231632   0.647   3.986   7.713  0.3439 -0.2427  0.0083
 6724SOL     OW31633   2.594   0.109   5.406  0.0355  0.1100 -0.1651
 6724SOL    HW131634   2.552   0.037   5.453  0.5698 -0.0793  0.0140
 6724SOL    HW231635   2.541   0.117   5.326 -0.5221 -0.7855  0.1200
 6725SOL     OW31636   4.445   0.794   4.904  0.1528 -0.6122 -1.3901
 6725SOL    HW131637   4.459   0.752   4.819 -1.8376 -0.2314 -1.9168
 6725SOL    HW231638   4.350   0.783   4.910  0.2381 -0.9169 -0.5805
 6726SOL     OW31639   2.372   0.049   1.781 -0.3472 -0.3368  0.3893
 6726SOL    HW131640   2.434   0.043   1.708  1.3984 -4.2471  2.1998
 6726SOL    HW231641   2.295   0.033   1.727 -0.0494  1.5963 -0.5888
 6727SOL     OW31642   3.475   1.153  16.193 -0.1191 -0.0478  0.0623
 6727SOL    HW131643   3.431   1.213  16.132 -0.5915 -0.7147 -0.2465
 6727SOL    HW231644   3.418   1.159  16.269  0.9128  0.7922  0.7713
 6728SOL     OW31645   1.866   0.631   2.602 -0.0242  0.0348  0.1000
 6728SOL    HW131646   1.955   0.652   2.575 -0.0224 -1.4942 -1.0750
 6728SOL    HW231647   1.814   0.681   2.539  0.1104 -0.7571 -0.6364
 6729SOL     OW31648   4.444   0.158   5.837  0.2924  0.0240 -0.3840
 6729SOL    HW131649   4.429   0.063   5.831  0.1325 -0.1460  2.6575
 6729SOL    HW231650   4.423   0.184   5.748 -2.7167 -0.8158  0.0826
 6730SOL     OW31651   2.019   4.278   8.480  1.0379  0.4415  0.1364
 6730SOL    HW131652   1.939   4.256   8.528  0.1363  2.6937 -0.3276
 6730SOL    HW231653   2.072   4.201   8.497 -0.4867 -0.6293  0.1069
 6731SOL     OW31654   3.882   1.655   9.589 -0.1107  0.3758 -0.1708
 6731SOL    HW131655   3.944   1.656   9.516  0.5382  1.9901  0.4157
 6731SOL    HW231656   3.838   1.570   9.574 -0.2751  0.4981 -0.3904
 6732SOL     OW31657   1.384   4.043   2.299  0.1349 -0.1009  0.5336
 6732SOL    HW131658   1.472   4.072   2.321  0.3689  0.3196 -0.9067
 6732SOL    HW231659   1.402   3.989   2.221 -0.8326  0.7613 -0.2808
 6733SOL     OW31660   1.925   2.108   3.947  0.2989  0.0808  0.3158
 6733SOL    HW131661   1.854   2.126   3.886 -2.2061  0.5092  3.3789
 6733SOL    HW231662   1.989   2.176   3.927 -0.2675  0.0648 -1.5623
 6734SOL     OW31663   2.308   0.448   9.215  0.0349  0.0776 -0.0524
 6734SOL    HW131664   2.287   0.451   9.308  0.0655 -1.2067 -0.0040
 6734SOL    HW231665   2.377   0.514   9.212  0.9510 -0.8142  1.4038
 6735SOL     OW31666   3.316   0.864  15.728 -0.0715  0.2355  0.1538
 6735SOL    HW131667   3.234   0.899  15.763 -0.3657 -1.3109  1.0232
 6735SOL    HW231668   3.355   0.807  15.795  0.5951  1.5924  0.9073
 6736SOL     OW31669   0.936   3.413  12.997  0.3116  0.4097  0.0009
 6736SOL    HW131670   0.897   3.489  13.040  1.4808  0.6016  0.6968
 6736SOL    HW231671   0.964   3.365  13.075  1.1671  0.7991 -0.0685
 6737SOL     OW31672   1.133   1.673  14.317 -0.0449 -0.0547 -0.3018
 6737SOL    HW131673   1.121   1.732  14.392  1.2416  1.0037 -0.9425
 6737SOL    HW231674   1.108   1.735  14.249 -3.0165 -0.2542  0.6194
 6738SOL     OW31675   3.760   4.545   8.420  0.1256  0.0818 -0.2310
 6738SOL    HW131676   3.765   4.479   8.350  1.1784  0.3049 -0.3570
 6738SOL    HW231677   3.748   4.621   8.362  0.0076  0.3670  0.1701
 6739SOL     OW31678   4.196   0.901   8.015 -0.1399 -0.5366  0.4280
 6739SOL    HW131679   4.214   0.811   8.043  0.5162 -1.1249 -1.8829
 6739SOL    HW231680   4.242   0.942   8.088  0.2200 -1.6650  0.8394
 6740SOL     OW31681   3.728   0.924   6.905 -0.1363  0.4613 -0.1374
 6740SOL    HW131682   3.680   0.905   6.985 -0.2614 -0.3958 -0.4192
 6740SOL    HW231683   3.665   0.883   6.846  0.1867 -1.1544  0.6416
 6741SOL     OW31684   1.266   3.823   7.937 -0.1051  0.3074  0.3816
 6741SOL    HW131685   1.320   3.795   7.863 -0.8252 -2.0067  0.7428
 6741SOL    HW231686   1.283   3.916   7.951  1.6224  0.1435 -0.6151
 6742SOL     OW31687   0.738   4.339   5.948  1.0373  0.8348  0.4716
 6742SOL    HW131688   0.714   4.276   5.881  1.2487  0.8302  0.4021
 6742SOL    HW231689   0.653   4.368   5.983  0.3385 -0.2928 -0.3201
 6743SOL     OW31690   4.700   0.866   3.180 -0.1409 -0.4565  0.2136
 6743SOL    HW131691   0.066   0.893   3.164 -0.0724 -0.0624  1.2576
 6743SOL    HW231692   4.659   0.889   3.096  1.7695  1.4444 -0.1989
 6744SOL     OW31693   2.658   2.271   7.701  0.4052 -0.8326  0.6927
 6744SOL    HW131694   2.743   2.289   7.740  0.7733 -1.4088  0.1464
 6744SOL    HW231695   2.610   2.350   7.729  0.4235 -0.5711 -0.0301
 6745SOL     OW31696   2.789   3.983   3.889  0.0848  0.5409 -0.0409
 6745SOL    HW131697   2.818   3.956   3.801 -0.0036  0.5427 -0.0699
 6745SOL    HW231698   2.837   4.066   3.893  1.4237 -0.2088 -0.2447
 6746SOL     OW31699   3.755   0.413  14.671 -0.4600  0.2127 -0.3247
 6746SOL    HW131700   3.827   0.369  14.624  0.2068  1.3278 -0.3557
 6746SOL    HW231701   3.734   0.486  14.612  1.3256 -0.9112 -2.3610
 6747SOL     OW31702   3.743   0.643  10.495 -0.5963 -0.2558  0.3891
 6747SOL    HW131703   3.685   0.574  10.462 -0.6574 -0.5784  1.1609
 6747SOL    HW231704   3.802   0.598  10.555  0.0799 -1.7256 -1.3754
 6748SOL     OW31705   1.076   2.192   6.886 -0.1858 -0.6292 -0.1934
 6748SOL    HW131706   0.982   2.172   6.889 -0.3338  0.1117  0.0920
 6748SOL    HW231707   1.099   2.139   6.810 -0.5717 -1.7536  0.4832
 6749SOL     OW31708   4.157   0.701   4.866 -0.2728  0.0623 -0.3154
 6749SOL    HW131709   4.106   0.686   4.786 -1.4580  0.3034  0.3995
 6749SOL    HW231710   4.138   0.795   4.874 -0.0124 -0.0749  1.8131
 6750SOL     OW31711   2.143   4.473   4.100 -0.4734  0.4591  0.5218
 6750SOL    HW131712   2.058   4.468   4.055 -0.8945 -2.6199  1.6963
 6750SOL    HW231713   2.139   4.563   4.132  0.8248  0.2368  1.3259
 6751SOL     OW31714   1.225   1.711   9.568 -0.3659 -0.2497  0.1501
 6751SOL    HW131715   1.280   1.633   9.558 -1.5509 -1.0062 -0.4742
 6751SOL    HW231716   1.143   1.672   9.536 -0.4282  1.0372 -1.2663
 6752SOL     OW31717   1.471   1.631  17.441 -0.4530  0.8684 -0.5697
 6752SOL    HW131718   1.461   1.664  17.352  1.3608  1.0561 -0.6923
 6752SOL    HW231719   1.418   1.552  17.433  0.8164 -0.3919  3.6731
 6753SOL     OW31720   4.435   0.730  13.672 -0.3220 -0.4358  0.3581
 6753SOL    HW131721   4.360   0.790  13.665 -0.1945 -0.3380 -0.2456
 6753SOL    HW231722   4.450   0.730  13.766  1.1633  1.9422  0.1168
 6754SOL     OW31723   2.614   1.010   1.892  0.0580  0.8516  0.5535
 6754SOL    HW131724   2.663   0.940   1.850 -2.0691 -0.8170  0.8965
 6754SOL    HW231725   2.639   0.991   1.983  0.7935  0.0798  0.1914
 6755SOL     OW31726   1.867   2.809   6.347  0.5143 -0.1692 -0.3818
 6755SOL    HW131727   1.778   2.825   6.316  1.5783  2.8612 -1.8574
 6755SOL    HW231728   1.856   2.722   6.387 -3.3256  0.2124 -0.5761
 6756SOL     OW31729   4.538   1.648   3.942  0.6146 -0.6653 -0.3969
 6756SOL    HW131730   4.598   1.634   4.015  1.9133 -0.7498 -1.4745
 6756SOL    HW231731   4.587   1.607   3.870  1.5305  1.9400 -1.2394
 6757SOL     OW31732   3.837   0.611  12.689 -0.1715 -0.5086 -0.7625
 6757SOL    HW131733   3.832   0.586  12.596 -2.6543 -2.2312 -0.1612
 6757SOL    HW231734   3.931   0.598  12.699 -0.2923  0.4609  1.5224
 6758SOL     OW31735   0.002   2.196   8.641  0.2184 -0.0001  0.2099
 6758SOL    HW131736   4.663   2.214   8.710  0.7464 -0.1763  0.7491
 6758SOL    HW231737   0.086   2.200   8.688  0.5494 -3.3365 -0.0771
 6759SOL     OW31738   2.004   2.591   8.344 -0.2170  0.3598  0.5165
 6759SOL    HW131739   1.969   2.622   8.428 -1.0210 -0.9680  0.6702
 6759SOL    HW231740   1.917   2.579   8.306 -0.5694  0.1070  1.4146
 6760SOL     OW31741   1.418   0.747  13.192 -0.6664  0.2552 -0.7849
 6760SOL    HW131742   1.479   0.677  13.167 -1.4229 -0.7566  0.2258
 6760SOL    HW231743   1.469   0.793  13.258  2.1070 -1.9452 -1.4133
 6761SOL     OW31744   3.269   4.101   5.545  1.2514 -0.2669  0.1801
 6761SOL    HW131745   3.209   4.156   5.596  1.4059 -0.9066  1.0563
 6761SOL    HW231746   3.238   4.010   5.553  1.1825 -0.3635 -1.2391
 6762SOL     OW31747   2.043   2.298   6.852  0.3838  0.3868  0.6309
 6762SOL    HW131748   2.017   2.334   6.937  0.6441  0.1745  0.8006
 6762SOL    HW231749   2.082   2.212   6.870 -1.0681 -0.2328  0.7879
 6763SOL     OW31750   3.347   3.904  10.111 -0.4512  0.3892  0.1962
 6763SOL    HW131751   3.415   3.922  10.045 -0.2386 -1.3670 -0.0622
 6763SOL    HW231752   3.375   3.821  10.148  0.1647  0.0340 -1.0479
 6764SOL     OW31753   4.030   0.747   5.895  0.5206 -0.6062  0.5565
 6764SOL    HW131754   3.991   0.833   5.876  0.1328 -0.9986 -0.4118
 6764SOL    HW231755   4.100   0.735   5.830  0.7658  1.7605  0.3806
 6765SOL     OW31756   0.056   1.541   2.401 -0.4031 -0.0435  0.2673
 6765SOL    HW131757   4.702   1.488   2.413  0.4293 -1.2368  0.3924
 6765SOL    HW231758   0.051   1.538   2.305 -3.6397 -2.6398  0.5248
 6766SOL     OW31759   4.421   3.835   4.062  1.4876 -0.3963  0.1488
 6766SOL    HW131760   4.468   3.751   4.056  1.6928 -0.3940  1.7703
 6766SOL    HW231761   4.409   3.856   3.969  0.6794  0.1278  0.3781
 6767SOL     OW31762   4.046   4.134   8.570 -0.4781  0.2465  0.0509
 6767SOL    HW131763   4.136   4.106   8.585 -0.0478  2.4207  1.4004
 6767SOL    HW231764   4.010   4.084   8.497  1.1413  0.4559 -0.9010
 6768SOL     OW31765   3.598   2.163  11.652  0.2335  0.2325  0.0464
 6768SOL    HW131766   3.694   2.171  11.652  0.1470  1.2328 -2.4292
 6768SOL    HW231767   3.582   2.197  11.740  2.2897 -0.0140  0.5283
 6769SOL     OW31768   2.920   4.247   4.507  0.4125 -0.0127  0.0187
 6769SOL    HW131769   2.938   4.238   4.601 -1.2948  0.2466  0.3784
 6769SOL    HW231770   2.997   4.214   4.461 -1.8434 -2.7797 -1.8259
 6770SOL     OW31771   2.965   2.960   5.883  0.0877 -0.2832 -0.1527
 6770SOL    HW131772   3.046   2.994   5.843  0.2072  0.2211  0.5144
 6770SOL    HW231773   2.987   2.993   5.970  0.5310  1.9266 -1.1039
 6771SOL     OW31774   3.661   1.273   6.995  0.3849  0.5594 -0.1689
 6771SOL    HW131775   3.754   1.293   6.998  0.5037 -0.1713  0.8554
 6771SOL    HW231776   3.644   1.298   6.904  0.2294  1.4882  0.1093
 6772SOL     OW31777   2.705   3.679   4.858  0.5534 -0.2207  0.1256
 6772SOL    HW131778   2.651   3.601   4.852 -0.5598  0.7314 -2.2968
 6772SOL    HW231779   2.709   3.683   4.954  1.9348 -0.5068  0.0792
 6773SOL     OW31780   1.287   2.939   0.946 -0.1378 -0.4601  0.2792
 6773SOL    HW131781   1.222   3.001   0.913 -0.3214  0.4294  2.2835
 6773SOL    HW231782   1.275   2.966   1.037 -0.1196  0.5662 -0.0249
 6774SOL     OW31783   2.263   4.375   2.581 -0.4880  0.0452  0.7380
 6774SOL    HW131784   2.302   4.304   2.633 -1.7500 -1.1055  0.1225
 6774SOL    HW231785   2.337   4.435   2.590 -0.4649 -0.2894  2.8550
 6775SOL     OW31786   2.504   4.525   1.442 -0.1119 -0.2035 -0.0190
 6775SOL    HW131787   2.569   4.515   1.373 -0.4897 -0.3296 -0.3559
 6775SOL    HW231788   2.415   4.522   1.407  0.3889  0.3126 -1.3366
 6776SOL     OW31789   4.014   2.502  10.925 -0.2467 -0.4679 -0.2001
 6776SOL    HW131790   4.033   2.592  10.952  0.6871 -1.2811  1.8452
 6776SOL    HW231791   3.959   2.475  10.999  1.4277 -1.2097  0.7952
 6777SOL     OW31792   2.411   3.271   2.461 -0.1381  0.0578 -0.1980
 6777SOL    HW131793   2.460   3.264   2.543 -1.3385 -0.1844  0.5153
 6777SOL    HW231794   2.406   3.186   2.417  1.1737 -0.1462  0.0434
 6778SOL     OW31795   2.140   4.362   5.099  0.2208  0.2330 -0.4381
 6778SOL    HW131796   2.165   4.446   5.136  1.7272 -0.5556  0.3339
 6778SOL    HW231797   2.223   4.330   5.062 -1.3992 -2.0397 -2.1494
 6779SOL     OW31798   1.314   0.647   7.648 -0.1883 -0.2418 -0.0054
 6779SOL    HW131799   1.246   0.619   7.709 -0.3461 -2.0059 -0.9914
 6779SOL    HW231800   1.389   0.609   7.694 -1.8344 -3.2477  0.1897
 6780SOL     OW31801   4.145   4.077   7.391  0.1007 -0.5968  0.4214
 6780SOL    HW131802   4.165   4.164   7.427  0.0762 -0.0360 -0.9073
 6780SOL    HW231803   4.195   4.075   7.310 -1.0434  0.0203 -0.3063
 6781SOL     OW31804   0.438   1.751   6.646  0.3483 -0.3849 -0.4608
 6781SOL    HW131805   0.361   1.757   6.703  1.5383 -0.2894  1.1387
 6781SOL    HW231806   0.501   1.705   6.701  1.5043  3.2623  1.2675
 6782SOL     OW31807   4.390   0.142   3.303 -0.2339  0.1349  0.0694
 6782SOL    HW131808   4.474   0.099   3.323 -0.5110 -0.7676 -0.7270
 6782SOL    HW231809   4.418   0.233   3.313 -4.6410  1.5968 -1.0208
 6783SOL     OW31810   3.820   3.815   6.493  0.2257 -0.2197 -0.1753
 6783SOL    HW131811   3.847   3.826   6.402 -0.4808 -0.7019 -0.4380
 6783SOL    HW231812   3.786   3.727   6.508  0.4974 -0.5872 -1.7849
 6784SOL     OW31813   4.266   0.425  17.089  0.3294 -0.0518  0.4711
 6784SOL    HW131814   4.184   0.475  17.090  0.2775 -0.0798 -1.8401
 6784SOL    HW231815   4.244   0.358  17.155  2.1944  0.3294  1.4685
 6785SOL     OW31816   0.236   1.768   5.613  0.1358 -0.4432 -0.0832
 6785SOL    HW131817   0.281   1.718   5.682  0.4838 -0.9380 -0.6637
 6785SOL    HW231818   0.218   1.856   5.645 -0.1394 -0.2146 -0.8582
 6786SOL     OW31819   4.014   3.660   6.633 -0.5529 -0.1345  0.0520
 6786SOL    HW131820   4.069   3.715   6.577 -0.1971  0.2227  0.7360
 6786SOL    HW231821   3.933   3.708   6.617 -0.0476  0.5528 -0.4456
 6787SOL     OW31822   2.560   4.203  13.077  0.3726 -0.0495  0.0300
 6787SOL    HW131823   2.470   4.210  13.110  0.5508 -0.1880  0.5369
 6787SOL    HW231824   2.612   4.248  13.143  1.3378 -1.7238  0.3869
 6788SOL     OW31825   1.404   2.095   5.359 -0.4303  0.2407  0.4128
 6788SOL    HW131826   1.376   2.020   5.411  0.9740  0.4565  1.4842
 6788SOL    HW231827   1.381   2.159   5.427  1.3041  0.2008  1.0303
 6789SOL     OW31828   4.198   3.122   8.785  0.1868 -0.1157 -0.3683
 6789SOL    HW131829   4.205   3.027   8.775 -4.1659 -0.6620  2.0071
 6789SOL    HW231830   4.145   3.150   8.711 -0.4254  0.6243  0.3511
 6790SOL     OW31831   0.822   3.771   3.512  0.4982 -0.5031 -0.2016
 6790SOL    HW131832   0.743   3.821   3.496  1.5606  1.2681  0.0853
 6790SOL    HW231833   0.858   3.766   3.424 -1.5738  2.8499 -1.2084
 6791SOL     OW31834   2.661   1.973   5.657 -0.4607 -0.1211 -0.6533
 6791SOL    HW131835   2.636   1.932   5.574 -0.0015 -1.5169 -0.0996
 6791SOL    HW231836   2.685   2.061   5.627  0.7405 -0.4151 -0.5856
 6792SOL     OW31837   1.745   4.175   8.425  0.1258  0.4804 -0.7909
 6792SOL    HW131838   1.752   4.089   8.466 -1.3075  1.1593  0.8457
 6792SOL    HW231839   1.810   4.161   8.355  1.0940 -0.1526  0.2305
 6793SOL     OW31840   0.341   2.408   5.674 -0.5221  0.1954  0.2930
 6793SOL    HW131841   0.317   2.413   5.767 -1.4713  0.1816  0.0437
 6793SOL    HW231842   0.259   2.435   5.633 -1.7680  0.5429  2.9769
 6794SOL     OW31843   1.866   3.316   7.410 -0.0354 -0.0855  0.2614
 6794SOL    HW131844   1.813   3.321   7.490  0.9315  1.1800  0.8282
 6794SOL    HW231845   1.954   3.317   7.448 -0.0909  1.9792  0.3880
 6795SOL     OW31846   1.280   2.755  15.225  0.2479 -0.5138 -0.0387
 6795SOL    HW131847   1.299   2.770  15.133 -0.8301  2.3075  0.1897
 6795SOL    HW231848   1.265   2.844  15.257 -0.5818 -0.7329  0.1653
 6796SOL     OW31849   4.718   4.677   7.834  0.4847  0.2975  0.2963
 6796SOL    HW131850   4.668   4.599   7.809  2.4904  0.2810 -3.6476
 6796SOL    HW231851   0.082   4.663   7.801  0.3675  0.6218 -0.1623
 6797SOL     OW31852   0.950   0.400   5.703 -0.3747  0.4573 -0.2730
 6797SOL    HW131853   0.864   0.436   5.725 -0.6212  0.2507 -0.8845
 6797SOL    HW231854   0.968   0.330   5.766 -1.1665  0.7739  0.3079
 6798SOL     OW31855   2.709   3.384  14.379 -0.1418 -0.3602 -0.1675
 6798SOL    HW131856   2.655   3.389  14.300  0.8132 -2.2053 -0.9512
 6798SOL    HW231857   2.741   3.296  14.362 -1.9049 -1.0622  0.0565
 6799SOL     OW31858   3.213   1.789   5.346  0.2296  0.0887 -0.7495
 6799SOL    HW131859   3.150   1.817   5.412 -1.8936  0.4988 -2.9581
 6799SOL    HW231860   3.264   1.863   5.312  0.6053  0.2944  0.2681
 6800SOL     OW31861   1.703   1.112  13.239 -0.1900  0.6376  0.0193
 6800SOL    HW131862   1.624   1.069  13.272 -0.7357 -0.0997 -2.2774
 6800SOL    HW231863   1.663   1.185  13.192  0.6864  1.8954  1.2267
 6801SOL     OW31864   1.242   3.322   9.221 -0.1834  0.3088  0.1693
 6801SOL    HW131865   1.250   3.360   9.134  1.4058  1.0603  0.6524
 6801SOL    HW231866   1.330   3.326   9.258  0.4278 -0.4626 -1.2271
 6802SOL     OW31867   3.010   2.130   2.412  0.5615  0.2523  0.1537
 6802SOL    HW131868   3.028   2.217   2.375  2.1022 -0.7466 -1.4561
 6802SOL    HW231869   2.974   2.088   2.334  1.1073  0.4095 -0.1821
 6803SOL     OW31870   2.754   4.648   5.642  0.3373  0.2237  0.4117
 6803SOL    HW131871   2.681   4.688   5.690 -0.3370  1.8364 -1.9529
 6803SOL    HW231872   2.793   0.004   5.607 -2.0366  0.3883 -1.8652
 6804SOL     OW31873   2.371   2.597   2.289  0.3235  0.2758 -0.1833
 6804SOL    HW131874   2.428   2.641   2.226  0.0032  1.0304  0.0469
 6804SOL    HW231875   2.293   2.579   2.237 -1.2537 -3.3428  3.4195
 6805SOL     OW31876   0.860   2.072   8.644  0.0680  0.3815 -0.1406
 6805SOL    HW131877   0.824   2.006   8.585  1.3796 -1.0064  0.6377
 6805SOL    HW231878   0.943   2.070   8.596 -0.1430  0.7284 -0.5247
 6806SOL     OW31879   2.985   0.355   8.118  0.3541  0.4945 -0.0218
 6806SOL    HW131880   3.035   0.348   8.037 -0.0589  2.4392 -0.4616
 6806SOL    HW231881   3.026   0.425   8.170  1.2571  0.2786 -0.4495
 6807SOL     OW31882   0.875   2.602   0.802 -0.2699  0.1404 -0.8431
 6807SOL    HW131883   0.908   2.513   0.808 -0.7744  0.1874  3.1609
 6807SOL    HW231884   0.868   2.618   0.897 -1.2747  1.8829 -1.2126
 6808SOL     OW31885   2.525   0.310  11.336 -0.3352  0.3703 -0.2598
 6808SOL    HW131886   2.495   0.270  11.254 -0.1685  0.4219 -0.3459
 6808SOL    HW231887   2.500   0.400  11.312  1.2183  1.6334  2.8371
 6809SOL     OW31888   2.277   0.323   1.826  0.9653  0.5194 -0.4760
 6809SOL    HW131889   2.279   0.233   1.795 -1.6245 -0.5075  2.3856
 6809SOL    HW231890   2.313   0.376   1.754 -0.8735  1.7840 -0.4572
 6810SOL     OW31891   0.022   1.028   2.268  0.5381  0.4077  0.0848
 6810SOL    HW131892   0.033   0.934   2.256  1.1616  0.6693 -1.3909
 6810SOL    HW231893   4.659   1.030   2.229  0.3214  1.8874  0.6408
 6811SOL     OW31894   1.827   1.868   7.059 -0.7884  0.4735  0.1700
 6811SOL    HW131895   1.767   1.939   7.037  0.0054  0.1326 -3.0819
 6811SOL    HW231896   1.781   1.785   7.070 -0.5806  0.6537  2.3227
 6812SOL     OW31897   3.863   1.827   8.256  0.2346  0.0996 -0.2697
 6812SOL    HW131898   3.878   1.809   8.349  1.4194 -2.6465 -1.0038
 6812SOL    HW231899   3.844   1.920   8.265  1.0467  0.3682 -1.4721
 6813SOL     OW31900   3.547   2.405   7.297 -0.4269  0.1076  0.5783
 6813SOL    HW131901   3.626   2.427   7.247 -0.5164 -1.2649 -0.1465
 6813SOL    HW231902   3.550   2.310   7.303  0.1606  0.0211 -1.0041
 6814SOL     OW31903   0.810   0.189  10.955  0.0876 -0.0671  0.4882
 6814SOL    HW131904   0.775   0.160  11.040  2.2818 -0.7998  1.1633
 6814SOL    HW231905   0.734   0.226  10.910 -0.1589 -0.5529  0.5030
 6815SOL     OW31906   2.066   4.686   0.308 -0.1698  0.0941 -0.1255
 6815SOL    HW131907   1.991   4.627   0.305 -0.8841  0.9962 -0.0402
 6815SOL    HW231908   2.055   0.005   0.223 -1.1055 -0.5716 -0.3385
 6816SOL     OW31909   1.107   2.842   8.136  0.3002 -0.3857  0.0596
 6816SOL    HW131910   1.052   2.920   8.141  1.1464  0.3421 -2.2199
 6816SOL    HW231911   1.187   2.876   8.176  0.3966 -2.8055  1.9039
 6817SOL     OW31912   3.807   1.638   6.250  0.6813 -0.4009  0.3910
 6817SOL    HW131913   3.819   1.552   6.211 -0.3051 -0.8123  0.9688
 6817SOL    HW231914   3.893   1.669   6.223  0.8395  0.0103  1.3838
 6818SOL     OW31915   2.925   3.016   9.283  0.4111  0.0477  0.4328
 6818SOL    HW131916   2.879   3.015   9.367 -1.8742 -0.5696 -0.8347
 6818SOL    HW231917   2.961   3.104   9.281 -0.8184  0.5602  0.8391
 6819SOL     OW31918   2.354   1.977  14.792 -0.0125  0.6087 -0.1471
 6819SOL    HW131919   2.335   2.042  14.860  0.7796 -0.4403  1.0905
 6819SOL    HW231920   2.311   1.895  14.817  0.7925 -0.1460 -1.2715
 6820SOL     OW31921   3.136   2.201   7.700 -0.4361 -0.1871 -0.1378
 6820SOL    HW131922   3.184   2.223   7.621 -0.9783 -1.9250 -0.9473
 6820SOL    HW231923   3.113   2.109   7.684 -3.5923  0.4331  0.7223
 6821SOL     OW31924   4.143   0.175   5.995  0.4190  0.6288  0.4113
 6821SOL    HW131925   4.212   0.229   5.956 -0.4623 -0.7675 -3.1072
 6821SOL    HW231926   4.107   0.130   5.918 -0.5511  2.4236 -0.1673
 6822SOL     OW31927   3.424   0.997   6.456 -0.1062 -0.4329  0.2402
 6822SOL    HW131928   3.459   0.993   6.367  1.3622 -1.4650  0.8752
 6822SOL    HW231929   3.382   1.083   6.462  1.7925  0.5566 -0.6474
 6823SOL     OW31930   0.284   4.690   8.386 -0.5853 -0.1211  0.6980
 6823SOL    HW131931   0.255   4.691   8.295 -1.1615  0.4852  0.8856
 6823SOL    HW231932   0.242   4.609   8.416  1.6063 -1.5975 -0.3263
 6824SOL     OW31933   0.391   3.608   2.078 -0.5039 -0.0846 -0.4308
 6824SOL    HW131934   0.435   3.665   2.140  2.8116 -0.1736 -2.7129
 6824SOL    HW231935   0.450   3.533   2.077 -0.7276 -0.2719  0.6320
 6825SOL     OW31936   2.384   0.310   1.278  0.3106 -0.4075 -0.4149
 6825SOL    HW131937   2.302   0.284   1.319 -0.1191  1.4567 -0.1007
 6825SOL    HW231938   2.403   0.227   1.234 -0.0952 -0.8572  0.2617
 6826SOL     OW31939   3.558   2.165   2.124 -0.1595  0.0202  0.1473
 6826SOL    HW131940   3.478   2.213   2.105 -0.4991 -0.8524 -0.6380
 6826SOL    HW231941   3.614   2.230   2.166 -1.2247  0.8066  0.3462
 6827SOL     OW31942   2.905   0.714   3.510  0.0962 -0.0574  0.1405
 6827SOL    HW131943   2.956   0.745   3.586 -2.4076  0.4636  1.5969
 6827SOL    HW231944   2.971   0.738   3.445 -1.4518 -0.2337 -1.4888
 6828SOL     OW31945   2.306   0.954   8.641 -0.5267  0.4997  0.1793
 6828SOL    HW131946   2.384   0.901   8.623 -0.9997  0.5469 -1.9462
 6828SOL    HW231947   2.239   0.890   8.667  2.7489 -2.5693  1.1315
 6829SOL     OW31948   4.586   0.939  17.689  0.2927  0.1581  0.1334
 6829SOL    HW131949   4.577   1.010  17.627  2.1823 -2.2124 -2.8599
 6829SOL    HW231950   4.555   0.872  17.628 -0.7851  1.2450 -0.5013
 6830SOL     OW31951   0.587   4.686   8.371  0.3876 -0.1559  0.1740
 6830SOL    HW131952   0.492   4.676   8.361  0.9634 -3.0069 -2.4774
 6830SOL    HW231953   0.617   4.633   8.297 -2.8205  0.0629 -1.2844
 6831SOL     OW31954   4.628   0.688  14.599  0.1772 -0.0643  0.1715
 6831SOL    HW131955   4.662   0.600  14.586 -0.5378 -0.5075  1.3433
 6831SOL    HW231956   4.535   0.672  14.614 -0.0109  0.1110 -0.7978
 6832SOL     OW31957   2.845   0.552   5.689  0.1973  0.6781 -0.8366
 6832SOL    HW131958   2.835   0.586   5.601  1.6922  2.2798 -0.3894
 6832SOL    HW231959   2.878   0.636   5.720 -0.7018  0.2010  1.4508
 6833SOL     OW31960   4.251   3.234   3.520 -0.5218 -0.0818  0.8503
 6833SOL    HW131961   4.171   3.285   3.535 -0.2082  0.5693  0.3310
 6833SOL    HW231962   4.218   3.164   3.463 -0.3627 -0.5239  1.3021
 6834SOL     OW31963   0.308   0.266  14.007 -0.0588  0.0740 -0.1505
 6834SOL    HW131964   0.372   0.286  13.939 -0.6313 -0.6129 -0.8972
 6834SOL    HW231965   0.337   0.328  14.074 -0.2152 -0.0682  0.0508
 6835SOL     OW31966   2.455   1.750   9.188  0.3688 -0.3893 -0.3315
 6835SOL    HW131967   2.470   1.747   9.094 -0.0358 -0.3686 -0.3963
 6835SOL    HW231968   2.394   1.677   9.199 -2.0206  1.3992 -1.6548
 6836SOL     OW31969   1.688   2.953   8.563 -0.1408 -0.2269 -0.0570
 6836SOL    HW131970   1.658   2.923   8.477  0.6187 -2.7111  0.5495
 6836SOL    HW231971   1.617   2.910   8.611  0.0235 -0.7146 -0.2426
 6837SOL     OW31972   3.083   3.049   8.972  0.7022  0.3805 -0.3297
 6837SOL    HW131973   3.076   2.954   8.968 -2.7057  0.6479 -1.3006
 6837SOL    HW231974   3.074   3.066   8.878 -2.0494  0.0405 -0.1443
 6838SOL     OW31975   1.048   2.716   5.375  0.2852  0.5143 -0.0065
 6838SOL    HW131976   0.958   2.717   5.409 -0.8905 -0.5056 -3.1145
 6838SOL    HW231977   1.062   2.623   5.362  0.2808  0.2377  2.0495
 6839SOL     OW31978   4.150   0.536   9.962  0.0275 -0.4323 -0.1644
 6839SOL    HW131979   4.201   0.474  10.015 -3.8285 -0.6282  3.3447
 6839SOL    HW231980   4.081   0.481   9.925  0.8211 -0.8385 -1.0470
 6840SOL     OW31981   2.135   0.250   7.592  0.1796 -0.2807 -0.2095
 6840SOL    HW131982   2.065   0.270   7.529 -0.5360 -0.3504  0.5612
 6840SOL    HW231983   2.078   0.206   7.655  0.1755 -2.0394 -1.4342
 6841SOL     OW31984   1.742   4.490   6.263  0.1606  0.2747 -0.4781
 6841SOL    HW131985   1.671   4.504   6.200 -1.4153 -0.6596  1.0896
 6841SOL    HW231986   1.816   4.460   6.210 -0.5022  1.2490 -1.9749
 6842SOL     OW31987   3.397   3.719   8.467 -0.2196 -0.1251  0.0040
 6842SOL    HW131988   3.371   3.756   8.551 -1.8870 -3.5610  1.0234
 6842SOL    HW231989   3.388   3.794   8.407  0.9585  0.6493  0.7964
 6843SOL     OW31990   4.332   1.653  16.687  0.0376 -0.1299  0.1048
 6843SOL    HW131991   4.287   1.568  16.687  0.3661 -0.3021 -0.5535
 6843SOL    HW231992   4.392   1.634  16.759 -0.0129 -0.0808  0.1600
 6844SOL     OW31993   4.462   2.431   8.614 -0.0163  0.0741  0.3348
 6844SOL    HW131994   4.551   2.452   8.641  1.0774 -1.0721 -2.3893
 6844SOL    HW231995   4.410   2.510   8.631  0.5865  0.8922 -1.6366
 6845SOL     OW31996   0.371   3.850   8.325  0.7153  0.4229 -1.0614
 6845SOL    HW131997   0.409   3.766   8.351  0.0776  0.3122 -0.5016
 6845SOL    HW231998   0.425   3.856   8.247  0.2228 -1.1030 -1.5290
 6846SOL     OW31999   0.694   1.168   3.096 -0.0694 -0.1371 -0.2922
 6846SOL    HW132000   0.745   1.140   3.020  1.2919 -1.3434  1.0404
 6846SOL    HW232001   0.611   1.195   3.059 -0.6176 -1.3845  0.0455
 6847SOL     OW32002   0.893   2.994  13.931  0.4592  0.2028  0.1083
 6847SOL    HW132003   0.913   2.908  13.894 -0.2202  0.3179 -0.5185
 6847SOL    HW232004   0.806   2.984  13.972  0.6469  2.2395  1.0099
 6848SOL     OW32005   3.235   1.573   3.740  0.4522  0.8265 -1.0191
 6848SOL    HW132006   3.250   1.499   3.682  0.1438 -1.2662  1.5863
 6848SOL    HW232007   3.256   1.546   3.830  0.8493 -0.4901 -1.5144
 6849SOL     OW32008   1.235   4.422   0.548 -0.2374  0.0531 -0.9954
 6849SOL    HW132009   1.169   4.490   0.537 -2.0545 -1.2403  1.7872
 6849SOL    HW232010   1.288   4.461   0.618  1.5814 -1.5110 -1.4888
 6850SOL     OW32011   3.195   0.637   8.818  0.7995  0.1490 -0.5122
 6850SOL    HW132012   3.236   0.719   8.791 -0.0185  1.4023  2.0899
 6850SOL    HW232013   3.116   0.638   8.764  0.7868  1.7074 -0.4601
 6851SOL     OW32014   4.420   1.736   9.708 -0.2206  0.1865 -0.3207
 6851SOL    HW132015   4.353   1.787   9.662 -0.6081  1.0231  1.1549
 6851SOL    HW232016   4.486   1.803   9.726 -1.0351  0.8321  0.2885
 6852SOL     OW32017   3.601   1.420   8.517  0.0320  0.0823 -0.5720
 6852SOL    HW132018   3.660   1.490   8.545  2.2555 -1.7252 -0.7286
 6852SOL    HW232019   3.546   1.415   8.596  1.3199 -1.4790  0.2278
 6853SOL     OW32020   3.497   4.489   5.495 -0.2480 -0.3027 -0.3568
 6853SOL    HW132021   3.533   4.423   5.555  1.3565  0.9030  0.0184
 6853SOL    HW232022   3.406   4.481   5.522 -0.0764 -0.7753  0.0979
 6854SOL     OW32023   4.137   2.497   5.365 -0.8525  0.4150  0.0978
 6854SOL    HW132024   4.159   2.408   5.395  1.2499  0.1045 -2.2946
 6854SOL    HW232025   4.212   2.516   5.308  0.9811 -1.7052  1.7792
 6855SOL     OW32026   4.429   0.021  17.313  0.3253 -1.1239  0.1556
 6855SOL    HW132027   4.491   4.705  17.253  0.7805  0.3611 -0.3756
 6855SOL    HW232028   4.486   0.044  17.387  0.2542 -1.0749  0.1954
 6856SOL     OW32029   2.864   4.591   2.216  0.8423 -0.3846  0.1115
 6856SOL    HW132030   2.856   4.686   2.219 -2.2113 -0.6040 -0.9729
 6856SOL    HW232031   2.815   4.558   2.141 -1.8892 -1.5290  2.4434
 6857SOL     OW32032   1.703   1.162   4.879  0.5567  0.3657 -0.7250
 6857SOL    HW132033   1.626   1.213   4.853  1.0447  0.8101 -1.2917
 6857SOL    HW232034   1.777   1.216   4.853  0.3756  1.8940  2.0304
 6858SOL     OW32035   1.936   4.608   5.586  0.0306 -0.2854  0.2462
 6858SOL    HW132036   1.876   4.614   5.512  0.3224 -0.5538 -0.0137
 6858SOL    HW232037   1.966   4.699   5.582  0.1308 -0.4171 -1.7706
 6859SOL     OW32038   2.489   2.545   9.170 -0.1071  0.2106  0.0727
 6859SOL    HW132039   2.534   2.567   9.089  0.2465 -0.5198  0.0746
 6859SOL    HW232040   2.401   2.529   9.136  0.7346 -1.3223 -1.3821
 6860SOL     OW32041   0.751   4.553  10.147 -0.1822  0.0911  0.0615
 6860SOL    HW132042   0.844   4.571  10.161  0.4676 -0.9403 -2.9614
 6860SOL    HW232043   0.742   4.472  10.197  0.6989 -0.2197 -0.2722
 6861SOL     OW32044   0.767   1.691   4.092  0.2926  0.2441  0.3783
 6861SOL    HW132045   0.748   1.605   4.055  0.8612  1.0147 -1.7531
 6861SOL    HW232046   0.684   1.711   4.134 -0.6755  1.3219 -2.0534
 6862SOL     OW32047   2.207   2.850   7.962 -0.0952  0.2937 -0.2734
 6862SOL    HW132048   2.137   2.803   7.917  2.1992 -2.2841 -1.1260
 6862SOL    HW232049   2.258   2.883   7.888 -0.1568  1.1866  0.0806
 6863SOL     OW32050   2.522   1.505   6.930 -0.2012  0.1512 -0.6910
 6863SOL    HW132051   2.501   1.598   6.934  0.1915  0.2518 -1.0100
 6863SOL    HW232052   2.432   1.483   6.904 -0.2961 -1.3095  0.8831
 6864SOL     OW32053   3.414   1.674   6.945  0.1284  0.1186  0.3441
 6864SOL    HW132054   3.490   1.640   6.899  1.5605  0.4824  2.4161
 6864SOL    HW232055   3.354   1.603   6.922  0.7061  0.1076 -1.1257
 6865SOL     OW32056   1.473   2.390   4.623  0.0371  0.2122 -0.3695
 6865SOL    HW132057   1.464   2.457   4.691  2.0486  0.2212 -0.0994
 6865SOL    HW232058   1.410   2.428   4.562  1.5716  2.3701 -0.6111
 6866SOL     OW32059   1.118   3.624   8.102  0.2289 -0.0788  0.0759
 6866SOL    HW132060   1.176   3.677   8.047 -0.7331  0.6283 -0.2711
 6866SOL    HW232061   1.161   3.631   8.187  1.7282  1.8283 -0.8296
 6867SOL     OW32062   3.716   3.207   9.607 -0.7644  0.1537  1.0372
 6867SOL    HW132063   3.773   3.168   9.541  0.2538  3.0323  0.2087
 6867SOL    HW232064   3.630   3.204   9.564  0.6517  0.6475 -1.7989
 6868SOL     OW32065   4.078   3.118  10.199  0.4630 -0.3294  0.8608
 6868SOL    HW132066   4.116   3.203  10.222 -0.4518  0.7803 -1.7648
 6868SOL    HW232067   4.002   3.145  10.148  0.7810 -0.5620  0.2538
 6869SOL     OW32068   2.806   0.764  16.148 -0.1857 -0.0738 -0.3242
 6869SOL    HW132069   2.877   0.782  16.209 -1.4465 -0.8287  1.3724
 6869SOL    HW232070   2.759   0.847  16.156  1.1083  0.5858  0.4082
 6870SOL     OW32071   3.971   3.542   5.347  0.1412  0.4446 -0.2059
 6870SOL    HW132072   4.000   3.629   5.372 -0.5202  0.0664  1.8765
 6870SOL    HW232073   4.040   3.509   5.289  1.2195  1.2451  0.6196
 6871SOL     OW32074   3.227   0.591   1.288 -1.0385  0.1696 -0.7029
 6871SOL    HW132075   3.247   0.664   1.347  1.9249 -1.4203  0.3038
 6871SOL    HW232076   3.161   0.546   1.341  0.2841 -1.5122 -0.4547
 6872SOL     OW32077   1.339   1.277   5.146 -0.1782 -0.8032  0.0629
 6872SOL    HW132078   1.348   1.234   5.061  2.1643 -2.7901  1.3069
 6872SOL    HW232079   1.420   1.329   5.142  0.6191 -2.0994 -0.6664
 6873SOL     OW32080   1.612   0.183   8.353 -0.1914 -0.6369 -0.1321
 6873SOL    HW132081   1.706   0.201   8.358 -0.4774  1.2074 -1.4225
 6873SOL    HW232082   1.575   0.214   8.435  0.5136  1.1365 -0.4966
 6874SOL     OW32083   4.103   0.547   6.881  0.1696 -0.2190 -0.3047
 6874SOL    HW132084   4.152   0.584   6.807 -0.3218  2.0593  0.4820
 6874SOL    HW232085   4.053   0.627   6.898  0.9011  0.2294 -0.2484
 6875SOL     OW32086   1.996   3.404  13.145  0.5159 -0.0147  0.4694
 6875SOL    HW132087   1.948   3.389  13.227  0.1559 -0.6103  0.1452
 6875SOL    HW232088   2.084   3.419  13.179  0.8710  0.2162 -0.5670
 6876SOL     OW32089   2.057   3.511  11.223 -0.1522 -0.5614 -0.2888
 6876SOL    HW132090   2.049   3.480  11.313  0.2756 -1.0195 -0.4100
 6876SOL    HW232091   2.072   3.427  11.179 -0.2816  0.7918 -2.9667
 6877SOL     OW32092   3.718   4.148   0.124  0.1158 -0.3224 -0.2750
 6877SOL    HW132093   3.666   4.168   0.202 -1.4482 -1.5054 -1.0143
 6877SOL    HW232094   3.744   4.059   0.144  2.4302  0.2878 -0.5803
 6878SOL     OW32095   4.299   1.667   4.077 -0.2723  0.2020 -0.4973
 6878SOL    HW132096   4.382   1.665   4.029  0.4262 -2.3179  0.8433
 6878SOL    HW232097   4.251   1.733   4.027 -1.2290 -0.9831 -1.1270
 6879SOL     OW32098   1.863   2.298   5.844 -0.2962 -0.1621  0.3723
 6879SOL    HW132099   1.914   2.379   5.842 -1.2461  0.4491  1.0224
 6879SOL    HW232100   1.817   2.307   5.761  1.1024  0.2227 -0.3712
 6880SOL     OW32101   1.823   0.680  12.193 -0.0959  0.2290 -0.0864
 6880SOL    HW132102   1.828   0.660  12.287 -0.8123  1.3604  0.1933
 6880SOL    HW232103   1.824   0.775  12.206 -2.8238  0.0846  1.2615
 6881SOL     OW32104   2.742   1.243   5.056 -0.1639 -0.7451 -0.4867
 6881SOL    HW132105   2.698   1.287   4.983  0.4997 -1.1578 -1.1409
 6881SOL    HW232106   2.679   1.251   5.128  0.8367  0.4510  0.2477
 6882SOL     OW32107   1.026   4.602   5.640 -0.1568 -0.1128  0.2658
 6882SOL    HW132108   1.114   4.597   5.602 -0.8239 -0.0557 -1.2687
 6882SOL    HW232109   0.967   4.582   5.568  1.7786  1.8806 -1.8482
 6883SOL     OW32110   0.866   0.807  17.464 -0.4768 -0.2587  0.8285
 6883SOL    HW132111   0.808   0.847  17.528 -0.1290 -1.0294  1.6277
 6883SOL    HW232112   0.839   0.715  17.461  1.8863 -1.0405  2.9397
 6884SOL     OW32113   1.751   4.024   9.273  0.3076  0.2360  0.0006
 6884SOL    HW132114   1.660   4.025   9.300  0.0288 -1.2922 -0.8469
 6884SOL    HW232115   1.790   4.012   9.359  2.2166  1.0595 -0.7449
 6885SOL     OW32116   2.659   1.275  13.726 -0.3476 -0.4114 -0.3723
 6885SOL    HW132117   2.577   1.285  13.678 -0.6136 -0.7899  0.0029
 6885SOL    HW232118   2.723   1.278  13.655 -0.9951 -2.0657 -1.0222
 6886SOL     OW32119   3.578   1.522  15.295  0.1776 -0.1620  0.9015
 6886SOL    HW132120   3.627   1.548  15.373 -0.3031  0.3557  1.0293
 6886SOL    HW232121   3.634   1.561  15.229  0.8825 -1.1859  0.8975
 6887SOL     OW32122   3.015   0.834   4.922 -0.1652 -0.4419  0.1004
 6887SOL    HW132123   2.946   0.796   4.977 -0.4065 -0.6526 -0.3513
 6887SOL    HW232124   3.045   0.908   4.976 -1.7365  0.4974 -0.3292
 6888SOL     OW32125   3.762   2.931   1.126 -0.7802 -0.5591  0.3146
 6888SOL    HW132126   3.750   2.946   1.032  0.0725 -2.8738 -0.1854
 6888SOL    HW232127   3.854   2.907   1.130 -0.4386  0.5674 -0.9317
 6889SOL     OW32128   3.707   0.610  17.516  0.5297 -0.1121 -0.2878
 6889SOL    HW132129   3.748   0.652  17.440  1.7057  2.0971  1.5709
 6889SOL    HW232130   3.747   0.670  17.580  0.7885 -1.1023  0.4729
 6890SOL     OW32131   1.537   3.610  16.124 -0.7630  0.2420 -0.1701
 6890SOL    HW132132   1.470   3.662  16.078 -1.8190 -0.1541  0.9207
 6890SOL    HW232133   1.573   3.681  16.177 -0.5360  1.2375 -1.6527
 6891SOL     OW32134   1.290   4.541   9.121  0.3739  0.5418  0.0239
 6891SOL    HW132135   1.366   4.553   9.063 -0.0176  0.4482 -0.5047
 6891SOL    HW232136   1.252   4.627   9.107 -0.3465 -0.4243 -3.9537
 6892SOL     OW32137   0.879   3.969   4.141 -0.1871 -0.6069 -0.2033
 6892SOL    HW132138   0.903   3.986   4.050  1.2802  0.1309  0.3338
 6892SOL    HW232139   0.804   4.029   4.144  0.1911 -0.0448 -2.3220
 6893SOL     OW32140   3.069   1.734   0.809 -0.5638  0.4577  0.0471
 6893SOL    HW132141   3.126   1.678   0.758 -0.8505 -0.8981  1.2062
 6893SOL    HW232142   3.104   1.819   0.782  0.9020 -0.3684 -0.5957
 6894SOL     OW32143   2.215   4.028  17.638 -0.2220 -0.3901 -0.2386
 6894SOL    HW132144   2.207   4.008   0.033 -0.0545  0.5309 -0.0235
 6894SOL    HW232145   2.134   4.076  17.618  0.6483  0.7356 -1.0793
 6895SOL     OW32146   3.225   1.123   5.554  0.1080  0.7605 -0.2985
 6895SOL    HW132147   3.287   1.161   5.491 -0.4475  2.3252  0.1049
 6895SOL    HW232148   3.260   1.035   5.565 -0.2333  0.5807 -0.6243
 6896SOL     OW32149   0.210   3.173   4.045 -0.1076  0.3284  0.1960
 6896SOL    HW132150   0.288   3.117   4.053  0.0681  0.5986  0.3678
 6896SOL    HW232151   0.229   3.223   3.965  0.2160 -0.0071  0.0599
 6897SOL     OW32152   0.203   0.027  13.950  0.7486 -0.2351 -0.2961
 6897SOL    HW132153   0.263   0.010  13.877  1.2687 -1.7161  0.4658
 6897SOL    HW232154   0.235   0.114  13.973 -0.0396 -0.4847  1.7549
 6898SOL     OW32155   0.094   2.771   7.159  0.3928 -0.1081 -0.1916
 6898SOL    HW132156   0.046   2.820   7.226 -2.5335 -1.7204 -1.0858
 6898SOL    HW232157   0.082   2.823   7.079 -0.3359 -0.4853 -0.3250
 6899SOL     OW32158   1.014   1.437   8.248  0.3803  0.0090 -0.9629
 6899SOL    HW132159   1.092   1.425   8.194  1.7618 -0.8690  1.2488
 6899SOL    HW232160   0.946   1.381   8.210  1.1807 -1.1139 -0.7596
 6900SOL     OW32161   0.759   1.877   0.123  0.0824  0.2292  0.7884
 6900SOL    HW132162   0.762   1.809   0.190 -0.1824 -0.6576 -0.1070
 6900SOL    HW232163   0.703   1.824   0.066 -0.7094 -0.0513  1.8183
 6901SOL     OW32164   1.946   1.921   8.973 -0.0783  0.3606 -0.0698
 6901SOL    HW132165   1.851   1.927   8.985 -0.4598 -2.6503 -1.5173
 6901SOL    HW232166   1.984   1.937   9.059 -1.0768 -0.1211  0.4642
 6902SOL     OW32167   3.207   4.186   5.805  0.2375 -0.8362  0.1596
 6902SOL    HW132168   3.218   4.093   5.825 -1.4082 -1.2566 -0.8407
 6902SOL    HW232169   3.287   4.222   5.843  0.4291  0.3652 -1.3637
 6903SOL     OW32170   1.330   3.207  13.146 -0.1843  0.3216  0.5306
 6903SOL    HW132171   1.380   3.284  13.172  0.6896 -1.0906  3.0854
 6903SOL    HW232172   1.391   3.158  13.091 -0.6399  0.5760 -0.1870
 6904SOL     OW32173   0.663   3.754   8.763  0.1116  0.1660  0.5611
 6904SOL    HW132174   0.754   3.782   8.756  0.0643  0.2856  0.4220
 6904SOL    HW232175   0.607   3.830   8.751 -0.8387 -0.7313 -0.7841
 6905SOL     OW32176   2.421   3.247   9.609 -0.1205  0.4779 -0.5470
 6905SOL    HW132177   2.362   3.175   9.586  0.8892  0.0922 -1.9490
 6905SOL    HW232178   2.415   3.296   9.527  0.6509  0.1378 -0.8034
 6906SOL     OW32179   2.643   2.646   5.089 -0.1734 -0.2783  0.6007
 6906SOL    HW132180   2.725   2.626   5.043  0.1315  0.2588  0.9060
 6906SOL    HW232181   2.585   2.581   5.050  0.9774  1.4955 -4.0695
 6907SOL     OW32182   4.542   0.644   3.081 -0.5721 -0.4358  0.2962
 6907SOL    HW132183   4.605   0.682   3.020 -0.9548  3.0864  2.0705
 6907SOL    HW232184   4.588   0.642   3.165  0.2449  0.7405 -0.1139
 6908SOL     OW32185   3.670   0.583   3.660  0.0851  0.0458 -0.4167
 6908SOL    HW132186   3.584   0.556   3.692  0.4466  0.4717  0.8873
 6908SOL    HW232187   3.720   0.525   3.716  1.4538  1.7640  0.1481
 6909SOL     OW32188   0.291   2.734   3.804  0.1496 -0.2037  0.6829
 6909SOL    HW132189   0.347   2.715   3.879 -1.6441  1.7791  2.5407
 6909SOL    HW232190   0.227   2.664   3.819  0.7494 -0.7696  0.5626
 6910SOL     OW32191   3.707   3.757  13.379 -0.4765 -0.3787 -0.2984
 6910SOL    HW132192   3.751   3.802  13.306  0.4420  1.1464  1.2010
 6910SOL    HW232193   3.680   3.829  13.436  1.2778  0.5326 -0.6210
 6911SOL     OW32194   4.584   4.571   4.706 -0.0745  0.0782 -0.1946
 6911SOL    HW132195   4.586   4.568   4.802  0.4416 -0.5380 -0.2322
 6911SOL    HW232196   4.500   4.527   4.690 -0.4195 -0.0665  1.9806
 6912SOL     OW32197   3.101   2.240   5.291  0.5109  0.1245  0.1597
 6912SOL    HW132198   3.084   2.276   5.205  0.7632  0.1828  0.1341
 6912SOL    HW232199   3.118   2.314   5.349 -1.7875  0.1342  0.8246
 6913SOL     OW32200   4.019   2.515  10.459  0.3918  0.0723 -0.1724
 6913SOL    HW132201   3.937   2.494  10.505  0.2475 -2.0832 -1.4563
 6913SOL    HW232202   4.083   2.545  10.524  1.3484  0.8981 -1.5094
 6914SOL     OW32203   1.207   1.021   5.612  0.5664  0.2508 -0.7709
 6914SOL    HW132204   1.229   0.928   5.613 -1.6109 -0.2519 -0.0317
 6914SOL    HW232205   1.187   1.035   5.519  0.0128 -0.0322 -0.6972
 6915SOL     OW32206   3.919   3.441   3.350 -0.3503 -0.4423 -0.4022
 6915SOL    HW132207   3.944   3.417   3.439  0.3188  0.5936 -0.3034
 6915SOL    HW232208   3.828   3.413   3.350 -0.7161  0.7544  2.1077
 6916SOL     OW32209   3.536   0.538   2.475 -0.1469  0.7413 -0.5912
 6916SOL    HW132210   3.616   0.582   2.445  0.0562  0.0447 -1.0722
 6916SOL    HW232211   3.584   0.456   2.484 -1.4916  0.0283 -0.0144
 6917SOL     OW32212   2.462   2.794   8.683 -0.0112 -0.5924  0.3607
 6917SOL    HW132213   2.453   2.699   8.686  2.6875 -0.8815 -0.7803
 6917SOL    HW232214   2.470   2.800   8.588 -3.1772 -0.9573  0.0766
 6918SOL     OW32215   2.393   0.387  14.809  0.0103  0.2437 -0.3580
 6918SOL    HW132216   2.354   0.421  14.728 -1.8141 -1.0781 -0.0163
 6918SOL    HW232217   2.470   0.342  14.774 -2.3778 -1.7849 -2.8852
 6919SOL     OW32218   4.510   2.476   7.185  0.2647 -0.0453  0.4945
 6919SOL    HW132219   4.592   2.469   7.135 -0.4339  1.7914 -0.9049
 6919SOL    HW232220   4.529   2.558   7.231  1.4111 -1.0820  1.8465
 6920SOL     OW32221   3.734   1.863  15.451  0.0268  0.1301 -0.3523
 6920SOL    HW132222   3.691   1.835  15.370 -0.6496 -3.0887  1.1094
 6920SOL    HW232223   3.724   1.957  15.438 -1.4175  0.0476  0.1758
 6921SOL     OW32224   3.195   0.172  14.187  0.2046 -0.3514  0.1370
 6921SOL    HW132225   3.198   0.135  14.275  2.1146  2.6522  1.3643
 6921SOL    HW232226   3.104   0.201  14.193  0.3095  0.1553 -0.8440
 6922SOL     OW32227   0.067   0.664   3.355 -0.1734 -0.0473  0.1641
 6922SOL    HW132228   0.070   0.686   3.262  0.3344  0.8735  0.3912
 6922SOL    HW232229   0.152   0.699   3.382  0.0975 -0.5124 -0.0946
 6923SOL     OW32230   4.198   3.613   5.981 -0.5338  0.0550  0.1573
 6923SOL    HW132231   4.230   3.694   5.941  1.3869  1.1348  3.8585
 6923SOL    HW232232   4.135   3.591   5.913  0.1510 -1.0881 -0.1071
 6924SOL     OW32233   0.593   2.409   0.337 -0.0763 -0.3338 -0.1974
 6924SOL    HW132234   0.545   2.491   0.354 -0.4579 -0.2881 -1.5222
 6924SOL    HW232235   0.628   2.407   0.426  0.1307 -1.4419 -0.3064
 6925SOL     OW32236   2.107   2.360   7.445 -0.2939  0.7183  0.1988
 6925SOL    HW132237   2.203   2.367   7.442 -0.2749 -0.2513 -1.3434
 6925SOL    HW232238   2.074   2.359   7.355  0.2678 -1.3694  0.0180
 6926SOL     OW32239   4.275   2.260   0.390 -0.2327  0.2829 -0.2073
 6926SOL    HW132240   4.249   2.288   0.302 -0.3974  0.1951 -0.1879
 6926SOL    HW232241   4.208   2.192   0.397 -1.8626  1.9021  0.0086
 6927SOL     OW32242   3.880   2.593   5.311  0.0734 -0.2197  0.5757
 6927SOL    HW132243   3.951   2.554   5.361 -0.5342 -2.2421 -0.1475
 6927SOL    HW232244   3.861   2.669   5.366 -0.4604  0.2565 -0.2586
 6928SOL     OW32245   0.720   1.262   7.047  0.2453  0.4848  0.0960
 6928SOL    HW132246   0.630   1.230   7.046  1.4859 -2.9697 -0.5260
 6928SOL    HW232247   0.734   1.279   7.141  0.7118  1.0624 -0.0761
 6929SOL     OW32248   1.098   0.727   3.696  0.5950  0.2651 -0.2908
 6929SOL    HW132249   1.012   0.702   3.731  1.1496 -1.8537 -0.4349
 6929SOL    HW232250   1.113   0.817   3.724 -1.1393  0.7042 -0.7951
 6930SOL     OW32251   3.157   1.635   8.665  0.0542 -0.3519  0.1477
 6930SOL    HW132252   3.063   1.629   8.647  0.7238 -3.5396 -2.2846
 6930SOL    HW232253   3.177   1.547   8.696 -0.3849 -0.1288  1.0601
 6931SOL     OW32254   3.144   0.383   4.976 -0.8896  0.3258 -0.4611
 6931SOL    HW132255   3.200   0.428   4.913  0.0525 -2.6133 -1.6908
 6931SOL    HW232256   3.178   0.294   4.976 -1.6866  0.0224  0.0432
 6932SOL     OW32257   1.148   1.840  15.254 -0.2735 -0.0844  0.0205
 6932SOL    HW132258   1.240   1.814  15.259 -0.0994  0.9991  2.3412
 6932SOL    HW232259   1.124   1.842  15.347  0.4726 -1.2629  0.2344
 6933SOL     OW32260   3.973   1.551   7.518 -0.1584 -0.0340 -0.4487
 6933SOL    HW132261   4.052   1.560   7.464  0.4923 -2.1271  0.1388
 6933SOL    HW232262   3.969   1.456   7.533  0.7303  0.4073  2.6436
 6934SOL     OW32263   0.186   1.869   3.544  0.3328  0.1991 -0.1687
 6934SOL    HW132264   0.118   1.835   3.485 -1.4202  1.6753  0.9894
 6934SOL    HW232265   0.152   1.852   3.632 -2.1528  1.2916 -0.8865
 6935SOL     OW32266   2.688   4.395   8.045 -0.4382 -0.0402  0.0890
 6935SOL    HW132267   2.615   4.446   8.080 -0.1848  0.6351 -0.3767
 6935SOL    HW232268   2.638   4.319   8.013  1.4073 -2.1703  2.2360
 6936SOL     OW32269   1.480   3.475  14.843  0.1503  0.6895 -0.0534
 6936SOL    HW132270   1.403   3.438  14.799 -0.7917  1.2025  1.1698
 6936SOL    HW232271   1.493   3.419  14.919  1.4324 -0.0491 -0.8155
 6937SOL     OW32272   1.090   2.343   6.142  0.1307 -0.1669 -0.0506
 6937SOL    HW132273   1.053   2.261   6.110 -0.0724  0.6248 -1.8338
 6937SOL    HW232274   1.016   2.377   6.193  0.7550 -0.7666  1.2550
 6938SOL     OW32275   1.524   4.344  13.784  0.2525 -0.3665  0.8459
 6938SOL    HW132276   1.593   4.366  13.846  1.5230  2.1503 -1.4895
 6938SOL    HW232277   1.575   4.304  13.714  0.4407  0.6065  0.4366
 6939SOL     OW32278   1.005   2.037  13.159 -0.0904 -0.1159  0.1914
 6939SOL    HW132279   1.095   2.009  13.143 -0.4707 -0.6598 -0.9987
 6939SOL    HW232280   1.025   2.064  13.248  4.5639 -0.1280 -0.8505
 6940SOL     OW32281   4.478   4.657   6.546 -0.0055 -0.8290 -0.4260
 6940SOL    HW132282   4.419   4.652   6.471  1.5394 -2.9121 -1.4836
 6940SOL    HW232283   4.494   0.027   6.539 -0.5549 -0.7516 -0.6752
 6941SOL     OW32284   2.051   0.055   5.838 -0.1767 -0.5355  0.1427
 6941SOL    HW132285   2.052   0.061   5.743  0.1425  1.5840  0.2978
 6941SOL    HW232286   2.120   0.116   5.862 -0.7329  0.0847  0.1787
 6942SOL     OW32287   3.499   3.502   5.187 -0.4123 -0.6136 -0.3554
 6942SOL    HW132288   3.478   3.413   5.218  0.2100 -0.8462 -0.6095
 6942SOL    HW232289   3.422   3.548   5.220 -0.0570 -0.6904  0.5890
 6943SOL     OW32290   1.905   3.578   6.180 -0.1093  0.0873  0.9552
 6943SOL    HW132291   1.847   3.633   6.232 -1.0956 -0.3924  0.3639
 6943SOL    HW232292   1.890   3.610   6.091  0.3450  0.1368  0.8996
 6944SOL     OW32293   2.931   3.618  14.433  0.3271 -0.2516 -0.4347
 6944SOL    HW132294   2.899   3.617  14.523  0.3484 -1.0623 -0.4392
 6944SOL    HW232295   3.004   3.555  14.434  0.1683 -0.4558 -1.3806
 6945SOL     OW32296   2.966   0.946  13.192 -0.3256 -0.5990  0.1276
 6945SOL    HW132297   3.044   0.963  13.139 -0.1265 -0.7671  0.3701
 6945SOL    HW232298   3.007   0.913  13.272  0.1537 -0.8901 -0.2452
 6946SOL     OW32299   2.218   0.547   8.714  0.1294 -0.2694  0.2346
 6946SOL    HW132300   2.130   0.513   8.725 -0.0373  0.2624  0.5306
 6946SOL    HW232301   2.217   0.581   8.625  0.1328  2.2760  1.2155
 6947SOL     OW32302   2.214   0.584   2.944 -0.3229  0.0409 -0.7435
 6947SOL    HW132303   2.290   0.537   2.979 -1.0303  0.8969  1.9665
 6947SOL    HW232304   2.196   0.637   3.022 -0.6053 -1.0105 -0.0844
 6948SOL     OW32305   3.438   4.039  12.839  0.5244 -0.2249 -0.2533
 6948SOL    HW132306   3.388   4.081  12.770 -0.7822 -0.6659  0.4156
 6948SOL    HW232307   3.499   3.989  12.785  0.3679  0.4245 -1.0241
 6949SOL     OW32308   3.897   1.698   6.726  0.6948  0.5432  0.0034
 6949SOL    HW132309   3.828   1.708   6.660  1.8041 -0.0953 -1.2556
 6949SOL    HW232310   3.940   1.620   6.692  0.9425  0.0840  1.3619
 6950SOL     OW32311   0.783   2.098  17.477  0.0538 -0.0501  0.2168
 6950SOL    HW132312   0.704   2.140  17.512 -0.2656 -0.4892  0.0277
 6950SOL    HW232313   0.738   2.017  17.452  1.2696 -0.0618 -1.8549
 6951SOL     OW32314   2.848   2.354   5.949  0.1937 -0.5233 -0.3049
 6951SOL    HW132315   2.937   2.354   5.914  1.4009 -0.6429  2.7735
 6951SOL    HW232316   2.838   2.449   5.950 -1.0571 -0.6474 -0.5126
 6952SOL     OW32317   3.155   4.280   0.392  0.3285 -0.8098  0.0818
 6952SOL    HW132318   3.181   4.372   0.399  0.0202 -0.7528  0.4443
 6952SOL    HW232319   3.126   4.260   0.481 -1.6818 -1.5165 -0.7369
 6953SOL     OW32320   3.106   3.600   9.750 -0.3311  0.0184  0.2000
 6953SOL    HW132321   3.179   3.554   9.791  0.6636  0.2809 -1.2905
 6953SOL    HW232322   3.077   3.518   9.710 -0.2941  0.6195 -1.0680
 6954SOL     OW32323   2.764   0.749   7.127 -0.0415 -0.6003 -0.2130
 6954SOL    HW132324   2.748   0.698   7.207  1.7732  1.2930  1.3838
 6954SOL    HW232325   2.858   0.738   7.112  0.5900 -0.3159  3.4645
 6955SOL     OW32326   2.558   0.413   7.689  0.2646  0.2862 -0.0249
 6955SOL    HW132327   2.573   0.459   7.606  1.1203 -1.9029 -1.0882
 6955SOL    HW232328   2.465   0.396   7.677 -0.1456  2.6053 -0.1410
 6956SOL     OW32329   2.645   4.163   1.157 -0.2458 -0.3604  0.6009
 6956SOL    HW132330   2.651   4.073   1.123  0.9050  0.7891 -2.2128
 6956SOL    HW232331   2.563   4.151   1.205 -1.5740  2.5806 -0.9819
 6957SOL     OW32332   0.452   2.140   4.969  0.2975 -0.1252 -0.3597
 6957SOL    HW132333   0.399   2.069   5.006  0.0156  0.0099 -0.5041
 6957SOL    HW232334   0.518   2.098   4.913  0.1980 -0.1048 -0.4928
 6958SOL     OW32335   0.425   1.408   1.036  0.3414  0.0655  0.1252
 6958SOL    HW132336   0.454   1.319   1.056  2.0261  0.2672 -1.4652
 6958SOL    HW232337   0.510   1.451   1.025  0.4504 -0.1071  0.2805
 6959SOL     OW32338   0.183   0.673   8.240  0.1818  0.2578 -0.8346
 6959SOL    HW132339   0.097   0.649   8.276 -0.3582  2.4657 -0.6869
 6959SOL    HW232340   0.211   0.583   8.222 -0.3362 -0.0903  0.0804
 6960SOL     OW32341   2.396   0.094   9.045 -0.2259 -0.3545 -0.1948
 6960SOL    HW132342   2.422   0.002   9.047  1.0737  0.0001 -0.4122
 6960SOL    HW232343   2.454   0.129   8.977  1.7832 -2.0680  0.6427
 6961SOL     OW32344   1.061   4.058   1.872  0.3066 -0.2818 -0.2856
 6961SOL    HW132345   1.084   3.966   1.879 -0.6482 -0.3830  1.5002
 6961SOL    HW232346   1.085   4.082   1.961  0.7515  0.8470 -0.7078
 6962SOL     OW32347   2.492   2.519   4.439 -0.8187  0.0689 -0.7918
 6962SOL    HW132348   2.557   2.579   4.404  0.8759 -0.4616  1.4862
 6962SOL    HW232349   2.489   2.548   4.530 -2.2859 -0.9374 -0.5029
 6963SOL     OW32350   2.810   2.472   1.628  0.7601 -0.4640 -0.1809
 6963SOL    HW132351   2.741   2.506   1.686  0.8331 -1.1677  0.3226
 6963SOL    HW232352   2.779   2.392   1.584  0.0705 -0.2201 -0.1345
 6964SOL     OW32353   4.182   2.171   3.919 -0.0617  0.4525  0.3877
 6964SOL    HW132354   4.104   2.127   3.953  0.4318 -0.1486  0.7393
 6964SOL    HW232355   4.140   2.224   3.852  1.8110  2.4283  0.7796
 6965SOL     OW32356   4.677   0.702   2.044  0.3958  0.0022  0.6643
 6965SOL    HW132357   4.605   0.754   2.008 -1.1823 -3.1283 -0.6938
 6965SOL    HW232358   4.665   0.621   1.995  0.1459 -1.2673  2.8170
 6966SOL     OW32359   3.233   1.242   3.961  0.1086 -0.1136 -0.0454
 6966SOL    HW132360   3.198   1.214   4.046  1.8686 -0.4021  0.5717
 6966SOL    HW232361   3.243   1.336   3.974 -2.4359  0.1083  0.2709
 6967SOL     OW32362   0.766   1.643   7.992  0.3587  0.2506  0.1488
 6967SOL    HW132363   0.744   1.694   7.914 -1.0619 -0.0536  0.3470
 6967SOL    HW232364   0.859   1.664   7.996  0.4773 -0.4368  0.8797
 6968SOL     OW32365   1.570   0.930   1.009 -0.2757 -0.1237 -0.5536
 6968SOL    HW132366   1.585   0.993   1.079 -3.9351 -0.8985  0.9457
 6968SOL    HW232367   1.608   0.857   1.056 -0.2483 -0.8321 -1.6643
 6969SOL     OW32368   0.898   3.783  12.750  0.1371  0.5131  0.2502
 6969SOL    HW132369   0.877   3.800  12.841 -0.8660  0.7720 -0.0346
 6969SOL    HW232370   0.808   3.773  12.720 -0.9590 -0.7659  4.0929
 6970SOL     OW32371   0.483   1.400   7.469 -0.5366 -0.6603  0.2648
 6970SOL    HW132372   0.505   1.420   7.378  1.7102  1.3737  1.2458
 6970SOL    HW232373   0.389   1.383   7.460 -0.3365 -0.8566 -1.4468
 6971SOL     OW32374   2.845   0.886  10.463 -0.3150 -0.3738  0.0229
 6971SOL    HW132375   2.923   0.842  10.431 -0.4226 -0.2602 -0.3986
 6971SOL    HW232376   2.857   0.869  10.557  1.7238  0.4694 -0.0931
 6972SOL     OW32377   3.343   3.848  12.337  0.2302 -0.1016 -0.1907
 6972SOL    HW132378   3.268   3.878  12.286  0.4957 -0.7559 -0.9643
 6972SOL    HW232379   3.314   3.799  12.413  0.5004 -0.0404 -0.0467
 6973SOL     OW32380   0.447   1.572   1.551  0.7064  0.2322  0.3756
 6973SOL    HW132381   0.477   1.558   1.461  0.5670  2.3438  0.0095
 6973SOL    HW232382   0.398   1.654   1.545 -1.2816 -0.8672  1.7258
 6974SOL     OW32383   2.984   4.293   1.776 -0.5206 -0.7469 -0.1798
 6974SOL    HW132384   3.053   4.360   1.780  0.0855 -1.5052  1.9469
 6974SOL    HW232385   2.905   4.345   1.791  0.2893  0.3069  0.4509
 6975SOL     OW32386   0.031   0.137  14.136 -0.2191 -0.6169 -0.6835
 6975SOL    HW132387   0.079   0.127  14.218  1.2487  0.4394 -1.4210
 6975SOL    HW232388   0.083   0.088  14.073 -1.5693 -1.0088 -1.4881
 6976SOL     OW32389   2.105   4.342   8.811  0.0175 -0.0771 -0.0285
 6976SOL    HW132390   2.021   4.309   8.779 -0.0474 -0.0827  0.1512
 6976SOL    HW232391   2.086   4.427   8.851  0.2258  0.6762 -1.4968
 6977SOL     OW32392   0.769   2.337   6.684 -0.7456 -0.0651  0.1839
 6977SOL    HW132393   0.767   2.344   6.588 -2.1463  0.0490  0.2144
 6977SOL    HW232394   0.694   2.388   6.716 -0.9150  0.5006 -1.1294
 6978SOL     OW32395   3.091   0.344   4.207 -0.0034  0.4397 -0.2788
 6978SOL    HW132396   3.136   0.407   4.152 -1.5350  0.6656 -1.2691
 6978SOL    HW232397   3.124   0.353   4.297  0.8271  1.7047 -0.7129
 6979SOL     OW32398   4.319   3.917   2.926 -0.7595 -0.3451  0.1259
 6979SOL    HW132399   4.326   3.859   3.003  0.7269  1.1382  1.1114
 6979SOL    HW232400   4.324   3.854   2.853 -2.8869 -0.2156 -0.1113
 6980SOL     OW32401   3.800   2.733   5.088  0.3785  0.0844  0.1949
 6980SOL    HW132402   3.814   2.668   5.156  0.2173 -0.8774 -0.6869
 6980SOL    HW232403   3.724   2.778   5.125  0.5171 -0.3124  0.9550
 6981SOL     OW32404   3.072   0.290   7.504 -0.2921 -0.1702  0.2390
 6981SOL    HW132405   3.012   0.241   7.447 -0.0761  1.2806 -1.2150
 6981SOL    HW232406   3.074   0.380   7.472  0.6417 -0.3284 -0.1602
 6982SOL     OW32407   0.585   0.645   6.806  0.1308  0.2238  0.1261
 6982SOL    HW132408   0.492   0.634   6.824 -0.5052  0.5210 -3.0470
 6982SOL    HW232409   0.593   0.593   6.726  0.6621  1.7448 -0.8131
 6983SOL     OW32410   1.850   0.785   8.503  0.7775 -0.0752  0.5962
 6983SOL    HW132411   1.872   0.761   8.594 -0.1517  0.2579  0.9109
 6983SOL    HW232412   1.827   0.697   8.474  0.3761 -0.4022  1.8784
 6984SOL     OW32413   4.399   2.597  14.336  0.1867 -0.2590  0.0406
 6984SOL    HW132414   4.347   2.653  14.279  0.8924  3.6535  3.2985
 6984SOL    HW232415   4.445   2.555  14.262 -0.6804  1.5850 -1.5402
 6985SOL     OW32416   3.067   4.675   3.788  0.8256 -0.1324  0.3907
 6985SOL    HW132417   3.079   4.702   3.879 -0.5479  3.6390 -0.5517
 6985SOL    HW232418   2.972   4.678   3.784  0.7291 -0.7497  2.5657
 6986SOL     OW32419   1.673   1.370   9.088  0.1120 -0.1158  0.0672
 6986SOL    HW132420   1.623   1.382   9.007  0.1421 -1.9008 -0.2265
 6986SOL    HW232421   1.755   1.411   9.059 -0.6753  2.4076  1.4521
 6987SOL     OW32422   1.663   2.365   3.300  0.1572  0.4344  0.6168
 6987SOL    HW132423   1.597   2.300   3.320  0.3107 -0.0604 -0.5013
 6987SOL    HW232424   1.704   2.323   3.225  1.2953  1.2272  0.7764
 6988SOL     OW32425   2.532   0.248  12.970 -0.1259 -0.0772 -0.2477
 6988SOL    HW132426   2.470   0.238  13.042 -0.2673 -0.0991 -0.3740
 6988SOL    HW232427   2.562   0.158  12.956 -1.4579 -0.9257  2.2214
 6989SOL     OW32428   3.782   2.592   3.323  0.5128 -0.1259  0.0504
 6989SOL    HW132429   3.786   2.681   3.359 -0.0434  0.2517 -0.8213
 6989SOL    HW232430   3.699   2.596   3.276  0.3143 -1.6783  0.2962
 6990SOL     OW32431   1.248   4.524   4.128  0.0544  0.4902  0.0266
 6990SOL    HW132432   1.287   4.529   4.041 -1.4344  2.8414 -0.5147
 6990SOL    HW232433   1.246   4.615   4.159 -0.8143  0.9609 -1.4243
 6991SOL     OW32434   0.966   2.295  14.745  0.3279 -0.1988 -0.2768
 6991SOL    HW132435   0.881   2.338  14.747  0.8969  0.9946 -1.1370
 6991SOL    HW232436   0.945   2.202  14.745  1.7393 -0.5308 -2.4629
 6992SOL     OW32437   1.761   0.568   4.732 -0.0955 -0.1429  0.3952
 6992SOL    HW132438   1.703   0.637   4.699 -0.1459  0.7609  2.3963
 6992SOL    HW232439   1.761   0.505   4.660 -0.3207  1.5721 -1.1032
 6993SOL     OW32440   3.615   0.090   6.148  0.4551 -0.8615  0.2598
 6993SOL    HW132441   3.580   0.095   6.237 -0.7222  0.0084 -0.2625
 6993SOL    HW232442   3.664   0.007   6.146 -0.4236 -1.4163  2.0410
 6994SOL     OW32443   0.352   3.529   3.946 -0.1369 -0.5960  0.8460
 6994SOL    HW132444   0.267   3.506   3.907  0.4022  0.2565 -0.8038
 6994SOL    HW232445   0.398   3.448   3.929 -2.6196 -1.7505 -0.4539
 6995SOL     OW32446   2.814   4.287   6.830  0.4900  0.5604 -0.0393
 6995SOL    HW132447   2.865   4.272   6.750  0.7285 -0.1813  0.2608
 6995SOL    HW232448   2.727   4.253   6.806  0.9036 -0.8835  0.5031
 6996SOL     OW32449   3.752   1.501  10.211  0.1804 -0.0853  0.2106
 6996SOL    HW132450   3.663   1.484  10.243 -0.6876  2.1599 -1.0310
 6996SOL    HW232451   3.804   1.503  10.291 -0.4168  0.6084  0.5854
 6997SOL     OW32452   1.520   0.305  17.092  0.1982  0.0915 -0.6506
 6997SOL    HW132453   1.557   0.389  17.063 -1.7932  1.0499 -0.3670
 6997SOL    HW232454   1.484   0.261  17.015  1.3230 -1.0075 -0.5510
 6998SOL     OW32455   0.972   2.158   9.286 -0.3203 -0.3604 -0.7922
 6998SOL    HW132456   1.042   2.147   9.222 -1.2553 -1.6839 -1.5931
 6998SOL    HW232457   0.950   2.251   9.279  0.7513 -0.2021 -1.9574
 6999SOL     OW32458   3.330   0.796   7.356  0.1425 -0.0829 -0.0275
 6999SOL    HW132459   3.380   0.749   7.290  2.5103 -0.3244  1.9293
 6999SOL    HW232460   3.377   0.879   7.370 -0.5072 -0.0193  1.8276
 7000SOL     OW32461   3.060   0.573   3.119  0.4639  0.6862 -0.4957
 7000SOL    HW132462   3.147   0.594   3.153  0.6280 -1.4289  0.3775
 7000SOL    HW232463   3.081   0.493   3.071 -1.0632  0.8988 -1.5095
 7001SOL     OW32464   1.665   2.191   4.630 -0.0059  0.5231  0.2744
 7001SOL    HW132465   1.750   2.236   4.624 -0.2338  1.2104  2.1536
 7001SOL    HW232466   1.603   2.263   4.623  0.3355  0.7001 -0.8735
 7002SOL     OW32467   2.884   3.475   2.126  0.3912 -0.7929  0.3273
 7002SOL    HW132468   2.915   3.393   2.089  3.6748  0.1637  0.9652
 7002SOL    HW232469   2.964   3.527   2.137  0.6687 -1.2985  0.7094
 7003SOL     OW32470   0.908   3.878   0.371  0.1750  0.0542  0.0449
 7003SOL    HW132471   1.000   3.863   0.351  0.1291 -1.3764  0.9098
 7003SOL    HW232472   0.869   3.796   0.338  0.4705  1.0329 -2.7008
 7004SOL     OW32473   2.353   3.253  14.567  0.3536 -0.1640  0.0118
 7004SOL    HW132474   2.407   3.239  14.489  0.8158  0.0448  0.3033
 7004SOL    HW232475   2.320   3.337  14.535  1.0123 -0.4318 -1.3955
 7005SOL     OW32476   0.317   0.885  14.430 -0.1611 -0.1920  0.3372
 7005SOL    HW132477   0.275   0.914  14.349  3.2417  1.3948 -0.8903
 7005SOL    HW232478   0.377   0.821  14.392 -0.8105 -1.1376  0.9165
 7006SOL     OW32479   1.482   0.029   8.190  0.0791  0.1620  0.0958
 7006SOL    HW132480   1.398   0.006   8.228 -0.6915 -0.5992 -2.0966
 7006SOL    HW232481   1.520   0.087   8.257 -0.7731 -0.1833  0.8603
 7007SOL     OW32482   4.155   2.815  10.381 -0.2724  0.3421 -0.8224
 7007SOL    HW132483   4.163   2.781  10.292  0.8429 -2.2657  0.2996
 7007SOL    HW232484   4.065   2.840  10.399 -0.3410  0.4300 -1.2981
 7008SOL     OW32485   2.937   0.924   1.424 -0.8121 -0.6543 -0.1160
 7008SOL    HW132486   2.946   0.839   1.380  0.2790 -1.2047  1.1592
 7008SOL    HW232487   2.872   0.907   1.493  0.2611 -1.6877  0.6439
 7009SOL     OW32488   3.356   4.158   4.812 -0.1327  0.3512  0.0143
 7009SOL    HW132489   3.294   4.229   4.796 -0.1363 -0.1134 -2.0797
 7009SOL    HW232490   3.309   4.112   4.881  1.8162  0.3309  1.3259
 7010SOL     OW32491   0.076   3.142   5.529  0.5582 -0.0263 -0.5802
 7010SOL    HW132492   0.065   3.196   5.607  1.3244  2.2433 -2.0541
 7010SOL    HW232493   0.013   3.075   5.556 -0.3719  0.1809 -2.2301
 7011SOL     OW32494   0.856   1.924  10.131  0.1789  0.0991 -0.1780
 7011SOL    HW132495   0.843   1.831  10.150 -0.8357  0.4715  0.9700
 7011SOL    HW232496   0.922   1.933  10.062  0.7544  0.4885  0.4207
 7012SOL     OW32497   3.152   1.020   2.563  0.2591  0.1556  0.2060
 7012SOL    HW132498   3.217   1.023   2.634  0.5770 -1.2767 -0.0329
 7012SOL    HW232499   3.079   1.061   2.611 -0.5086  0.3821 -1.1372
 7013SOL     OW32500   4.203   4.473   5.223 -0.0708  0.1074  0.6325
 7013SOL    HW132501   4.180   4.385   5.252 -2.0117  0.8109  1.2289
 7013SOL    HW232502   4.142   4.492   5.152 -1.0400 -0.9295  1.1820
 7014SOL     OW32503   2.428   3.746   7.723  0.5140 -0.2965  0.4134
 7014SOL    HW132504   2.490   3.787   7.783 -0.8080  1.6745  0.4341
 7014SOL    HW232505   2.344   3.789   7.740  0.4822  0.6915 -2.2990
 7015SOL     OW32506   3.950   0.689   3.317  0.2417  0.1163 -0.2800
 7015SOL    HW132507   3.905   0.759   3.364 -1.4113  0.7618 -2.8099
 7015SOL    HW232508   3.877   0.628   3.308 -0.9831  1.4222  0.8081
 7016SOL     OW32509   1.013   0.373   8.990  0.8064  0.2266  0.0071
 7016SOL    HW132510   1.060   0.456   8.992 -1.3022  1.4464 -2.4014
 7016SOL    HW232511   0.926   0.394   8.956  0.0867 -1.0456  1.0982
 7017SOL     OW32512   1.131   2.500  11.433  0.0717  0.3698  0.1049
 7017SOL    HW132513   1.123   2.418  11.480  1.0407 -0.2121 -0.7456
 7017SOL    HW232514   1.077   2.561  11.484 -1.2609  0.7349 -1.7281
 7018SOL     OW32515   4.596   1.787  10.472 -0.2578  0.8837  0.0134
 7018SOL    HW132516   4.505   1.815  10.462 -0.4386  0.6595  1.0185
 7018SOL    HW232517   4.594   1.791  10.568  1.2876 -1.6640  0.1683
 7019SOL     OW32518   2.321   2.652   5.980 -0.4674 -0.0465 -0.0388
 7019SOL    HW132519   2.341   2.669   6.072  1.2586  0.2964 -0.4763
 7019SOL    HW232520   2.240   2.602   5.990 -1.5376  1.9257  1.0154
 7020SOL     OW32521   0.551   3.286   2.836  0.1791 -0.4677 -0.0003
 7020SOL    HW132522   0.456   3.275   2.835  0.0027  0.9257  1.2241
 7020SOL    HW232523   0.568   3.193   2.820  0.4851 -0.3993 -0.0790
 7021SOL     OW32524   2.089   0.717   8.995 -0.2373  0.5089 -0.2276
 7021SOL    HW132525   2.113   0.634   8.954  0.1719  1.0334 -1.0509
 7021SOL    HW232526   2.176   0.733   9.032  0.1640 -0.9108 -0.5405
 7022SOL     OW32527   0.192   3.885  15.158 -0.5068  0.0468 -0.1879
 7022SOL    HW132528   0.200   3.953  15.091  1.6268  1.4226  1.4699
 7022SOL    HW232529   0.121   3.826  15.134  1.3113 -2.9305  1.7611
 7023SOL     OW32530   1.398   2.082   6.829 -0.3500 -0.6870 -0.0625
 7023SOL    HW132531   1.323   2.079   6.769  0.6219  0.1916 -1.3336
 7023SOL    HW232532   1.364   2.025   6.898 -0.6894  1.1386  1.2650
 7024SOL     OW32533   0.830   1.789  16.649  0.2575 -0.6582  0.1178
 7024SOL    HW132534   0.818   1.747  16.564  0.1788 -0.3869 -0.0069
 7024SOL    HW232535   0.822   1.881  16.621 -0.1942 -0.2497  1.6054
 7025SOL     OW32536   2.576   0.904   9.314  0.0074  0.2855  0.2668
 7025SOL    HW132537   2.610   0.935   9.398 -0.9367  0.0297  0.7424
 7025SOL    HW232538   2.537   0.986   9.285  0.1363  0.6630  1.1630
 7026SOL     OW32539   4.674   0.792  16.120  0.0752 -0.1359 -0.7069
 7026SOL    HW132540   4.702   0.704  16.094  0.3401 -0.0606 -0.6758
 7026SOL    HW232541   4.598   0.813  16.066  0.1302  0.9967 -0.3392
 7027SOL     OW32542   4.677   2.029   5.336  0.3194  0.0698 -0.3122
 7027SOL    HW132543   0.030   2.083   5.316  1.6172 -2.3626 -1.8480
 7027SOL    HW232544   4.723   1.957   5.379  0.9314  0.5333 -0.1776
 7028SOL     OW32545   4.028   2.213  15.376  0.2255  0.2341 -0.0818
 7028SOL    HW132546   4.039   2.124  15.409  0.4774  0.4691  0.4648
 7028SOL    HW232547   3.933   2.220  15.380  0.1490  0.1231 -1.5727
 7029SOL     OW32548   2.110   2.239   6.315 -0.2175  0.4384 -0.2853
 7029SOL    HW132549   2.031   2.218   6.365 -1.2682  0.3552 -1.9820
 7029SOL    HW232550   2.073   2.278   6.236 -0.6117  0.1825 -0.2295
 7030SOL     OW32551   4.546   4.362  11.502 -0.3355 -0.5387  0.0367
 7030SOL    HW132552   4.452   4.353  11.517 -0.2492  1.0236  1.5572
 7030SOL    HW232553   4.545   4.442  11.450 -0.3901 -0.4153  0.2253
 7031SOL     OW32554   3.150   4.226  14.854 -0.6027 -0.1717  0.0341
 7031SOL    HW132555   3.233   4.272  14.864 -1.5297  1.4091  0.5267
 7031SOL    HW232556   3.145   4.178  14.936  0.4317 -0.6856 -0.2032
 7032SOL     OW32557   0.073   2.812   6.861 -0.6120 -0.1543  0.0502
 7032SOL    HW132558   0.082   2.842   6.771  2.7650  0.1141  0.4812
 7032SOL    HW232559   0.140   2.863   6.907  0.3577 -0.8298 -0.5998
 7033SOL     OW32560   2.903   0.828   8.509 -0.1302  0.0028 -0.6019
 7033SOL    HW132561   2.922   0.736   8.529 -0.7860 -0.0151 -0.0622
 7033SOL    HW232562   2.988   0.871   8.493  0.7962 -1.0000  1.6441
 7034SOL     OW32563   4.653   3.344   8.540 -0.3058  0.0582  0.5087
 7034SOL    HW132564   4.621   3.269   8.490  1.1528 -0.3927  0.2387
 7034SOL    HW232565   4.689   3.291   8.612 -2.2718  0.8725  2.0850
 7035SOL     OW32566   0.354   0.297  16.959  0.0707 -0.0381 -0.0744
 7035SOL    HW132567   0.447   0.317  16.970  0.1660 -0.2299 -0.5274
 7035SOL    HW232568   0.364   0.258  16.872 -0.6420  3.2553 -1.6442
 7036SOL     OW32569   2.651   4.580   8.901  0.2886  0.4755 -0.3975
 7036SOL    HW132570   2.619   4.569   8.811 -1.1103  2.9406 -0.1915
 7036SOL    HW232571   2.741   4.602   8.879  1.2066 -3.8046 -0.9852
 7037SOL     OW32572   1.458   1.576   4.073  0.2161 -0.8283 -0.3255
 7037SOL    HW132573   1.524   1.645   4.061  1.8427 -2.3997 -0.4297
 7037SOL    HW232574   1.395   1.629   4.122  1.7445 -0.8504  1.6468
 7038SOL     OW32575   1.495   0.932   3.363  0.3698 -0.5235  0.5724
 7038SOL    HW132576   1.439   0.863   3.399  1.2868 -0.9522  1.1861
 7038SOL    HW232577   1.490   0.996   3.435  1.9074  0.6748 -0.3797
 7039SOL     OW32578   4.644   2.398   4.304  0.8948  0.0236  0.5859
 7039SOL    HW132579   4.659   2.311   4.266  0.8553  1.5525 -2.9316
 7039SOL    HW232580   4.714   2.448   4.261  0.4160  1.1085  1.0805
 7040SOL     OW32581   4.469   1.735   5.821  0.4038 -0.0180 -0.0359
 7040SOL    HW132582   4.457   1.704   5.911 -0.8876  0.6233  0.0136
 7040SOL    HW232583   4.563   1.754   5.815 -0.1111  2.4749  0.0700
 7041SOL     OW32584   0.077   1.482   4.554  0.1150 -0.2653 -0.3468
 7041SOL    HW132585   0.059   1.553   4.492 -0.1848 -1.0006 -1.1046
 7041SOL    HW232586   0.077   1.407   4.495  0.0487 -0.6422  0.1339
 7042SOL     OW32587   0.428   1.370   2.904  0.3311  0.2633  0.1206
 7042SOL    HW132588   0.365   1.401   2.838  1.8282 -0.2673 -1.5497
 7042SOL    HW232589   0.390   1.289   2.937 -2.1931  1.0997 -0.7087
 7043SOL     OW32590   2.843   0.341   6.226 -0.1976  0.0145  0.2160
 7043SOL    HW132591   2.876   0.365   6.140  1.1860 -1.2885  0.3714
 7043SOL    HW232592   2.926   0.342   6.274 -1.1504  1.7825  1.8095
 7044SOL     OW32593   3.688   3.548  16.561  0.5441 -0.4222 -0.3573
 7044SOL    HW132594   3.712   3.523  16.472 -0.8582 -2.0080 -0.2767
 7044SOL    HW232595   3.646   3.632  16.546 -1.7310 -1.5833 -0.4454
 7045SOL     OW32596   4.236   4.572   7.928  0.7576  0.0329  0.1075
 7045SOL    HW132597   4.167   4.591   7.865  0.2384 -0.1204  0.6286
 7045SOL    HW232598   4.177   4.545   7.999  1.8715  1.0583  1.4459
 7046SOL     OW32599   4.319   3.907   8.044 -0.6069 -0.3877  0.1405
 7046SOL    HW132600   4.404   3.950   8.029 -1.2492 -0.4176 -3.3542
 7046SOL    HW232601   4.360   3.844   8.103  3.2079  0.4142 -1.6308
 7047SOL     OW32602   3.058   2.902   2.254  0.1566 -0.0897 -0.3355
 7047SOL    HW132603   3.021   2.872   2.171 -3.1706  0.5684  0.9286
 7047SOL    HW232604   3.113   2.979   2.236  2.7186 -1.7929  0.1432
 7048SOL     OW32605   3.154   1.997   4.963  0.6259 -0.0910 -0.1649
 7048SOL    HW132606   3.097   2.072   4.949  0.9783  0.5318  1.6435
 7048SOL    HW232607   3.237   2.040   4.985  1.9748 -2.6521 -0.2185
 7049SOL     OW32608   3.558   3.916   4.300 -0.4209  0.0668 -0.3179
 7049SOL    HW132609   3.531   3.861   4.227 -0.2750  0.1035 -0.4002
 7049SOL    HW232610   3.500   3.879   4.366 -1.8534  2.3395 -0.2968
 7050SOL     OW32611   0.106   4.186  14.503 -0.0562  0.7009  0.0543
 7050SOL    HW132612   0.196   4.155  14.488 -0.1256  1.4605 -1.9366
 7050SOL    HW232613   0.061   4.160  14.422 -0.2242  0.4461  0.2298
 7051SOL     OW32614   1.908   2.011   7.376 -0.0848 -0.1743  0.0404
 7051SOL    HW132615   1.905   2.072   7.302 -2.8169 -0.0705  0.2489
 7051SOL    HW232616   2.002   2.008   7.394 -0.3105 -0.4899  1.1178
 7052SOL     OW32617   2.475   3.829  15.037  0.3553 -0.3449  0.2604
 7052SOL    HW132618   2.532   3.753  15.051  0.5539  0.1369  2.0712
 7052SOL    HW232619   2.497   3.838  14.944 -3.6170  0.1035 -0.6431
 7053SOL     OW32620   3.780   3.732   4.096 -0.0998 -0.6952 -0.5691
 7053SOL    HW132621   3.741   3.774   4.019  0.0686  0.9803  0.2651
 7053SOL    HW232622   3.863   3.778   4.100 -0.1680 -0.6874  0.7824
 7054SOL     OW32623   0.411   2.028   3.027  0.5504 -0.0018  0.3019
 7054SOL    HW132624   0.388   2.117   3.000 -0.6158 -0.7281 -1.0846
 7054SOL    HW232625   0.480   2.004   2.965  1.8344  1.0278  1.3176
 7055SOL     OW32626   1.097   4.111   0.696 -0.1523  0.0647 -0.0519
 7055SOL    HW132627   1.145   4.145   0.621 -2.6317  0.3204 -1.5412
 7055SOL    HW232628   1.123   4.019   0.701  0.0985  0.1650  0.4356
 7056SOL     OW32629   2.144   2.877   3.231  0.0711 -0.0287 -0.8777
 7056SOL    HW132630   2.060   2.919   3.215  0.5857  1.1291 -0.6055
 7056SOL    HW232631   2.125   2.857   3.322  3.9855  3.9568  0.8469
 7057SOL     OW32632   1.494   2.575  13.944 -0.0326 -0.2043 -0.5722
 7057SOL    HW132633   1.555   2.519  13.992 -0.3422 -1.1782 -1.3080
 7057SOL    HW232634   1.414   2.522  13.935 -0.3781  0.0534  0.9453
 7058SOL     OW32635   1.503   3.307  10.444 -0.1923 -0.0030 -0.7371
 7058SOL    HW132636   1.556   3.340  10.517  0.8249 -0.4720 -1.2678
 7058SOL    HW232637   1.437   3.263  10.498  0.0585  1.3024  0.6223
 7059SOL     OW32638   0.598   1.374   8.011  0.0582 -0.1784  0.6855
 7059SOL    HW132639   0.640   1.453   7.976 -1.2517  1.5797  3.1466
 7059SOL    HW232640   0.545   1.365   7.932 -1.4487 -2.2528  1.9160
 7060SOL     OW32641   3.941   2.382   0.599 -0.4658  0.4459 -0.5887
 7060SOL    HW132642   3.873   2.330   0.555 -1.0728  1.1001 -0.4357
 7060SOL    HW232643   3.968   2.319   0.665 -1.4010 -0.0818 -0.7034
 7061SOL     OW32644   1.956   1.676   0.247 -0.0793  0.0209  0.1123
 7061SOL    HW132645   1.881   1.703   0.193 -0.4486 -0.1556  0.5356
 7061SOL    HW232646   1.920   1.635   0.326 -0.7323  0.1123 -0.1415
 7062SOL     OW32647   4.131   3.090  10.484 -0.5482 -0.5951 -0.1274
 7062SOL    HW132648   4.193   3.045  10.542 -0.6836  1.8024  1.8927
 7062SOL    HW232649   4.140   3.037  10.405 -3.8290 -0.0957 -0.8216
 7063SOL     OW32650   0.001   3.300  13.441 -0.0805 -0.4171 -0.6827
 7063SOL    HW132651   4.710   3.205  13.444  1.6311 -0.6052  1.8754
 7063SOL    HW232652   0.091   3.305  13.410 -0.1483  0.2000 -0.7834
 7064SOL     OW32653   2.857   4.413   9.382 -0.7409 -0.5090  0.1626
 7064SOL    HW132654   2.875   4.454   9.466 -2.3951 -1.7491  1.1291
 7064SOL    HW232655   2.892   4.474   9.317 -0.6032 -1.7987 -0.9666
 7065SOL     OW32656   3.994   1.811   5.879 -0.2011  0.2295  0.2029
 7065SOL    HW132657   3.944   1.882   5.838 -0.7933 -1.2582 -1.6456
 7065SOL    HW232658   4.068   1.806   5.819  1.4425  0.2725  2.2547
 7066SOL     OW32659   0.629   1.961   2.485  0.5588 -0.2870  0.3332
 7066SOL    HW132660   0.668   1.941   2.400  1.4401  2.5506  0.0537
 7066SOL    HW232661   0.705   1.986   2.538  0.0838 -0.2988  1.0113
 7067SOL     OW32662   1.161   3.907   8.572  0.2134 -0.1733 -0.4112
 7067SOL    HW132663   1.203   3.993   8.569  0.1702 -0.0858  1.8085
 7067SOL    HW232664   1.217   3.865   8.637  1.2323  0.6050 -0.7907
 7068SOL     OW32665   3.170   4.548   9.374 -0.0164 -0.2115 -0.3957
 7068SOL    HW132666   3.131   4.510   9.453 -1.2184 -0.4165 -1.0732
 7068SOL    HW232667   3.106   4.617   9.353  0.2853  0.3317  0.4583
 7069SOL     OW32668   3.702   2.060   8.531 -0.3671  0.4431  0.5621
 7069SOL    HW132669   3.611   2.090   8.537  0.6855  3.2055  2.7646
 7069SOL    HW232670   3.740   2.129   8.476  0.8382 -0.8213 -0.1642
 7070SOL     OW32671   3.831   4.138   9.554 -0.1559  0.1837 -0.4361
 7070SOL    HW132672   3.829   4.050   9.516  0.4936 -0.9925  2.2103
 7070SOL    HW232673   3.742   4.172   9.548  0.1081  0.9237 -0.1212
 7071SOL     OW32674   2.939   1.060   5.760 -0.5498  0.0208 -0.2669
 7071SOL    HW132675   2.910   1.043   5.850 -1.1145  3.0243  0.1238
 7071SOL    HW232676   2.935   0.971   5.725 -0.7638  0.6060 -1.7081
 7072SOL     OW32677   3.093   3.934  16.464 -0.0985 -0.6143 -0.1771
 7072SOL    HW132678   3.071   4.027  16.479 -0.0291 -0.8105  1.1719
 7072SOL    HW232679   3.054   3.917  16.378 -0.4182 -0.2902 -0.0991
 7073SOL     OW32680   0.777   4.647   0.547 -0.4969  0.2885  0.0230
 7073SOL    HW132681   0.757   0.002   0.497  2.3133  1.8346  1.3299
 7073SOL    HW232682   0.873   4.653   0.546 -0.4033 -1.3768 -0.6324
 7074SOL     OW32683   0.780   0.364   4.102 -0.3458 -0.5328  0.6705
 7074SOL    HW132684   0.685   0.376   4.095 -0.0891  1.1732  0.2650
 7074SOL    HW232685   0.792   0.281   4.056  2.5937 -1.4944  3.1586
 7075SOL     OW32686   4.711   2.644  13.698  0.0858 -0.3718 -0.0988
 7075SOL    HW132687   4.703   2.685  13.612  0.2011 -0.7335 -0.2820
 7075SOL    HW232688   4.688   2.554  13.678  0.1799 -0.6935  1.2249
 7076SOL     OW32689   1.697   2.187   6.278 -0.0009  0.4176  0.0979
 7076SOL    HW132690   1.709   2.240   6.357 -0.6943  0.0185  0.4747
 7076SOL    HW232691   1.765   2.121   6.290 -0.8233 -0.6478 -1.1077
 7077SOL     OW32692   0.660   3.211   3.834  0.0095  0.3488 -0.1641
 7077SOL    HW132693   0.664   3.199   3.929  0.6036  0.8715 -0.1247
 7077SOL    HW232694   0.729   3.277   3.822 -0.9291  1.0511 -1.6632
 7078SOL     OW32695   2.050   1.149   3.231 -0.2956 -0.1103 -0.4416
 7078SOL    HW132696   2.132   1.128   3.276 -0.1976  0.0011 -0.5697
 7078SOL    HW232697   2.035   1.240   3.257  0.0586 -0.3193  0.5041
 7079SOL     OW32698   1.097   1.657  12.523 -0.0130  0.3426 -0.1585
 7079SOL    HW132699   1.092   1.691  12.612 -1.7145 -1.0706  0.2887
 7079SOL    HW232700   1.003   1.641  12.511  0.0889  0.3349 -0.9580
 7080SOL     OW32701   0.892   4.623   8.039  0.3525  0.6669 -0.0969
 7080SOL    HW132702   0.952   4.696   8.023  2.1117 -0.8368 -0.3859
 7080SOL    HW232703   0.911   4.576   7.958  1.2781  1.2971 -0.2511
 7081SOL     OW32704   0.659   0.158   8.540  0.9267  0.1973 -0.1094
 7081SOL    HW132705   0.650   0.232   8.479  2.9651 -0.4995 -1.2570
 7081SOL    HW232706   0.640   0.082   8.486 -2.9009 -0.4283  2.1457
 7082SOL     OW32707   0.072   3.220   5.785  0.7721  0.3792 -0.3963
 7082SOL    HW132708   0.153   3.168   5.786 -0.7985 -1.9992  1.2734
 7082SOL    HW232709   0.013   3.163   5.833  1.4036  0.5158  0.5532
 7083SOL     OW32710   1.660   4.239  10.925  0.1905  0.4642  0.0459
 7083SOL    HW132711   1.696   4.201  10.845  0.3888 -0.6605  0.6551
 7083SOL    HW232712   1.733   4.219  10.985 -0.4893 -0.2472  0.6384
 7084SOL     OW32713   1.045   0.392   4.053  0.0953  0.3300  0.2390
 7084SOL    HW132714   1.071   0.463   4.112  0.9874 -0.1054  0.3788
 7084SOL    HW232715   0.951   0.397   4.068 -0.2116 -0.6405 -1.3494
 7085SOL     OW32716   3.321   0.582   2.845 -0.4254 -0.0816  1.0636
 7085SOL    HW132717   3.305   0.530   2.766  0.4425  0.0237  0.8228
 7085SOL    HW232718   3.283   0.668   2.826  0.3268  0.0861  0.3575
 7086SOL     OW32719   4.215   0.393   3.505  0.2516 -0.4204  0.3571
 7086SOL    HW132720   4.173   0.420   3.586  2.0798 -0.6406  1.3939
 7086SOL    HW232721   4.150   0.411   3.437  0.0249 -1.9411  0.1725
 7087SOL     OW32722   0.166   3.414   2.004  0.0827  0.6007 -0.0264
 7087SOL    HW132723   0.231   3.483   2.017  1.1709 -0.7152  1.5084
 7087SOL    HW232724   0.113   3.463   1.940 -0.3172  1.3566  0.8743
 7088SOL     OW32725   0.395   2.567   5.055  0.8325 -0.3593 -0.4197
 7088SOL    HW132726   0.382   2.479   5.090 -0.6059 -0.7815 -2.0272
 7088SOL    HW232727   0.437   2.601   5.133  1.1942  0.3204 -0.9086
 7089SOL     OW32728   1.870   2.659   2.793 -0.0487  0.2807  0.5159
 7089SOL    HW132729   1.866   2.591   2.726 -1.6218  1.1586 -0.2851
 7089SOL    HW232730   1.948   2.710   2.769  0.0272 -0.6968 -1.3097
 7090SOL     OW32731   0.186   4.220   2.647  0.2863 -0.2098  0.1118
 7090SOL    HW132732   0.098   4.257   2.634  0.2123 -0.4474 -0.0689
 7090SOL    HW232733   0.170   4.156   2.717 -1.9568 -1.1400 -1.2637
 7091SOL     OW32734   2.129   2.095   7.960 -0.4258 -0.5697  0.1894
 7091SOL    HW132735   2.090   2.065   7.878 -0.9265  4.2685 -1.3563
 7091SOL    HW232736   2.165   2.179   7.931 -2.3357 -0.4870 -1.9351
 7092SOL     OW32737   3.141   1.299   9.584 -0.4064 -0.0909  0.5057
 7092SOL    HW132738   3.136   1.218   9.635  1.3651  0.6470  1.8360
 7092SOL    HW232739   3.094   1.268   9.507  0.4942 -1.0975  0.3597
 7093SOL     OW32740   1.501   3.733   2.603  0.0805 -0.6484 -1.1648
 7093SOL    HW132741   1.423   3.689   2.571 -2.4582  1.6332  1.9218
 7093SOL    HW232742   1.459   3.792   2.666  0.8677  0.4486 -1.6711
 7094SOL     OW32743   2.208   3.565   4.236 -0.3784 -0.1372 -0.7618
 7094SOL    HW132744   2.274   3.549   4.304 -0.2160 -1.0543 -1.1464
 7094SOL    HW232745   2.131   3.523   4.274 -0.4879  0.8450  0.0973
 7095SOL     OW32746   3.491   1.671   1.053 -0.2129 -0.5778  0.4719
 7095SOL    HW132747   3.411   1.721   1.071  0.4195  1.0421 -1.1643
 7095SOL    HW232748   3.448   1.607   0.997 -0.9548  0.5551 -0.2367
 7096SOL     OW32749   0.954   2.270  16.144 -0.1587  0.6105 -0.6839
 7096SOL    HW132750   0.902   2.253  16.066 -0.5015 -0.0263 -0.3135
 7096SOL    HW232751   1.035   2.223  16.125  0.8299  2.4890 -1.1018
 7097SOL     OW32752   4.453   1.872  11.620 -0.1279  0.4228  0.4767
 7097SOL    HW132753   4.510   1.943  11.592  0.8953 -1.2832 -1.7308
 7097SOL    HW232754   4.499   1.843  11.699  1.6126  0.9207 -0.3624
 7098SOL     OW32755   2.237   3.907   7.839 -0.7554  0.1993  0.3920
 7098SOL    HW132756   2.230   3.972   7.769 -0.3010  1.1665  1.2411
 7098SOL    HW232757   2.147   3.920   7.869 -0.8153 -1.3985  0.8874
 7099SOL     OW32758   2.984   2.389  10.045 -0.3620  0.0641 -0.2979
 7099SOL    HW132759   3.045   2.455  10.078 -0.1323 -1.0042  1.3929
 7099SOL    HW232760   3.008   2.376   9.953  1.3419  2.2879 -0.1777
 7100SOL     OW32761   4.348   1.747  14.900 -0.3871 -0.0926 -0.3021
 7100SOL    HW132762   4.269   1.716  14.856  0.8940  0.8577 -3.2504
 7100SOL    HW232763   4.376   1.803  14.828  1.5768  1.0515  1.3568
 7101SOL     OW32764   2.510   4.555   3.684  0.4869 -0.3878  0.0200
 7101SOL    HW132765   2.495   4.461   3.674 -1.8310 -0.0698  0.4747
 7101SOL    HW232766   2.487   4.585   3.596  2.2817  0.3183 -0.2041
 7102SOL     OW32767   3.752   3.558   0.134 -0.5083  0.1487  0.4923
 7102SOL    HW132768   3.769   3.465   0.143  1.3866  0.4980  0.4371
 7102SOL    HW232769   3.785   3.574   0.046  1.4282 -0.6471  1.0901
 7103SOL     OW32770   3.762   3.320   2.346  0.0480 -0.4292  0.0611
 7103SOL    HW132771   3.803   3.327   2.433 -1.5655 -0.0475  0.7877
 7103SOL    HW232772   3.803   3.240   2.312  1.0256  0.4940 -0.9073
 7104SOL     OW32773   0.140   2.055   7.538 -0.0357  0.4163 -0.2600
 7104SOL    HW132774   0.175   1.984   7.592  0.9530  1.7585  0.8675
 7104SOL    HW232775   0.198   2.038   7.465 -0.7832  1.0005 -0.9925
 7105SOL     OW32776   4.701   2.364   9.996  0.3396 -0.0789 -0.0417
 7105SOL    HW132777   4.715   2.399  10.084  0.6250  2.2488 -1.0172
 7105SOL    HW232778   0.016   2.279  10.016  0.1436  0.6861  3.6944
 7106SOL     OW32779   2.613   0.892   2.152  0.7401 -0.3029 -0.1698
 7106SOL    HW132780   2.600   0.916   2.244  0.1960  0.0331 -0.3344
 7106SOL    HW232781   2.588   0.799   2.160 -0.1197 -0.0281  0.4139
 7107SOL     OW32782   3.470   4.061  13.719 -0.3663 -0.3102 -0.9150
 7107SOL    HW132783   3.417   4.140  13.728 -1.5079 -1.4210  2.0856
 7107SOL    HW232784   3.498   4.076  13.629 -1.8928 -0.7591 -1.4675
 7108SOL     OW32785   1.434   3.072   5.444  0.3534  0.3089 -0.2859
 7108SOL    HW132786   1.452   3.164   5.461 -0.9734  0.7199 -1.1100
 7108SOL    HW232787   1.350   3.077   5.399  1.3106  1.5355 -1.9353
 7109SOL     OW32788   1.015   0.923   3.425 -0.0544 -0.0539 -0.4450
 7109SOL    HW132789   0.980   1.009   3.402 -0.5608 -0.4752 -1.2509
 7109SOL    HW232790   0.988   0.862   3.357 -1.3889  0.9422 -0.8095
 7110SOL     OW32791   1.772   3.732   3.420  0.7614 -0.1434 -0.1021
 7110SOL    HW132792   1.762   3.669   3.491  1.8699 -1.5125 -1.1544
 7110SOL    HW232793   1.844   3.690   3.372 -0.2147 -4.1012  1.9527
 7111SOL     OW32794   4.165   3.821  15.185 -0.0770  0.3168 -0.2728
 7111SOL    HW132795   4.251   3.841  15.147  1.0461 -2.2973  0.9357
 7111SOL    HW232796   4.185   3.802  15.276  0.9677 -1.1320 -0.8049
 7112SOL     OW32797   2.342   1.000  11.496 -0.5998 -0.2548 -0.2563
 7112SOL    HW132798   2.257   1.045  11.499 -0.7121 -0.5290  0.5294
 7112SOL    HW232799   2.400   1.074  11.509 -0.0387 -0.7535  0.0361
 7113SOL     OW32800   4.097   2.817   2.475  0.3491 -0.2556  0.4733
 7113SOL    HW132801   4.177   2.859   2.507  0.7819 -0.7586  0.0584
 7113SOL    HW232802   4.126   2.726   2.468  1.9628  0.0042  3.5027
 7114SOL     OW32803   2.533   3.429   7.496  0.2406 -0.2959 -0.3395
 7114SOL    HW132804   2.489   3.345   7.478  1.0720 -0.5954 -0.9907
 7114SOL    HW232805   2.613   3.414   7.446  0.1508 -0.7780 -0.3388
 7115SOL     OW32806   3.597   3.994   0.864 -0.3383 -0.0478 -0.2237
 7115SOL    HW132807   3.680   4.038   0.886 -2.1461  3.0061  0.5097
 7115SOL    HW232808   3.532   4.060   0.888  0.8466  1.0031  0.0714
 7116SOL     OW32809   3.657   1.609   5.026  0.1472 -0.0699  0.4554
 7116SOL    HW132810   3.737   1.652   4.997 -0.4291  0.9239  0.3177
 7116SOL    HW232811   3.599   1.680   5.055  3.0868  2.5912 -0.1609
 7117SOL     OW32812   4.428   3.999  17.071 -0.3030  0.8042  0.1512
 7117SOL    HW132813   4.405   4.055  17.145 -1.7767  1.2064 -0.5922
 7117SOL    HW232814   4.348   4.016  17.021 -2.0734 -1.7706  2.1422
 7118SOL     OW32815   3.695   3.089   4.833  0.1641  0.6066 -0.1526
 7118SOL    HW132816   3.700   3.168   4.779 -0.1613  0.3715 -0.5310
 7118SOL    HW232817   3.775   3.046   4.804  0.1193  0.9447 -0.7806
 7119SOL     OW32818   3.330   3.903   3.960  0.5033 -0.0646  0.7147
 7119SOL    HW132819   3.288   3.989   3.956  0.3657 -0.1198  0.9793
 7119SOL    HW232820   3.259   3.853   3.920 -1.2581  2.9534  0.0315
 7120SOL     OW32821   4.716   3.870   4.034 -0.1023  0.3861 -0.3950
 7120SOL    HW132822   0.067   3.927   4.046  0.3595 -0.0657 -1.0931
 7120SOL    HW232823   4.644   3.926   4.007 -0.0662 -0.2098 -1.7397
 7121SOL     OW32824   3.150   3.495  14.903  0.1066  0.2860  0.0380
 7121SOL    HW132825   3.066   3.540  14.919  0.1475  0.6327 -0.7345
 7121SOL    HW232826   3.114   3.410  14.931 -1.8991  1.0063 -0.3049
 7122SOL     OW32827   1.439   0.188   5.233 -0.1861  0.1885 -0.0758
 7122SOL    HW132828   1.428   0.214   5.324 -0.6388 -1.0343  0.2221
 7122SOL    HW232829   1.417   0.265   5.180 -0.5265 -0.3576 -0.7349
 7123SOL     OW32830   3.288   2.010   1.484  0.4963 -0.0612  0.1074
 7123SOL    HW132831   3.200   1.999   1.520  0.7474 -0.1797  0.6754
 7123SOL    HW232832   3.335   1.931   1.509  0.5300 -0.4688 -1.2509
 7124SOL     OW32833   3.378   2.295   6.714 -0.0754  0.2611 -0.1346
 7124SOL    HW132834   3.462   2.261   6.745  0.4009  1.4542 -0.0754
 7124SOL    HW232835   3.400   2.340   6.632  2.5087 -0.2448  0.2776
 7125SOL     OW32836   1.741   3.760   2.744  0.8489  0.4013  0.0564
 7125SOL    HW132837   1.682   3.761   2.668  1.3844 -0.0256 -0.3682
 7125SOL    HW232838   1.693   3.818   2.803  1.4473  1.0461 -0.0914
 7126SOL     OW32839   3.930   2.997  11.489  0.1082  0.0411  0.7766
 7126SOL    HW132840   3.985   2.919  11.482  1.4070  1.0766 -0.3526
 7126SOL    HW232841   3.850   2.958  11.526 -0.0509  0.7463  1.1654
 7127SOL     OW32842   4.210   4.383   8.380  0.6331 -0.0731  0.3895
 7127SOL    HW132843   4.280   4.449   8.378 -0.4221  1.0824  1.1300
 7127SOL    HW232844   4.144   4.429   8.432 -1.4884 -1.2017 -1.3308
 7128SOL     OW32845   0.169   2.047   5.683 -0.0329  0.0940 -0.5038
 7128SOL    HW132846   0.086   2.058   5.729  1.7231  3.2752  1.9483
 7128SOL    HW232847   0.223   2.081   5.755 -0.7280 -1.3325  0.6940
 7129SOL     OW32848   4.336   3.436   6.598 -0.4771 -0.0761  0.1456
 7129SOL    HW132849   4.342   3.528   6.624 -0.3831  0.2729 -1.1202
 7129SOL    HW232850   4.315   3.385   6.677  1.9213 -0.3213  0.6367
 7130SOL     OW32851   0.185   0.210   7.068  0.0585  0.6311  0.3432
 7130SOL    HW132852   0.168   0.117   7.083 -0.1789  0.1971 -2.6901
 7130SOL    HW232853   0.217   0.223   6.979  0.5079  0.5773  0.5016
 7131SOL     OW32854   2.683   0.051   3.592  0.0019  0.3019  0.1651
 7131SOL    HW132855   2.621   0.043   3.520 -1.0829 -0.3300  1.1604
 7131SOL    HW232856   2.723   4.689   3.602  2.0609  1.2624  0.2167
 7132SOL     OW32857   4.212   3.264  15.458  0.0510 -0.4267  0.1616
 7132SOL    HW132858   4.187   3.313  15.536  1.1929 -0.3547  0.4863
 7132SOL    HW232859   4.149   3.194  15.441 -1.2249  1.3155 -2.2166
 7133SOL     OW32860   1.350   0.020   3.083  0.9132 -0.2889 -0.1179
 7133SOL    HW132861   1.342   0.113   3.101  1.6661 -0.4607  1.1076
 7133SOL    HW232862   1.441   0.004   3.109  0.1972  1.8505  3.5942
 7134SOL     OW32863   3.131   0.582   5.766 -0.5828  0.4184  0.1078
 7134SOL    HW132864   3.134   0.555   5.674  1.5992  0.2224  0.2580
 7134SOL    HW232865   3.173   0.507   5.806 -1.3026 -0.0836 -0.0771
 7135SOL     OW32866   3.143   2.116   8.255  0.3649 -0.8190  0.6039
 7135SOL    HW132867   3.105   2.031   8.278  0.2930 -0.7879  0.6016
 7135SOL    HW232868   3.194   2.138   8.333 -0.0617 -1.2751  1.0124
 7136SOL     OW32869   1.874   2.054  14.841 -0.6008  0.0260  0.1220
 7136SOL    HW132870   1.838   2.103  14.767  0.4781  1.3021  0.4506
 7136SOL    HW232871   1.942   2.011  14.789 -0.3068  0.2179  0.3449
 7137SOL     OW32872   1.603   4.656   3.528  0.5908 -0.3160  0.9109
 7137SOL    HW132873   1.669   4.596   3.562  2.1304 -1.0339 -3.3899
 7137SOL    HW232874   1.645   0.011   3.562 -1.0807  0.8678  0.2513
 7138SOL     OW32875   4.157   2.352   7.208 -0.2290 -0.1230  0.1146
 7138SOL    HW132876   4.157   2.415   7.280  1.3751  0.7207 -0.6322
 7138SOL    HW232877   4.062   2.340   7.206 -0.3802  1.5576 -2.5516
 7139SOL     OW32878   3.977   2.511   4.838  0.4138 -0.0742  0.1412
 7139SOL    HW132879   3.928   2.457   4.776 -0.2934  0.9073 -0.1507
 7139SOL    HW232880   3.980   2.459   4.919  3.6929  0.7452  0.5328
 7140SOL     OW32881   2.506   0.620   2.197  0.0482 -0.2783 -0.9591
 7140SOL    HW132882   2.565   0.565   2.249  1.2430  1.7894 -0.1361
 7140SOL    HW232883   2.506   0.576   2.112 -2.8280 -2.0620  0.0009
 7141SOL     OW32884   4.501   0.989   2.562 -0.5448  0.3480 -0.1509
 7141SOL    HW132885   4.573   1.051   2.553  0.5756 -0.8428  0.6294
 7141SOL    HW232886   4.424   1.042   2.579 -0.8177 -0.3085  0.6390
 7142SOL     OW32887   1.593   1.750   5.444 -0.2911 -0.1891 -0.5440
 7142SOL    HW132888   1.555   1.696   5.514 -2.2996 -1.4612 -2.6080
 7142SOL    HW232889   1.517   1.748   5.386  0.1612 -1.1917 -1.0951
 7143SOL     OW32890   3.777   3.542   2.839 -0.6955  0.0290 -0.1561
 7143SOL    HW132891   3.734   3.533   2.925  2.1309  1.3917  1.3960
 7143SOL    HW232892   3.863   3.577   2.863  0.0192 -1.6457 -0.2788
 7144SOL     OW32893   3.765   2.473  10.140  0.2784 -0.5387 -0.3536
 7144SOL    HW132894   3.849   2.518  10.136  0.6427 -1.2338 -0.4935
 7144SOL    HW232895   3.797   2.388  10.171  1.8009  0.2186  0.1633
 7145SOL     OW32896   1.957   1.980   4.225  0.5285  0.6708 -0.2340
 7145SOL    HW132897   2.025   2.043   4.248  1.2601 -0.1342 -0.1617
 7145SOL    HW232898   1.922   2.021   4.146 -1.8256  1.2362  1.1171
 7146SOL     OW32899   1.724   2.340   6.513 -0.2413 -0.4093 -0.0565
 7146SOL    HW132900   1.667   2.416   6.526  0.0216  0.3311 -3.2708
 7146SOL    HW232901   1.673   2.277   6.564  1.0593 -0.4480  1.2022
 7147SOL     OW32902   2.880   1.251  14.704 -0.0456  0.1118  0.2105
 7147SOL    HW132903   2.844   1.169  14.738 -0.9440 -0.0995 -1.2129
 7147SOL    HW232904   2.802   1.295  14.669  0.3218 -0.9246 -1.9401
 7148SOL     OW32905   2.719   1.925   3.211 -0.2454  0.3343  0.9479
 7148SOL    HW132906   2.785   1.941   3.278  1.3745  1.5569 -0.9199
 7148SOL    HW232907   2.764   1.853   3.166 -0.3862  0.0318  1.2944
 7149SOL     OW32908   4.461   1.077   5.427 -0.1448  0.1327 -0.3276
 7149SOL    HW132909   4.397   1.108   5.362 -0.2304  1.6087  0.4616
 7149SOL    HW232910   4.514   1.156   5.442  0.0352  0.1657 -1.1007
 7150SOL     OW32911   4.539   4.312   4.470  0.6389  0.0182  0.0153
 7150SOL    HW132912   4.508   4.402   4.458  3.0056  0.9475  0.8702
 7150SOL    HW232913   4.468   4.263   4.429 -0.6775  2.2062 -0.3451
 7151SOL     OW32914   2.201   0.557   7.118  0.1328  0.0596 -0.1670
 7151SOL    HW132915   2.134   0.617   7.085  1.0323  1.3912  0.4366
 7151SOL    HW232916   2.170   0.545   7.208 -0.1568  0.0786 -0.2634
 7152SOL     OW32917   2.472   3.084  14.339 -0.4288 -0.4432 -0.5096
 7152SOL    HW132918   2.558   3.063  14.304 -0.1754 -0.2233 -0.0125
 7152SOL    HW232919   2.471   3.033  14.419 -1.3263 -0.7127 -0.6919
 7153SOL     OW32920   4.452   4.702   1.413 -0.2415  0.8441  1.1693
 7153SOL    HW132921   4.381   4.643   1.388  1.5617 -0.6681 -0.4468
 7153SOL    HW232922   4.491   4.671   1.495 -0.0416  0.0955  0.7886
 7154SOL     OW32923   3.590   1.101   2.353 -0.6216  0.3356 -0.2268
 7154SOL    HW132924   3.671   1.132   2.313  0.1603 -1.3200  0.0501
 7154SOL    HW232925   3.616   1.069   2.439 -0.9373 -1.9855 -0.9867
 7155SOL     OW32926   4.082   2.305   8.308  0.1807  0.8347  0.4267
 7155SOL    HW132927   4.172   2.308   8.276 -0.0654  1.6676 -0.1758
 7155SOL    HW232928   4.087   2.308   8.404 -2.0545  0.1772  0.5834
 7156SOL     OW32929   3.923   4.450   3.281 -0.1406 -0.2247 -0.3272
 7156SOL    HW132930   4.012   4.482   3.266  0.2201 -1.6732 -1.2620
 7156SOL    HW232931   3.932   4.438   3.376  0.0450  0.6270 -0.2350
 7157SOL     OW32932   2.064   3.184   9.430  0.0131  0.2743 -0.5295
 7157SOL    HW132933   2.086   3.249   9.496 -0.0567 -1.2063  0.9402
 7157SOL    HW232934   2.148   3.145   9.406  0.7559  0.3748  1.9067
 7158SOL     OW32935   1.003   1.920   2.088  0.1482  0.2082 -0.0379
 7158SOL    HW132936   0.957   1.937   2.170  2.4339  3.3608  0.6340
 7158SOL    HW232937   1.066   1.859   2.126 -1.8947 -0.8611  1.5727
 7159SOL     OW32938   0.686   2.398   7.393  0.3595  0.1230 -0.0750
 7159SOL    HW132939   0.593   2.398   7.416  0.0239 -0.3340 -1.4145
 7159SOL    HW232940   0.683   2.356   7.306 -0.7615 -0.3325  0.1814
 7160SOL     OW32941   0.557   0.713   3.553  0.4849 -0.3883 -0.8841
 7160SOL    HW132942   0.538   0.735   3.462 -1.0432  2.3609  0.0786
 7160SOL    HW232943   0.516   0.792   3.590 -0.8172 -0.2819 -2.5754
 7161SOL     OW32944   1.955   0.212   3.422  0.1672 -0.5879  0.4452
 7161SOL    HW132945   1.933   0.182   3.510  2.3165 -2.4541  0.3130
 7161SOL    HW232946   1.869   0.246   3.395  1.2034 -0.1362 -2.2998
 7162SOL     OW32947   3.873   1.088   8.412 -0.1095 -0.1734 -0.1726
 7162SOL    HW132948   3.865   1.031   8.335  3.4779 -0.3942 -0.3763
 7162SOL    HW232949   3.781   1.111   8.426 -0.0176  0.0057  0.1204
 7163SOL     OW32950   0.790   1.684  14.320 -0.0598 -0.2687  0.5537
 7163SOL    HW132951   0.803   1.610  14.379  1.8640 -2.5781 -2.7669
 7163SOL    HW232952   0.699   1.699  14.347 -0.3673 -2.2053  0.5642
 7164SOL     OW32953   0.888   0.557   9.750  0.4599 -0.2256 -0.0452
 7164SOL    HW132954   0.841   0.633   9.783 -1.2578 -0.9613 -0.8264
 7164SOL    HW232955   0.835   0.521   9.679  2.1851 -0.1901 -1.3753
 7165SOL     OW32956   0.854   1.388   8.806  0.4593 -0.2117  0.6108
 7165SOL    HW132957   0.876   1.437   8.728 -4.2737 -0.3000 -0.8033
 7165SOL    HW232958   0.899   1.442   8.871  0.8002  0.6031 -0.3137
 7166SOL     OW32959   2.529   2.827   6.937  0.4924  0.3453 -0.8126
 7166SOL    HW132960   2.565   2.744   6.969  0.4423  1.3323  1.7712
 7166SOL    HW232961   2.514   2.801   6.846 -1.6999  0.3790 -0.4566
 7167SOL     OW32962   3.255   2.943   1.059  0.3209  0.1259  0.9867
 7167SOL    HW132963   3.175   2.991   1.036  1.9469  2.1069 -0.5942
 7167SOL    HW232964   3.272   2.990   1.141  0.9989  1.0845  0.2851
 7168SOL     OW32965   1.013   1.801   8.045  0.0586 -0.2464  0.3593
 7168SOL    HW132966   0.956   1.873   8.016 -1.9411 -1.7961  0.4035
 7168SOL    HW232967   0.995   1.796   8.139  1.7933 -0.0915  0.6828
 7169SOL     OW32968   1.522   2.554  17.676 -0.1666  0.2602  0.4242
 7169SOL    HW132969   1.458   2.585   0.042  1.3186  4.1566 -0.0023
 7169SOL    HW232970   1.507   2.613  17.602 -1.4669 -1.3903 -0.6236
 7170SOL     OW32971   3.772   1.181   3.473  0.4002  0.3449  0.1381
 7170SOL    HW132972   3.828   1.183   3.550  0.4455  0.7350  0.0949
 7170SOL    HW232973   3.688   1.191   3.518  0.2561 -1.0420  0.1917
 7171SOL     OW32974   3.928   2.717   6.831  0.2307 -0.4927 -0.5186
 7171SOL    HW132975   3.870   2.645   6.807 -0.4343 -0.1250 -0.0264
 7171SOL    HW232976   4.017   2.684   6.815  0.2425  0.0747 -1.6728
 7172SOL     OW32977   3.896   3.784  16.326 -0.1482 -0.0116  0.2310
 7172SOL    HW132978   3.864   3.806  16.238  2.5570  0.6717 -0.5635
 7172SOL    HW232979   3.989   3.802  16.313 -0.2470 -0.1491 -0.6444
 7173SOL     OW32980   3.157   2.541  12.280  0.4201 -0.4234  0.1174
 7173SOL    HW132981   3.136   2.463  12.227 -2.7980  1.2665 -1.1345
 7173SOL    HW232982   3.223   2.580  12.223  1.8649 -1.6586  0.9804
 7174SOL     OW32983   4.255   2.823  12.258  0.9062  0.0061  0.1951
 7174SOL    HW132984   4.210   2.762  12.199 -0.1176  1.5017 -0.5991
 7174SOL    HW232985   4.216   2.793  12.340  0.7868 -2.0394 -0.6187
 7175SOL     OW32986   3.111   3.951   7.482  0.5681 -0.9962 -0.1275
 7175SOL    HW132987   3.173   3.973   7.551  0.1973 -0.5574  0.0741
 7175SOL    HW232988   3.031   3.948   7.535 -0.1960  3.6656 -1.0074
 7176SOL     OW32989   2.164   2.638   6.593  0.4687  0.2575 -0.2178
 7176SOL    HW132990   2.235   2.576   6.609  1.7415  1.5182 -0.9573
 7176SOL    HW232991   2.092   2.577   6.611  0.3800  0.2261 -0.6705
 7177SOL     OW32992   4.267   3.810   8.651 -0.5841  0.1795 -0.3140
 7177SOL    HW132993   4.360   3.826   8.667  0.0351 -2.6328 -1.1412
 7177SOL    HW232994   4.242   3.831   8.741  1.7599 -1.3709  0.7014
 7178SOL     OW32995   1.168   3.724   2.180  0.4996 -0.4257  0.2399
 7178SOL    HW132996   1.251   3.760   2.148  1.2403 -1.8526  0.5511
 7178SOL    HW232997   1.182   3.637   2.142  0.1819  0.6684 -2.3966
 7179SOL     OW32998   1.336   2.225  11.539 -0.2136  0.4406  0.6821
 7179SOL    HW132999   1.289   2.144  11.520  1.2560 -0.3426  0.4541
 7179SOL    HW233000   1.268   2.265  11.594 -0.2877  2.0701 -0.5982
 7180SOL     OW33001   1.768   1.448   7.280 -0.4662  0.0374  0.2558
 7180SOL    HW133002   1.846   1.449   7.336 -0.7838 -0.2630  0.7102
 7180SOL    HW233003   1.794   1.384   7.214  0.4583  0.9456 -0.2488
 7181SOL     OW33004   1.413   3.365  14.457 -0.6709  0.2366 -0.3191
 7181SOL    HW133005   1.330   3.377  14.505 -0.4989  0.5270 -0.0913
 7181SOL    HW233006   1.399   3.430  14.388 -0.5366  0.1797 -0.3986
 7182SOL     OW33007   2.772   1.712   7.461  0.1725  0.8432  0.5472
 7182SOL    HW133008   2.807   1.715   7.550  1.0809  1.3040  0.1729
 7182SOL    HW233009   2.691   1.665   7.481  0.5297 -1.0991 -2.5660
 7183SOL     OW33010   2.818   3.579  14.736  0.1384  0.0344  0.0494
 7183SOL    HW133011   2.724   3.568  14.721  0.2963 -2.3824  0.8777
 7183SOL    HW233012   2.826   3.623  14.821 -1.3066 -0.0980  0.2604
 7184SOL     OW33013   3.943   1.997   7.970  0.0589  0.8456  0.1878
 7184SOL    HW133014   3.935   2.076   8.023 -2.4654  0.6017  0.1901
 7184SOL    HW233015   3.913   1.928   8.030  0.0538  1.0605  0.4307
 7185SOL     OW33016   0.832   3.263  12.773 -0.0429 -0.3081 -0.2350
 7185SOL    HW133017   0.777   3.216  12.836  0.7275  0.4955  1.0361
 7185SOL    HW233018   0.870   3.326  12.834 -1.4962  1.4799 -1.1436
 7186SOL     OW33019   2.879   1.402   2.628 -0.3315  0.4534 -0.1561
 7186SOL    HW133020   2.852   1.452   2.705  0.7061  0.6815  0.0552
 7186SOL    HW233021   2.796   1.393   2.580 -0.8124 -0.1966  0.8063
 7187SOL     OW33022   4.336   2.790   3.214  0.2499 -0.7676  0.3293
 7187SOL    HW133023   4.301   2.764   3.129  1.7198 -0.0570 -0.4931
 7187SOL    HW233024   4.378   2.708   3.239  0.2466 -0.9974 -0.4120
 7188SOL     OW33025   1.896   1.181  17.615  0.1204 -0.2802  0.3207
 7188SOL    HW133026   1.881   1.098  17.660  2.3916 -0.5355  0.6295
 7188SOL    HW233027   1.953   1.215  17.684 -0.2624  1.0661 -0.0129
 7189SOL     OW33028   2.056   4.236   2.402 -0.8172  0.0130 -0.6100
 7189SOL    HW133029   2.007   4.169   2.449 -0.8114  0.2997 -0.1910
 7189SOL    HW233030   2.115   4.275   2.467 -0.4122  3.5241 -3.1001
 7190SOL     OW33031   0.663   4.184  12.770  0.0644 -0.1520  0.1348
 7190SOL    HW133032   0.675   4.185  12.675 -0.7387  0.5687  0.0448
 7190SOL    HW233033   0.740   4.132  12.796  1.7195  1.8347 -0.7644
 7191SOL     OW33034   0.857   3.168   2.551  0.5489  0.4532 -0.0629
 7191SOL    HW133035   0.821   3.148   2.465  2.3083 -0.2292 -0.6406
 7191SOL    HW233036   0.910   3.089   2.567 -1.0582 -0.6224 -0.1103
 7192SOL     OW33037   2.409   0.160   4.384  0.3455 -0.2194  0.0267
 7192SOL    HW133038   2.366   0.075   4.369  2.6358 -1.2935 -0.4140
 7192SOL    HW233039   2.489   0.127   4.424  0.1016  0.2826  0.9308
 7193SOL     OW33040   2.668   1.227   1.519  0.4574 -0.1115  0.2517
 7193SOL    HW133041   2.573   1.221   1.530 -0.2486  0.8491 -5.2005
 7193SOL    HW233042   2.687   1.305   1.571  0.4142  0.6356 -0.8575
 7194SOL     OW33043   1.049   4.283   9.287 -0.5919  0.0512 -0.0941
 7194SOL    HW133044   1.040   4.320   9.374 -0.7620  2.2852 -1.0481
 7194SOL    HW233045   1.129   4.329   9.262  0.0747  0.0161  1.9698
 7195SOL     OW33046   0.618   2.825   6.326  0.3478  0.0210  0.0262
 7195SOL    HW133047   0.557   2.884   6.281  0.6179 -0.6107 -1.1773
 7195SOL    HW233048   0.629   2.861   6.414  0.8761 -0.2784  0.0783
 7196SOL     OW33049   2.194   4.493  14.562  0.6371  0.2833 -0.4653
 7196SOL    HW133050   2.167   4.409  14.601  0.1577  1.1443  1.0517
 7196SOL    HW233051   2.280   4.484  14.522  1.1150  2.3818  0.0745
 7197SOL     OW33052   2.106   3.479   4.554  0.0070 -0.4036 -0.5257
 7197SOL    HW133053   2.183   3.465   4.610 -0.4239 -0.6026  0.0183
 7197SOL    HW233054   2.107   3.572   4.534  0.8439  0.0005  1.3608
 7198SOL     OW33055   4.698   0.943   5.549 -0.0025  0.0273 -0.3235
 7198SOL    HW133056   0.010   0.956   5.461 -0.0765  1.9806 -0.0606
 7198SOL    HW233057   4.611   0.981   5.537 -0.2362 -0.1479  0.8412
 7199SOL     OW33058   1.538   4.316   9.827 -0.4248  0.1158  0.1465
 7199SOL    HW133059   1.545   4.270   9.743 -0.2501 -0.2148  0.3411
 7199SOL    HW233060   1.471   4.256   9.859  1.7468 -2.1705  0.4391
 7200SOL     OW33061   0.566   4.386   8.533  0.0148  0.4272 -0.6382
 7200SOL    HW133062   0.588   4.340   8.614  2.5752  0.8943 -1.0912
 7200SOL    HW233063   0.542   4.468   8.577 -0.0969  0.4611 -0.7603
 7201SOL     OW33064   1.584   1.142   2.972  0.1026  0.3725  0.1048
 7201SOL    HW133065   1.657   1.167   2.915  0.6901 -0.1150  0.6360
 7201SOL    HW233066   1.626   1.093   3.042  1.5178  0.3887 -0.7267
 7202SOL     OW33067   0.649   1.219  10.840 -0.3543  0.5656  0.2240
 7202SOL    HW133068   0.652   1.310  10.869  0.8336  1.3988 -2.5437
 7202SOL    HW233069   0.570   1.189  10.884 -0.7492  3.1292  1.2521
 7203SOL     OW33070   1.540   4.014   4.466 -0.0909  0.0511  0.0006
 7203SOL    HW133071   1.631   4.006   4.493 -1.1208 -0.5026  3.2849
 7203SOL    HW233072   1.537   3.929   4.421  1.1084  0.0637 -0.1077
 7204SOL     OW33073   3.705   0.044   7.696  0.1130 -0.2165 -0.4125
 7204SOL    HW133074   3.679   0.023   7.786  0.0495  4.0548  0.5575
 7204SOL    HW233075   3.697   4.680   7.660  1.2217  0.5161 -2.4832
 7205SOL     OW33076   2.014   1.160   2.648  0.0329  0.7294 -0.0306
 7205SOL    HW133077   2.059   1.143   2.566 -2.4749 -0.5480 -1.1144
 7205SOL    HW233078   1.926   1.179   2.616 -0.5347 -1.0603  0.4720
 7206SOL     OW33079   1.377   1.676   6.689  0.3884 -0.3068  0.2712
 7206SOL    HW133080   1.323   1.651   6.763  0.5396  0.4505  0.6349
 7206SOL    HW233081   1.429   1.596   6.679 -0.9442 -1.0892 -0.2761
 7207SOL     OW33082   3.028   4.308  10.175 -0.1095 -0.5492  0.2164
 7207SOL    HW133083   3.062   4.252  10.105  1.6410 -1.3378  1.6558
 7207SOL    HW233084   3.077   4.270  10.249 -1.1234  0.8506  1.5878
 7208SOL     OW33085   4.456   1.423  15.416 -0.0131  0.8513 -0.4075
 7208SOL    HW133086   4.422   1.511  15.396  2.4110  2.3251  2.0016
 7208SOL    HW233087   4.439   1.374  15.335 -0.7102  0.4184  0.0056
 7209SOL     OW33088   3.334   0.504   6.259 -0.0009  0.2142  0.2048
 7209SOL    HW133089   3.245   0.468   6.258 -0.5123  1.4958  1.4481
 7209SOL    HW233090   3.372   0.449   6.191 -2.3311 -1.6141  0.3661
 7210SOL     OW33091   4.483   3.084   2.157 -0.1060  0.5122 -0.1646
 7210SOL    HW133092   4.568   3.110   2.191 -0.8116 -0.0438  2.0130
 7210SOL    HW233093   4.437   3.168   2.147 -0.7191 -0.0149 -1.9037
 7211SOL     OW33094   4.708   2.027   1.651  0.1372  0.0318  0.4561
 7211SOL    HW133095   4.687   2.104   1.703 -3.6268 -1.0376  0.4948
 7211SOL    HW233096   4.645   2.039   1.581  2.1785  0.3076 -1.3418
 7212SOL     OW33097   3.272   2.107   3.947  0.3486  0.1470  0.5424
 7212SOL    HW133098   3.324   2.032   3.976  1.3800  1.2823  1.5637
 7212SOL    HW233099   3.191   2.067   3.915 -0.5083  1.8628  0.5681
 7213SOL     OW33100   2.865   1.320  11.477 -0.4956  0.0889  0.7642
 7213SOL    HW133101   2.916   1.373  11.417 -0.7508  1.0159  1.3683
 7213SOL    HW233102   2.788   1.312  11.421 -0.9233  2.5011  1.0274
 7214SOL     OW33103   4.285   3.875   4.534  0.4716 -0.3182 -0.5123
 7214SOL    HW133104   4.356   3.932   4.561  1.5548 -2.3812  1.0232
 7214SOL    HW233105   4.264   3.913   4.449 -0.7176 -1.7849 -0.8854
 7215SOL     OW33106   4.693   3.629  13.805  0.2677  0.7313 -0.2012
 7215SOL    HW133107   4.691   3.649  13.898  0.6591  0.4653 -0.1361
 7215SOL    HW233108   4.661   3.539  13.799  0.9402  0.7771 -5.0926
 7216SOL     OW33109   3.774   3.761   9.007  0.2270 -0.2262 -0.2566
 7216SOL    HW133110   3.724   3.796   9.081  2.0099  1.9333 -0.0943
 7216SOL    HW233111   3.806   3.674   9.029  0.1602 -0.0236  0.6305
 7217SOL     OW33112   4.119   0.254  10.809  0.2649 -0.1081  0.2506
 7217SOL    HW133113   4.131   0.295  10.895  0.5204  0.6135 -0.1290
 7217SOL    HW233114   4.024   0.254  10.799  0.1356  0.7726  1.4921
 7218SOL     OW33115   2.902   2.325   8.282  0.0009 -0.1104  0.1391
 7218SOL    HW133116   2.865   2.412   8.292 -0.1537 -0.2356  0.6738
 7218SOL    HW233117   2.935   2.309   8.370  1.6508 -0.6806 -0.5935
 7219SOL     OW33118   2.099   0.200   7.012 -0.0509 -0.0127 -0.4039
 7219SOL    HW133119   2.118   0.281   7.059 -0.2014 -0.1125 -0.1747
 7219SOL    HW233120   2.136   0.224   6.927  2.4724  0.8546  0.9334
 7220SOL     OW33121   0.277   2.212   0.088  0.6878 -0.0971  0.9043
 7220SOL    HW133122   0.302   2.253   0.006 -2.1724 -0.2367 -0.0308
 7220SOL    HW233123   0.363   2.208   0.130  1.0441  1.5938  0.3601
 7221SOL     OW33124   0.453   0.127  15.596 -0.1189 -0.2039  0.3897
 7221SOL    HW133125   0.520   0.147  15.531 -0.6879  0.7832  0.1022
 7221SOL    HW233126   0.488   0.158  15.680  0.7752  1.2265 -0.5180
 7222SOL     OW33127   0.581   0.122  16.984  0.2732 -0.3344 -0.3802
 7222SOL    HW133128   0.597   0.196  16.926 -2.0107  0.7257  0.3353
 7222SOL    HW233129   0.661   0.126  17.037  1.5505  3.1200 -2.6346
 7223SOL     OW33130   1.663   1.069   9.096  0.6161  0.4427 -0.7088
 7223SOL    HW133131   1.732   1.064   9.030  1.5912 -2.2455  0.5269
 7223SOL    HW233132   1.642   1.162   9.088 -0.7983  0.1150 -0.8420
 7224SOL     OW33133   2.713   4.209   1.562 -0.3485  0.8998  0.0865
 7224SOL    HW133134   2.678   4.136   1.612  0.8428  0.2175 -0.0623
 7224SOL    HW233135   2.746   4.270   1.628 -1.6380  0.4015  1.1660
 7225SOL     OW33136   0.249   4.641   3.917 -0.3957  0.4517  0.1177
 7225SOL    HW133137   0.329   4.589   3.924 -0.6801  0.2958  2.4150
 7225SOL    HW233138   0.281   0.007   3.923  0.0039  0.4069 -1.2752
 7226SOL     OW33139   1.250   3.553   4.252 -0.0326  0.4338  0.2847
 7226SOL    HW133140   1.173   3.516   4.295 -0.6398  2.8462  1.2685
 7226SOL    HW233141   1.214   3.634   4.217  1.0246  0.1723 -1.4281
 7227SOL     OW33142   2.751   3.814  16.445 -0.3442  0.0801 -0.2157
 7227SOL    HW133143   2.680   3.861  16.489  0.3007 -0.1372  1.0684
 7227SOL    HW233144   2.753   3.865  16.364  0.4971  0.1204 -0.1623
 7228SOL     OW33145   3.075   1.660   1.261  0.2443  0.3611 -0.0946
 7228SOL    HW133146   3.060   1.659   1.355 -0.4348 -0.1321 -0.2022
 7228SOL    HW233147   3.151   1.603   1.248 -0.1977 -0.2160 -0.2018
 7229SOL     OW33148   1.437   2.194   3.318  0.5451 -0.0488  0.3087
 7229SOL    HW133149   1.438   2.156   3.230  2.5788 -2.0677  1.2039
 7229SOL    HW233150   1.416   2.109   3.358  2.6236  0.0348  1.5437
 7230SOL     OW33151   3.250   3.344   6.923 -0.5581 -0.6826 -0.6808
 7230SOL    HW133152   3.230   3.304   7.007 -1.7349  0.8420 -0.2352
 7230SOL    HW233153   3.163   3.367   6.890 -0.7435  0.5337  0.6660
 7231SOL     OW33154   1.353   0.464  14.691  0.0624 -0.1378  0.2884
 7231SOL    HW133155   1.382   0.537  14.746  0.8263  1.7236 -2.6113
 7231SOL    HW233156   1.396   0.391  14.735  1.2177  0.1278 -0.4067
 7232SOL     OW33157   4.659   3.453   8.839  0.1492 -0.5254 -0.6774
 7232SOL    HW133158   0.001   3.520   8.819 -2.1898  1.6869 -0.9589
 7232SOL    HW233159   4.592   3.463   8.772 -2.1147  1.2332  1.8756
 7233SOL     OW33160   4.285   1.716   5.013  0.1108  0.0950  0.5599
 7233SOL    HW133161   4.259   1.672   4.931  2.6131  1.4443 -0.9478
 7233SOL    HW233162   4.379   1.706   5.005  0.0016  0.1832 -0.8816
 7234SOL     OW33163   3.267   3.383   4.632 -0.3879 -0.1993 -0.2153
 7234SOL    HW133164   3.217   3.434   4.569  1.4586  2.2393  0.3086
 7234SOL    HW233165   3.310   3.440   4.695 -0.5602  0.7613 -0.9724
 7235SOL     OW33166   1.236   1.890  12.439  0.9049 -0.3343 -0.0206
 7235SOL    HW133167   1.199   1.808  12.472 -1.6532  0.8074 -0.1059
 7235SOL    HW233168   1.159   1.947  12.444  0.6087 -0.7349 -0.0242
 7236SOL     OW33169   3.578   2.385   1.340  0.2797  0.8651  0.1199
 7236SOL    HW133170   3.535   2.462   1.303 -0.1952 -0.3744 -1.9189
 7236SOL    HW233171   3.505   2.335   1.377 -0.8882  1.3244 -1.5953
 7237SOL     OW33172   0.992   1.181   7.031 -0.7351  0.4370 -0.4567
 7237SOL    HW133173   0.988   1.140   7.118 -2.8645  0.0305 -0.7313
 7237SOL    HW233174   0.902   1.208   7.014 -1.1213 -0.5223  0.0451
 7238SOL     OW33175   2.040   0.928   6.432  0.3740 -0.6388 -0.3160
 7238SOL    HW133176   2.037   0.976   6.349 -0.7881  0.6774  0.4805
 7238SOL    HW233177   2.133   0.939   6.449  0.1459  0.4592  0.2068
 7239SOL     OW33178   4.130   0.842   4.333 -0.0616  0.4844 -0.1987
 7239SOL    HW133179   4.091   0.915   4.285 -0.6256  2.1502  2.8239
 7239SOL    HW233180   4.095   0.764   4.289 -1.0275  0.4519  0.6193
 7240SOL     OW33181   3.624   4.466  11.864  0.5586  0.1130 -0.5187
 7240SOL    HW133182   3.549   4.468  11.804  0.0424 -1.0460  0.0759
 7240SOL    HW233183   3.598   4.418  11.943 -0.3184  1.3939 -0.0385
 7241SOL     OW33184   1.286   3.060   3.725  0.2763  0.9439  0.2965
 7241SOL    HW133185   1.236   3.048   3.805  1.2905  3.2462  1.2766
 7241SOL    HW233186   1.375   3.053   3.758 -0.8827 -2.9924  2.4752
 7242SOL     OW33187   2.997   0.401   6.821 -0.2516  0.0604  0.4126
 7242SOL    HW133188   3.084   0.384   6.857  0.7039  0.1489 -1.9096
 7242SOL    HW233189   2.982   0.324   6.767  1.3884  0.1263 -0.1212
 7243SOL     OW33190   0.416   1.180   0.804 -0.2433  0.1835  0.0008
 7243SOL    HW133191   0.469   1.170   0.883  2.1430  3.6196 -1.1461
 7243SOL    HW233192   0.396   1.274   0.807  0.5641  0.3688 -0.6432
 7244SOL     OW33193   4.538   0.492   2.750  0.0841 -0.2689  0.4448
 7244SOL    HW133194   4.520   0.549   2.825  0.9178 -0.0559  0.4834
 7244SOL    HW233195   4.506   0.536   2.671 -0.5718 -2.1803 -0.3519
 7245SOL     OW33196   3.803   0.382  13.623 -0.0584  0.7166  0.0142
 7245SOL    HW133197   3.787   0.466  13.579 -1.2761  0.1241 -0.6838
 7245SOL    HW233198   3.897   0.379  13.603 -0.3846 -4.8500 -0.6874
 7246SOL     OW33199   0.025   3.898   7.434 -0.0602  0.2894 -0.7474
 7246SOL    HW133200   4.712   3.843   7.364  2.3695 -0.9108 -1.1163
 7246SOL    HW233201   0.073   3.837   7.491  0.3475  0.8709 -0.4737
 7247SOL     OW33202   2.260   1.923   2.087  0.0907 -0.3685  0.3845
 7247SOL    HW133203   2.202   1.848   2.079  1.2818 -1.2528 -0.1111
 7247SOL    HW233204   2.316   1.919   2.009 -0.3827  0.2005  0.0198
 7248SOL     OW33205   4.502   2.684  15.535  1.0777 -0.0612 -0.3257
 7248SOL    HW133206   4.516   2.745  15.608  2.4174 -0.2517 -0.4149
 7248SOL    HW233207   4.544   2.726  15.460 -1.8532 -2.0285 -3.0261
 7249SOL     OW33208   0.234   0.427   4.381  0.7187  0.0339 -0.8335
 7249SOL    HW133209   0.243   0.351   4.438  1.6306  1.8865  1.5464
 7249SOL    HW233210   0.154   0.409   4.333  0.1303  1.0894 -0.2613
 7250SOL     OW33211   2.244   0.261   5.904  0.1982  0.4597  1.2313
 7250SOL    HW133212   2.295   0.275   5.824 -1.9851  1.5933  0.0524
 7250SOL    HW233213   2.315   0.244   5.966  1.1926  1.8028  0.4526
 7251SOL     OW33214   0.459   3.133  11.091  0.2700  0.1437  0.3601
 7251SOL    HW133215   0.526   3.200  11.109 -0.1515  0.5996  0.2388
 7251SOL    HW233216   0.510   3.060  11.058 -0.6825 -0.4872  0.3007
 7252SOL     OW33217   2.962   3.383   3.701  0.0668  0.5976 -0.2983
 7252SOL    HW133218   2.952   3.288   3.700 -0.1812  0.6294 -1.7893
 7252SOL    HW233219   3.039   3.401   3.756 -0.1011 -0.6273  0.3212
 7253SOL     OW33220   0.915   4.167   6.378  0.0613 -0.2583  0.0492
 7253SOL    HW133221   0.959   4.085   6.400  0.6962  0.3376  0.9919
 7253SOL    HW233222   0.952   4.175   6.289 -2.2023 -1.4678 -0.9912
 7254SOL     OW33223   2.162   2.263   5.558  0.1893  0.2721  0.3690
 7254SOL    HW133224   2.186   2.308   5.639  1.0329  0.5375 -0.0284
 7254SOL    HW233225   2.219   2.187   5.551  0.8824  0.8413 -0.1160
 7255SOL     OW33226   2.096   2.675   5.655  0.1741 -0.8621  0.1885
 7255SOL    HW133227   2.043   2.618   5.710 -1.1387 -1.3533 -1.6249
 7255SOL    HW233228   2.036   2.707   5.588  0.7551  1.5204  0.7835
 7256SOL     OW33229   3.917   0.607  15.291 -0.4298 -0.0674  0.2796
 7256SOL    HW133230   3.936   0.562  15.374 -1.7322 -1.3396 -0.1060
 7256SOL    HW233231   3.821   0.603  15.286 -0.4932  1.9064 -0.0949
 7257SOL     OW33232   4.428   0.790   9.264  0.0418  0.1618 -0.0614
 7257SOL    HW133233   4.506   0.734   9.261  0.1800  0.3722 -0.4745
 7257SOL    HW233234   4.377   0.737   9.325  1.0708 -2.4799 -1.4929
 7258SOL     OW33235   1.854   2.980   4.492 -0.1182 -0.2453 -0.3275
 7258SOL    HW133236   1.867   3.048   4.558  0.7638 -1.2531  0.5402
 7258SOL    HW233237   1.862   3.031   4.412  2.8839 -0.1971 -0.0003
 7259SOL     OW33238   0.018   0.977   9.742 -0.2016 -0.1107  0.5797
 7259SOL    HW133239   4.679   0.999   9.810  1.0169  1.6668  1.1265
 7259SOL    HW233240   4.694   1.000   9.663 -1.1502 -1.3284  0.8213
 7260SOL     OW33241   1.301   2.967   3.475 -0.1413 -0.0775  0.2325
 7260SOL    HW133242   1.353   2.890   3.500  3.7357  2.3530 -0.2910
 7260SOL    HW233243   1.297   3.007   3.562 -2.8123 -0.5943  0.3331
 7261SOL     OW33244   1.866   1.943   0.577  0.1366  0.3140 -0.4298
 7261SOL    HW133245   1.926   1.944   0.502 -1.1714  1.8725 -1.4511
 7261SOL    HW233246   1.918   2.004   0.629  0.2400 -1.5902  1.6821
 7262SOL     OW33247   3.271   0.721   7.890  0.3302 -0.2583  0.1830
 7262SOL    HW133248   3.357   0.762   7.891  0.5395 -0.7046  0.2134
 7262SOL    HW233249   3.252   0.724   7.796 -0.4190 -2.0879  0.2634
 7263SOL     OW33250   3.733   4.148   8.481  0.1144 -0.3404 -0.5204
 7263SOL    HW133251   3.729   4.198   8.563 -0.8586 -0.6993 -0.3533
 7263SOL    HW233252   3.790   4.075   8.507 -0.6406  0.5390  3.6817
 7264SOL     OW33253   4.050   1.503  10.308  0.4510  0.4514 -0.2315
 7264SOL    HW133254   4.096   1.427  10.344 -1.9627 -0.2648  1.3778
 7264SOL    HW233255   4.028   1.468  10.222  1.8331  0.8548 -0.7536
 7265SOL     OW33256   4.305   4.624   4.882 -0.3798  0.0424  0.0829
 7265SOL    HW133257   4.304   4.535   4.847 -1.4526  0.5929 -1.2794
 7265SOL    HW233258   4.333   4.597   4.969  2.3785  2.1795 -0.1511
 7266SOL     OW33259   1.997   2.971   9.569 -0.3722  0.7230 -0.0021
 7266SOL    HW133260   1.989   3.019   9.651  1.7554 -0.7887  1.0932
 7266SOL    HW233261   2.001   3.041   9.504 -2.9860 -1.1053 -2.1335
 7267SOL     OW33262   4.190   4.101   3.340  0.3009  0.2541 -0.2915
 7267SOL    HW133263   4.200   4.021   3.288 -3.4386 -0.5809  0.2361
 7267SOL    HW233264   4.129   4.149   3.285  0.7438  0.5442 -0.5245
 7268SOL     OW33265   2.718   4.618   6.764  0.1643  0.3020 -0.2241
 7268SOL    HW133266   2.715   4.578   6.677 -1.9904  1.6249 -0.7707
 7268SOL    HW233267   2.811   4.641   6.769 -0.3123  1.6012  2.4687
 7269SOL     OW33268   2.861   4.269   0.768  0.1909 -0.2077  0.2489
 7269SOL    HW133269   2.841   4.339   0.706 -1.8881 -2.2270 -1.3396
 7269SOL    HW233270   2.842   4.319   0.848 -3.1320 -3.0935  1.2574
 7270SOL     OW33271   1.250   1.148   4.641 -0.5295 -0.0557 -0.4110
 7270SOL    HW133272   1.215   1.114   4.559 -0.2969 -0.9874 -0.1317
 7270SOL    HW233273   1.189   1.217   4.665  0.9069  0.4474  1.8042
 7271SOL     OW33274   3.107   1.488  15.697 -0.5053  0.2084  0.4583
 7271SOL    HW133275   3.174   1.497  15.764 -0.1680 -0.9517  0.2824
 7271SOL    HW233276   3.156   1.485  15.614  1.7195 -0.4789  1.7874
 7272SOL     OW33277   3.366   2.285   9.055 -0.3648 -0.1878 -0.2813
 7272SOL    HW133278   3.405   2.223   9.117 -0.4876  0.5323  0.5307
 7272SOL    HW233279   3.335   2.218   8.994 -0.5880  0.9918 -1.4475
 7273SOL     OW33280   0.728   4.456   4.141 -1.1942  0.1525  0.2014
 7273SOL    HW133281   0.667   4.518   4.101  0.9849  2.1200 -0.1212
 7273SOL    HW233282   0.681   4.374   4.154  0.0451 -0.8958 -1.9326
 7274SOL     OW33283   2.074   1.137   9.055 -0.6746 -0.6828  0.6519
 7274SOL    HW133284   2.167   1.122   9.038 -0.5587 -0.0911  0.7956
 7274SOL    HW233285   2.068   1.119   9.149  1.7596  1.0486  1.1269
 7275SOL     OW33286   2.977   1.916   6.606  0.1079  0.0563 -0.5922
 7275SOL    HW133287   3.018   2.003   6.599  2.0427 -0.8738 -0.8550
 7275SOL    HW233288   3.042   1.856   6.643 -0.5039  0.6026  1.3671
 7276SOL     OW33289   4.007   1.793   6.154 -0.9205 -0.0361  0.2227
 7276SOL    HW133290   3.992   1.795   6.059  0.0334 -1.3380  0.0480
 7276SOL    HW233291   4.102   1.795   6.152 -0.8887 -0.8836  1.1441
 7277SOL     OW33292   4.092   1.635   8.952  0.2824 -0.2398 -0.4571
 7277SOL    HW133293   4.027   1.689   8.908 -0.9725  0.1524  1.8719
 7277SOL    HW233294   4.033   1.602   9.021 -1.1037  0.2241 -1.4197
 7278SOL     OW33295   3.077   3.045   3.138 -0.6219 -0.5094 -0.3717
 7278SOL    HW133296   3.118   3.057   3.052 -0.3548  3.7635  0.3979
 7278SOL    HW233297   3.150   3.050   3.199 -0.1150  2.9375 -1.2697
 7279SOL     OW33298   3.889   0.671   1.098 -0.5108  0.2111  0.4603
 7279SOL    HW133299   3.807   0.708   1.064 -0.7030  1.7654  2.6470
 7279SOL    HW233300   3.934   0.741   1.145  1.2288 -1.4227  1.2035
 7280SOL     OW33301   2.892   4.438   8.322  0.0995  0.4298  0.0006
 7280SOL    HW133302   2.900   4.358   8.271  2.1105  1.2553 -0.9883
 7280SOL    HW233303   2.955   4.430   8.393 -0.2096 -0.1400  0.2106
 7281SOL     OW33304   3.727   3.917  10.275  0.5833 -0.4027 -0.1598
 7281SOL    HW133305   3.682   3.910  10.191  0.4868  2.8652 -0.3553
 7281SOL    HW233306   3.807   3.968  10.266 -0.0011  0.8617  1.7416
 7282SOL     OW33307   0.456   3.650   6.366 -0.1297  0.7118 -0.1177
 7282SOL    HW133308   0.492   3.591   6.432 -1.3111  1.1177  0.8824
 7282SOL    HW233309   0.420   3.720   6.421 -0.0734 -0.1000  0.9382
 7283SOL     OW33310   2.241   1.062  10.705  0.4360 -0.2075  0.0730
 7283SOL    HW133311   2.225   1.135  10.646  0.9938  0.8028  1.1779
 7283SOL    HW233312   2.336   1.053  10.695  0.2916 -1.2538 -0.4190
 7284SOL     OW33313   0.316   3.215   2.700 -0.5799  0.0833  0.0388
 7284SOL    HW133314   0.291   3.139   2.647 -2.7468  0.7242  0.1243
 7284SOL    HW233315   0.274   3.176   2.777  0.5844  1.8823  1.5866
 7285SOL     OW33316   0.558   2.956   5.869  0.3929  0.3495 -0.1982
 7285SOL    HW133317   0.536   2.864   5.882  0.5451  0.8079  3.2262
 7285SOL    HW233318   0.614   2.974   5.944 -0.8863  1.0895  0.5821
 7286SOL     OW33319   4.372   1.690  15.324  0.2687  0.1635 -0.5682
 7286SOL    HW133320   4.452   1.725  15.284  1.2457 -0.7983  0.5358
 7286SOL    HW233321   4.316   1.679  15.247  2.7826  0.2996 -2.4055
 7287SOL     OW33322   0.408   3.306   6.953  0.2474 -0.4003 -0.8465
 7287SOL    HW133323   0.394   3.386   6.902  0.2939 -0.6048 -1.1812
 7287SOL    HW233324   0.317   3.281   6.973 -0.1553 -0.2435 -2.5163
 7288SOL     OW33325   3.029   1.357   0.996  0.4949 -0.3572  0.3062
 7288SOL    HW133326   2.958   1.401   1.043  1.2191 -0.6646  1.7068
 7288SOL    HW233327   3.006   1.372   0.905 -0.6062 -0.3663  0.5897
 7289SOL     OW33328   0.385   0.330  13.578  0.0828  0.2981  0.2372
 7289SOL    HW133329   0.448   0.375  13.522 -0.1817  0.9465  0.4590
 7289SOL    HW233330   0.304   0.344  13.528  0.9460 -0.5854 -1.4197
 7290SOL     OW33331   0.841   4.704  14.711 -0.3246  0.3552  0.2537
 7290SOL    HW133332   0.877   4.672  14.628  0.0859  2.5702 -0.4141
 7290SOL    HW233333   0.793   0.058  14.684  1.4936  0.4077 -2.7651
 7291SOL     OW33334   4.126   4.599   2.798  0.1053  0.5079 -0.1626
 7291SOL    HW133335   4.200   4.547   2.830  1.7210  2.1838 -1.1358
 7291SOL    HW233336   4.054   4.547   2.834  0.2426  0.6066  0.2609
 7292SOL     OW33337   3.205   2.532   8.583  0.4845 -0.3894 -0.1427
 7292SOL    HW133338   3.185   2.536   8.489  0.3021 -2.9559 -0.2061
 7292SOL    HW233339   3.301   2.533   8.578  0.5644  1.6776  2.0768
 7293SOL     OW33340   4.449   1.577   8.760  0.5434 -0.7599 -0.3805
 7293SOL    HW133341   4.392   1.513   8.802 -1.4812  1.5760  0.4367
 7293SOL    HW233342   4.538   1.542   8.767  1.1654  0.6363 -1.2257
 7294SOL     OW33343   4.439   2.500  13.798  0.3708 -0.0388 -0.2528
 7294SOL    HW133344   4.396   2.421  13.829  0.8715 -0.3776 -0.4277
 7294SOL    HW233345   4.526   2.469  13.772  0.1265 -2.1621  1.4900
 7295SOL     OW33346   2.386   3.486  14.816 -0.2819  0.1445 -0.1521
 7295SOL    HW133347   2.425   3.497  14.730  2.0520  0.5614  0.9697
 7295SOL    HW233348   2.370   3.392  14.818 -1.5983  0.3541 -0.6387
 7296SOL     OW33349   4.670   2.840   5.534 -0.0955 -0.1692  0.5809
 7296SOL    HW133350   0.005   2.802   5.598  0.6913 -3.3027 -2.0381
 7296SOL    HW233351   0.010   2.855   5.465 -2.5256 -0.6165 -1.7811
 7297SOL     OW33352   0.095   1.948   9.397  0.6403  0.6400  0.4053
 7297SOL    HW133353   0.017   2.003   9.383  0.7026  0.8156  0.7421
 7297SOL    HW233354   0.162   1.996   9.350  1.9714 -2.0028 -0.3705
 7298SOL     OW33355   2.650   0.550   4.576 -0.0014  0.4170  0.0145
 7298SOL    HW133356   2.669   0.629   4.526 -1.1211  0.7901  0.1902
 7298SOL    HW233357   2.568   0.522   4.537  0.7808  0.7625 -1.8681
 7299SOL     OW33358   0.472   2.273   8.212 -0.1772 -0.0658 -0.0396
 7299SOL    HW133359   0.441   2.217   8.283 -3.0628  0.2256 -1.0693
 7299SOL    HW233360   0.391   2.313   8.180  0.0603  0.4962  0.0818
 7300SOL     OW33361   1.812   1.224  12.517  0.7374 -0.4408  0.6096
 7300SOL    HW133362   1.888   1.228  12.459  1.1175 -0.8904  1.0764
 7300SOL    HW233363   1.811   1.131  12.541 -0.9622 -1.0694 -1.8672
 7301SOL     OW33364   2.231   1.276   5.462 -0.3001 -0.3888 -0.0590
 7301SOL    HW133365   2.324   1.299   5.467  0.1837 -2.4355  0.4718
 7301SOL    HW233366   2.190   1.362   5.471 -0.2821 -0.5984  2.0827
 7302SOL     OW33367   1.670   4.688   0.035  0.0893 -0.4880  0.1888
 7302SOL    HW133368   1.744   0.013   0.071  1.2131 -1.3079 -1.0368
 7302SOL    HW233369   1.681   4.596   0.059 -0.9211 -0.5516  0.4254
 7303SOL     OW33370   1.076   4.303   4.076 -0.2311  0.2402 -0.1083
 7303SOL    HW133371   1.135   4.376   4.059  0.8693 -0.8249 -0.9166
 7303SOL    HW233372   1.091   4.252   3.996 -2.2933 -0.5305 -0.0143
 7304SOL     OW33373   1.176   2.197   4.525 -0.5216 -0.6284  0.5287
 7304SOL    HW133374   1.170   2.192   4.430 -3.3743  0.9912  0.6391
 7304SOL    HW233375   1.096   2.245   4.546  1.3106  2.3761  0.6050
 7305SOL     OW33376   4.089   4.168  11.196 -0.4993  0.0528  0.0724
 7305SOL    HW133377   4.088   4.237  11.261  1.0470  0.6918 -0.5690
 7305SOL    HW233378   4.072   4.219  11.116 -0.1391 -0.9172 -0.6327
 7306SOL     OW33379   1.932   0.796  13.034  0.0944  0.3872  0.2784
 7306SOL    HW133380   1.901   0.740  13.106  0.4071  2.4084  2.0017
 7306SOL    HW233381   1.964   0.872  13.082  0.7630  0.2717  0.0141
 7307SOL     OW33382   3.238   1.976   2.597 -0.1025 -0.0918 -0.5773
 7307SOL    HW133383   3.290   1.906   2.636  0.4217  0.3136 -0.5461
 7307SOL    HW233384   3.312   2.026   2.562  1.5515 -0.9690  1.6800
 7308SOL     OW33385   2.187   1.364   4.652 -0.0229 -0.3188  0.0705
 7308SOL    HW133386   2.145   1.284   4.685 -0.5773  1.3857  3.4552
 7308SOL    HW233387   2.211   1.334   4.564  2.0018  0.2874  0.3944
 7309SOL     OW33388   3.014   3.804   1.691 -0.6047 -0.0788 -0.3065
 7309SOL    HW133389   3.095   3.773   1.649 -1.7227  0.6069 -2.9679
 7309SOL    HW233390   2.979   3.728   1.738  0.3522  0.0850  0.6821
 7310SOL     OW33391   0.354   0.198  12.061  0.3267  0.1404 -0.0109
 7310SOL    HW133392   0.332   0.228  12.150 -1.0086  0.5938 -0.4921
 7310SOL    HW233393   0.448   0.182  12.066  0.5053  1.1441 -0.3064
 7311SOL     OW33394   1.348   3.153  16.192  0.1733  0.1621 -0.4442
 7311SOL    HW133395   1.420   3.092  16.205 -0.9265 -1.1848 -0.7276
 7311SOL    HW233396   1.282   3.109  16.246  0.2930  2.5811  1.7299
 7312SOL     OW33397   0.329   0.722  16.999 -0.4883 -0.0631  0.0671
 7312SOL    HW133398   0.375   0.702  16.918 -0.1177 -1.5851  0.6506
 7312SOL    HW233399   0.271   0.648  17.017 -1.2989  0.2730 -1.1779
 7313SOL     OW33400   2.608   2.534   0.972 -0.0401  0.2394 -0.0663
 7313SOL    HW133401   2.551   2.526   0.896 -0.3554 -1.2912  0.3313
 7313SOL    HW233402   2.561   2.469   1.023  0.8893 -0.1068  0.3440
 7314SOL     OW33403   0.556   2.193  13.814  0.5666 -0.3724 -0.8397
 7314SOL    HW133404   0.536   2.100  13.825  2.1775 -0.6802 -0.3838
 7314SOL    HW233405   0.648   2.189  13.841  0.4178  1.5036 -0.0063
 7315SOL     OW33406   4.251   1.490   4.272  0.0586  0.2731  0.3698
 7315SOL    HW133407   4.342   1.462   4.265 -0.2237 -0.5725  0.1905
 7315SOL    HW233408   4.232   1.553   4.203 -0.4066 -1.0075 -0.6530
 7316SOL     OW33409   0.445   0.575   5.250 -0.0966  0.0697 -0.3814
 7316SOL    HW133410   0.472   0.641   5.186 -0.3011  0.1344 -0.4019
 7316SOL    HW233411   0.525   0.569   5.302 -0.5382 -0.1873  0.2656
 7317SOL     OW33412   0.971   3.879   8.068  0.0878 -0.2098 -0.2043
 7317SOL    HW133413   0.973   3.935   7.990 -1.4892  1.1788  0.7628
 7317SOL    HW233414   1.044   3.821   8.046 -1.2503 -1.1645 -2.0846
 7318SOL     OW33415   0.567   1.290   1.439 -0.0718  0.0003  0.1483
 7318SOL    HW133416   0.595   1.280   1.348  0.5678 -0.3628  0.3878
 7318SOL    HW233417   0.474   1.299   1.421 -0.0999 -0.0416  0.2741
 7319SOL     OW33418   3.933   4.534   3.012  0.4033 -0.2732 -0.5931
 7319SOL    HW133419   4.010   4.553   3.065  0.0749  1.9243 -0.8985
 7319SOL    HW233420   3.889   4.467   3.065  1.6977 -0.2082  0.5556
 7320SOL     OW33421   3.732   2.684   8.306  0.6076 -0.0527  0.0176
 7320SOL    HW133422   3.715   2.721   8.220 -0.5068 -1.2043 -0.2714
 7320SOL    HW233423   3.796   2.615   8.288  0.3675 -0.8639  2.2240
 7321SOL     OW33424   0.798   2.914   3.205 -0.4148 -0.3290 -0.3402
 7321SOL    HW133425   0.778   2.880   3.118  1.6212  0.1197 -0.9672
 7321SOL    HW233426   0.871   2.853   3.219 -0.8628 -0.3501  1.9103
 7322SOL     OW33427   4.131   2.528   6.784 -0.3363 -0.3040 -0.4591
 7322SOL    HW133428   4.178   2.499   6.863  0.6005  0.0081 -0.8922
 7322SOL    HW233429   4.087   2.445   6.765  0.8743 -1.2018  0.5917
 7323SOL     OW33430   4.026   4.356   0.609 -0.0170 -0.0522  0.4765
 7323SOL    HW133431   4.091   4.288   0.623  0.2535  0.2408  0.6557
 7323SOL    HW233432   4.062   4.386   0.525  2.6541 -0.1468  1.6160
 7324SOL     OW33433   4.083   2.873   2.133 -0.5211  0.3555 -0.3605
 7324SOL    HW133434   4.034   2.829   2.203  1.3950 -0.6746  0.3165
 7324SOL    HW233435   4.173   2.846   2.152 -0.3801 -1.4164 -3.6477
 7325SOL     OW33436   0.013   1.262   2.093  0.2535 -0.5436  0.1489
 7325SOL    HW133437   0.041   1.224   2.176  0.5543 -0.0856  0.2623
 7325SOL    HW233438   4.643   1.267   2.111  0.1661 -1.2435 -0.1499
 7326SOL     OW33439   3.707   0.879   7.999 -0.0412 -0.2514 -0.4077
 7326SOL    HW133440   3.778   0.925   8.043 -0.6552  0.9625 -0.6899
 7326SOL    HW233441   3.645   0.951   7.993  0.5942  0.1177 -2.4415
 7327SOL     OW33442   4.719   3.718  15.079 -0.3438 -0.7082  1.1534
 7327SOL    HW133443   0.008   3.638  15.130 -0.3942 -0.5072  1.4867
 7327SOL    HW233444   4.659   3.762  15.140 -0.0325 -0.4340  1.2597
 7328SOL     OW33445   3.252   3.441  16.409  0.1771 -0.3032 -0.5041
 7328SOL    HW133446   3.314   3.397  16.467  1.5006  1.5806 -0.4660
 7328SOL    HW233447   3.264   3.532  16.439  1.5743 -0.6242 -0.0591
 7329SOL     OW33448   2.165   3.859   9.167  0.3664 -0.0339 -0.0505
 7329SOL    HW133449   2.247   3.892   9.203 -0.5675 -1.5309  3.5042
 7329SOL    HW233450   2.210   3.793   9.115 -1.5941  0.3150 -2.1849
 7330SOL     OW33451   0.937   1.412   2.798 -0.4252 -0.2594 -0.0552
 7330SOL    HW133452   0.973   1.450   2.718  0.4088 -1.2970 -0.1563
 7330SOL    HW233453   1.005   1.437   2.860 -0.6985  0.7125 -0.1455
 7331SOL     OW33454   1.525   1.173   3.539  0.2146 -0.7449 -0.1920
 7331SOL    HW133455   1.441   1.194   3.580  0.9973 -1.8688  1.9715
 7331SOL    HW233456   1.577   1.177   3.619 -1.9922 -0.1178  1.2092
 7332SOL     OW33457   2.363   0.105   1.050  0.0028  0.6660 -0.2107
 7332SOL    HW133458   2.312   0.040   1.001 -0.6095 -0.0567  1.3748
 7332SOL    HW233459   2.350   0.178   0.990 -0.5618  0.6574 -0.1053
 7333SOL     OW33460   3.558   2.245   9.272  0.1940 -0.2354  0.2989
 7333SOL    HW133461   3.535   2.167   9.322 -1.5075 -0.2089 -0.4254
 7333SOL    HW233462   3.575   2.305   9.345 -1.2677  0.5542 -0.0046
 7334SOL     OW33463   2.450   0.471   3.023 -0.1214 -0.5388 -0.1735
 7334SOL    HW133464   2.497   0.499   2.944 -1.6134 -0.4415 -1.0212
 7334SOL    HW233465   2.460   0.376   3.020  1.4579 -0.3030 -2.6073
 7335SOL     OW33466   2.251   3.970   1.954  0.2395  0.1075  0.0943
 7335SOL    HW133467   2.311   4.039   1.980 -0.2513  0.2366  0.8894
 7335SOL    HW233468   2.216   4.003   1.871  1.3934  0.0955 -0.3993
 7336SOL     OW33469   1.667   0.331   9.697 -1.0354 -0.4626 -0.2113
 7336SOL    HW133470   1.619   0.252   9.674 -2.2405  0.5562 -1.2125
 7336SOL    HW233471   1.680   0.307   9.789  0.4763  0.2330 -0.2335
 7337SOL     OW33472   2.519   4.372   3.144 -0.2285  0.0987 -0.0172
 7337SOL    HW133473   2.533   4.419   3.062 -0.4812  0.4321  0.1344
 7337SOL    HW233474   2.605   4.333   3.160 -0.2314  0.1475  0.1242
 7338SOL     OW33475   1.078   3.443   7.070 -0.1707 -0.8437  0.7932
 7338SOL    HW133476   1.024   3.384   7.123 -1.4294  0.0488  0.5048
 7338SOL    HW233477   1.159   3.414   7.111 -1.1334 -1.9901  1.9131
 7339SOL     OW33478   4.418   4.559  14.683 -0.3509 -0.4559  0.3536
 7339SOL    HW133479   4.436   4.544  14.776 -0.2816  0.4727  0.4911
 7339SOL    HW233480   4.491   4.516  14.637  2.0589  3.9647  0.1081
 7340SOL     OW33481   3.198   1.490  16.707  0.0731 -0.0702  0.4056
 7340SOL    HW133482   3.250   1.557  16.661 -0.3091 -0.6301 -0.8477
 7340SOL    HW233483   3.268   1.429  16.729  0.0029  0.1221  1.1516
 7341SOL     OW33484   1.912   3.484   2.561 -0.6006 -0.5727  0.0592
 7341SOL    HW133485   1.916   3.552   2.494  0.1240 -0.2722  0.4131
 7341SOL    HW233486   2.000   3.445   2.556 -0.9788 -1.2430 -1.3802
 7342SOL     OW33487   1.157   2.417   4.775 -0.0705 -0.3668  0.0611
 7342SOL    HW133488   1.105   2.337   4.768 -0.2450 -0.4841  2.6049
 7342SOL    HW233489   1.244   2.378   4.783  0.0105 -0.5246 -1.5809
 7343SOL     OW33490   1.220   0.064  15.963  0.1786 -0.1406 -0.2948
 7343SOL    HW133491   1.218   4.708  15.911 -0.9932 -0.3991  0.1507
 7343SOL    HW233492   1.182   0.128  15.904  2.2198 -0.0451 -1.4909
 7344SOL     OW33493   2.539   3.505   2.970 -0.4285  0.4094 -0.3976
 7344SOL    HW133494   2.538   3.463   3.056  0.2640 -0.0224 -0.5953
 7344SOL    HW233495   2.623   3.550   2.961 -0.4197 -0.0486 -2.6342
 7345SOL     OW33496   1.192   2.641  17.436 -1.1012 -0.3418 -0.2842
 7345SOL    HW133497   1.130   2.621  17.506 -0.2993  0.9453  0.7825
 7345SOL    HW233498   1.160   2.728  17.412 -0.1849 -0.3791 -1.6262
 7346SOL     OW33499   0.344   2.795   2.374 -0.1070  0.1482  0.0538
 7346SOL    HW133500   0.329   2.771   2.283  0.8382 -1.6134  0.3635
 7346SOL    HW233501   0.363   2.708   2.409 -1.6758 -0.1926  0.0407
 7347SOL     OW33502   4.021   3.042   3.996 -0.1071  0.3911 -0.0753
 7347SOL    HW133503   4.062   3.080   4.073  0.5612  0.6288 -0.5538
 7347SOL    HW233504   4.098   3.037   3.939 -1.1599  1.8196 -1.6316
 7348SOL     OW33505   2.458   4.172   1.439  0.3893 -0.3542  0.2631
 7348SOL    HW133506   2.388   4.191   1.502  1.1660  0.0162  1.0208
 7348SOL    HW233507   2.530   4.229   1.466  0.9282 -0.7315 -0.3908
 7349SOL     OW33508   1.595   4.279  11.274  0.2059  0.3848 -0.3605
 7349SOL    HW133509   1.664   4.249  11.214  1.7270  1.7491  0.6970
 7349SOL    HW233510   1.600   4.209  11.339 -1.5547  0.0623 -0.5641
 7350SOL     OW33511   3.093   0.338  12.102 -0.2573 -0.1181  0.1377
 7350SOL    HW133512   3.018   0.285  12.074 -0.6000  1.7448 -2.4745
 7350SOL    HW233513   3.143   0.270  12.146 -0.0714  0.6492  1.0866
 7351SOL     OW33514   3.193   4.338   6.152  0.4110  0.1347  0.2005
 7351SOL    HW133515   3.132   4.301   6.089 -0.2835 -0.2991  1.1234
 7351SOL    HW233516   3.228   4.255   6.183 -0.6221 -0.4293 -0.1300
 7352SOL     OW33517   1.881   3.940   9.553  0.3097  0.4527 -0.2108
 7352SOL    HW133518   1.951   3.875   9.555 -1.7414 -1.7905 -1.0652
 7352SOL    HW233519   1.849   3.942   9.643  0.2588 -1.2895 -0.1955
 7353SOL     OW33520   3.055   2.128  13.032 -0.3124 -0.6522  0.5264
 7353SOL    HW133521   3.119   2.179  12.981 -0.7255  0.8509  1.5170
 7353SOL    HW233522   2.999   2.204  13.049  1.7334  0.7957  0.8819
 7354SOL     OW33523   2.605   0.323   5.071 -0.3824 -0.4783 -0.0993
 7354SOL    HW133524   2.700   0.310   5.061 -0.5107 -0.5122 -1.2576
 7354SOL    HW233525   2.591   0.405   5.024  0.3455  0.4296  1.2647
 7355SOL     OW33526   3.565   3.906   8.043 -0.4680 -0.0848 -0.0648
 7355SOL    HW133527   3.502   3.889   7.973 -3.4873  2.4643  1.9740
 7355SOL    HW233528   3.646   3.929   7.999  0.4481  1.4332  2.4382
 7356SOL     OW33529   4.175   4.032   5.433 -0.0499 -0.1810 -0.6895
 7356SOL    HW133530   4.171   4.081   5.515  0.0260 -1.6642  0.1946
 7356SOL    HW233531   4.161   4.091   5.359 -3.0620 -2.6854 -2.0835
 7357SOL     OW33532   2.554   0.016   2.307  0.0866  0.0547 -0.3749
 7357SOL    HW133533   2.521   4.678   2.242 -1.1230  1.8087 -1.4455
 7357SOL    HW233534   2.510   4.714   2.388  0.1596  0.3879 -0.2256
 7358SOL     OW33535   1.668   1.069   8.297  0.4925 -0.8990 -0.1315
 7358SOL    HW133536   1.719   1.085   8.377 -0.8783 -0.7784  0.7211
 7358SOL    HW233537   1.632   0.982   8.318  0.7934 -0.8577  0.5772
 7359SOL     OW33538   0.466   0.543   3.185  0.5961 -0.5832 -0.4049
 7359SOL    HW133539   0.398   0.574   3.125 -1.6647 -1.3175  1.8076
 7359SOL    HW233540   0.411   0.478   3.228  1.9573 -2.5708 -1.6840
 7360SOL     OW33541   2.697   1.187   5.680 -0.3094 -0.1967 -0.2615
 7360SOL    HW133542   2.763   1.137   5.729  1.5207  0.0364 -2.4698
 7360SOL    HW233543   2.641   1.209   5.754  0.8433  0.3194  0.4585
 7361SOL     OW33544   1.903   1.470  11.122  0.2793  0.5278  0.0962
 7361SOL    HW133545   1.913   1.565  11.134  0.9225  0.5597 -0.6331
 7361SOL    HW233546   1.941   1.433  11.201  0.1088 -0.1474 -0.1408
 7362SOL     OW33547   0.534   2.768  15.570 -0.9949  0.3134 -0.3510
 7362SOL    HW133548   0.448   2.798  15.540 -1.0571 -0.5687 -1.0850
 7362SOL    HW233549   0.558   2.705  15.502  0.9181  0.4448  0.1950
 7363SOL     OW33550   2.087   2.791   4.765  0.3771  0.1356 -0.2637
 7363SOL    HW133551   2.115   2.700   4.756 -2.4323 -0.6992 -0.7149
 7363SOL    HW233552   2.160   2.837   4.723  0.0109 -0.6594 -1.7962
 7364SOL     OW33553   2.795   2.579   7.608  0.0493  0.0327  0.0723
 7364SOL    HW133554   2.838   2.513   7.661  0.5405 -0.3026 -0.7462
 7364SOL    HW233555   2.718   2.537   7.570 -0.8324  2.3417 -0.6956
 7365SOL     OW33556   3.303   4.307  16.486 -0.3601 -0.7866  0.0209
 7365SOL    HW133557   3.373   4.289  16.548  0.6031  0.1539 -0.7825
 7365SOL    HW233558   3.321   4.254  16.409 -2.0883 -2.1733  0.5687
 7366SOL     OW33559   4.391   2.905  10.493 -0.3158 -0.1418  0.3042
 7366SOL    HW133560   4.403   2.948  10.408 -0.5235  0.6065  0.6553
 7366SOL    HW233561   4.320   2.845  10.468 -0.5328 -0.2371  1.1326
 7367SOL     OW33562   4.505   1.937   3.344 -0.4877  0.6553 -0.3638
 7367SOL    HW133563   4.490   1.880   3.420  1.4490  0.0416 -0.4573
 7367SOL    HW233564   4.588   1.901   3.314 -0.4159 -0.3106  0.9692
 7368SOL     OW33565   1.452   2.652   5.903  0.0549 -0.5019  0.6775
 7368SOL    HW133566   1.414   2.726   5.856 -1.1659 -1.8181 -0.4014
 7368SOL    HW233567   1.374   2.622   5.949 -0.4339  3.3156  2.4035
 7369SOL     OW33568   1.486   2.521   8.367 -0.2378 -0.1869  0.7249
 7369SOL    HW133569   1.533   2.575   8.303  0.5898  0.2310  1.6891
 7369SOL    HW233570   1.503   2.575   8.444  1.3225 -0.5336  0.6135
 7370SOL     OW33571   3.153   3.686   7.128  0.0918  0.3612 -0.2245
 7370SOL    HW133572   3.163   3.681   7.223 -1.5580  0.1121 -0.0599
 7370SOL    HW233573   3.065   3.652   7.110 -0.4595  1.0975  1.1151
 7371SOL     OW33574   0.709   3.824   5.012 -0.3065 -0.0860 -0.2233
 7371SOL    HW133575   0.726   3.857   5.101 -0.1534  1.0510 -0.6714
 7371SOL    HW233576   0.631   3.771   5.028 -2.9232  3.4364 -1.2183
 7372SOL     OW33577   4.303   2.517  15.458 -0.3832 -0.5553 -0.1350
 7372SOL    HW133578   4.245   2.593  15.450 -1.2524 -1.2585 -0.5605
 7372SOL    HW233579   4.377   2.562  15.497 -0.8739  0.1454 -0.0105
 7373SOL     OW33580   0.259   2.178   1.839  0.0869 -0.7335 -0.0883
 7373SOL    HW133581   0.185   2.197   1.897 -0.0782 -0.6672 -0.3206
 7373SOL    HW233582   0.333   2.171   1.899 -0.3328  2.9060  0.8716
 7374SOL     OW33583   2.986   2.947   5.507 -0.0823 -0.1725  0.2393
 7374SOL    HW133584   2.938   2.869   5.536 -1.9820 -0.0815 -2.6660
 7374SOL    HW233585   2.934   3.015   5.549  1.6305  2.1651 -1.4339
 7375SOL     OW33586   1.596   4.098   7.998 -0.5103 -0.0587 -0.4191
 7375SOL    HW133587   1.504   4.082   8.018 -0.3925 -0.2317 -0.0252
 7375SOL    HW233588   1.617   4.168   8.061 -0.8428 -0.8133  0.5277
 7376SOL     OW33589   0.846   0.675   3.744  0.5622 -0.1565  0.2840
 7376SOL    HW133590   0.827   0.581   3.743  0.7066 -0.1781 -0.1526
 7376SOL    HW233591   0.791   0.700   3.670 -0.9295 -0.7632  1.1762
 7377SOL     OW33592   0.707   0.253   7.267  0.7084 -0.6523  0.6208
 7377SOL    HW133593   0.766   0.178   7.274 -1.2634 -2.4142 -1.5537
 7377SOL    HW233594   0.768   0.326   7.273  1.7145 -1.4002 -0.6804
 7378SOL     OW33595   4.605   3.182   8.089 -0.3819 -0.3268 -0.0919
 7378SOL    HW133596   4.539   3.227   8.037  0.7143 -0.0327 -1.2178
 7378SOL    HW233597   4.676   3.242   8.110  0.8519 -1.1398 -1.9953
 7379SOL     OW33598   2.774   1.795   7.754  0.3848  0.7590 -0.3297
 7379SOL    HW133599   2.681   1.815   7.762  0.1019 -0.5469 -0.3475
 7379SOL    HW233600   2.778   1.701   7.769  0.3585  1.1256  2.0085
 7380SOL     OW33601   2.059   4.274   8.137 -0.2362  0.5698  0.4030
 7380SOL    HW133602   2.018   4.206   8.191 -0.3674 -0.1270 -0.5794
 7380SOL    HW233603   2.137   4.225   8.110 -2.1253 -1.5862 -1.1522
 7381SOL     OW33604   1.428   3.086   7.079 -0.6709 -0.1919 -0.1873
 7381SOL    HW133605   1.367   3.047   7.141  0.5348 -1.0124  0.4756
 7381SOL    HW233606   1.518   3.081   7.113 -0.4415 -1.9621 -1.0690
 7382SOL     OW33607   3.608   2.881   2.833 -0.3969 -0.6073  0.0179
 7382SOL    HW133608   3.648   2.948   2.778  0.9320 -0.6456  0.9349
 7382SOL    HW233609   3.568   2.940   2.897  1.3277  0.7842 -0.2028
 7383SOL     OW33610   4.531   2.819   0.349 -0.6283  0.1355  0.0318
 7383SOL    HW133611   4.460   2.879   0.324 -1.0209  0.2930  1.5153
 7383SOL    HW233612   4.608   2.869   0.325 -0.5698  0.9022  1.8083
 7384SOL     OW33613   4.365   1.075  16.863  0.1153  0.5138  0.2248
 7384SOL    HW133614   4.431   1.100  16.928 -2.6902  0.1860  3.1882
 7384SOL    HW233615   4.417   1.028  16.798  0.5879 -0.3205  1.2036
 7385SOL     OW33616   0.268   3.985   6.940  0.1620  0.2435 -0.0322
 7385SOL    HW133617   0.341   3.923   6.945  0.7339  1.0414  1.7239
 7385SOL    HW233618   0.218   3.961   7.018  1.9036 -1.6958  0.4991
 7386SOL     OW33619   2.281   1.182   5.085  0.5625 -0.3645 -0.3996
 7386SOL    HW133620   2.194   1.169   5.123  0.4216  0.4632 -0.4386
 7386SOL    HW233621   2.342   1.139   5.144  2.6250  1.1014 -1.4594
 7387SOL     OW33622   2.264   1.808   7.351  0.7317  0.3454 -0.5950
 7387SOL    HW133623   2.198   1.849   7.294  0.1536  2.1384  1.3722
 7387SOL    HW233624   2.245   1.851   7.434 -1.0393 -0.2464 -0.6971
 7388SOL     OW33625   3.243   4.304   4.093  0.0826  0.3463  0.2092
 7388SOL    HW133626   3.174   4.355   4.134 -2.1651 -1.3847 -1.4644
 7388SOL    HW233627   3.299   4.368   4.049 -0.4984 -0.4533 -1.6884
 7389SOL     OW33628   3.986   1.924   4.769  0.3969 -0.4231 -0.8658
 7389SOL    HW133629   4.009   1.932   4.862 -0.2732  1.3978 -0.8486
 7389SOL    HW233630   4.072   1.910   4.730  1.6779 -2.7503  2.7470
 7390SOL     OW33631   3.186   0.091   3.018 -0.1033 -0.4248  0.0171
 7390SOL    HW133632   3.199   0.033   3.094 -0.6720  0.7033  0.9662
 7390SOL    HW233633   3.218   0.041   2.943 -2.6084 -0.0905 -1.2342
 7391SOL     OW33634   0.888   2.944   5.571  0.2697  0.3565  0.1905
 7391SOL    HW133635   0.804   2.924   5.613  0.0297 -3.6088 -2.1566
 7391SOL    HW233636   0.894   2.877   5.503 -1.0386  0.9140 -0.4835
 7392SOL     OW33637   4.507   4.533  14.936  0.0036  0.0556 -0.6322
 7392SOL    HW133638   4.529   4.448  14.974 -0.8722 -0.3285 -0.9763
 7392SOL    HW233639   4.441   4.557  15.001  1.9727  1.6312  0.7683
 7393SOL     OW33640   1.902   4.415  10.281  0.3297 -0.3769  0.2393
 7393SOL    HW133641   1.928   4.498  10.241 -2.9652  0.9609  0.8314
 7393SOL    HW233642   1.882   4.348  10.216 -1.8976 -0.0425  0.5752
 7394SOL     OW33643   4.231   2.552   4.410 -0.2470 -0.2741 -0.5575
 7394SOL    HW133644   4.147   2.587   4.438 -0.2180 -1.1123  0.5582
 7394SOL    HW233645   4.226   2.457   4.424  0.7847 -0.3893 -0.9276
 7395SOL     OW33646   2.597   4.276   8.292 -0.4729 -0.6827 -0.3849
 7395SOL    HW133647   2.633   4.260   8.204 -0.6632  0.5212 -0.6741
 7395SOL    HW233648   2.581   4.369   8.279  0.4433 -0.1800  2.2289
 7396SOL     OW33649   2.110   4.539   6.644 -0.0134 -0.2348 -0.1898
 7396SOL    HW133650   2.109   4.624   6.600 -1.1330 -1.1560 -1.9630
 7396SOL    HW233651   2.064   4.563   6.724  0.7102 -0.5098  0.2966
 7397SOL     OW33652   4.671   2.780   8.521  0.1063 -0.0306 -0.0785
 7397SOL    HW133653   4.612   2.804   8.592 -1.0023  1.5678 -1.5582
 7397SOL    HW233654   4.603   2.748   8.461 -0.5521  1.9836 -0.3949
 7398SOL     OW33655   2.040   4.171   4.685 -0.3011 -0.1707 -0.3126
 7398SOL    HW133656   1.979   4.099   4.669 -0.9150  0.5891 -1.4348
 7398SOL    HW233657   2.128   4.145   4.660  0.9468  2.4731  1.3394
 7399SOL     OW33658   2.653   1.282  12.768  0.2508  0.0733  0.0384
 7399SOL    HW133659   2.649   1.224  12.692 -1.9716 -0.3161  0.4607
 7399SOL    HW233660   2.690   1.358  12.723 -1.3413  1.5891  1.2940
 7400SOL     OW33661   2.125   4.584  15.805  0.1398  0.1665  0.0208
 7400SOL    HW133662   2.040   4.628  15.812 -1.4362 -2.7086 -1.0954
 7400SOL    HW233663   2.110   4.524  15.732  1.5095 -1.7579  1.3236
 7401SOL     OW33664   4.004   1.789  10.321 -0.2622 -0.0005 -0.2535
 7401SOL    HW133665   3.917   1.782  10.362 -0.2085  3.3132  0.4197
 7401SOL    HW233666   4.031   1.698  10.326  0.7955  0.4283  1.5391
 7402SOL     OW33667   2.914   3.898  14.376 -0.6604 -0.1805 -0.6439
 7402SOL    HW133668   2.967   3.879  14.299  2.7011  1.8052  1.1488
 7402SOL    HW233669   2.917   3.812  14.418  1.3632 -1.3521 -3.1848
 7403SOL     OW33670   3.234   2.069   5.629  0.2410  0.2400  0.1429
 7403SOL    HW133671   3.236   2.030   5.541 -0.1752 -1.8226  1.0547
 7403SOL    HW233672   3.143   2.052   5.654 -0.3549  0.4093 -1.8838
 7404SOL     OW33673   3.691   4.167   2.749  0.7465 -0.2158  0.2515
 7404SOL    HW133674   3.674   4.252   2.788 -0.7425  0.0341 -0.9611
 7404SOL    HW233675   3.750   4.125   2.812 -0.3328 -0.5329  1.0572
 7405SOL     OW33676   3.584   3.910   1.242 -0.1477  0.1102  0.0257
 7405SOL    HW133677   3.556   4.001   1.257 -0.4739  0.0832 -0.4131
 7405SOL    HW233678   3.591   3.917   1.147  0.1260 -0.9780 -0.0315
 7406SOL     OW33679   2.311   3.603  11.167  0.8003  0.0037  0.0393
 7406SOL    HW133680   2.306   3.675  11.229 -1.5603 -1.0912  1.1279
 7406SOL    HW233681   2.224   3.590  11.129  0.9695  4.8348 -1.9016
 7407SOL     OW33682   3.885   4.723   6.859 -0.1174 -0.3335  0.0342
 7407SOL    HW133683   3.790   0.007   6.856 -0.2796 -1.8420  1.0609
 7407SOL    HW233684   3.897   4.702   6.766 -0.1077  1.0768 -0.2770
 7408SOL     OW33685   1.716   4.148   7.300 -0.0321  0.4954  0.5447
 7408SOL    HW133686   1.650   4.129   7.367  1.1262 -1.0272  1.2433
 7408SOL    HW233687   1.697   4.079   7.236 -1.3977  0.2204  1.2327
 7409SOL     OW33688   1.755   0.135   5.100  0.1073  0.2418  0.1931
 7409SOL    HW133689   1.789   0.225   5.099  0.7724 -0.0246 -1.2178
 7409SOL    HW233690   1.665   0.140   5.068  0.2130  2.3054  0.2133
 7410SOL     OW33691   4.714   0.768  10.281  0.0037  0.2116  0.1472
 7410SOL    HW133692   4.633   0.731  10.247 -1.1544  0.5568  2.5553
 7410SOL    HW233693   0.042   0.748  10.203  1.3019 -0.3557  1.1569
 7411SOL     OW33694   2.714   3.581   6.546  0.2376 -0.0273 -0.6770
 7411SOL    HW133695   2.646   3.586   6.478  0.3132 -0.1129 -0.7589
 7411SOL    HW233696   2.709   3.487   6.563 -2.7887  0.3904  0.8183
 7412SOL     OW33697   3.017   3.398  10.912  0.5178  0.3205 -0.0794
 7412SOL    HW133698   3.051   3.435  10.831  0.9251  0.2034  0.0365
 7412SOL    HW233699   3.012   3.306  10.886 -2.2247  0.3272  0.4564
 7413SOL     OW33700   2.040   4.316  17.332  0.0214  0.1064 -0.2131
 7413SOL    HW133701   2.020   4.338  17.423 -1.4708 -0.6753 -0.3431
 7413SOL    HW233702   1.952   4.284  17.310 -0.0313  1.3181 -1.7841
 7414SOL     OW33703   2.687   2.400  14.453 -0.0321 -0.1575  0.1471
 7414SOL    HW133704   2.747   2.424  14.523 -1.1875  0.0956  1.0546
 7414SOL    HW233705   2.689   2.472  14.390  1.4469 -0.2070  0.1351
 7415SOL     OW33706   2.349   2.065   5.602 -0.5512 -0.1491  0.1317
 7415SOL    HW133707   2.367   1.991   5.661  1.0308  0.8036  0.8487
 7415SOL    HW233708   2.339   2.008   5.525 -1.3518  0.6603 -0.3604
 7416SOL     OW33709   3.055   2.408   0.986  0.6830 -0.6357 -0.1920
 7416SOL    HW133710   3.082   2.460   1.062 -1.6942  0.0140  0.2251
 7416SOL    HW233711   2.973   2.450   0.959  1.7224  0.0104 -2.3265
 7417SOL     OW33712   1.024   1.368   5.757  0.4109  0.1102  0.3691
 7417SOL    HW133713   1.009   1.392   5.848  0.1738  0.4936  0.2282
 7417SOL    HW233714   1.079   1.290   5.767  1.0415  0.3260 -1.4389
 7418SOL     OW33715   0.232   1.916   1.763 -0.2226  0.1025  0.1713
 7418SOL    HW133716   0.150   1.954   1.732  0.7763  2.1520  0.0738
 7418SOL    HW233717   0.287   1.988   1.793 -2.4860  1.7218  0.3970
 7419SOL     OW33718   4.721   4.059   8.996  0.1152  0.6283  0.7386
 7419SOL    HW133719   0.033   4.107   8.921  0.1323  1.4046  1.2382
 7419SOL    HW233720   0.005   4.129   9.062  1.0976  1.1385  0.0797
 7420SOL     OW33721   3.920   4.443  11.571  0.4220 -0.3634 -0.6156
 7420SOL    HW133722   3.996   4.403  11.529  0.4250 -1.5389  0.5177
 7420SOL    HW233723   3.946   4.531  11.598 -2.0238 -0.0102  0.5333
 7421SOL     OW33724   4.640   0.322   7.060  0.0506 -0.1787  0.3945
 7421SOL    HW133725   0.008   0.298   7.059 -0.5961 -2.6588 -0.6585
 7421SOL    HW233726   4.611   0.235   7.030  0.5884 -0.1628 -0.1679
 7422SOL     OW33727   1.336   2.994  14.530  0.4064 -0.0506 -0.1500
 7422SOL    HW133728   1.313   3.074  14.482  1.6857 -1.1730 -2.6524
 7422SOL    HW233729   1.293   2.931  14.472  0.2784  0.7045 -0.8768
 7423SOL     OW33730   2.555   4.200   9.981 -0.3134  0.3660  0.2823
 7423SOL    HW133731   2.556   4.110  10.012 -1.1299  0.2735  0.0553
 7423SOL    HW233732   2.623   4.239  10.035 -1.9102  0.0336  2.5284
 7424SOL     OW33733   2.021   2.125   0.738  0.0321 -0.3273 -0.1020
 7424SOL    HW133734   2.097   2.167   0.778  0.4058 -0.6111 -0.5226
 7424SOL    HW233735   2.036   2.152   0.647  0.4996  0.9906  0.3693
 7425SOL     OW33736   4.003   2.356   9.966 -0.5474  0.5102 -0.2208
 7425SOL    HW133737   3.951   2.309  10.032 -0.7923  0.5661 -0.3739
 7425SOL    HW233738   4.010   2.436  10.018  0.4037  1.2696 -1.5277
 7426SOL     OW33739   4.423   1.655   9.143 -0.5105 -0.3478  0.5147
 7426SOL    HW133740   4.477   1.616   9.211 -0.0358 -1.1206 -0.3030
 7426SOL    HW233741   4.446   1.614   9.060 -5.9608 -1.1179 -0.6692
 7427SOL     OW33742   0.837   2.367  17.410  0.6185 -0.4054  0.5190
 7427SOL    HW133743   0.835   2.273  17.428  0.9770 -0.7729 -1.2953
 7427SOL    HW233744   0.906   2.397  17.470  1.1616 -0.3020 -0.1582
 7428SOL     OW33745   1.409   4.184   3.696  0.2262  0.3694 -0.1748
 7428SOL    HW133746   1.497   4.147   3.686 -0.8915 -2.1769 -0.6827
 7428SOL    HW233747   1.383   4.209   3.608  2.7817 -1.8573 -1.5555
 7429SOL     OW33748   1.497   4.488   6.075 -0.5252 -0.1351  0.0273
 7429SOL    HW133749   1.535   4.476   5.988  1.4354 -4.2577  1.4695
 7429SOL    HW233750   1.414   4.522   6.041  0.0271  1.5462  0.3753
 7430SOL     OW33751   0.465   2.385   9.017 -0.3259 -0.5048  0.5424
 7430SOL    HW133752   0.537   2.447   9.009 -0.3250 -0.1463  3.2867
 7430SOL    HW233753   0.500   2.307   9.061  0.7279  0.3852  1.3043
 7431SOL     OW33754   2.391   1.678   2.390  0.3241 -1.1057 -0.0823
 7431SOL    HW133755   2.328   1.743   2.357  1.3337 -0.3124 -0.4542
 7431SOL    HW233756   2.361   1.601   2.342 -0.3911  0.5075 -2.2622
 7432SOL     OW33757   1.787   2.407   4.136 -0.4120  0.0674  0.1081
 7432SOL    HW133758   1.750   2.490   4.109 -2.2033 -0.2886  1.5146
 7432SOL    HW233759   1.870   2.413   4.088 -0.7072 -0.9682 -0.5168
 7433SOL     OW33760   2.262   1.626   1.853  0.4076 -0.5700  0.4571
 7433SOL    HW133761   2.222   1.542   1.830 -1.2744  0.6714 -1.1401
 7433SOL    HW233762   2.218   1.641   1.937 -0.4137  0.2559 -0.1198
 7434SOL     OW33763   3.807   2.669   6.460 -0.1186 -0.1380  0.0168
 7434SOL    HW133764   3.722   2.626   6.467 -0.6178  1.1629  1.9165
 7434SOL    HW233765   3.830   2.687   6.551  1.3751  1.0191 -0.5930
 7435SOL     OW33766   0.186   4.647   2.470 -0.2377  0.0879  0.5085
 7435SOL    HW133767   0.146   4.723   2.513 -3.3271  0.1478 -2.4947
 7435SOL    HW233768   0.146   4.656   2.384 -1.4584 -0.4373  1.0236
 7436SOL     OW33769   4.719   4.142   1.495 -0.4146 -0.3797  0.2332
 7436SOL    HW133770   4.677   4.060   1.468  3.5236 -2.8342  1.5713
 7436SOL    HW233771   0.090   4.133   1.488 -0.3763 -0.8494  1.4011
 7437SOL     OW33772   2.116   0.697  14.261  0.0753  0.3438 -0.2922
 7437SOL    HW133773   2.048   0.681  14.326  1.4625 -0.7491  0.8999
 7437SOL    HW233774   2.132   0.607  14.234 -2.3121 -0.8542  2.2073
 7438SOL     OW33775   0.947   4.042   6.750  0.3623  0.3741  0.2014
 7438SOL    HW133776   0.998   3.966   6.725  3.0036  0.5215  5.1619
 7438SOL    HW233777   0.990   4.053   6.835 -2.3943  2.0304  1.3963
 7439SOL     OW33778   2.539   3.576   8.959  0.0150 -0.4927  0.5084
 7439SOL    HW133779   2.546   3.511   8.889  2.1806  0.7062 -0.3999
 7439SOL    HW233780   2.460   3.624   8.933  2.0962  1.0633 -2.9946
 7440SOL     OW33781   3.889   1.865   8.548  0.7833  0.2940  0.1122
 7440SOL    HW133782   3.970   1.916   8.545 -0.3567  1.9571 -2.7938
 7440SOL    HW233783   3.828   1.939   8.551  0.0865 -0.1846 -2.0882
 7441SOL     OW33784   2.653   0.123   9.782  0.7198 -0.0870 -0.1331
 7441SOL    HW133785   2.656   0.061   9.854  0.6863 -1.3940 -1.2477
 7441SOL    HW233786   2.654   0.207   9.828 -1.4812  0.7921 -1.6881
 7442SOL     OW33787   2.325   0.610   6.851  0.7029  0.1839 -0.0027
 7442SOL    HW133788   2.299   0.556   6.926 -0.1834 -1.1556 -1.2839
 7442SOL    HW233789   2.420   0.611   6.863  0.9085  2.2913 -1.8565
 7443SOL     OW33790   3.540   4.043   9.348 -0.0683  0.4820  0.3921
 7443SOL    HW133791   3.599   4.111   9.313  0.3568 -0.4598 -0.7057
 7443SOL    HW233792   3.522   4.065   9.439  0.9580  0.2056  0.6668
 7444SOL     OW33793   2.619   3.589  16.587 -0.1256 -0.3839  0.0918
 7444SOL    HW133794   2.664   3.517  16.542 -0.3716 -0.2020 -0.4580
 7444SOL    HW233795   2.684   3.658  16.588  0.6208 -1.1260  1.6277
 7445SOL     OW33796   3.756   4.184  11.890 -0.7820  0.4789  0.1175
 7445SOL    HW133797   3.768   4.235  11.810  0.6722 -0.2285 -0.1197
 7445SOL    HW233798   3.681   4.226  11.932 -0.6753 -0.2425  1.0392
 7446SOL     OW33799   2.589   4.479  16.455  0.2806 -0.0997  0.1322
 7446SOL    HW133800   2.509   4.491  16.404 -0.2097 -1.5353  0.5365
 7446SOL    HW233801   2.638   4.420  16.398 -0.9293 -0.2521 -0.7513
 7447SOL     OW33802   1.443   0.015   7.026 -0.4021  0.0232  0.0436
 7447SOL    HW133803   1.525   0.047   6.988 -0.0487 -1.6062 -0.5510
 7447SOL    HW233804   1.387   0.020   6.948 -0.3540 -1.3143 -0.0794
 7448SOL     OW33805   2.182   0.341   2.767 -0.6371  0.1708 -0.7073
 7448SOL    HW133806   2.167   0.408   2.834  1.8885  1.7223 -1.7109
 7448SOL    HW233807   2.263   0.368   2.724  0.0740 -0.1156  0.4685
 7449SOL     OW33808   4.722   0.198   8.127  0.2491  0.2660 -0.3171
 7449SOL    HW133809   4.675   0.130   8.078  0.4449  0.2413 -0.4741
 7449SOL    HW233810   4.658   0.223   8.193  1.1687 -0.0651  0.7067
 7450SOL     OW33811   1.146   3.800   1.827 -0.0626  0.2674 -0.8083
 7450SOL    HW133812   1.227   3.766   1.787  0.8121  1.0876  0.2572
 7450SOL    HW233813   1.084   3.778   1.757 -0.2181 -1.9532  0.0332
 7451SOL     OW33814   3.288   3.182   3.492 -0.5887  0.4447 -0.1151
 7451SOL    HW133815   3.251   3.263   3.456 -0.4941  0.6482  0.2508
 7451SOL    HW233816   3.292   3.137   3.407  0.0717 -0.4603  0.3930
 7452SOL     OW33817   2.334   1.471   7.847 -0.7066 -0.2319  0.0023
 7452SOL    HW133818   2.429   1.460   7.853 -0.6469  0.8860  1.1389
 7452SOL    HW233819   2.320   1.550   7.898 -0.4374 -1.4557  1.9512
 7453SOL     OW33820   3.314   4.575   6.055 -0.3051 -0.9546 -0.2546
 7453SOL    HW133821   3.322   4.481   6.073 -0.0608 -0.6157  1.3064
 7453SOL    HW233822   3.245   4.564   5.988 -0.6540  0.7877 -0.1851
 7454SOL     OW33823   1.646   2.652   3.301  0.2640 -0.1144  0.2405
 7454SOL    HW133824   1.673   2.660   3.210  0.4602 -1.3615  0.1914
 7454SOL    HW233825   1.663   2.558   3.314 -2.0530 -0.4245  0.9631
 7455SOL     OW33826   0.785   0.710   0.090 -0.7570  0.6161  0.5661
 7455SOL    HW133827   0.839   0.681   0.163 -1.0053  1.7921  1.2160
 7455SOL    HW233828   0.699   0.712   0.132 -1.5587 -0.9517 -0.9951
 7456SOL     OW33829   4.697   1.642   5.451 -0.6217  0.2427 -0.1277
 7456SOL    HW133830   0.018   1.679   5.527 -0.9862 -2.3239  1.3244
 7456SOL    HW233831   4.649   1.565   5.482  0.2992  0.5448  2.0681
 7457SOL     OW33832   2.100   2.382   4.554 -0.2016  0.2370  0.2028
 7457SOL    HW133833   2.107   2.434   4.473 -2.2347  1.4202  0.8030
 7457SOL    HW233834   2.112   2.440   4.628 -0.3622  1.4121 -0.6932
 7458SOL     OW33835   4.687   4.081  17.334  0.0706  0.2726  0.4872
 7458SOL    HW133836   4.594   4.101  17.350  0.6132  2.2817  1.1718
 7458SOL    HW233837   4.678   4.030  17.254 -0.2526 -0.0285  0.7152
 7459SOL     OW33838   1.834   3.485   1.955  0.0399 -0.7312 -0.3701
 7459SOL    HW133839   1.863   3.466   2.045  1.5933  0.0723 -0.6969
 7459SOL    HW233840   1.861   3.576   1.961  0.9709 -1.1048  1.2518
 7460SOL     OW33841   2.888   0.178   5.915 -0.9765 -0.3166  0.0063
 7460SOL    HW133842   2.923   0.239   5.849 -0.4032  0.0572  0.6577
 7460SOL    HW233843   2.803   0.216   5.936 -1.2297 -0.9817  0.1928
 7461SOL     OW33844   3.544   1.779  17.691 -0.0582  0.4257  0.6915
 7461SOL    HW133845   3.487   1.753  17.618  0.0629 -1.6093  1.3245
 7461SOL    HW233846   3.563   1.693   0.029  0.3716  0.3096  0.1889
 7462SOL     OW33847   2.486   4.475   1.763  0.0548 -0.4202 -0.1306
 7462SOL    HW133848   2.425   4.544   1.736  2.2628 -0.0421 -4.2657
 7462SOL    HW233849   2.465   4.403   1.703  0.0799  0.1479 -0.8237
 7463SOL     OW33850   4.193   0.250   2.587  0.2389  0.4736 -0.1136
 7463SOL    HW133851   4.138   0.241   2.509 -1.1419 -1.4725  1.0931
 7463SOL    HW233852   4.136   0.216   2.655 -1.1436  0.2297 -1.4037
 7464SOL     OW33853   0.008   2.177   1.303  0.6446  0.4686 -0.2149
 7464SOL    HW133854   4.653   2.150   1.350 -0.6171  0.0099 -2.6031
 7464SOL    HW233855   0.081   2.126   1.338  0.6693  0.9060  0.3785
 7465SOL     OW33856   1.079   3.815  12.469 -0.1059 -0.5144  0.1011
 7465SOL    HW133857   1.141   3.816  12.542  1.0343  0.4454 -0.8878
 7465SOL    HW233858   1.036   3.900  12.472  0.2835 -0.3131 -0.1078
 7466SOL     OW33859   1.909   1.225   5.421 -0.1436  0.0792 -0.2174
 7466SOL    HW133860   1.844   1.291   5.445 -1.0239 -0.1342 -2.0508
 7466SOL    HW233861   1.977   1.240   5.487  0.4071 -1.2674 -0.4877
 7467SOL     OW33862   1.389   4.089  10.591  0.8074 -0.4073 -0.5194
 7467SOL    HW133863   1.389   4.138  10.673  0.5824 -1.0826 -0.1179
 7467SOL    HW233864   1.482   4.097  10.573  0.8665 -1.8061 -0.7713
 7468SOL     OW33865   3.184   3.970  11.359  0.0022  0.6754  0.4406
 7468SOL    HW133866   3.175   3.921  11.441  2.4316 -1.8069 -0.7737
 7468SOL    HW233867   3.110   3.926  11.318  0.6028 -0.4162  0.5409
 7469SOL     OW33868   0.589   1.522   3.266 -0.2649 -0.4357 -0.7236
 7469SOL    HW133869   0.577   1.551   3.176 -2.2686  0.4684 -0.1486
 7469SOL    HW233870   0.530   1.585   3.307 -1.2542 -1.4067 -0.6569
 7470SOL     OW33871   2.398   3.585   4.687  0.0225  0.4428 -0.5179
 7470SOL    HW133872   2.357   3.641   4.753  0.9592 -0.4839  0.8359
 7470SOL    HW233873   2.464   3.542   4.741  0.2537  0.8969 -0.4401
 7471SOL     OW33874   1.966   2.164   4.635 -0.3033  0.0701  0.2143
 7471SOL    HW133875   1.927   2.119   4.560 -0.6676 -0.7094  0.8783
 7471SOL    HW233876   1.988   2.247   4.592  0.4730  0.6373  1.7097
 7472SOL     OW33877   2.508   1.321  14.060 -0.4451  0.1163 -0.2121
 7472SOL    HW133878   2.517   1.231  14.027  1.0846 -0.2363  1.1886
 7472SOL    HW233879   2.595   1.345  14.028 -1.1686  1.7074 -0.9601
 7473SOL     OW33880   0.257   4.703   7.693  0.1315  0.1449  0.5232
 7473SOL    HW133881   0.246   0.073   7.683  0.4857  0.2979  1.6112
 7473SOL    HW233882   0.343   4.700   7.734 -0.5617  2.2632  2.1122
 7474SOL     OW33883   1.734   2.824  11.677 -0.4267  0.3610  0.3954
 7474SOL    HW133884   1.725   2.919  11.664 -0.8013  0.2227 -0.3441
 7474SOL    HW233885   1.712   2.800  11.587  0.4138  2.1519 -0.2939
 7475SOL     OW33886   1.103   3.001   2.586 -0.4724 -0.9756 -0.8703
 7475SOL    HW133887   1.161   3.051   2.644 -1.3263 -0.9626 -0.0125
 7475SOL    HW233888   1.168   2.980   2.520 -1.0278 -3.6197 -0.5700
 7476SOL     OW33889   0.426   2.642   0.699  0.0666  0.2977 -0.0239
 7476SOL    HW133890   0.339   2.648   0.739 -0.6743  2.1664 -1.9183
 7476SOL    HW233891   0.457   2.574   0.759  0.0440  0.6674  0.3985
 7477SOL     OW33892   2.841   4.603   1.522 -0.0818 -0.0421 -0.4329
 7477SOL    HW133893   2.923   4.556   1.513  1.5207  2.6571  0.1430
 7477SOL    HW233894   2.792   4.569   1.447  2.1165  0.4988 -2.0994
 7478SOL     OW33895   1.284   0.244   5.754 -0.2157 -0.6955 -0.0423
 7478SOL    HW133896   1.256   0.201   5.673 -1.6359  1.9837 -0.9452
 7478SOL    HW233897   1.373   0.208   5.764  0.9346  2.7722  2.1427
 7479SOL     OW33898   1.698   3.494   3.927  0.2578  0.0036 -0.3961
 7479SOL    HW133899   1.620   3.518   3.876 -0.9922 -0.2298  1.4084
 7479SOL    HW233900   1.731   3.578   3.958 -0.1749 -0.3692  1.0752
 7480SOL     OW33901   3.101   4.312  15.291 -0.2464 -0.0930 -0.0801
 7480SOL    HW133902   3.060   4.246  15.347  1.9046 -2.0038 -0.7805
 7480SOL    HW233903   3.160   4.352  15.354 -0.5596 -0.7770  0.6440
 7481SOL     OW33904   4.721   3.904   5.261 -0.0002 -0.0162 -0.2915
 7481SOL    HW133905   4.690   3.823   5.301  1.4439 -0.5402 -0.2261
 7481SOL    HW233906   4.684   3.970   5.320 -0.3935 -2.0879  1.7979
 7482SOL     OW33907   0.173   1.805   4.533 -0.3959 -0.2479  0.5667
 7482SOL    HW133908   0.136   1.802   4.621 -1.3608 -0.5389  0.1560
 7482SOL    HW233909   0.107   1.856   4.485  1.0865  0.1468 -1.0581
 7483SOL     OW33910   0.190   2.864   5.408 -0.0627  0.0096 -0.2389
 7483SOL    HW133911   0.248   2.934   5.439  1.6526 -0.8525 -1.4708
 7483SOL    HW233912   0.168   2.911   5.327  0.1952  1.1640  0.3746
 7484SOL     OW33913   3.224   2.248   6.446  0.2012 -0.0224  0.0191
 7484SOL    HW133914   3.194   2.276   6.532 -0.3379 -0.7299  0.0613
 7484SOL    HW233915   3.147   2.205   6.408  1.2227 -0.0701 -2.0152
 7485SOL     OW33916   1.135   1.718   7.284  0.0495 -0.2050  0.5963
 7485SOL    HW133917   1.198   1.757   7.344  1.1934 -1.0527 -0.0653
 7485SOL    HW233918   1.191   1.670   7.224 -0.2440 -0.1233  0.2579
 7486SOL     OW33919   1.542   1.455   5.143 -0.4141 -1.0195 -0.7334
 7486SOL    HW133920   1.533   1.550   5.136 -1.1461 -1.1463 -1.4672
 7486SOL    HW233921   1.620   1.448   5.088 -0.2039  1.8847 -0.7870
 7487SOL     OW33922   2.492   3.668  11.621 -0.1811 -0.5465  0.3634
 7487SOL    HW133923   2.398   3.649  11.611 -0.2794  1.0729 -1.9069
 7487SOL    HW233924   2.530   3.592  11.576 -1.3752 -0.8619 -0.1289
 7488SOL     OW33925   3.097   1.950   8.689 -0.2212 -0.0819 -0.4407
 7488SOL    HW133926   3.156   1.879   8.662 -1.2979 -0.8573 -0.7350
 7488SOL    HW233927   3.012   1.906   8.687 -1.0181  1.4099  1.3973
 7489SOL     OW33928   1.613   4.371   7.132  0.0311  0.1713  0.4818
 7489SOL    HW133929   1.547   4.304   7.115  0.3990  0.3590 -1.6097
 7489SOL    HW233930   1.684   4.315   7.163 -1.0670 -1.3701  0.2170
 7490SOL     OW33931   3.112   1.651   4.801  0.2269 -0.2600  0.1507
 7490SOL    HW133932   3.203   1.665   4.828  0.4336  1.0302 -1.2034
 7490SOL    HW233933   3.106   1.702   4.720  1.2589 -3.8650 -2.1889
 7491SOL     OW33934   3.260   2.732   8.151 -0.2329 -0.3071 -0.7053
 7491SOL    HW133935   3.295   2.644   8.142  0.4139 -0.2223  0.8376
 7491SOL    HW233936   3.338   2.778   8.120  0.9018 -1.6882  0.1041
 7492SOL     OW33937   0.949   1.542   5.092 -0.7704  0.3897  0.6645
 7492SOL    HW133938   0.948   1.492   5.011  3.2573  2.1706 -0.4936
 7492SOL    HW233939   1.028   1.502   5.131 -0.5102  0.2915  0.0310
 7493SOL     OW33940   4.108   4.461   0.356  0.2339 -0.1411  0.1456
 7493SOL    HW133941   4.074   4.533   0.304 -2.2977 -0.6519  1.0906
 7493SOL    HW233942   4.063   4.387   0.316  1.4180 -0.4210 -0.6856
 7494SOL     OW33943   2.694   4.273   4.322 -0.4605  0.2880  0.2770
 7494SOL    HW133944   2.744   4.217   4.262  1.0930  0.4126  1.4692
 7494SOL    HW233945   2.745   4.260   4.402 -3.5792  0.6048  2.3042
 7495SOL     OW33946   4.723   3.193   2.909 -0.3396  0.6921  0.2155
 7495SOL    HW133947   0.082   3.179   2.955 -0.6768  0.9425  0.8989
 7495SOL    HW233948   4.692   3.274   2.951 -0.5602  0.2136  0.9778
 7496SOL     OW33949   3.022   1.222   6.362  0.2904  0.6295  0.3550
 7496SOL    HW133950   2.955   1.251   6.301 -0.1479  1.4405  1.2160
 7496SOL    HW233951   3.106   1.242   6.321 -0.6438 -1.1398 -2.4093
 7497SOL     OW33952   0.567   0.911   2.506  1.1044 -0.1495  0.1409
 7497SOL    HW133953   0.539   0.819   2.512  0.9182 -0.1327 -0.5519
 7497SOL    HW233954   0.607   0.902   2.420  2.0362  1.3899  0.4173
 7498SOL     OW33955   0.395   0.181  12.561 -0.1583 -0.4042 -0.0063
 7498SOL    HW133956   0.375   0.212  12.473  2.3697 -0.2811 -0.5295
 7498SOL    HW233957   0.321   0.130  12.595  0.3646  0.6462  2.7106
 7499SOL     OW33958   2.472   3.130   5.556  0.1781  0.1419 -0.0754
 7499SOL    HW133959   2.382   3.111   5.527  0.1411  0.8823 -0.4515
 7499SOL    HW233960   2.488   3.056   5.614 -0.7888  1.0700  1.3859
 7500SOL     OW33961   0.615   2.893   5.600 -0.1471 -0.2923 -0.1636
 7500SOL    HW133962   0.542   2.832   5.590 -1.3603  0.8907  1.5298
 7500SOL    HW233963   0.596   2.934   5.684  1.6807  1.5607 -0.6336
 7501SOL     OW33964   3.836   3.881   4.839 -0.2604 -0.6746 -0.0634
 7501SOL    HW133965   3.775   3.943   4.880  3.1339  2.3485  0.3938
 7501SOL    HW233966   3.855   3.818   4.909 -2.9354  0.3681  1.5939
 7502SOL     OW33967   4.302   3.863   9.699 -0.0100 -0.4569  0.2814
 7502SOL    HW133968   4.267   3.780   9.731 -1.8124  1.0220  2.0893
 7502SOL    HW233969   4.297   3.917   9.778  0.4747  1.5172 -1.0402
 7503SOL     OW33970   1.974   1.473   5.194  0.2080 -0.3904  0.3341
 7503SOL    HW133971   1.921   1.527   5.253 -0.2911 -1.0437  0.4842
 7503SOL    HW233972   2.058   1.518   5.202  0.5456 -1.3708  2.2084
 7504SOL     OW33973   1.755   2.458  11.088  0.5165  0.2792  0.0990
 7504SOL    HW133974   1.843   2.493  11.074  0.0832  1.7758  1.1249
 7504SOL    HW233975   1.764   2.368  11.058  2.0550  0.3949  0.2184
 7505SOL     OW33976   3.415   4.339   1.113 -0.0739  0.3133 -0.4519
 7505SOL    HW133977   3.380   4.323   1.026 -2.7074  1.1704  0.4491
 7505SOL    HW233978   3.444   4.430   1.107 -1.8603  0.8923 -0.3142
 7506SOL     OW33979   0.710   3.979  11.900  0.3902  0.2908 -0.2885
 7506SOL    HW133980   0.620   3.959  11.927  0.5385  0.4698  0.3376
 7506SOL    HW233981   0.759   3.940  11.972  1.1752  1.5844 -0.1373
 7507SOL     OW33982   3.054   4.135   3.255 -0.1497 -0.8768 -0.0542
 7507SOL    HW133983   3.143   4.144   3.223 -0.2948 -0.9993 -0.4919
 7507SOL    HW233984   3.045   4.053   3.207  0.8642 -1.7693  1.2635
 7508SOL     OW33985   2.297   1.069   5.645  0.1726 -0.1368 -0.3208
 7508SOL    HW133986   2.263   1.138   5.589  1.9759  2.0672  1.2808
 7508SOL    HW233987   2.285   1.095   5.736  1.3208  0.3023 -0.2892
 7509SOL     OW33988   2.706   4.036   5.611 -0.6801 -0.5913 -0.4374
 7509SOL    HW133989   2.618   4.072   5.608 -0.9307 -1.1606 -0.0390
 7509SOL    HW233990   2.758   4.094   5.555 -1.2445  0.3755  0.0397
 7510SOL     OW33991   0.082   2.215   7.302  0.2539 -0.0595  0.0465
 7510SOL    HW133992   4.713   2.217   7.325  0.5618 -4.5021  1.8059
 7510SOL    HW233993   0.105   2.179   7.387  0.8798  2.4576  0.9148
 7511SOL     OW33994   3.837   1.911  11.560 -0.2376  0.0158  0.4206
 7511SOL    HW133995   3.911   1.899  11.619  0.1197 -2.6800 -0.5735
 7511SOL    HW233996   3.851   2.004  11.540 -1.3186  0.3520  1.1757
 7512SOL     OW33997   3.170   3.459   3.886 -0.2249 -0.2929  0.7618
 7512SOL    HW133998   3.150   3.469   3.979 -1.2849  0.4466  0.4518
 7512SOL    HW233999   3.201   3.549   3.874  2.9635 -1.6081 -0.9455
 7513SOL     OW34000   2.540   1.473   8.875 -0.4637 -0.4295  0.6952
 7513SOL    HW134001   2.628   1.469   8.838  0.1557  2.0793  1.8950
 7513SOL    HW234002   2.496   1.407   8.821  0.9419  0.6504 -1.7709
 7514SOL     OW34003   0.876   2.315   8.947  0.3842  0.1041  0.5319
 7514SOL    HW134004   0.870   2.222   8.970  2.7776 -0.7127 -2.0461
 7514SOL    HW234005   0.961   2.318   8.902  0.0799  0.5107 -0.0116
 7515SOL     OW34006   4.305   3.650   4.712 -0.6252 -0.4858  0.2495
 7515SOL    HW134007   4.311   3.723   4.650 -0.2038  0.8991  1.9398
 7515SOL    HW234008   4.269   3.687   4.792 -1.4456 -1.5364  0.3669
 7516SOL     OW34009   3.122   1.171   5.923 -0.2001 -0.2226 -0.4483
 7516SOL    HW134010   3.049   1.228   5.947  0.5791 -0.1507  1.7612
 7516SOL    HW234011   3.093   1.132   5.840 -0.1358  0.0266 -0.5879
 7517SOL     OW34012   4.521   1.295   6.978 -0.4078  0.4241  0.3801
 7517SOL    HW134013   4.529   1.217   6.924  1.8599  0.4776  0.6395
 7517SOL    HW234014   4.426   1.307   6.986 -0.7198 -0.1362 -2.4215
 7518SOL     OW34015   4.264   2.536   1.506 -0.0804 -0.0898  0.8567
 7518SOL    HW134016   4.262   2.617   1.558  2.1124  0.5543 -0.0245
 7518SOL    HW234017   4.184   2.554   1.458 -0.5965 -1.4680  1.2131
 7519SOL     OW34018   0.566   3.535   9.641  0.4413 -0.2998  0.3177
 7519SOL    HW134019   0.605   3.623   9.635  0.0095 -0.2202 -1.4638
 7519SOL    HW234020   0.485   3.552   9.594  0.7996 -0.1319 -0.2494
 7520SOL     OW34021   3.550   2.028   2.622  0.2016 -0.5431 -0.3817
 7520SOL    HW134022   3.604   2.042   2.543  1.2440  1.2347  0.6546
 7520SOL    HW234023   3.567   2.112   2.664 -1.1142 -1.1870  1.3973
 7521SOL     OW34024   3.642   1.137   7.247 -0.2040 -1.2185 -0.1772
 7521SOL    HW134025   3.643   1.183   7.164 -2.3961 -0.8023  0.0318
 7521SOL    HW234026   3.570   1.175   7.298  0.8517  1.0373 -0.3733
 7522SOL     OW34027   4.406   1.860   3.081  0.5096  0.0617 -0.0797
 7522SOL    HW134028   4.435   1.886   3.168 -1.0199 -1.0221  0.7605
 7522SOL    HW234029   4.322   1.818   3.102  0.5552 -0.9208 -1.8852
 7523SOL     OW34030   2.733   3.128  14.286 -0.1406  0.1952 -0.5148
 7523SOL    HW134031   2.744   3.079  14.205  0.3507  0.3325 -0.5288
 7523SOL    HW234032   2.816   3.095  14.322 -0.0128 -0.3280 -1.2908
 7524SOL     OW34033   3.047   0.230   1.003  0.2002 -1.1039 -0.2282
 7524SOL    HW134034   3.059   0.230   1.098  1.1066  0.8725 -0.3448
 7524SOL    HW234035   3.054   0.323   0.981  0.2284 -0.3702  2.9559
 7525SOL     OW34036   4.583   4.141   4.021 -0.2778  0.2526  0.3420
 7525SOL    HW134037   4.658   4.166   3.967 -0.4082 -0.2277 -0.0603
 7525SOL    HW234038   4.505   4.156   3.967  0.7010 -0.3984 -1.2433
 7526SOL     OW34039   0.687   2.697  11.768  0.0327 -0.0996  0.1522
 7526SOL    HW134040   0.666   2.764  11.703  0.5461 -0.7685 -0.6990
 7526SOL    HW234041   0.640   2.623  11.729 -0.9723  0.1944  0.8008
 7527SOL     OW34042   1.247   0.329   2.634 -0.8293  0.3088  0.2328
 7527SOL    HW134043   1.336   0.315   2.665 -0.5636  1.1405 -0.1469
 7527SOL    HW234044   1.227   0.411   2.680  1.6857  0.8796  0.3100
 7528SOL     OW34045   3.069   0.985   1.807 -0.1905  0.3540  0.3624
 7528SOL    HW134046   3.146   1.005   1.754 -1.1882 -1.3822 -1.7521
 7528SOL    HW234047   3.009   1.029   1.747 -0.7138  0.5066  0.9894
 7529SOL     OW34048   3.490   0.769   2.204 -0.1519  0.3644  0.4105
 7529SOL    HW134049   3.521   0.841   2.149  0.0904  0.9012  1.2551
 7529SOL    HW234050   3.573   0.740   2.242 -0.5073 -3.4224 -1.6630
 7530SOL     OW34051   1.327   3.027  15.672  0.1746 -0.0275  0.1861
 7530SOL    HW134052   1.258   2.991  15.729 -1.0882  2.3259  0.1474
 7530SOL    HW234053   1.287   3.012  15.587  0.2706  2.3059 -0.2816
 7531SOL     OW34054   3.840   4.144  14.083  0.1476 -0.2666 -0.0978
 7531SOL    HW134055   3.775   4.094  14.033 -0.4121 -0.0468  0.4084
 7531SOL    HW234056   3.788   4.218  14.114  2.0972  1.5176 -1.0657
 7532SOL     OW34057   1.479   1.487   8.124  0.4223 -0.1950  0.0641
 7532SOL    HW134058   1.487   1.396   8.155  1.4889  0.3909  1.5217
 7532SOL    HW234059   1.556   1.494   8.067 -0.2255  3.0928 -0.3820
 7533SOL     OW34060   0.023   1.445   0.788 -0.3552  0.2145  0.6121
 7533SOL    HW134061   4.703   1.476   0.867 -1.8241  1.3131 -0.6339
 7533SOL    HW234062   4.671   1.391   0.763 -0.3605  0.3556  0.3212
 7534SOL     OW34063   1.610   2.859  16.921  0.5403 -0.7455  0.2924
 7534SOL    HW134064   1.596   2.807  16.842  0.4756 -1.2089  0.6108
 7534SOL    HW234065   1.704   2.853  16.937  0.4954 -0.6921  0.5708
 7535SOL     OW34066   1.904   4.298   3.707  0.1695  0.1132 -0.0609
 7535SOL    HW134067   1.833   4.328   3.650  0.3614 -0.3946 -0.5672
 7535SOL    HW234068   1.978   4.326   3.653  1.6372  0.3064  2.0553
 7536SOL     OW34069   2.038   4.676  11.972 -0.0896 -0.2386 -0.0658
 7536SOL    HW134070   2.030   0.000  12.054 -3.3707 -0.3628 -0.3272
 7536SOL    HW234071   1.994   4.597  12.003 -0.2029 -0.6086 -1.1709
 7537SOL     OW34072   3.085   3.599   6.393 -0.5094 -0.3095 -0.4687
 7537SOL    HW134073   3.018   3.661   6.424 -1.8540 -1.2519 -1.4926
 7537SOL    HW234074   3.101   3.638   6.308  0.4215  0.4156  0.0425
 7538SOL     OW34075   3.084   3.265   5.808  0.0220  0.6877  0.1299
 7538SOL    HW134076   3.153   3.331   5.800  0.5173 -0.1760 -2.7091
 7538SOL    HW234077   3.047   3.284   5.894  0.9746 -0.9189  0.8993
 7539SOL     OW34078   1.824   1.318  13.060 -0.3808  1.0039  0.3430
 7539SOL    HW134079   1.890   1.327  12.991  0.2306 -0.2905  0.7711
 7539SOL    HW234080   1.874   1.308  13.141  0.3214  1.1567 -0.0749
 7540SOL     OW34081   1.803   2.088  12.948  0.4176  0.0109  0.5464
 7540SOL    HW134082   1.848   2.026  13.005  0.1882 -1.3929 -0.8081
 7540SOL    HW234083   1.756   2.033  12.886 -1.1139  0.7350  1.0771
 7541SOL     OW34084   1.704   2.670   2.171  0.1291  0.1418  0.1649
 7541SOL    HW134085   1.778   2.614   2.149 -0.8586 -1.8671  2.0047
 7541SOL    HW234086   1.641   2.643   2.105  2.2060 -1.2932 -1.2546
 7542SOL     OW34087   2.907   3.432   2.623 -0.2504  0.0501  0.5276
 7542SOL    HW134088   2.843   3.488   2.579 -0.8259 -0.8612  0.1896
 7542SOL    HW234089   2.921   3.369   2.551 -0.9821  0.4243  0.0521
 7543SOL     OW34090   1.325   0.379   4.332  0.1473  0.3370 -0.0036
 7543SOL    HW134091   1.396   0.333   4.378 -0.9658 -0.4065  0.9601
 7543SOL    HW234092   1.369   0.418   4.256  0.4891 -0.5876 -0.2828
 7544SOL     OW34093   3.618   1.285  12.427 -0.1208  0.0514 -0.3605
 7544SOL    HW134094   3.632   1.359  12.368  1.7702 -1.9185 -2.3914
 7544SOL    HW234095   3.706   1.248  12.432  0.9885  2.5570 -1.3461
 7545SOL     OW34096   4.214   2.302   9.172 -1.0728 -0.0271  0.0249
 7545SOL    HW134097   4.263   2.384   9.177 -1.6616  0.5119 -2.7646
 7545SOL    HW234098   4.124   2.330   9.191 -0.4345  1.8314  0.2730
 7546SOL     OW34099   4.036   1.625   7.833  0.4566  0.0759  0.4276
 7546SOL    HW134100   4.073   1.693   7.777 -2.2233  1.0998 -0.0917
 7546SOL    HW234101   3.949   1.660   7.854 -0.7885 -2.5623 -0.2715
 7547SOL     OW34102   3.097   3.256   7.513 -0.5882 -0.4113 -0.2424
 7547SOL    HW134103   3.033   3.283   7.579 -2.8970 -2.4359 -1.6766
 7547SOL    HW234104   3.173   3.302   7.549  1.3278 -2.2637 -1.9864
 7548SOL     OW34105   2.163   3.494  10.909  0.0493 -0.5641  0.3866
 7548SOL    HW134106   2.177   3.426  10.976 -1.3047  0.7274  1.9875
 7548SOL    HW234107   2.096   3.449  10.857 -1.1113 -0.5089  1.8176
 7549SOL     OW34108   0.993   0.668   8.097  0.8054  0.4792 -0.6438
 7549SOL    HW134109   0.930   0.632   8.159  1.1064 -0.6670 -1.0167
 7549SOL    HW234110   1.000   0.760   8.122 -2.4677  0.4982  0.2294
 7550SOL     OW34111   0.111   3.896  13.750  0.0343  0.0417  0.4146
 7550SOL    HW134112   0.084   3.812  13.786 -1.2487  0.7987  1.2296
 7550SOL    HW234113   0.149   3.931  13.830  0.8234  1.4796 -0.5755
 7551SOL     OW34114   2.808   3.626   0.362  0.3119  0.1618 -0.3453
 7551SOL    HW134115   2.760   3.696   0.319  0.0890  0.5769  0.5660
 7551SOL    HW234116   2.846   3.666   0.441  0.2454 -1.2044  0.3865
 7552SOL     OW34117   0.987   1.304   7.875 -0.0122 -0.0009  0.2295
 7552SOL    HW134118   0.934   1.294   7.954 -1.6932 -2.5697 -1.2370
 7552SOL    HW234119   0.995   1.399   7.863  0.2108 -0.3831 -2.4979
 7553SOL     OW34120   4.575   1.536   3.212  0.2427  0.1069  0.4807
 7553SOL    HW134121   4.485   1.531   3.246 -0.6348 -0.2120 -1.9135
 7553SOL    HW234122   4.598   1.444   3.221  0.9591  0.3095  0.6890
 7554SOL     OW34123   3.983   3.420   6.373  0.0056 -0.1558  0.0768
 7554SOL    HW134124   3.957   3.455   6.288  1.8946 -1.3893 -1.0082
 7554SOL    HW234125   3.925   3.472   6.430 -1.1982 -1.7818  0.3378
 7555SOL     OW34126   3.104   3.745   3.567  0.3510 -0.0035  0.3284
 7555SOL    HW134127   3.175   3.709   3.513 -0.4277  0.3527 -0.9200
 7555SOL    HW234128   3.031   3.742   3.505  0.5819 -1.8245  0.1571
 7556SOL     OW34129   1.613   2.403  16.914 -0.1175  0.2404  0.2842
 7556SOL    HW134130   1.632   2.487  16.875 -4.3088  1.0945  0.0278
 7556SOL    HW234131   1.605   2.345  16.838 -3.2500 -0.7565  1.3466
 7557SOL     OW34132   0.794   4.524   6.267 -0.2245  0.1261  0.2587
 7557SOL    HW134133   0.851   4.569   6.329 -0.2567 -2.5127  2.1848
 7557SOL    HW234134   0.715   4.578   6.274  0.1245  0.6695  0.0067
 7558SOL     OW34135   3.532   3.948  16.468  0.7763  0.0189 -0.1312
 7558SOL    HW134136   3.459   3.890  16.493  0.2975 -0.2225 -2.0846
 7558SOL    HW234137   3.614   3.909  16.497  1.8614  1.0028 -1.9043
 7559SOL     OW34138   4.473   1.158   6.406 -0.1534  0.1267 -0.2557
 7559SOL    HW134139   4.491   1.209   6.484  0.3259  0.8559 -0.8373
 7559SOL    HW234140   4.521   1.076   6.418 -0.2534  0.2401  0.8344
 7560SOL     OW34141   4.061   0.515  11.839 -0.2702  0.5918  0.0160
 7560SOL    HW134142   4.037   0.425  11.863  0.9600  0.2436 -0.0737
 7560SOL    HW234143   4.155   0.504  11.850 -0.3613  2.5494  2.6641
 7561SOL     OW34144   4.615   1.931   9.672  0.5014 -0.3309 -0.2013
 7561SOL    HW134145   4.697   1.896   9.706  0.7285 -0.0145 -0.4225
 7561SOL    HW234146   4.633   1.915   9.579 -0.7746  0.9821 -0.6866
 7562SOL     OW34147   3.729   3.478   5.450 -0.7447  0.0152 -0.4408
 7562SOL    HW134148   3.808   3.485   5.396 -0.5690 -1.6543 -0.3971
 7562SOL    HW234149   3.753   3.394   5.488 -2.1954 -1.0805 -1.9320
 7563SOL     OW34150   3.878   2.232   5.984  0.2854 -0.0408  0.0479
 7563SOL    HW134151   3.860   2.170   6.054 -1.2393 -3.7382 -3.5735
 7563SOL    HW234152   3.969   2.213   5.961 -0.2066 -3.3427  0.9578
 7564SOL     OW34153   0.378   1.880   9.822  0.4621  0.0291 -0.0802
 7564SOL    HW134154   0.425   1.801   9.848 -2.2031 -0.6743  2.7267
 7564SOL    HW234155   0.446   1.947   9.827  1.1056 -0.7321  1.6390
 7565SOL     OW34156   1.763   4.224   1.966  0.4870  0.4809 -0.4888
 7565SOL    HW134157   1.707   4.295   1.934  0.4371  1.5031  1.9049
 7565SOL    HW234158   1.799   4.269   2.042  0.9872  0.5408 -0.7623
 7566SOL     OW34159   3.483   3.561   5.562 -1.0214 -0.5110 -0.1602
 7566SOL    HW134160   3.513   3.497   5.498 -0.6046 -0.0745 -0.4081
 7566SOL    HW234161   3.454   3.635   5.508 -2.1870 -0.7614  0.1120
 7567SOL     OW34162   4.008   3.405  17.539 -0.6098 -0.3106  0.3847
 7567SOL    HW134163   3.945   3.355  17.487 -1.9422 -0.8685  2.5491
 7567SOL    HW234164   4.023   3.331  17.597 -1.8958  0.4522  1.6815
 7568SOL     OW34165   1.143   3.121  10.824 -0.0624  0.2228 -0.1070
 7568SOL    HW134166   1.141   3.060  10.750 -1.9423  0.2418 -0.0898
 7568SOL    HW234167   1.225   3.166  10.804 -0.4099 -0.1957 -2.4901
 7569SOL     OW34168   0.648   1.853  14.111 -0.0753 -0.1240 -0.7972
 7569SOL    HW134169   0.738   1.854  14.079  0.6708 -1.3452  1.2687
 7569SOL    HW234170   0.652   1.789  14.183 -1.2296  0.4634 -0.2123
 7570SOL     OW34171   4.460   0.751   6.838  0.0973 -0.3994 -0.1175
 7570SOL    HW134172   4.512   0.794   6.771 -0.4127  0.6121  0.1388
 7570SOL    HW234173   4.518   0.744   6.915 -0.7057 -3.0381  0.2317
 7571SOL     OW34174   0.990   1.269  12.441  0.2081  0.4645  0.5983
 7571SOL    HW134175   1.068   1.233  12.400 -0.3711  0.2758 -0.3259
 7571SOL    HW234176   0.953   1.188  12.477  0.6914  0.1831  0.4604
 7572SOL     OW34177   1.801   3.446   8.999  1.0737 -0.6555 -0.5605
 7572SOL    HW134178   1.873   3.386   8.980  2.8835  1.0893  0.7402
 7572SOL    HW234179   1.854   3.525   9.001 -0.2133  0.2005 -0.1469
 7573SOL     OW34180   2.008   3.530   3.041 -0.3806  0.0765  0.0732
 7573SOL    HW134181   2.100   3.503   3.053 -0.5350  0.2486  1.6042
 7573SOL    HW234182   1.992   3.519   2.947  1.1791 -1.0567 -0.0758
 7574SOL     OW34183   3.165   0.957   3.191  0.7163  0.5750  0.1425
 7574SOL    HW134184   3.143   0.901   3.117  2.4026 -1.9310  1.5089
 7574SOL    HW234185   3.244   0.991   3.150  0.4351 -0.5902 -1.3597
 7575SOL     OW34186   0.273   0.720   0.345  0.0766  0.0359  0.0195
 7575SOL    HW134187   0.232   0.797   0.307  0.8761  0.4061 -0.0974
 7575SOL    HW234188   0.263   0.739   0.438  2.6623  0.3456  0.2509
 7576SOL     OW34189   1.310   2.138   6.221  0.2079  0.4727  0.2473
 7576SOL    HW134190   1.244   2.206   6.215 -0.9610 -0.9451 -2.8317
 7576SOL    HW234191   1.373   2.181   6.164  1.8403  0.9882  2.4383
 7577SOL     OW34192   4.389   2.866  15.802 -0.3642  0.2786 -0.5385
 7577SOL    HW134193   4.324   2.808  15.843 -0.3114  1.0195  0.6031
 7577SOL    HW234194   4.433   2.894  15.882  0.4477 -0.3734 -0.7556
 7578SOL     OW34195   0.253   1.688  16.754  0.5602 -0.1936  0.0034
 7578SOL    HW134196   0.176   1.631  16.749 -1.0726  2.0980 -0.8699
 7578SOL    HW234197   0.254   1.722  16.665 -0.7578 -1.0204 -0.3312
 7579SOL     OW34198   4.222   0.686   5.734  0.3955 -0.4160  0.0800
 7579SOL    HW134199   4.205   0.701   5.641 -0.5596  0.0086  0.3275
 7579SOL    HW234200   4.298   0.744   5.742 -1.0227  1.5391 -0.5855
 7580SOL     OW34201   0.370   0.828   2.776  0.5994  0.0927  0.1888
 7580SOL    HW134202   0.457   0.865   2.786 -0.2822  2.6135 -1.3548
 7580SOL    HW234203   0.345   0.840   2.684 -0.5344  0.8456  0.5910
 7581SOL     OW34204   4.274   3.336  17.595 -0.0568 -0.0380  0.8017
 7581SOL    HW134205   4.189   3.357  17.555  0.5436 -0.3928 -0.6725
 7581SOL    HW234206   4.297   3.422  17.630  0.8480  1.0513 -2.4742
 7582SOL     OW34207   0.167   0.943  16.222  0.2787  0.5592 -0.8475
 7582SOL    HW134208   0.097   0.900  16.172 -0.5684  1.6754 -0.6116
 7582SOL    HW234209   0.195   0.875  16.283  1.4611 -0.9600 -3.0445
 7583SOL     OW34210   2.441   2.480   6.607  0.6120 -0.0071  0.0370
 7583SOL    HW134211   2.431   2.412   6.541  0.2627 -0.2307  0.3177
 7583SOL    HW234212   2.531   2.503   6.586  0.8577 -1.1630 -0.1891
 7584SOL     OW34213   2.374   1.899   4.818 -0.4651 -0.0132 -0.2774
 7584SOL    HW134214   2.408   1.851   4.742 -0.4934  2.9614 -2.1559
 7584SOL    HW234215   2.281   1.905   4.798 -0.0029 -0.6848 -2.6503
 7585SOL     OW34216   2.576   1.874   5.402 -0.3770  0.4375  0.2248
 7585SOL    HW134217   2.598   1.851   5.312  1.2664 -2.2839  1.3501
 7585SOL    HW234218   2.482   1.890   5.393 -0.6581 -1.2374  0.1862
 7586SOL     OW34219   3.915   4.156   4.973 -0.1779  0.1196  0.3842
 7586SOL    HW134220   3.887   4.200   4.894  2.2389  0.6860 -0.1585
 7586SOL    HW234221   3.905   4.227   5.037  1.0906  1.6226 -1.0937
 7587SOL     OW34222   3.509   3.030   7.905 -0.8562 -0.0396  0.5892
 7587SOL    HW134223   3.509   3.050   7.811 -0.5332 -1.3624  0.2980
 7587SOL    HW234224   3.417   3.036   7.929 -0.4960 -1.1621  2.2751
 7588SOL     OW34225   3.026   3.109   4.449  0.1549  0.1965 -0.5147
 7588SOL    HW134226   3.056   3.161   4.374 -0.2716  1.4633  0.1897
 7588SOL    HW234227   2.998   3.180   4.507  2.7946  0.6206  0.2568
 7589SOL     OW34228   0.123   1.927   8.772  0.0642  0.3028 -0.5163
 7589SOL    HW134229   0.174   2.008   8.776  1.6224 -0.6991 -0.4081
 7589SOL    HW234230   0.179   1.873   8.827 -2.5919 -0.0399  1.9060
 7590SOL     OW34231   3.999   4.323   4.621 -0.1315  0.4536 -0.6412
 7590SOL    HW134232   3.910   4.342   4.651 -0.3579 -1.0100 -0.3971
 7590SOL    HW234233   4.006   4.230   4.641  1.3292  0.5065 -0.9445
 7591SOL     OW34234   2.585   2.250   4.937 -0.3342 -0.4656  0.2749
 7591SOL    HW134235   2.631   2.230   5.019 -0.5171 -1.2735  0.1874
 7591SOL    HW234236   2.639   2.190   4.884  2.2424  0.3100  1.9944
 7592SOL     OW34237   0.821   0.433  17.369  0.4271 -0.2568 -0.5205
 7592SOL    HW134238   0.880   0.407  17.440  0.6089  0.5258 -0.3906
 7592SOL    HW234239   0.884   0.467  17.305  0.5228  0.2061 -0.1790
 7593SOL     OW34240   2.562   3.191  16.758  0.0472  0.5322 -0.2980
 7593SOL    HW134241   2.522   3.270  16.722 -0.7593 -1.4238 -3.6429
 7593SOL    HW234242   2.489   3.135  16.785  1.1452 -1.4786 -1.5397
 7594SOL     OW34243   3.416   2.382   6.022  0.0745 -0.2581 -0.3008
 7594SOL    HW134244   3.360   2.372   5.945  0.8534  0.6461 -0.9644
 7594SOL    HW234245   3.477   2.449   5.992 -1.0717  1.3027  0.8408
 7595SOL     OW34246   2.089   3.116   7.284  0.2054 -0.0747 -0.1212
 7595SOL    HW134247   2.096   3.032   7.330  1.4794  0.7630  1.2075
 7595SOL    HW234248   1.994   3.130   7.283  0.2671  0.3969  0.8173
 7596SOL     OW34249   1.947   1.910   7.851 -0.0848  0.3169  0.1379
 7596SOL    HW134250   1.990   1.892   7.935  0.8482 -0.3917 -0.4934
 7596SOL    HW234251   1.949   1.820   7.819  1.2411  1.6704 -3.5418
 7597SOL     OW34252   2.052   3.607  17.587 -0.1673  0.0006  0.3462
 7597SOL    HW134253   1.957   3.617  17.598 -0.4335  2.9226 -4.5721
 7597SOL    HW234254   2.074   3.675  17.523 -3.2400  1.4806  0.8346
 7598SOL     OW34255   4.656   3.807   3.289  0.4567 -0.2494 -0.7650
 7598SOL    HW134256   4.623   3.721   3.314 -1.0666  0.3668 -0.6952
 7598SOL    HW234257   4.659   3.846   3.377 -2.1835 -2.6353  0.4108
 7599SOL     OW34258   4.330   1.697   1.846  0.4059  0.4559  0.5486
 7599SOL    HW134259   4.393   1.668   1.780  0.3388 -1.9996  1.5422
 7599SOL    HW234260   4.367   1.682   1.933  1.2317 -0.0232  0.1097
 7600SOL     OW34261   0.239   0.663  13.538 -0.1595  0.5100 -0.2160
 7600SOL    HW134262   0.330   0.690  13.528  0.4426 -1.1686  0.6656
 7600SOL    HW234263   0.194   0.741  13.506  0.7654  0.7654 -0.8924
 7601SOL     OW34264   0.624   4.559   0.758 -0.5493 -0.1062 -0.2358
 7601SOL    HW134265   0.532   4.580   0.741 -0.6893 -0.9134 -0.4583
 7601SOL    HW234266   0.666   4.572   0.672 -1.3659  1.4027 -0.4162
 7602SOL     OW34267   3.592   4.419   0.790  0.4630 -0.4346 -0.0550
 7602SOL    HW134268   3.576   4.363   0.714 -1.4703 -0.1941  0.1606
 7602SOL    HW234269   3.683   4.444   0.775  0.0189  2.1069  1.4216
 7603SOL     OW34270   1.655   3.984   6.937  0.2853 -0.1732 -0.2574
 7603SOL    HW134271   1.735   4.006   6.888 -0.1516  0.8707 -0.5016
 7603SOL    HW234272   1.697   3.960   7.020  2.1783  0.8991 -0.9120
 7604SOL     OW34273   4.286   2.686   7.236  0.0217 -0.4822  1.1747
 7604SOL    HW134274   4.374   2.706   7.268  0.2694 -0.7839  0.6937
 7604SOL    HW234275   4.292   2.706   7.142 -1.1092  2.1904  1.6823
 7605SOL     OW34276   0.980   0.938   9.504  0.3237 -0.0308  0.3044
 7605SOL    HW134277   1.074   0.941   9.486  0.0500 -3.5121 -1.6947
 7605SOL    HW234278   0.992   0.898   9.591  0.8877  0.5450  0.4893
 7606SOL     OW34279   2.057   4.298   6.527  0.2619  0.3696 -0.1409
 7606SOL    HW134280   2.061   4.391   6.550 -0.0699  0.2329  0.4948
 7606SOL    HW234281   2.097   4.297   6.440  0.6191  0.2898  0.0231
 7607SOL     OW34282   2.411   4.563   5.059  0.0795 -0.4426  0.5275
 7607SOL    HW134283   2.343   4.585   4.996  0.4414  1.9325  0.9768
 7607SOL    HW234284   2.401   4.647   5.103  1.9267  0.4968 -0.8342
 7608SOL     OW34285   4.032   1.400   5.925 -0.1862  0.4005  0.3285
 7608SOL    HW134286   4.083   1.464   5.875  0.3055  1.4090  2.0873
 7608SOL    HW234287   4.093   1.391   5.998 -0.3265  0.5850  0.4694
 7609SOL     OW34288   2.080   0.127   5.558 -0.6176  0.3323 -0.1564
 7609SOL    HW134289   2.154   0.182   5.583 -1.0455  1.3582 -1.1654
 7609SOL    HW234290   2.105   0.117   5.466  2.0330 -1.1756  0.7488
 7610SOL     OW34291   0.013   1.594   1.194  0.1141  0.2590 -0.0693
 7610SOL    HW134292   0.096   1.618   1.153  1.0621 -1.4507  0.8354
 7610SOL    HW234293   4.679   1.573   1.121 -0.8587  0.7729  0.5663
 7611SOL     OW34294   3.009   4.343  13.232 -0.0860 -0.3700  0.3068
 7611SOL    HW134295   2.934   4.381  13.277  1.2645 -0.2454  2.4346
 7611SOL    HW234296   3.006   4.368  13.140  0.1157 -2.2573 -0.2251
 7612SOL     OW34297   1.771   4.603   7.081 -0.0439 -0.6583  0.0949
 7612SOL    HW134298   1.714   4.526   7.081  0.8007 -1.2724  2.2891
 7612SOL    HW234299   1.795   4.594   7.173  0.1460  1.7037  0.2863
 7613SOL     OW34300   4.501   3.535   2.674  0.3941 -0.0690  0.2018
 7613SOL    HW134301   4.430   3.488   2.717 -2.2967  1.8578 -2.0946
 7613SOL    HW234302   4.547   3.463   2.630 -0.9202 -1.4256  1.0444
 7614SOL     OW34303   3.766   3.423  12.291 -0.2186 -0.1603  0.2272
 7614SOL    HW134304   3.817   3.377  12.358  2.3829  3.4825  0.7405
 7614SOL    HW234305   3.687   3.451  12.338  0.8433  2.2757  0.5293
 7615SOL     OW34306   3.952   0.489   7.470 -0.0039 -0.0074  0.0548
 7615SOL    HW134307   3.859   0.504   7.457 -0.0644 -0.6787 -0.2937
 7615SOL    HW234308   3.958   0.417   7.407  2.0886 -0.7318  1.0735
 7616SOL     OW34309   3.067   1.175   4.186 -0.1923  0.0134  0.8458
 7616SOL    HW134310   2.997   1.118   4.153  0.9140 -1.0347  0.3098
 7616SOL    HW234311   3.015   1.241   4.231 -0.6985 -0.8540  1.5423
 7617SOL     OW34312   3.395   1.011   7.664 -0.3021  0.1309 -0.6261
 7617SOL    HW134313   3.407   1.045   7.753  0.8391 -0.0791 -0.7043
 7617SOL    HW234314   3.416   0.921   7.688  1.8867  0.3325 -1.7883
 7618SOL     OW34315   4.257   0.070   3.055  0.1289  0.8611  0.6140
 7618SOL    HW134316   4.319   0.018   3.004 -0.1415  1.3669 -0.2229
 7618SOL    HW234317   4.312   0.111   3.121  0.8863  1.3051 -0.2883
 7619SOL     OW34318   0.157   0.900   4.409  0.5063  0.0518 -0.0207
 7619SOL    HW134319   0.217   0.876   4.481  1.5401 -0.7278 -1.1432
 7619SOL    HW234320   0.116   0.968   4.463 -0.7398 -0.5346 -0.2436
 7620SOL     OW34321   0.036   2.210   2.004 -0.5443  0.2752  0.1675
 7620SOL    HW134322   0.023   2.134   2.061  0.5113  1.2141  1.6726
 7620SOL    HW234323   4.699   2.189   1.934 -0.2723  0.2962 -0.0730
 7621SOL     OW34324   2.939   2.369   7.718  0.3293  0.1233  0.2743
 7621SOL    HW134325   2.976   2.435   7.778 -0.2501 -0.6395  1.4751
 7621SOL    HW234326   3.010   2.305   7.716  1.2192  1.1418 -1.0240
 7622SOL     OW34327   4.021   2.559   2.130 -0.6548 -0.3078 -0.0720
 7622SOL    HW134328   4.083   2.538   2.060 -1.2808 -0.9719 -0.4246
 7622SOL    HW234329   4.045   2.499   2.201  1.0622  0.4043 -0.0457
 7623SOL     OW34330   1.699   4.101  13.986 -0.0821  0.5922 -0.1684
 7623SOL    HW134331   1.668   4.190  14.003 -1.3410 -0.0343  0.7906
 7623SOL    HW234332   1.646   4.043  14.041 -2.0427 -0.5830 -3.3421
 7624SOL     OW34333   3.635   2.198  14.646  0.0943 -0.6281  0.5871
 7624SOL    HW134334   3.641   2.284  14.687 -1.1438 -0.4419  0.4086
 7624SOL    HW234335   3.724   2.188  14.612 -0.4053  0.9378 -1.1911
 7625SOL     OW34336   3.948   1.793   2.268  0.1352 -0.2394 -0.1043
 7625SOL    HW134337   3.990   1.765   2.187  1.2657  0.2370  0.3223
 7625SOL    HW234338   3.917   1.709   2.301  2.2317 -1.0814 -0.3109
 7626SOL     OW34339   1.019   4.589   2.172  0.2622 -0.6503  0.0093
 7626SOL    HW134340   0.949   4.548   2.121  1.1226 -0.3342 -1.4308
 7626SOL    HW234341   1.015   4.685   2.163  1.2643 -0.7987 -2.0421
 7627SOL     OW34342   3.812   2.718   4.542 -0.3221  0.1941 -0.6147
 7627SOL    HW134343   3.723   2.739   4.571 -0.6212  0.2022 -1.5650
 7627SOL    HW234344   3.828   2.783   4.474 -0.1620 -1.1554 -1.8414
 7628SOL     OW34345   1.745   2.794   2.395 -0.2222  0.3271  0.3482
 7628SOL    HW134346   1.692   2.731   2.444 -0.8839  0.4692 -0.1837
 7628SOL    HW234347   1.747   2.752   2.309 -0.7352 -0.9954  0.9860
 7629SOL     OW34348   0.349   0.618   1.863  0.1534  0.2119 -0.5896
 7629SOL    HW134349   0.394   0.548   1.817  0.0506 -0.8011  0.8739
 7629SOL    HW234350   0.274   0.637   1.805  0.7933  0.8015 -1.2241
 7630SOL     OW34351   3.521   2.261   8.665  0.8691  0.3622 -0.0966
 7630SOL    HW134352   3.486   2.176   8.641  0.1979  0.9620 -1.2515
 7630SOL    HW234353   3.526   2.311   8.583  0.6302 -1.3253 -1.1378
 7631SOL     OW34354   0.836   4.386   8.459  0.3601 -0.3977  0.2260
 7631SOL    HW134355   0.865   4.418   8.545  1.3051 -2.6873  0.7685
 7631SOL    HW234356   0.742   4.396   8.478  0.3505 -0.2922  0.1213
 7632SOL     OW34357   2.053   1.040  17.318 -0.3755  0.2092 -0.0185
 7632SOL    HW134358   2.041   1.135  17.312 -0.8462 -0.0063 -2.4994
 7632SOL    HW234359   2.116   1.021  17.387 -3.3832  0.8355  2.9265
 7633SOL     OW34360   2.972   4.685   7.000 -0.1108 -0.2503  0.0479
 7633SOL    HW134361   2.915   4.616   7.033 -0.1586  0.9257  2.4648
 7633SOL    HW234362   2.942   4.697   6.910 -0.3920 -1.7200 -0.0477
 7634SOL     OW34363   1.100   0.488   6.980 -0.6428  0.1901 -0.3976
 7634SOL    HW134364   1.100   0.572   6.934 -2.1992  1.5079  1.9604
 7634SOL    HW234365   1.008   0.490   7.008 -0.5196  0.2819 -0.0028
 7635SOL     OW34366   2.686   3.200   9.565  0.0553  0.0246  0.1000
 7635SOL    HW134367   2.593   3.204   9.586 -0.0290 -2.4097  0.1847
 7635SOL    HW234368   2.720   3.266   9.625 -0.3275  0.5903 -0.3133
 7636SOL     OW34369   1.769   1.761   7.419  0.0166 -0.6251 -0.2329
 7636SOL    HW134370   1.857   1.724   7.421 -0.5381 -1.9402 -0.2898
 7636SOL    HW234371   1.788   1.855   7.420  2.3302 -1.1042 -0.1719
 7637SOL     OW34372   3.223   1.913  13.048  0.5097 -0.7206  0.0936
 7637SOL    HW134373   3.281   1.975  13.091 -1.2556 -0.2217  1.7856
 7637SOL    HW234374   3.152   1.975  13.030  0.8728 -0.7218 -1.3166
 7638SOL     OW34375   3.224   4.486  11.930 -0.0068 -0.4196  0.7698
 7638SOL    HW134376   3.277   4.454  11.858 -2.2810 -0.1350 -1.0222
 7638SOL    HW234377   3.228   4.407  11.984  1.4403 -1.3026 -0.6687
 7639SOL     OW34378   1.770   1.378   9.998 -0.0346  0.2491 -0.2359
 7639SOL    HW134379   1.706   1.359   9.929 -1.9635  1.1310  1.3115
 7639SOL    HW234380   1.816   1.294   9.993  0.4685  0.5091  0.0013
 7640SOL     OW34381   3.674   0.508   8.418 -0.1679  0.1100 -0.7652
 7640SOL    HW134382   3.641   0.501   8.329 -0.6600 -0.1745 -0.5644
 7640SOL    HW234383   3.636   0.429   8.456 -1.4611  0.5197 -1.2178
 7641SOL     OW34384   0.257   4.029   4.903 -0.1184  0.3764  0.5627
 7641SOL    HW134385   0.180   4.045   4.957  0.2975 -0.4329  1.3798
 7641SOL    HW234386   0.218   4.052   4.818 -0.0169 -0.0938  0.3880
 7642SOL     OW34387   2.741   2.117   4.743 -0.3421  0.3430 -0.1756
 7642SOL    HW134388   2.741   2.022   4.738  2.5755  0.4088 -1.4574
 7642SOL    HW234389   2.826   2.136   4.703 -1.2312 -1.3399 -2.8813
 7643SOL     OW34390   3.283   1.263   0.087  0.5763  0.5596 -0.7517
 7643SOL    HW134391   3.257   1.225   0.171  1.4780  0.9187 -0.3088
 7643SOL    HW234392   3.375   1.278   0.107  0.6409  1.0513 -1.4162
 7644SOL     OW34393   2.030   2.650   6.131  0.6515  0.3058  0.1782
 7644SOL    HW134394   1.983   2.604   6.200  2.0534 -0.0293  0.9193
 7644SOL    HW234395   2.021   2.739   6.165  2.1507 -0.5562  2.8482
 7645SOL     OW34396   3.149   2.088   1.790 -0.5648 -0.5466 -0.6771
 7645SOL    HW134397   3.058   2.059   1.798 -0.6952 -0.3223 -1.4080
 7645SOL    HW234398   3.140   2.172   1.746 -2.4347 -0.7465 -0.6721
 7646SOL     OW34399   2.482   0.340   5.828  0.4760 -0.4422 -0.0400
 7646SOL    HW134400   2.441   0.409   5.881  0.7167 -0.9648  0.8251
 7646SOL    HW234401   2.510   0.389   5.751 -1.8961 -0.0442 -0.6494
 7647SOL     OW34402   0.888   0.634  13.771 -0.3538  0.3130  0.5221
 7647SOL    HW134403   0.854   0.575  13.838  0.7530 -1.0896 -0.1448
 7647SOL    HW234404   0.805   0.666  13.735  0.0906 -0.8752 -1.5677
 7648SOL     OW34405   3.245   4.349   2.165  0.1639 -0.2511  0.1512
 7648SOL    HW134406   3.255   4.297   2.245  1.4486  2.0485  1.4529
 7648SOL    HW234407   3.210   4.287   2.101  1.1543  1.4876 -2.0474
 7649SOL     OW34408   4.028   1.831   6.915 -0.0974  0.1987 -0.5569
 7649SOL    HW134409   3.983   1.794   6.839  0.3496 -1.6356  0.0776
 7649SOL    HW234410   4.039   1.921   6.884  3.5154 -0.0724  0.0048
 7650SOL     OW34411   1.098   2.405   1.444 -0.5133 -0.6609 -0.1136
 7650SOL    HW134412   1.075   2.445   1.360  0.3589 -1.3523 -0.6825
 7650SOL    HW234413   1.010   2.369   1.455 -1.1544  1.3607  1.4089
 7651SOL     OW34414   3.821   0.124   5.856 -0.2642 -0.2786  0.0291
 7651SOL    HW134415   3.823   0.183   5.781 -1.0786  1.4662  1.3890
 7651SOL    HW234416   3.728   0.103   5.863 -0.2712  0.1925  1.3701
 7652SOL     OW34417   0.581   2.281  10.084 -0.0913 -0.0173 -0.3273
 7652SOL    HW134418   0.646   2.338  10.125 -0.7311  0.5882 -0.1534
 7652SOL    HW234419   0.585   2.205  10.142 -1.6222  0.4843  0.4373
 7653SOL     OW34420   0.045   1.975   2.134 -0.0601 -0.3797  0.1099
 7653SOL    HW134421   0.089   2.009   2.212 -2.0490  0.7856  0.7086
 7653SOL    HW234422   0.114   1.924   2.093  1.3921 -0.5551  2.7727
 7654SOL     OW34423   0.366   1.597  17.630 -0.0583  0.4315  0.0459
 7654SOL    HW134424   0.345   1.504  17.629  1.5324  0.0613  2.8370
 7654SOL    HW234425   0.278   1.635  17.642 -0.2998  0.1815 -0.9674
 7655SOL     OW34426   0.480   4.399   2.903 -0.1230 -0.1091  0.1828
 7655SOL    HW134427   0.531   4.468   2.861  0.5461 -1.0411 -0.5536
 7655SOL    HW234428   0.396   4.443   2.895 -0.3753 -0.4006  1.2182
 7656SOL     OW34429   3.823   4.088  14.342  0.2444  0.1655 -0.3992
 7656SOL    HW134430   3.867   4.009  14.311  1.8097  1.8319 -2.4364
 7656SOL    HW234431   3.843   4.134  14.261 -2.6703  1.7095 -0.2504
 7657SOL     OW34432   3.313   0.243  11.430 -0.5724 -0.5132 -0.3215
 7657SOL    HW134433   3.387   0.185  11.411  1.6387  1.5298  2.0466
 7657SOL    HW234434   3.234   0.189  11.431 -0.1219 -1.1389  1.0122
 7658SOL     OW34435   3.771   0.307   6.077 -1.2431  0.1997 -0.1544
 7658SOL    HW134436   3.693   0.257   6.102 -1.3768  0.4393 -0.0962
 7658SOL    HW234437   3.791   0.257   5.998 -0.2301 -0.2632  0.3934
 7659SOL     OW34438   4.630   1.793   4.709 -0.9673 -0.0907  0.3743
 7659SOL    HW134439   4.558   1.758   4.657 -0.6253  1.2706 -0.9842
 7659SOL    HW234440   4.580   1.827   4.784 -0.1549 -0.8060  1.2487
 7660SOL     OW34441   4.235   0.576  15.746  0.1740 -0.5162  0.3944
 7660SOL    HW134442   4.163   0.513  15.741 -0.6564  0.3893  1.1030
 7660SOL    HW234443   4.208   0.648  15.689  2.3463  0.5192  0.6582
 7661SOL     OW34444   2.815   1.861  13.606  0.6996  0.3354  0.0659
 7661SOL    HW134445   2.891   1.906  13.644 -1.9540  2.5718  2.6697
 7661SOL    HW234446   2.855   1.829  13.525  0.7343  1.3667 -0.3325
 7662SOL     OW34447   1.274   3.376  14.686 -0.0258 -0.2181 -0.2509
 7662SOL    HW134448   1.256   3.285  14.710  1.3572  0.0629  1.7913
 7662SOL    HW234449   1.188   3.398  14.649 -0.0885 -0.8393 -0.4730
 7663SOL     OW34450   2.893   2.383   8.790  0.3261  0.1383 -0.3025
 7663SOL    HW134451   2.893   2.299   8.836  2.0385  0.5464  0.4391
 7663SOL    HW234452   2.947   2.431   8.852 -0.3786  1.5639 -0.8074
 7664SOL     OW34453   0.158   1.984   0.106  0.7555 -0.1688 -0.2147
 7664SOL    HW134454   0.160   1.979   0.010 -2.8846 -1.8087 -0.2263
 7664SOL    HW234455   0.194   2.071   0.123 -0.4424 -0.3671  3.2054
 7665SOL     OW34456   1.043   0.703  17.655  0.3888  0.3036  0.6234
 7665SOL    HW134457   0.988   0.739   0.026  1.8591  1.8814  0.9650
 7665SOL    HW234458   1.010   0.751  17.580 -0.0042 -0.5808  0.2283
 7666SOL     OW34459   3.586   3.892   1.523  0.2334 -0.7918 -0.2831
 7666SOL    HW134460   3.585   3.893   1.427  1.9269 -1.2939 -0.3134
 7666SOL    HW234461   3.531   3.966   1.547  1.2529  0.4677 -1.8534
 7667SOL     OW34462   1.548   2.279   7.338  0.2217  0.6081  0.2491
 7667SOL    HW134463   1.529   2.362   7.383 -0.1091 -0.8655  2.8231
 7667SOL    HW234464   1.642   2.282   7.321 -0.2244 -1.3542 -2.3978
 7668SOL     OW34465   4.171   0.414   7.097 -0.2380 -0.0749  0.1705
 7668SOL    HW134466   4.150   0.455   7.013 -1.8011  0.1988  0.6883
 7668SOL    HW234467   4.098   0.354   7.118  0.2261 -1.1562 -1.2753
 7669SOL     OW34468   1.729   4.151   2.878 -0.1909 -1.0323 -0.5232
 7669SOL    HW134469   1.723   4.057   2.896 -1.1465 -0.9494 -0.4189
 7669SOL    HW234470   1.651   4.176   2.926  0.1827 -1.2880  0.2148
 7670SOL     OW34471   3.631   2.786   8.586  1.2148  0.2034  0.0356
 7670SOL    HW134472   3.601   2.814   8.672  1.9234 -0.7342  0.5904
 7670SOL    HW234473   3.686   2.709   8.598  0.8327  0.0084  0.5323
 7671SOL     OW34474   2.395   1.056   0.844 -0.7002 -0.0885 -0.2827
 7671SOL    HW134475   2.329   1.031   0.779 -0.7698  1.9251 -0.9861
 7671SOL    HW234476   2.464   0.995   0.819  1.1903  0.8698  2.6338
 7672SOL     OW34477   0.696   4.417   5.469  0.3935 -0.2878 -0.5726
 7672SOL    HW134478   0.646   4.343   5.435 -1.4842  0.6140  0.2181
 7672SOL    HW234479   0.661   4.491   5.420 -2.3368 -1.4084 -0.3333
 7673SOL     OW34480   3.317   1.754  15.085  0.4631 -0.2236 -0.2854
 7673SOL    HW134481   3.305   1.848  15.098 -1.2978 -0.5702  0.6316
 7673SOL    HW234482   3.230   1.722  15.061  1.2879 -2.0736 -0.8431
 7674SOL     OW34483   2.288   4.055   3.810  0.4660 -0.4372  0.1614
 7674SOL    HW134484   2.249   4.033   3.726 -1.2377 -2.2753  1.4376
 7674SOL    HW234485   2.244   3.995   3.870  2.7793 -1.1100  1.1972
 7675SOL     OW34486   1.483   0.100   6.128 -0.5633  0.3308  0.6822
 7675SOL    HW134487   1.486   0.034   6.060 -0.2566  0.5924  0.4415
 7675SOL    HW234488   1.473   0.041   6.203 -1.9842  1.6090  1.5229
 7676SOL     OW34489   2.414   1.411  14.575 -0.8276  0.2807 -0.4269
 7676SOL    HW134490   2.431   1.328  14.532 -1.1938  0.6573 -1.3092
 7676SOL    HW234491   2.499   1.453  14.568 -0.6186 -0.2991 -1.3327
 7677SOL     OW34492   3.614   4.486   8.624  0.3879  0.3166 -0.3570
 7677SOL    HW134493   3.658   4.524   8.548  1.0969  0.0592 -0.0762
 7677SOL    HW234494   3.689   4.454   8.675  0.3734  0.5161 -0.2120
 7678SOL     OW34495   3.711   3.323   4.654 -0.3993  0.7532 -0.2145
 7678SOL    HW134496   3.795   3.365   4.675 -0.2463  0.2794  0.1113
 7678SOL    HW234497   3.692   3.354   4.565 -0.5538 -0.8994 -0.7429
 7679SOL     OW34498   2.459   0.924   7.815 -0.0109 -0.2215  0.2679
 7679SOL    HW134499   2.402   0.855   7.848  0.3809 -0.7949 -0.2600
 7679SOL    HW234500   2.392   0.972   7.767 -1.1694 -0.8093  1.2939
 7680SOL     OW34501   0.564   2.977   2.500 -0.4710  0.6989  0.0847
 7680SOL    HW134502   0.487   2.971   2.443  1.2012  1.0873 -2.2075
 7680SOL    HW234503   0.611   3.041   2.447 -0.6125 -0.2301 -1.1653
 7681SOL     OW34504   1.935   1.009   1.669  0.2384  0.0563  0.0998
 7681SOL    HW134505   1.898   1.019   1.757 -0.5852 -0.9602 -0.1219
 7681SOL    HW234506   1.982   0.928   1.685 -1.5401 -0.6073  2.0366
 7682SOL     OW34507   3.396   0.120   5.973 -0.0193 -0.2018  0.5364
 7682SOL    HW134508   3.362   0.031   5.982 -0.0254 -0.0282  2.1328
 7682SOL    HW234509   3.454   0.124   6.049  0.6890  0.2428 -0.0265
 7683SOL     OW34510   3.147   2.860   6.631  0.7518  0.6677 -0.4964
 7683SOL    HW134511   3.121   2.946   6.664  0.5998  0.5053 -0.1832
 7683SOL    HW234512   3.135   2.872   6.537  2.3401 -0.1254 -0.8033
 7684SOL     OW34513   0.122   1.711   8.068 -0.7176 -0.4248 -0.1493
 7684SOL    HW134514   0.033   1.719   8.034 -0.6112  0.2331 -0.2643
 7684SOL    HW234515   0.143   1.803   8.080 -1.7493 -0.2651  0.3702
 7685SOL     OW34516   3.937   4.265   7.856 -0.4555  0.4152 -0.1872
 7685SOL    HW134517   4.026   4.231   7.850 -0.8806 -0.5745 -0.8001
 7685SOL    HW234518   3.941   4.309   7.771 -2.4936  0.3977 -0.2855
 7686SOL     OW34519   2.870   1.528  12.945  0.1032 -0.9719 -0.1066
 7686SOL    HW134520   2.954   1.483  12.950 -0.6357 -2.2990  0.2704
 7686SOL    HW234521   2.808   1.456  12.931 -1.7351  0.4167  0.9026
 7687SOL     OW34522   1.467   0.590  14.909  0.4601 -0.7200 -0.1690
 7687SOL    HW134523   1.406   0.577  14.981 -0.6641  0.0556 -0.9866
 7687SOL    HW234524   1.534   0.644  14.951  0.1555 -1.0348  0.7315
 7688SOL     OW34525   0.991   1.027   7.264 -0.2703  0.1942 -0.1945
 7688SOL    HW134526   0.998   1.063   7.353  3.9798  2.4192 -1.3797
 7688SOL    HW234527   1.070   0.973   7.269  0.6222  1.5955  0.9461
 7689SOL     OW34528   3.401   3.845  16.155  0.0873 -0.5210 -0.2298
 7689SOL    HW134529   3.348   3.838  16.075 -4.0118 -1.6705  2.5997
 7689SOL    HW234530   3.474   3.902  16.129  0.8124 -0.8724  1.0389
 7690SOL     OW34531   0.465   2.579   3.170 -1.2797 -0.2545  0.5127
 7690SOL    HW134532   0.516   2.518   3.117  0.0820  0.0045  1.5191
 7690SOL    HW234533   0.380   2.538   3.159 -1.4378 -0.1742  1.4133
 7691SOL     OW34534   1.532   3.674   6.939  0.1805 -0.4481  0.2874
 7691SOL    HW134535   1.627   3.686   6.941  0.2360 -0.8078 -0.1313
 7691SOL    HW234536   1.511   3.659   7.031  3.2865 -1.6594  0.7754
 7692SOL     OW34537   1.457   2.287  10.315 -0.4495  0.2183  0.1876
 7692SOL    HW134538   1.515   2.262  10.244  1.3507 -2.5668  2.6608
 7692SOL    HW234539   1.376   2.270  10.266 -0.8232 -2.5441  1.7926
 7693SOL     OW34540   1.193   2.652   3.374 -0.3930  0.0450  0.0084
 7693SOL    HW134541   1.207   2.559   3.389  1.9469  0.3819 -0.0321
 7693SOL    HW234542   1.166   2.682   3.461 -4.0486  1.5954 -1.6837
 7694SOL     OW34543   4.060   1.296   3.387  0.6651 -0.4326 -0.7033
 7694SOL    HW134544   3.981   1.311   3.438  1.4680  0.5644  0.2249
 7694SOL    HW234545   4.066   1.200   3.382 -0.8863 -0.6124  1.1007
 7695SOL     OW34546   2.915   3.556   7.084  0.2458 -0.3006 -0.1991
 7695SOL    HW134547   2.892   3.549   6.992  1.0406  1.8372 -0.5491
 7695SOL    HW234548   2.969   3.478   7.097  3.3480  1.6333 -1.7469
 7696SOL     OW34549   1.190   2.465  14.934 -0.2818  0.0899  0.7382
 7696SOL    HW134550   1.133   2.454  14.858 -0.0372 -1.3722  0.7752
 7696SOL    HW234551   1.270   2.481  14.884 -0.6699  1.7328  0.6423
 7697SOL     OW34552   3.245   2.891  11.842  0.3911  0.9895 -0.0303
 7697SOL    HW134553   3.224   2.841  11.921  0.3481  0.0397 -0.6403
 7697SOL    HW234554   3.161   2.923  11.811  1.0701  2.4666 -0.3284
 7698SOL     OW34555   2.793   4.018  17.670  0.2226 -0.1114  0.5866
 7698SOL    HW134556   2.879   4.036  17.634  0.1366  0.4779  0.6781
 7698SOL    HW234557   2.730   4.069  17.619  3.1544  1.7383 -1.1121
 7699SOL     OW34558   4.700   0.879   5.013 -0.7452 -0.0576  0.0338
 7699SOL    HW134559   0.019   0.845   4.935 -2.6669 -2.7887  0.1556
 7699SOL    HW234560   4.605   0.874   5.002 -0.5056  1.0290 -2.4534
 7700SOL     OW34561   1.900   0.929   0.053  0.2061  0.8193  0.1975
 7700SOL    HW134562   1.806   0.925   0.072  0.5513 -1.3125  1.4680
 7700SOL    HW234563   1.939   0.899   0.135 -3.6246 -2.0048  0.9837
 7701SOL     OW34564   3.179   1.654   5.114  0.2072  0.0934 -0.4977
 7701SOL    HW134565   3.228   1.690   5.188  1.4067 -1.5740 -0.4629
 7701SOL    HW234566   3.096   1.699   5.125 -0.6553 -1.3702 -0.9365
 7702SOL     OW34567   2.384   1.079   5.960 -0.7973  0.4108 -0.3981
 7702SOL    HW134568   2.403   1.127   6.041 -0.3057  0.8911 -0.7956
 7702SOL    HW234569   2.435   1.146   5.914 -0.7622  0.8370  0.2564
 7703SOL     OW34570   2.958   1.512   4.974  0.4012  0.1926  0.1788
 7703SOL    HW134571   2.983   1.572   4.904 -1.5998  0.4443 -0.3085
 7703SOL    HW234572   3.042   1.489   5.014  0.1134  1.5439  1.5427
 7704SOL     OW34573   0.831   1.787  16.284  0.2730 -0.4792 -0.0769
 7704SOL    HW134574   0.914   1.833  16.301  0.6609 -1.3277  0.3417
 7704SOL    HW234575   0.837   1.768  16.191 -0.9403  1.5818 -0.5692
 7705SOL     OW34576   3.754   0.977   4.490 -0.2612 -0.0346 -0.3383
 7705SOL    HW134577   3.829   1.036   4.478  0.2910 -0.6386  0.1476
 7705SOL    HW234578   3.688   1.040   4.519 -0.7041 -0.6095 -0.1132
 7706SOL     OW34579   3.206   1.918  14.548  0.0794  0.0547 -0.3581
 7706SOL    HW134580   3.140   1.939  14.615  0.7530  0.7683  0.0858
 7706SOL    HW234581   3.286   1.928  14.600  0.0027 -1.1342 -0.0080
 7707SOL     OW34582   4.565   2.166   7.435 -0.2999 -0.1095  0.3174
 7707SOL    HW134583   4.536   2.250   7.470 -4.2323 -1.8467  1.1817
 7707SOL    HW234584   4.490   2.138   7.383  0.9408 -1.8113 -0.5681
 7708SOL     OW34585   0.597   2.345   9.291  0.1672 -0.2256 -0.7295
 7708SOL    HW134586   0.528   2.378   9.349  2.3616  1.8226  0.7086
 7708SOL    HW234587   0.675   2.357   9.345  1.0135 -0.6003 -1.8570
 7709SOL     OW34588   4.329   0.741   3.790 -0.2898  0.3147  0.4521
 7709SOL    HW134589   4.329   0.738   3.695 -1.1512 -0.8077  0.4788
 7709SOL    HW234590   4.257   0.678   3.800 -0.7063  0.6072 -0.7734
 7710SOL     OW34591   3.796   3.978   7.903  0.0270  0.6477 -0.1669
 7710SOL    HW134592   3.832   3.953   7.818 -1.3359 -0.3513 -0.4517
 7710SOL    HW234593   3.832   4.066   7.915  1.4969  0.2545 -1.7583
 7711SOL     OW34594   0.466   0.968  12.188 -0.1921 -0.1420 -0.5677
 7711SOL    HW134595   0.452   0.985  12.095 -2.3884 -0.1918 -0.2267
 7711SOL    HW234596   0.498   1.054  12.216 -0.6417  0.5456 -2.1978
 7712SOL     OW34597   0.416   1.676   6.359  0.1498  0.3289  0.0682
 7712SOL    HW134598   0.491   1.732   6.338 -0.0883 -0.2174 -2.2270
 7712SOL    HW234599   0.428   1.666   6.453 -0.9128  0.2244  0.1987
 7713SOL     OW34600   0.861   0.233   6.949 -0.0080 -0.1690  0.2172
 7713SOL    HW134601   0.844   0.139   6.944  0.1887 -0.1409 -1.0714
 7713SOL    HW234602   0.772   0.267   6.960 -1.3564 -3.3299 -0.6793
 7714SOL     OW34603   1.515   0.865   9.182  0.1530  0.0131 -0.1343
 7714SOL    HW134604   1.424   0.891   9.166 -0.0912  0.0388  1.2718
 7714SOL    HW234605   1.556   0.938   9.136 -2.3383  1.7442  0.3935
 7715SOL     OW34606   1.722   0.864   7.311  0.1818  0.1846  0.1477
 7715SOL    HW134607   1.658   0.797   7.289 -0.2201  0.3119  0.9268
 7715SOL    HW234608   1.734   0.845   7.404  0.2465 -1.5117 -0.2051
 7716SOL     OW34609   2.295   0.632   4.039 -0.0770 -0.3617 -0.0472
 7716SOL    HW134610   2.234   0.588   4.099  0.2602 -0.3866  0.2799
 7716SOL    HW234611   2.383   0.600   4.062 -0.7879 -2.4217 -0.1618
 7717SOL     OW34612   1.072   4.359   1.837 -0.5104 -0.3452  0.3305
 7717SOL    HW134613   1.030   4.282   1.799  0.3042  0.4887 -2.2190
 7717SOL    HW234614   1.019   4.390   1.911 -0.0991  0.0283  0.4709
 7718SOL     OW34615   0.667   0.880   7.949 -0.3536 -0.0142  0.0410
 7718SOL    HW134616   0.608   0.821   7.901  0.1054  0.9239 -1.6639
 7718SOL    HW234617   0.606   0.936   7.996 -1.8977 -2.8409  1.4493
 7719SOL     OW34618   0.881   1.705   5.387 -0.5029  0.5704  0.2169
 7719SOL    HW134619   0.853   1.617   5.410 -1.7256  0.7445 -0.6471
 7719SOL    HW234620   0.917   1.690   5.300  0.3686  0.2536  0.6334
 7720SOL     OW34621   0.768   3.094   6.896 -0.3005  0.2157  0.1336
 7720SOL    HW134622   0.697   3.131   6.843 -0.1833 -0.2383 -0.3415
 7720SOL    HW234623   0.841   3.127   6.843  1.5689 -1.3274  1.7613
 7721SOL     OW34624   1.765   0.179   5.570  0.1158 -0.4562 -0.4249
 7721SOL    HW134625   1.839   0.219   5.523 -2.0541  2.0126 -1.8136
 7721SOL    HW234626   1.701   0.249   5.554  1.3771  0.7529 -0.2377
 7722SOL     OW34627   4.638   1.924   2.938  0.0300 -0.1940  0.4095
 7722SOL    HW134628   4.558   1.921   2.991 -2.7486 -1.2355 -3.8408
 7722SOL    HW234629   4.684   1.851   2.979  0.5273  0.7779  1.5942
 7723SOL     OW34630   1.816   2.778   3.999  0.2499  0.1709 -0.1871
 7723SOL    HW134631   1.845   2.832   4.073  1.1713  0.1011 -0.5033
 7723SOL    HW234632   1.868   2.697   4.009  0.2781  0.2580  0.3956
 7724SOL     OW34633   3.486   3.036   1.699 -0.2623  0.0121 -0.3207
 7724SOL    HW134634   3.522   3.096   1.764  1.0994 -0.3198 -0.7876
 7724SOL    HW234635   3.427   3.092   1.649 -1.0335  1.1444  1.8433
 7725SOL     OW34636   1.412   1.547  10.704 -0.0265 -0.4415 -0.1241
 7725SOL    HW134637   1.378   1.516  10.620  1.0007  1.5262 -1.2676
 7725SOL    HW234638   1.494   1.498  10.707 -0.1612 -0.6973 -0.5561
 7726SOL     OW34639   2.239   2.524   9.041 -0.0450  0.3572  0.2528
 7726SOL    HW134640   2.247   2.441   8.996  1.3545  0.5083  0.2204
 7726SOL    HW234641   2.207   2.585   8.974  0.1397  1.2865  1.0037
 7727SOL     OW34642   1.301   3.592   0.781  0.3293 -0.0536  0.0631
 7727SOL    HW134643   1.389   3.579   0.817  0.2040 -0.0269  0.3734
 7727SOL    HW234644   1.309   3.551   0.695 -1.2035  1.2687 -0.6879
 7728SOL     OW34645   2.035   3.961   4.309 -0.4053 -0.1029 -0.1295
 7728SOL    HW134646   1.940   3.957   4.297 -0.3566 -0.1664 -0.4941
 7728SOL    HW234647   2.036   4.039   4.365 -0.9908 -0.4175  0.3170
 7729SOL     OW34648   2.265   1.744   6.032 -0.0547 -0.1691  0.4605
 7729SOL    HW134649   2.293   1.830   6.062  1.0519  0.4733 -2.3870
 7729SOL    HW234650   2.246   1.702   6.116 -0.2609 -2.6982 -0.8411
 7730SOL     OW34651   1.044   2.717   8.838  0.1515  0.2024  0.3204
 7730SOL    HW134652   1.045   2.684   8.748 -0.7663 -1.9906  1.1239
 7730SOL    HW234653   0.975   2.782   8.829 -0.9440 -1.2182 -1.4648
 7731SOL     OW34654   2.261   2.906   4.053  0.3135  0.0779 -0.4030
 7731SOL    HW134655   2.342   2.957   4.054 -0.8827  2.0209 -1.0275
 7731SOL    HW234656   2.249   2.898   3.958 -1.6178 -0.4537 -0.1171
 7732SOL     OW34657   4.153   2.585   5.885 -0.7639 -0.1050  0.2011
 7732SOL    HW134658   4.216   2.522   5.851 -1.4448 -0.7308  0.0865
 7732SOL    HW234659   4.148   2.544   5.972 -2.7575  0.3286  0.2902
 7733SOL     OW34660   1.619   0.319   6.035  0.5916  0.2633 -0.0793
 7733SOL    HW134661   1.625   0.275   5.950  1.9357 -1.4900  0.9465
 7733SOL    HW234662   1.604   0.241   6.088 -0.1376  0.9856  0.7846
 7734SOL     OW34663   0.658   4.385  13.625 -0.0693 -0.0189  0.4169
 7734SOL    HW134664   0.747   4.409  13.599  0.1586 -1.2233  0.0646
 7734SOL    HW234665   0.616   4.386  13.539 -0.7721 -1.2299  0.7468
 7735SOL     OW34666   3.362   3.433   4.110  0.0539 -0.1338 -0.7350
 7735SOL    HW134667   3.451   3.467   4.103  0.6442 -1.4472  0.4307
 7735SOL    HW234668   3.379   3.342   4.137  0.1212  0.2318  0.4541
 7736SOL     OW34669   1.618   2.945   3.332  0.6681 -0.3590 -0.1098
 7736SOL    HW134670   1.558   2.943   3.406 -0.1782 -1.0476 -0.8111
 7736SOL    HW234671   1.658   2.858   3.330  1.4600  0.0225 -0.9644
 7737SOL     OW34672   3.956   0.852   2.725 -0.1833  0.4651  0.5209
 7737SOL    HW134673   4.038   0.805   2.707  0.8515  2.4195  0.1504
 7737SOL    HW234674   3.989   0.940   2.740  0.4309  0.2387  0.5071
 7738SOL     OW34675   3.587   3.172   5.750 -0.1454 -0.5125  0.4038
 7738SOL    HW134676   3.578   3.204   5.840 -0.4808  0.3792  0.0533
 7738SOL    HW234677   3.669   3.211   5.721 -0.0886 -0.0612  1.1861
 7739SOL     OW34678   4.356   2.663  11.510 -0.1768  0.7242 -0.7089
 7739SOL    HW134679   4.391   2.575  11.497 -2.0469 -0.3596  1.7805
 7739SOL    HW234680   4.428   2.720  11.481 -1.7683  3.3978  0.6375
 7740SOL     OW34681   2.476   0.639   1.048 -0.2287  0.0971  0.4167
 7740SOL    HW134682   2.564   0.600   1.045 -0.1128  0.4081 -0.1976
 7740SOL    HW234683   2.427   0.588   0.985  3.2219 -0.1890 -2.0435
 7741SOL     OW34684   3.832   2.218   2.586 -0.5339  0.1026 -0.4240
 7741SOL    HW134685   3.819   2.151   2.653 -0.6913  1.0367  0.4807
 7741SOL    HW234686   3.816   2.169   2.505 -1.2830 -1.9902  1.0101
 7742SOL     OW34687   0.340   2.758   1.868  0.9350  0.4114 -0.6232
 7742SOL    HW134688   0.427   2.735   1.901  1.0741  2.3146  0.3288
 7742SOL    HW234689   0.348   2.834   1.811  0.7839  1.1708  0.3686
 7743SOL     OW34690   1.411   2.641   4.773  0.2538 -0.3944 -0.6704
 7743SOL    HW134691   1.423   2.716   4.832 -1.4675 -2.1470  1.9001
 7743SOL    HW234692   1.436   2.686   4.692  0.6006 -0.9901 -0.8919
 7744SOL     OW34693   0.644   3.449   4.264  0.1254 -0.3293 -0.0847
 7744SOL    HW134694   0.636   3.417   4.353 -1.2070 -1.0816 -0.4753
 7744SOL    HW234695   0.574   3.514   4.276  1.3119  0.9345 -0.0160
 7745SOL     OW34696   1.104   2.755  14.763 -0.3479 -0.2685  0.4164
 7745SOL    HW134697   1.014   2.750  14.795  0.1848 -0.2995  1.9203
 7745SOL    HW234698   1.149   2.749  14.847 -2.3423  0.6353  1.5445
 7746SOL     OW34699   0.952   2.528   5.030 -0.4275 -0.0897 -0.3196
 7746SOL    HW134700   0.907   2.612   5.040  3.5674  1.9686  0.3284
 7746SOL    HW234701   1.032   2.561   4.991 -0.3299 -0.6151 -0.5669
 7747SOL     OW34702   1.542   2.544   7.459  0.1963 -0.0930  0.0264
 7747SOL    HW134703   1.450   2.567   7.450  1.0336  3.5668  0.7880
 7747SOL    HW234704   1.547   2.536   7.555 -3.9248 -0.6455  0.1939
 7748SOL     OW34705   3.958   1.394   4.781 -0.0687  0.2817 -0.1741
 7748SOL    HW134706   3.888   1.401   4.715  0.1072 -1.9711 -0.5881
 7748SOL    HW234707   3.959   1.300   4.796  0.3796  0.0492 -1.6438
 7749SOL     OW34708   0.661   4.391   5.141 -0.1454 -0.0927 -0.0408
 7749SOL    HW134709   0.602   4.345   5.201 -2.4736 -0.0869 -2.3292
 7749SOL    HW234710   0.613   4.471   5.118  2.3026  1.5435  0.5555
 7750SOL     OW34711   3.914   1.096   7.066  0.5115  0.1465  0.9995
 7750SOL    HW134712   3.932   1.190   7.064  2.7221 -0.2870  0.8840
 7750SOL    HW234713   3.846   1.090   6.998  1.6486 -1.0690 -0.0238
 7751SOL     OW34714   3.783   3.063  12.241 -0.1223 -0.0069  0.6612
 7751SOL    HW134715   3.779   3.022  12.327 -0.0157  0.1005  0.7173
 7751SOL    HW234716   3.876   3.056  12.218 -0.2930 -1.5888  0.4475
 7752SOL     OW34717   2.273   2.953  12.004  0.5684  0.4801  0.0659
 7752SOL    HW134718   2.203   2.899  12.041  0.2066 -0.6357 -2.1931
 7752SOL    HW234719   2.348   2.893  12.001  1.3706  1.4301  1.5660
 7753SOL     OW34720   1.359   4.042   3.007 -0.5340 -0.1319  0.2623
 7753SOL    HW134721   1.298   4.094   2.956  1.6367  0.3686 -1.8497
 7753SOL    HW234722   1.310   3.960   3.008 -1.3693  0.3946  1.5323
 7754SOL     OW34723   3.205   4.133  11.154 -0.3473  0.7475 -0.6395
 7754SOL    HW134724   3.205   4.064  11.220 -0.0320  0.2875 -1.1214
 7754SOL    HW234725   3.160   4.200  11.205 -1.1044 -1.5895  1.7479
 7755SOL     OW34726   2.391   4.280  15.843  0.2544  0.7380 -0.2955
 7755SOL    HW134727   2.396   4.375  15.829 -3.0893  0.9597  0.0148
 7755SOL    HW234728   2.453   4.260  15.773 -1.1484  0.6007 -1.4911
 7756SOL     OW34729   1.796   4.655  11.516 -0.5790 -0.2470 -0.1546
 7756SOL    HW134730   1.851   4.724  11.478  0.8941 -0.4467  1.6140
 7756SOL    HW234731   1.728   4.640  11.450 -1.7584 -1.3280  1.3101
 7757SOL     OW34732   2.849   0.928   4.251  0.3241 -0.0810 -0.4554
 7757SOL    HW134733   2.865   0.896   4.162 -0.2228  0.8301 -0.8768
 7757SOL    HW234734   2.934   0.917   4.294  0.7009 -1.0036 -1.4423
 7758SOL     OW34735   0.848   2.727   9.082  0.0189 -0.5196  0.1711
 7758SOL    HW134736   0.935   2.689   9.092  0.2341  0.5142  2.2184
 7758SOL    HW234737   0.859   2.816   9.116  1.7785 -0.8207  0.3586
 7759SOL     OW34738   2.119   4.568   7.749  0.1200  0.4036 -0.0935
 7759SOL    HW134739   2.210   4.565   7.779  0.7269 -0.5458 -2.0317
 7759SOL    HW234740   2.086   4.483   7.778 -0.1931 -0.1449 -2.0530
 7760SOL     OW34741   2.732   1.678  13.799  0.5455 -0.0998  0.1594
 7760SOL    HW134742   2.780   1.747  13.753 -3.8903  2.6247 -0.3685
 7760SOL    HW234743   2.664   1.731  13.839  1.7846  0.5573  1.3985
 7761SOL     OW34744   3.168   2.604   2.410  0.6077  0.1796 -0.5598
 7761SOL    HW134745   3.238   2.560   2.459  0.8933 -0.1492 -1.2668
 7761SOL    HW234746   3.212   2.689   2.408  1.3241 -0.2356 -2.2479
 7762SOL     OW34747   2.242   4.303   1.173  0.2982  0.1072  0.1603
 7762SOL    HW134748   2.323   4.353   1.162  1.1771 -1.2106  0.5555
 7762SOL    HW234749   2.176   4.363   1.138 -1.5361 -0.5160  2.5274
 7763SOL     OW34750   3.179   3.335   2.864 -0.5938 -0.5089  0.5567
 7763SOL    HW134751   3.172   3.341   2.959  2.6314 -0.8348  0.8125
 7763SOL    HW234752   3.155   3.421   2.830  1.1875 -0.6343 -0.9949
 7764SOL     OW34753   3.836   4.262   0.438  0.0162  0.5551  0.0758
 7764SOL    HW134754   3.785   4.343   0.428 -0.1996  0.4615  0.4097
 7764SOL    HW234755   3.914   4.290   0.486  0.3163  1.3635 -0.8988
 7765SOL     OW34756   3.266   1.445   2.891 -0.1942  0.0041 -0.5483
 7765SOL    HW134757   3.205   1.448   2.817  0.8376 -3.3831 -1.5185
 7765SOL    HW234758   3.340   1.502   2.869 -1.4291  1.6925 -0.4059
 7766SOL     OW34759   3.211   4.213   9.368 -0.0530 -0.5850 -0.4393
 7766SOL    HW134760   3.215   4.118   9.374  1.7505 -0.3793  1.4586
 7766SOL    HW234761   3.132   4.232   9.317 -1.6200 -4.1677  0.6441
 7767SOL     OW34762   3.450   1.200  12.987 -0.1200  0.0627  0.6224
 7767SOL    HW134763   3.534   1.246  12.985  0.3385 -0.8678 -2.4190
 7767SOL    HW234764   3.467   1.117  12.941  0.7792  0.4536  0.2387
 7768SOL     OW34765   4.515   0.595   8.173  0.0897 -0.3525  0.3221
 7768SOL    HW134766   4.560   0.625   8.252 -0.7226  2.1948 -0.1770
 7768SOL    HW234767   4.586   0.591   8.110 -1.0898 -2.6873 -0.8614
 7769SOL     OW34768   1.930   1.494   6.855 -0.0956 -0.1988  0.0782
 7769SOL    HW134769   1.969   1.581   6.869 -0.6124  0.0931 -0.2694
 7769SOL    HW234770   1.936   1.490   6.759 -3.6689  3.6960 -0.3239
 7770SOL     OW34771   1.309   2.226   7.487  0.0146 -0.4920 -0.0818
 7770SOL    HW134772   1.398   2.211   7.454  1.2006 -0.3969  3.0024
 7770SOL    HW234773   1.336   2.250   7.576 -0.3477 -0.4493  0.0153
 7771SOL     OW34774   2.725   3.649   7.262  0.2619  0.4564  0.1781
 7771SOL    HW134775   2.654   3.637   7.200  1.4940 -0.1045 -1.1226
 7771SOL    HW234776   2.799   3.611   7.214 -0.1757  0.4443 -0.4799
 7772SOL     OW34777   0.524   2.056  15.088  0.1737 -0.0732  0.2872
 7772SOL    HW134778   0.500   2.020  15.173 -1.3534 -1.7402 -0.8603
 7772SOL    HW234779   0.440   2.039  15.046 -0.6379  0.1379  1.7989
 7773SOL     OW34780   3.908   2.302   2.023 -0.6393  0.2753 -0.1493
 7773SOL    HW134781   3.970   2.311   1.950 -1.0726  0.9934 -0.4265
 7773SOL    HW234782   3.954   2.221   2.048 -1.2603  0.1016  0.4358
 7774SOL     OW34783   0.119   0.441   3.536  0.0872  0.0758 -0.3491
 7774SOL    HW134784   0.194   0.494   3.561 -1.4672  2.2472 -0.3354
 7774SOL    HW234785   0.073   0.504   3.481 -0.7022 -1.2126 -1.1813
 7775SOL     OW34786   1.783   2.338   2.136 -0.6692 -0.3825  0.0524
 7775SOL    HW134787   1.845   2.411   2.137 -0.4945 -0.5177 -1.9341
 7775SOL    HW234788   1.846   2.267   2.140 -1.1599 -0.8267 -0.0777
 7776SOL     OW34789   3.520   1.054   7.992  0.2489  0.3126  0.3491
 7776SOL    HW134790   3.471   1.045   8.074  1.2217 -3.5838  0.4898
 7776SOL    HW234791   3.530   1.149   7.990  0.2364  0.3258  1.2492
 7777SOL     OW34792   2.089   2.747  16.280  0.1043  0.4018 -0.0996
 7777SOL    HW134793   2.135   2.813  16.332 -1.4385  2.0425 -0.8383
 7777SOL    HW234794   2.093   2.788  16.193  1.1237  0.7467  0.1082
 7778SOL     OW34795   3.388   1.900  15.418 -0.3133 -0.2604  0.1861
 7778SOL    HW134796   3.452   1.870  15.353  0.3924 -0.1766  0.8294
 7778SOL    HW234797   3.367   1.830  15.481 -1.9091 -0.2866 -0.3864
 7779SOL     OW34798   2.774   4.384  12.128 -0.4941 -0.0886  0.0202
 7779SOL    HW134799   2.845   4.448  12.121  0.4959 -1.0568  1.1291
 7779SOL    HW234800   2.750   4.371  12.036 -2.8917  1.8972  0.3696
 7780SOL     OW34801   0.088   0.579  11.424  0.7513  0.6604  0.0398
 7780SOL    HW134802   0.077   0.547  11.514  4.1294 -1.4976 -0.2940
 7780SOL    HW234803   0.119   0.668  11.443 -0.4655  0.8601  1.1052
 7781SOL     OW34804   0.719   3.523   7.906 -0.7207 -0.7895 -0.3434
 7781SOL    HW134805   0.711   3.520   7.810 -1.8399 -1.4297 -0.2318
 7781SOL    HW234806   0.699   3.614   7.925 -0.8442 -0.9342  0.2072
 7782SOL     OW34807   3.614   3.670   7.088  0.4507  0.4510  0.5129
 7782SOL    HW134808   3.555   3.599   7.065  0.7830  0.5673 -0.7077
 7782SOL    HW234809   3.619   3.660   7.183  1.4858 -0.1720  0.3983
 7783SOL     OW34810   1.408   3.351   5.473 -0.3415 -0.0253 -0.3708
 7783SOL    HW134811   1.335   3.367   5.533  0.4520  1.8161  0.0902
 7783SOL    HW234812   1.371   3.370   5.387  1.0823  1.9517 -0.5516
 7784SOL     OW34813   3.695   2.743   7.362 -0.3611  0.4711 -0.2555
 7784SOL    HW134814   3.711   2.838   7.363 -0.0059  0.4137 -1.0401
 7784SOL    HW234815   3.611   2.726   7.320  0.1340 -0.1379 -0.9918
 7785SOL     OW34816   3.684   1.046   3.799 -0.0651  0.5408  0.2630
 7785SOL    HW134817   3.630   0.967   3.798 -0.2508  0.6479  3.4398
 7785SOL    HW234818   3.647   1.101   3.868 -0.8503 -2.3673  2.1296
 7786SOL     OW34819   2.757   3.439  11.268  0.2823  0.0257 -0.2817
 7786SOL    HW134820   2.840   3.483  11.254  0.4537 -0.0900  0.3840
 7786SOL    HW234821   2.762   3.419  11.361 -0.3809 -1.8152 -0.6398
 7787SOL     OW34822   3.168   1.430   1.400 -0.5224 -0.5899  0.2721
 7787SOL    HW134823   3.143   1.383   1.479  0.0661 -1.9065 -0.3291
 7787SOL    HW234824   3.183   1.356   1.341  1.3433  0.6728 -0.8468
 7788SOL     OW34825   0.930   0.269   7.564  0.0226 -0.1261 -0.6595
 7788SOL    HW134826   0.898   0.192   7.517  1.3529  0.2903 -2.2615
 7788SOL    HW234827   0.988   0.308   7.499 -0.6944  0.9269 -0.6594
 7789SOL     OW34828   4.588   2.704   2.558  0.1780 -0.4973 -0.0857
 7789SOL    HW134829   4.636   2.703   2.475 -0.4206 -1.4815 -0.4251
 7789SOL    HW234830   4.585   2.611   2.579  2.3949 -0.0202  2.2934
 7790SOL     OW34831   2.803   4.471   7.044  0.0278 -0.1205 -0.4095
 7790SOL    HW134832   2.846   4.416   7.110 -0.0561  0.2301 -0.0642
 7790SOL    HW234833   2.816   4.421   6.963  1.7406 -0.4891  0.0835
 7791SOL     OW34834   4.388   2.519   3.077  0.0391 -0.1983 -0.3001
 7791SOL    HW134835   4.467   2.546   3.028 -0.6474  1.6694 -0.3832
 7791SOL    HW234836   4.316   2.570   3.041  1.2055  0.3284 -1.8853
 7792SOL     OW34837   3.958   0.415   3.689  0.1581  0.0456  0.9776
 7792SOL    HW134838   3.892   0.392   3.624  2.4989 -0.0718 -1.3914
 7792SOL    HW234839   3.979   0.508   3.677 -2.3364  0.4133 -0.5007
 7793SOL     OW34840   1.749   1.199   9.605 -0.2186  0.3520 -0.2612
 7793SOL    HW134841   1.744   1.210   9.510 -2.6790 -1.2279 -0.3199
 7793SOL    HW234842   1.844   1.207   9.611 -0.3272  0.1881  1.8639
 7794SOL     OW34843   0.531   0.487  13.439 -0.0963 -0.4964  0.3108
 7794SOL    HW134844   0.546   0.572  13.480 -2.0314  1.0448 -2.1799
 7794SOL    HW234845   0.545   0.508  13.346 -0.9708  0.7101  0.4566
 7795SOL     OW34846   2.403   1.358   3.630 -0.1855 -0.9917  0.0489
 7795SOL    HW134847   2.489   1.397   3.613  0.0315 -2.1085 -1.4148
 7795SOL    HW234848   2.373   1.345   3.540  2.3620 -0.5134 -0.8864
 7796SOL     OW34849   1.671   3.840   3.192 -0.0143 -0.2315  0.5595
 7796SOL    HW134850   1.681   3.820   3.285 -1.6376  0.5904  0.9117
 7796SOL    HW234851   1.760   3.829   3.160  0.3552  1.6434  0.9849
 7797SOL     OW34852   0.777   1.575   5.960  0.3740  0.1229 -0.6375
 7797SOL    HW134853   0.759   1.484   5.984 -0.5676  0.7410  1.0209
 7797SOL    HW234854   0.742   1.625   6.035  0.7457 -1.9638  0.9174
 7798SOL     OW34855   4.024   2.480   7.962  0.8387  0.4918 -0.1656
 7798SOL    HW134856   4.009   2.409   7.900 -1.4457  0.0207  0.9306
 7798SOL    HW234857   4.120   2.473   7.961  0.7510  0.0782 -3.6384
 7799SOL     OW34858   4.210   2.012   6.789  0.0197 -0.6851  0.1326
 7799SOL    HW134859   4.174   2.100   6.783  0.8736 -0.1761  2.5684
 7799SOL    HW234860   4.214   2.006   6.885  0.9232 -2.0183  0.0098
 7800SOL     OW34861   1.142   4.637   6.914 -0.7818  0.5847  0.0399
 7800SOL    HW134862   1.198   4.701   6.871  0.7008 -0.8770 -0.1949
 7800SOL    HW234863   1.065   4.646   6.858  0.5067 -0.3157 -1.8632
 7801SOL     OW34864   0.843   0.199  12.985  0.2340 -0.1386 -0.5014
 7801SOL    HW134865   0.829   0.246  12.904  0.0274  1.7389  0.6282
 7801SOL    HW234866   0.916   0.141  12.964 -0.4459 -1.0087 -0.4738
 7802SOL     OW34867   3.703   0.069   8.340  0.1086 -0.4795 -0.1671
 7802SOL    HW134868   3.644   0.123   8.393  2.2901  1.2032  0.5655
 7802SOL    HW234869   3.676   0.100   8.254 -1.8791 -0.3330  0.5059
 7803SOL     OW34870   1.912   3.252   5.368 -0.0945 -0.4170 -0.0595
 7803SOL    HW134871   1.833   3.204   5.392 -0.3981 -0.5585 -1.3176
 7803SOL    HW234872   1.978   3.204   5.418  2.3617  1.6243 -1.2869
 7804SOL     OW34873   1.022   1.621   7.748 -0.0354 -0.5286  0.4762
 7804SOL    HW134874   1.106   1.586   7.718  2.0372  2.2921  3.0029
 7804SOL    HW234875   1.051   1.698   7.797 -1.3854 -0.7722  1.6544
 7805SOL     OW34876   0.373   0.509   3.658  0.1852  0.1286 -0.0563
 7805SOL    HW134877   0.408   0.425   3.627  1.4933  1.6064 -2.5751
 7805SOL    HW234878   0.423   0.569   3.603 -0.9636  1.6687  0.5915
 7806SOL     OW34879   2.095   3.379   6.351 -0.1453  0.7767 -0.2146
 7806SOL    HW134880   2.076   3.455   6.407  2.3880 -0.9974  3.0439
 7806SOL    HW234881   2.139   3.315   6.407 -1.9860 -0.3509 -0.0582
 7807SOL     OW34882   4.406   2.917   9.363 -0.2825  1.0813  0.2111
 7807SOL    HW134883   4.450   2.882   9.286 -2.9627  0.3491 -0.9811
 7807SOL    HW234884   4.315   2.900   9.341 -0.3082  0.5940  0.6846
 7808SOL     OW34885   0.262   1.268   8.807 -0.2371 -0.2883  0.2494
 7808SOL    HW134886   0.338   1.317   8.778 -0.5951 -1.8128 -3.2795
 7808SOL    HW234887   0.265   1.188   8.754  1.8248 -0.1068  0.1140
 7809SOL     OW34888   2.694   3.551   8.421 -0.1406  0.3215 -0.4723
 7809SOL    HW134889   2.711   3.603   8.342  0.9183 -0.4781 -0.7696
 7809SOL    HW234890   2.754   3.594   8.483  0.3424  0.0958 -0.7799
 7810SOL     OW34891   3.031   3.006   1.595 -0.5353  0.2070  0.3316
 7810SOL    HW134892   2.959   3.064   1.621 -3.5953 -2.9998 -0.9489
 7810SOL    HW234893   3.103   3.035   1.650 -1.2495  2.4662  0.0977
 7811SOL     OW34894   2.027   1.316  12.374 -0.1328 -0.2447  0.3739
 7811SOL    HW134895   1.962   1.366  12.325  0.7821  0.9683  0.4084
 7811SOL    HW234896   2.059   1.386  12.430  0.1847 -1.9627  2.3642
 7812SOL     OW34897   1.233   2.981   4.003 -0.2737 -0.7496 -0.3293
 7812SOL    HW134898   1.279   2.904   4.037  2.2771  1.7528  1.9649
 7812SOL    HW234899   1.276   3.052   4.050 -0.8904 -0.4700 -0.1881
 7813SOL     OW34900   1.439   2.139  12.063 -0.4712  0.1503 -0.3384
 7813SOL    HW134901   1.391   2.222  12.055 -2.6605 -1.0184  0.5810
 7813SOL    HW234902   1.450   2.129  12.158  1.0814  1.4951 -0.3826
 7814SOL     OW34903   2.990   1.831   3.361  0.6414  0.3500  0.3853
 7814SOL    HW134904   3.015   1.785   3.440  1.9235  1.2935  0.5192
 7814SOL    HW234905   2.973   1.921   3.391  1.9413  0.2449  1.4040
 7815SOL     OW34906   1.433   3.714   3.118 -0.3254 -0.1366 -0.1069
 7815SOL    HW134907   1.510   3.665   3.089 -0.4827 -0.9538  0.8845
 7815SOL    HW234908   1.469   3.776   3.182  1.8002 -1.8973  0.3909
 7816SOL     OW34909   4.555   0.603   9.432 -0.1005  0.4179  0.4799
 7816SOL    HW134910   4.469   0.612   9.472 -0.8212 -2.6353 -0.4090
 7816SOL    HW234911   4.592   0.691   9.445 -0.1254  0.1942  2.0057
 7817SOL     OW34912   0.263   4.588   6.877  0.2985 -0.4487 -0.3452
 7817SOL    HW134913   0.220   4.569   6.793 -0.2900  0.9612 -0.3688
 7817SOL    HW234914   0.288   4.497   6.893 -1.0098 -0.4595  1.6130
 7818SOL     OW34915   1.705   4.338   3.217 -0.0345  0.0479 -0.5584
 7818SOL    HW134916   1.646   4.305   3.150 -0.6953  0.7824 -0.3296
 7818SOL    HW234917   1.791   4.304   3.190  0.2976  1.0729 -0.8108
 7819SOL     OW34918   1.898   4.078   4.935  0.6131  0.2921  0.3901
 7819SOL    HW134919   1.923   4.053   5.024  0.0725  1.4560  0.8549
 7819SOL    HW234920   1.976   4.055   4.883 -0.2008 -1.1865 -0.1755
 7820SOL     OW34921   2.527   4.224   9.118  0.5034  0.1614 -0.2085
 7820SOL    HW134922   2.600   4.178   9.159 -1.3520 -1.3252  1.4158
 7820SOL    HW234923   2.530   4.311   9.158 -1.2097 -0.7190  1.8497
 7821SOL     OW34924   0.872   4.467   6.821 -0.3392 -0.1688  0.1514
 7821SOL    HW134925   0.919   4.425   6.749  0.8712 -0.6348  1.2137
 7821SOL    HW234926   0.893   4.415   6.899  2.3715  0.8664  0.1070
 7822SOL     OW34927   0.849   2.994   8.860 -0.7037 -0.4090  0.6792
 7822SOL    HW134928   0.783   3.050   8.900 -1.2524 -0.2479 -0.4490
 7822SOL    HW234929   0.918   3.054   8.833 -2.4304  1.2079 -0.0993
 7823SOL     OW34930   2.118   1.384   2.768  0.6717 -0.4966 -0.4324
 7823SOL    HW134931   2.071   1.407   2.848 -1.8370  1.1084 -2.3907
 7823SOL    HW234932   2.071   1.311   2.728  0.6060  0.0355 -1.3154
 7824SOL     OW34933   3.613   3.024   1.359 -0.2082  0.3097  0.2492
 7824SOL    HW134934   3.606   2.937   1.397  1.7019 -0.4568 -1.2080
 7824SOL    HW234935   3.654   2.998   1.277 -3.1865 -0.5711 -0.9531
 7825SOL     OW34936   2.862   3.839   7.913  1.1052  0.2248  0.3691
 7825SOL    HW134937   2.780   3.789   7.909  1.3867 -0.4811  3.6001
 7825SOL    HW234938   2.849   3.896   7.837  1.7400  0.2050  0.2486
 7826SOL     OW34939   3.149   4.232  11.777 -0.1602 -0.1689 -0.4800
 7826SOL    HW134940   3.209   4.217  11.705  0.0067  1.4215 -0.6697
 7826SOL    HW234941   3.155   4.154  11.832 -0.2686  1.0321  1.2403
 7827SOL     OW34942   1.184   4.661   8.838 -0.0869 -0.5641  0.3818
 7827SOL    HW134943   1.229   4.719   8.899  1.8196 -1.7171  0.0773
 7827SOL    HW234944   1.097   4.663   8.878 -0.3234 -0.9643 -0.1023
 7828SOL     OW34945   2.912   1.925  16.305 -0.2844 -0.0142  0.2597
 7828SOL    HW134946   2.934   1.832  16.300  0.8015  0.2581 -0.1358
 7828SOL    HW234947   2.844   1.932  16.372  0.0799  0.2300  0.6041
 7829SOL     OW34948   4.558   0.493   6.703  0.1077  0.2596  0.1389
 7829SOL    HW134949   4.557   0.587   6.682  2.0856  0.0275 -0.9831
 7829SOL    HW234950   4.464   0.476   6.701 -0.0519  1.1551 -0.1165
 7830SOL     OW34951   1.244   3.387   8.037 -0.0810 -0.0494 -0.1062
 7830SOL    HW134952   1.171   3.325   8.032 -2.0063  2.0707  1.5654
 7830SOL    HW234953   1.200   3.470   8.056 -0.4922  0.1038 -1.7819
 7831SOL     OW34954   0.263   2.972   7.015  0.3154 -0.3436  0.4377
 7831SOL    HW134955   0.235   3.052   6.971 -1.8270 -0.7569  1.0588
 7831SOL    HW234956   0.352   2.984   7.047  0.1561 -0.3686  0.9020
 7832SOL     OW34957   4.396   2.580   4.864  0.9328  0.0108 -0.6526
 7832SOL    HW134958   4.486   2.555   4.884  0.3602 -0.6945  1.0667
 7832SOL    HW234959   4.379   2.498   4.818  1.0613  1.4523 -3.2828
 7833SOL     OW34960   2.262   1.416   2.316 -0.3407 -0.0046  0.0605
 7833SOL    HW134961   2.299   1.383   2.234  0.9499 -1.5004  1.2241
 7833SOL    HW234962   2.317   1.383   2.387  3.9307  1.7027 -2.5211
 7834SOL     OW34963   4.584   1.689   7.244 -0.5421 -0.3722  0.4565
 7834SOL    HW134964   4.662   1.634   7.238 -0.5267 -0.1209 -1.5699
 7834SOL    HW234965   4.622   1.777   7.241 -0.0083 -0.5835  0.9041
 7835SOL     OW34966   4.440   0.285   7.849  0.0349 -0.4162 -0.0030
 7835SOL    HW134967   4.392   0.222   7.902  3.8017 -1.7914  1.7101
 7835SOL    HW234968   4.415   0.250   7.763  2.1355 -0.5686 -0.5512
 7836SOL     OW34969   1.586   1.084  17.595 -0.8439  0.1852 -0.2139
 7836SOL    HW134970   1.660   1.103  17.537 -0.0991 -1.4124  0.2181
 7836SOL    HW234971   1.624   1.032  17.665  1.0023 -0.0629 -1.3871
 7837SOL     OW34972   4.558   3.090   2.666 -0.7060  0.2459  0.6422
 7837SOL    HW134973   4.623   3.143   2.711  2.6245 -0.8916 -2.8159
 7837SOL    HW234974   4.572   3.002   2.699 -1.8635 -0.7562 -1.5209
 7838SOL     OW34975   0.902   1.256   4.450 -1.1069 -0.3894 -0.2339
 7838SOL    HW134976   0.891   1.328   4.389  1.6348 -0.4707 -0.8104
 7838SOL    HW234977   0.869   1.181   4.400  1.9253 -2.3140  0.6124
 7839SOL     OW34978   3.110   3.991  13.516  0.0378 -0.5078  0.4335
 7839SOL    HW134979   3.120   3.964  13.425 -1.2480  1.3003 -0.2272
 7839SOL    HW234980   3.140   4.081  13.517  1.8729 -1.1151  0.2818
 7840SOL     OW34981   2.802   1.087   8.079  0.9222 -0.3165  0.0189
 7840SOL    HW134982   2.809   1.026   8.006  0.7046  2.2603 -2.1732
 7840SOL    HW234983   2.874   1.148   8.060  2.9216 -3.5626 -2.8349
 7841SOL     OW34984   1.534   1.870   9.355  0.1847 -0.1254  0.0986
 7841SOL    HW134985   1.610   1.837   9.307 -0.9125 -2.4035 -0.0434
 7841SOL    HW234986   1.549   1.847   9.447  1.3934 -0.8996 -0.2912
 7842SOL     OW34987   1.571   2.926  16.426 -0.4810  0.4207  0.0391
 7842SOL    HW134988   1.575   2.998  16.489 -2.8112  1.3186 -0.8379
 7842SOL    HW234989   1.603   2.973  16.349 -0.9253 -0.1897 -0.5242
 7843SOL     OW34990   3.577   0.826   4.199 -0.0790 -0.0507  0.2249
 7843SOL    HW134991   3.560   0.917   4.225  0.7257  0.5446 -1.3079
 7843SOL    HW234992   3.586   0.792   4.288  2.9301  1.2687  0.4455
 7844SOL     OW34993   2.292   3.171   3.592  0.1406  0.1933 -0.3776
 7844SOL    HW134994   2.356   3.195   3.659  0.6557 -2.2238 -0.0061
 7844SOL    HW234995   2.329   3.093   3.550  1.3360 -0.0413  1.1367
 7845SOL     OW34996   3.465   1.273  14.102 -0.2018  0.1764  0.4192
 7845SOL    HW134997   3.483   1.342  14.038 -1.4416  1.1470  1.0971
 7845SOL    HW234998   3.475   1.200  14.041  1.1923  0.4258  0.3614
 7846SOL     OW34999   1.466   2.724   0.965 -0.1007  0.2775  0.6831
 7846SOL    HW135000   1.411   2.801   0.956 -0.2404 -0.0105 -0.8621
 7846SOL    HW235001   1.459   2.681   0.880 -2.4827  0.4938  0.7853
 7847SOL     OW35002   2.678   1.298   5.351  0.1405  0.2766 -0.2141
 7847SOL    HW135003   2.755   1.276   5.403 -0.2470 -1.2287 -0.2878
 7847SOL    HW235004   2.651   1.207   5.342 -2.1905  0.8491  0.9137
 7848SOL     OW35005   1.997   1.230   4.847  0.1523  0.0473  0.2717
 7848SOL    HW135006   2.019   1.140   4.823  0.5040  0.4521 -0.8958
 7848SOL    HW235007   2.052   1.246   4.924  2.4376  0.9085 -1.5244
 7849SOL     OW35008   1.131   0.168   0.944 -0.0771 -0.0709  0.0628
 7849SOL    HW135009   1.140   0.260   0.970 -0.1115  0.3358 -1.3424
 7849SOL    HW235010   1.035   0.161   0.938  0.0521  0.2167 -2.3838
 7850SOL     OW35011   2.731   1.521   5.116  0.1909  0.7201  0.4654
 7850SOL    HW135012   2.814   1.506   5.070  0.1053 -2.9138  1.5049
 7850SOL    HW235013   2.726   1.439   5.165 -0.2646  1.4064  1.5697
 7851SOL     OW35014   2.892   1.263   6.049  0.4375  0.0835  0.3549
 7851SOL    HW135015   2.817   1.204   6.057  0.9603 -0.6881 -0.4994
 7851SOL    HW235016   2.869   1.342   6.099  0.1530 -0.8469  1.6923
 7852SOL     OW35017   1.390   0.901  14.807  0.0634  0.4462 -0.2259
 7852SOL    HW135018   1.445   0.823  14.801 -0.4523  0.3563 -3.5827
 7852SOL    HW235019   1.401   0.920  14.900 -1.7474 -1.3683  0.3592
 7853SOL     OW35020   1.682   3.944   6.100  0.4570 -0.9359 -0.2509
 7853SOL    HW135021   1.773   3.957   6.072  0.0041 -1.2291 -1.9099
 7853SOL    HW235022   1.634   3.974   6.022 -0.8691 -1.9026  0.2078
 7854SOL     OW35023   3.746   0.682   2.334 -0.5233 -0.1274  0.0130
 7854SOL    HW135024   3.823   0.654   2.284 -1.1914 -0.6254 -0.7490
 7854SOL    HW235025   3.769   0.771   2.359  2.1992 -1.1909  1.3915
 7855SOL     OW35026   4.620   2.170   3.485  0.3210  0.0576  0.4194
 7855SOL    HW135027   4.537   2.157   3.439  0.7181  2.5380 -0.9699
 7855SOL    HW235028   4.679   2.120   3.428  0.6979  0.8010  0.1572
 7856SOL     OW35029   4.008   2.510   6.424  0.5206 -0.4767  0.0304
 7856SOL    HW135030   3.952   2.450   6.472  0.9589 -1.2170 -0.3899
 7856SOL    HW235031   3.946   2.581   6.407  0.8572 -0.0252  0.6661
 7857SOL     OW35032   3.425   0.446   7.212 -0.2625  0.3219 -0.5154
 7857SOL    HW135033   3.337   0.474   7.187 -0.7239 -0.8572 -0.2054
 7857SOL    HW235034   3.404   0.355   7.236  0.6638  0.2269 -0.0785
 7858SOL     OW35035   0.141   2.931   8.731 -0.4463  0.0866 -0.1501
 7858SOL    HW135036   0.082   3.005   8.747 -0.4806  0.2475 -0.9869
 7858SOL    HW235037   0.095   2.883   8.662 -0.6731 -1.0365  0.7873
 7859SOL     OW35038   3.451   1.256   5.062  0.5254  0.1233 -0.1414
 7859SOL    HW135039   3.428   1.222   5.148  0.2267  0.1570 -0.2058
 7859SOL    HW235040   3.447   1.176   5.010  1.2448 -0.6943  1.0664
 7860SOL     OW35041   3.833   2.725   2.824 -0.4777  0.0935  0.4001
 7860SOL    HW135042   3.800   2.699   2.738  0.0352 -4.5682  1.5952
 7860SOL    HW235043   3.750   2.768   2.845 -0.8537  0.1954 -1.2571
 7861SOL     OW35044   0.205   4.083   1.225  0.6630  0.2670  0.0643
 7861SOL    HW135045   0.195   4.175   1.200 -0.2864 -0.1396 -1.0611
 7861SOL    HW235046   0.296   4.095   1.251  0.7294 -3.1765  1.4368
 7862SOL     OW35047   4.370   3.630  12.100  0.0114 -0.1839 -0.2110
 7862SOL    HW135048   4.375   3.617  12.006 -2.4992  0.9784 -0.4968
 7862SOL    HW235049   4.439   3.574  12.136 -1.4918 -0.2981  2.4889
 7863SOL     OW35050   3.607   4.342  10.546  0.6651  0.3061 -0.5006
 7863SOL    HW135051   3.700   4.343  10.525  1.5583 -1.7135  3.2744
 7863SOL    HW235052   3.566   4.296  10.473  0.6121 -1.3784  0.5814
 7864SOL     OW35053   4.323   4.133  16.714  0.0288 -0.1676 -0.6874
 7864SOL    HW135054   4.266   4.173  16.648 -0.0871  0.0610 -0.4457
 7864SOL    HW235055   4.298   4.186  16.789 -0.9972 -1.3473 -0.1917
 7865SOL     OW35056   1.365   3.131   6.592 -0.8373  0.1844  0.5327
 7865SOL    HW135057   1.295   3.092   6.540  1.1487 -1.2097 -1.1095
 7865SOL    HW235058   1.351   3.077   6.669 -2.1151  2.0636  1.6277
 7866SOL     OW35059   3.694   2.071   0.910 -0.0934 -1.1192  0.1907
 7866SOL    HW135060   3.734   1.994   0.950 -1.4583 -0.9472  1.8432
 7866SOL    HW235061   3.612   2.024   0.899 -0.2933 -0.7048 -0.1046
 7867SOL     OW35062   3.404   0.748   1.899  0.4068  0.0901 -0.2285
 7867SOL    HW135063   3.412   0.804   1.976 -0.3982 -0.2892  0.1282
 7867SOL    HW235064   3.495   0.745   1.869  0.0776 -2.3884 -1.0171
 7868SOL     OW35065   4.536   1.286   7.804  0.0766  0.8239 -0.5978
 7868SOL    HW135066   4.482   1.209   7.823  1.3411 -0.3488 -1.7328
 7868SOL    HW235067   4.497   1.351   7.863  0.5714 -0.3009  0.9812
 7869SOL     OW35068   2.288   0.778   2.313 -0.2197  1.0199  0.2224
 7869SOL    HW135069   2.361   0.831   2.345 -0.0510  0.1866  1.2296
 7869SOL    HW235070   2.330   0.718   2.250 -0.2237  1.8713 -0.5951
 7870SOL     OW35071   1.306   0.427   0.884  0.2030 -0.1298  0.8877
 7870SOL    HW135072   1.377   0.378   0.925 -0.2072 -0.5663  1.0724
 7870SOL    HW235073   1.327   0.407   0.793  1.7586 -0.2815  1.2849
 7871SOL     OW35074   2.234   3.291   5.253 -0.6227  0.0488 -0.1094
 7871SOL    HW135075   2.211   3.282   5.345 -3.3871  1.1840 -0.6922
 7871SOL    HW235076   2.256   3.204   5.220  1.5677 -0.0516  1.6032
 7872SOL     OW35077   2.446   1.272  12.450  0.3800 -0.4222 -0.4664
 7872SOL    HW135078   2.379   1.266  12.383  1.1171  2.8846 -1.4616
 7872SOL    HW235079   2.433   1.355  12.495 -2.4253 -0.8411 -0.4909
 7873SOL     OW35080   0.373   2.585   7.953  0.5355 -0.6705 -0.0477
 7873SOL    HW135081   0.298   2.606   7.897  0.2806 -0.1891  0.4790
 7873SOL    HW235082   0.437   2.560   7.887  0.6262 -0.1354 -0.1573
 7874SOL     OW35083   4.532   1.779   8.295 -0.6057 -0.6032  0.1949
 7874SOL    HW135084   4.608   1.787   8.353  0.8553 -0.3590 -1.7364
 7874SOL    HW235085   4.465   1.789   8.363 -0.2351 -3.4999  0.9594
 7875SOL     OW35086   3.904   4.429   1.085  0.5641 -0.3545 -0.1091
 7875SOL    HW135087   3.932   4.417   1.176  1.2838 -1.3974 -0.4601
 7875SOL    HW235088   3.866   4.516   1.089  0.9623 -0.2302  1.1995
 7876SOL     OW35089   4.046   3.001   1.317 -0.2260 -0.3611  0.3525
 7876SOL    HW135090   4.043   2.991   1.222 -0.9969 -0.9077  0.4365
 7876SOL    HW235091   4.080   3.090   1.316  0.8206 -0.7471  1.3892
 7877SOL     OW35092   0.722   0.747   9.823  0.3990  0.6605 -0.3872
 7877SOL    HW135093   0.668   0.814   9.782  1.4548  2.3234  0.9389
 7877SOL    HW235094   0.648   0.692   9.848  0.5284 -0.0953 -1.6797
 7878SOL     OW35095   2.954   3.732   8.293 -0.5240  0.7354  0.9244
 7878SOL    HW135096   2.975   3.655   8.345 -1.3101 -0.1853 -0.1317
 7878SOL    HW235097   2.961   3.799   8.361 -0.6352  1.8249 -0.1345
 7879SOL     OW35098   3.698   4.613   4.694  0.0436 -0.3153 -0.5221
 7879SOL    HW135099   3.731   4.618   4.605  0.9950 -2.1428 -0.2716
 7879SOL    HW235100   3.606   4.637   4.684 -0.0014  0.2901  1.2559
 7880SOL     OW35101   0.084   2.413  11.469  0.1426  0.5332 -0.6421
 7880SOL    HW135102   0.069   2.503  11.498  2.2646  1.0097 -0.9942
 7880SOL    HW235103   0.051   2.362  11.543  0.7034 -0.3619 -1.0028
 7881SOL     OW35104   2.298   1.964   9.063  0.7131  0.0192 -0.3085
 7881SOL    HW135105   2.348   2.017   9.124  0.2308  2.7594 -2.2810
 7881SOL    HW235106   2.286   1.888   9.119 -2.6044  0.2265 -0.7328
 7882SOL     OW35107   0.039   4.491  12.835 -0.1030 -0.4384  0.0328
 7882SOL    HW135108   4.699   4.521  12.771 -0.1544 -0.3690  0.1154
 7882SOL    HW235109   0.117   4.476  12.781 -1.1415 -2.4015 -0.8962
 7883SOL     OW35110   4.518   2.475  14.136  0.3390  0.2284  0.0039
 7883SOL    HW135111   4.574   2.515  14.070  1.0915  1.5383  1.4388
 7883SOL    HW235112   4.488   2.393  14.096  2.1944 -0.3101 -0.2488
 7884SOL     OW35113   0.306   3.206   8.472  0.5222 -0.0194 -0.2309
 7884SOL    HW135114   0.293   3.191   8.566 -1.2202  1.0540 -0.2944
 7884SOL    HW235115   0.231   3.172   8.423  0.3452 -1.8993  1.3611
 7885SOL     OW35116   1.343   3.749   9.762 -0.0585 -0.3326  0.1595
 7885SOL    HW135117   1.373   3.762   9.672  0.9509  0.8096  0.6486
 7885SOL    HW235118   1.427   3.728   9.804  0.4452 -2.8375 -2.1552
 7886SOL     OW35119   0.994   0.916   2.999 -0.2393  0.1361 -0.2064
 7886SOL    HW135120   0.940   0.897   3.076  1.8070  0.8524  1.4183
 7886SOL    HW235121   0.985   1.011   2.996 -1.1397  0.0200 -1.1376
 7887SOL     OW35122   1.659   1.452   6.882  0.1212  0.2514 -0.0643
 7887SOL    HW135123   1.648   1.381   6.944  1.9284  0.5264  0.5558
 7887SOL    HW235124   1.753   1.470   6.881  0.1032  0.3437 -0.0269
 7888SOL     OW35125   2.316   2.466  14.221  0.4641  0.1700  0.4525
 7888SOL    HW135126   2.310   2.548  14.170 -1.5911  0.4642  1.1786
 7888SOL    HW235127   2.402   2.437  14.191 -0.7736 -2.8926 -0.0483
 7889SOL     OW35128   0.542   4.235   7.584  0.0631 -0.3595 -0.6775
 7889SOL    HW135129   0.521   4.144   7.564 -0.8954 -0.1116 -0.8163
 7889SOL    HW235130   0.624   4.238   7.535  0.5770 -2.1733  0.1016
 7890SOL     OW35131   3.107   0.138   6.093 -0.2088  0.4348  0.0688
 7890SOL    HW135132   3.095   0.049   6.125  3.5416 -0.0397  0.1011
 7890SOL    HW235133   3.029   0.145   6.038 -0.2461 -0.9601 -0.0605
 7891SOL     OW35134   2.998   1.822   5.536 -0.1444  0.3642  0.2710
 7891SOL    HW135135   2.980   1.867   5.618 -0.4357 -0.5867  0.7326
 7891SOL    HW235136   2.938   1.748   5.544 -0.9553  0.8676 -1.1399
 7892SOL     OW35137   4.363   4.591   6.268 -0.0632 -0.2172 -0.3464
 7892SOL    HW135138   4.402   4.504   6.266 -2.0039 -1.1093  1.1097
 7892SOL    HW235139   4.414   4.638   6.201  0.4277  0.7746  0.7345
 7893SOL     OW35140   2.643   0.528   6.187  0.0096 -0.4802 -0.4572
 7893SOL    HW135141   2.727   0.483   6.182  0.8233  0.9226  0.6787
 7893SOL    HW235142   2.632   0.554   6.278 -0.2228  1.3342 -0.9902
 7894SOL     OW35143   4.148   0.889   9.437  0.0640 -0.1315  0.1626
 7894SOL    HW135144   4.196   0.957   9.389 -1.8255  1.5410  0.6464
 7894SOL    HW235145   4.062   0.927   9.420  0.7348  1.8961  1.2373
 7895SOL     OW35146   4.595   2.508   4.022  0.4005 -0.2570 -0.0129
 7895SOL    HW135147   4.551   2.423   4.015 -1.1972  0.6047 -0.4592
 7895SOL    HW235148   4.527   2.564   4.058  0.3775  0.8649 -1.7748
 7896SOL     OW35149   3.887   1.737   1.357 -0.3075 -0.6824 -0.1129
 7896SOL    HW135150   3.849   1.822   1.375 -1.3963 -0.9546 -1.1658
 7896SOL    HW235151   3.838   1.706   1.281 -1.7913  2.4686 -0.4202
 7897SOL     OW35152   0.465   2.420   1.723  0.5834  0.0657 -0.1216
 7897SOL    HW135153   0.370   2.424   1.740  0.5441 -1.8520  0.0965
 7897SOL    HW235154   0.472   2.348   1.661 -1.1943 -0.3654  0.1573
 7898SOL     OW35155   2.535   2.610   5.818 -0.4279 -0.1076  0.2691
 7898SOL    HW135156   2.466   2.633   5.880 -0.1337 -2.4551  1.4580
 7898SOL    HW235157   2.491   2.629   5.735  0.5247  0.1435 -0.1811
 7899SOL     OW35158   3.611   0.022   6.893 -0.3335 -0.0912  0.3941
 7899SOL    HW135159   3.539   0.018   6.956 -0.4894 -1.2140  0.1345
 7899SOL    HW235160   3.576   4.702   6.816  0.7431  0.2322 -0.2806
 7900SOL     OW35161   1.360   3.677   1.657  0.6067 -0.5375 -0.3231
 7900SOL    HW135162   1.368   3.709   1.567  0.2419 -1.1045 -0.5540
 7900SOL    HW235163   1.421   3.735   1.703 -0.0516  0.0391 -0.1632
 7901SOL     OW35164   1.433   2.100   4.271 -0.5411  0.1675  0.0055
 7901SOL    HW135165   1.387   2.184   4.274  1.4456  1.2669 -0.3713
 7901SOL    HW235166   1.500   2.108   4.203 -0.6207 -1.7506 -0.2934
 7902SOL     OW35167   1.011   1.683   6.726 -0.9746  0.1315 -0.0860
 7902SOL    HW135168   0.965   1.753   6.772 -0.1091 -0.7565  2.1339
 7902SOL    HW235169   1.072   1.651   6.792 -0.1385 -0.2707 -1.0354
 7903SOL     OW35170   2.260   3.631   9.047  0.5555 -0.1684 -0.0808
 7903SOL    HW135171   2.225   3.561   8.993 -0.7513 -0.0794  0.6434
 7903SOL    HW235172   2.301   3.574   9.112  0.2396  0.5290  0.7323
 7904SOL     OW35173   1.889   1.012   3.981 -0.7871  0.0732  0.5978
 7904SOL    HW135174   1.827   0.951   3.940 -0.9341  0.4917  0.1857
 7904SOL    HW235175   1.942   0.954   4.034  1.0222 -1.0618 -2.4474
 7905SOL     OW35176   2.892   2.327   5.113 -0.1181 -0.3589 -0.2445
 7905SOL    HW135177   2.844   2.409   5.130  0.0818  0.3118 -2.8832
 7905SOL    HW235178   2.826   2.258   5.121 -0.0108 -0.4086  0.2046
 7906SOL     OW35179   2.919   2.447   4.635  0.6077  0.0302  0.3026
 7906SOL    HW135180   2.885   2.407   4.555  1.1026 -0.1699  0.1963
 7906SOL    HW235181   2.844   2.420   4.690 -1.7016  0.9863 -2.3794
 7907SOL     OW35182   4.560   2.799   4.155 -0.2368  0.1108 -0.7427
 7907SOL    HW135183   4.540   2.707   4.174 -0.6395  0.1637 -0.8937
 7907SOL    HW235184   4.620   2.786   4.082 -0.7198 -0.4214 -1.0426
 7908SOL     OW35185   0.790   2.372  13.738 -0.7396 -0.8334 -0.4634
 7908SOL    HW135186   0.831   2.451  13.773 -0.4762 -0.1643 -2.2718
 7908SOL    HW235187   0.700   2.388  13.766 -0.7739 -1.0371 -0.4544
 7909SOL     OW35188   0.598   4.229   8.158  0.1386 -0.0843 -0.2430
 7909SOL    HW135189   0.529   4.201   8.098 -0.2255 -1.4994  0.8538
 7909SOL    HW235190   0.650   4.149   8.167  1.8856  1.1299  0.5262
 7910SOL     OW35191   1.822   1.558   3.009  0.4189 -0.3148  0.9899
 7910SOL    HW135192   1.857   1.597   2.929 -0.5219 -1.3908  0.0622
 7910SOL    HW235193   1.884   1.484   3.010  0.0716 -0.6211 -0.4407
 7911SOL     OW35194   0.070   0.920   7.722  0.3700  0.0444 -0.3112
 7911SOL    HW135195   0.105   0.837   7.689  2.8251  0.8016  0.3814
 7911SOL    HW235196   0.006   0.885   7.783  1.4347  1.9390  1.8993
 7912SOL     OW35197   2.426   4.431   3.394  0.1638 -0.4329  0.4319
 7912SOL    HW135198   2.347   4.380   3.409 -0.0942 -0.3271 -0.5224
 7912SOL    HW235199   2.443   4.407   3.303 -4.1819  0.9080 -0.7264
 7913SOL     OW35200   1.393   1.579   6.017 -0.0085  0.0868 -0.1695
 7913SOL    HW135201   1.334   1.560   6.089  0.5468  5.4728  1.7259
 7913SOL    HW235202   1.435   1.652   6.062 -2.3165  0.6427  1.0969
 7914SOL     OW35203   4.271   3.417   3.041 -0.5169 -0.3215 -0.1711
 7914SOL    HW135204   4.194   3.364   3.059 -0.6144 -1.1735 -2.9988
 7914SOL    HW235205   4.326   3.348   3.004 -1.1202  0.4209 -2.4714
 7915SOL     OW35206   2.899   3.820   9.027 -0.7082 -1.1390  0.4849
 7915SOL    HW135207   2.923   3.838   9.118 -0.4714 -0.2612  0.2417
 7915SOL    HW235208   2.818   3.776   9.054 -1.4605 -0.3167 -0.4281
 7916SOL     OW35209   0.230   0.052   8.072 -0.4724  0.2413 -0.1652
 7916SOL    HW135210   0.160   0.116   8.058 -0.0893  0.1234 -2.5985
 7916SOL    HW235211   0.310   0.103   8.056  0.5571 -1.6727 -1.0939
 7917SOL     OW35212   1.031   0.630  15.370  0.1793  0.2419  0.5534
 7917SOL    HW135213   0.975   0.603  15.298  0.8954  1.4443 -0.4606
 7917SOL    HW235214   1.020   0.724  15.357 -0.5338  0.1456  0.4658
 7918SOL     OW35215   1.990   2.751   7.845  0.3256 -0.5018  0.2666
 7918SOL    HW135216   1.927   2.683   7.821  0.7424 -0.7800 -0.0474
 7918SOL    HW235217   2.018   2.780   7.758  0.6625 -0.7553  0.2891
 7919SOL     OW35218   1.949   4.708   1.003  0.1555 -0.3413 -0.3517
 7919SOL    HW135219   2.022   4.698   0.943 -0.0785  1.9777 -1.0254
 7919SOL    HW235220   1.987   0.034   1.075 -0.0237 -2.3991  1.2006
 7920SOL     OW35221   4.191   2.911  15.561  0.9294  0.1008 -0.2581
 7920SOL    HW135222   4.162   2.820  15.570 -3.4188  1.6721  1.3959
 7920SOL    HW235223   4.177   2.925  15.467 -1.2975  0.5992  0.1533
 7921SOL     OW35224   1.107   0.934   5.152  0.5044  0.5067 -0.4404
 7921SOL    HW135225   1.137   0.899   5.068 -1.9282 -0.6077 -0.8552
 7921SOL    HW235226   1.087   0.852   5.197  1.5292  0.4609 -0.0837
 7922SOL     OW35227   1.976   3.023   5.997  0.0843 -0.2851 -0.4226
 7922SOL    HW135228   2.010   3.092   6.053  0.2697 -0.3977 -0.3959
 7922SOL    HW235229   2.051   2.966   5.986 -1.2731 -2.0601 -0.5483
 7923SOL     OW35230   4.189   4.630   3.950 -0.2211  0.4499 -0.3534
 7923SOL    HW135231   4.210   4.619   4.043  1.2555 -0.8067 -0.8431
 7923SOL    HW235232   4.259   4.691   3.927 -0.2246  0.8128  0.5981
 7924SOL     OW35233   1.707   0.110   7.797  0.0592  0.5644  0.3748
 7924SOL    HW135234   1.714   0.025   7.840 -2.6538  0.3412  0.3738
 7924SOL    HW235235   1.731   0.162   7.873 -1.8774  2.1858 -0.1222
 7925SOL     OW35236   3.086   1.827   2.395  0.2062 -0.0353  0.0987
 7925SOL    HW135237   3.133   1.874   2.465  1.2253  0.2122 -0.7588
 7925SOL    HW235238   3.004   1.878   2.396  2.0099  2.8499  1.4048
 7926SOL     OW35239   1.285   4.544   3.759  1.2997 -0.2535  0.0645
 7926SOL    HW135240   1.292   4.615   3.695  2.5094  0.1114  0.5856
 7926SOL    HW235241   1.349   4.481   3.726  0.0657 -0.4092 -1.9935
 7927SOL     OW35242   1.014   4.711   5.249 -0.3471  0.1880 -0.2879
 7927SOL    HW135243   1.104   4.692   5.224 -0.2941  0.7090 -0.4718
 7927SOL    HW235244   0.974   4.638   5.200  0.1265 -1.0295  1.1268
 7928SOL     OW35245   3.370   4.063  11.943 -0.0057  0.3206  0.0660
 7928SOL    HW135246   3.450   4.053  11.994 -0.6218 -2.1575  0.5676
 7928SOL    HW235247   3.403   4.111  11.867 -0.7380  2.7720  1.3267
 7929SOL     OW35248   3.815   3.972   5.344 -0.1807 -0.1194  0.1090
 7929SOL    HW135249   3.858   3.945   5.263  0.1807  1.0733 -0.1072
 7929SOL    HW235250   3.868   4.045   5.379  0.6696 -0.6473 -0.0669
 7930SOL     OW35251   1.279   0.301   6.078  0.5416  0.3584 -0.3707
 7930SOL    HW135252   1.225   0.227   6.048 -0.2000  1.1844 -1.0758
 7930SOL    HW235253   1.361   0.254   6.066  1.9562  2.4033  1.2486
 7931SOL     OW35254   0.772   0.725  15.276 -0.5533 -0.1654  0.0356
 7931SOL    HW135255   0.740   0.746  15.364  1.1621  1.3905  0.2778
 7931SOL    HW235256   0.791   0.813  15.244  1.6076 -1.5307 -2.4068
 7932SOL     OW35257   4.058   2.700   4.635 -0.5297 -0.4425  0.4631
 7932SOL    HW135258   3.973   2.696   4.591 -1.5988  0.9779  2.3741
 7932SOL    HW235259   4.038   2.679   4.726 -1.3403 -0.7148  0.2237
 7933SOL     OW35260   0.397   2.455  10.932 -0.2918 -0.2482 -0.2532
 7933SOL    HW135261   0.399   2.473  10.838 -0.5650  0.0683 -0.1962
 7933SOL    HW235262   0.379   2.362  10.923  1.4709 -0.7037  0.7588
 7934SOL     OW35263   4.079   2.301   4.610 -0.2239 -0.5011 -0.1483
 7934SOL    HW135264   3.991   2.338   4.623  0.6006  0.7471  1.8142
 7934SOL    HW235265   4.063   2.225   4.554  0.6817 -0.3913 -0.5576
 7935SOL     OW35266   0.173   0.581   5.024  0.3023 -0.2145 -0.1301
 7935SOL    HW135267   0.211   0.600   4.939 -0.2617  0.9822 -0.1155
 7935SOL    HW235268   0.242   0.595   5.089  0.9763 -0.1320 -0.8662
 7936SOL     OW35269   3.366   2.927   6.995  0.1311 -0.0819  0.5865
 7936SOL    HW135270   3.397   2.953   6.908 -0.5227 -0.8756  0.1133
 7936SOL    HW235271   3.283   2.887   6.968 -0.7421  1.7554  0.5312
 7937SOL     OW35272   4.285   3.880   5.053  0.2976 -0.2874  0.0632
 7937SOL    HW135273   4.232   3.810   5.015 -0.1184 -0.1413  0.3858
 7937SOL    HW235274   4.372   3.842   5.041  0.8986  0.9188  0.5680
 7938SOL     OW35275   4.622   3.876   4.852 -0.0788 -0.1069 -0.1162
 7938SOL    HW135276   4.558   3.824   4.900 -0.3347 -0.0953 -0.4411
 7938SOL    HW235277   4.676   3.804   4.818  0.9795 -0.4028  2.2042
 7939SOL     OW35278   4.617   0.067   6.934 -0.0685 -0.5501 -0.4262
 7939SOL    HW135279   4.607   0.010   6.858  0.6066 -0.6468 -0.4476
 7939SOL    HW235280   4.645   0.002   6.998 -2.0610  0.7345  1.7338
 7940SOL     OW35281   4.538   0.402   4.727  0.1543 -0.1526 -0.6438
 7940SOL    HW135282   4.627   0.368   4.732  0.4244  0.8831  1.5900
 7940SOL    HW235283   4.526   0.428   4.818 -0.5424  1.6458 -1.2434
 7941SOL     OW35284   3.205   1.514  15.456 -0.1948 -0.1174 -0.8985
 7941SOL    HW135285   3.226   1.600  15.419  1.4809  0.6344  1.7433
 7941SOL    HW235286   3.115   1.507  15.425 -0.7567  0.6523  0.5542
 7942SOL     OW35287   4.029   2.667   8.728 -0.0088 -0.0059 -0.0570
 7942SOL    HW135288   4.019   2.759   8.752  0.1288  0.2152 -0.8216
 7942SOL    HW235289   3.939   2.639   8.715  0.3699 -0.8804 -0.8238
 7943SOL     OW35290   3.787   3.844  16.550 -0.0264  0.0757  0.2416
 7943SOL    HW135291   3.826   3.809  16.469 -1.0887 -0.9536  0.1649
 7943SOL    HW235292   3.839   3.920  16.575  1.5568 -0.8686 -0.1566
 7944SOL     OW35293   2.894   2.602  10.303 -0.0842  0.3636 -0.2346
 7944SOL    HW135294   2.808   2.606  10.347 -0.8366  1.9252 -1.8199
 7944SOL    HW235295   2.938   2.527  10.341  0.5587  0.8499 -0.0246
 7945SOL     OW35296   1.828   0.922   4.886 -0.4341  0.1788 -0.2932
 7945SOL    HW135297   1.903   0.913   4.827  0.7101  1.4083  0.9751
 7945SOL    HW235298   1.792   1.007   4.860  2.0831  1.4496  0.3555
 7946SOL     OW35299   1.847   1.716  10.262 -0.4454 -0.0976  0.3402
 7946SOL    HW135300   1.760   1.678  10.257 -0.1330 -0.8309  0.5217
 7946SOL    HW235301   1.897   1.636  10.246  1.0330  0.9219 -0.1888
 7947SOL     OW35302   2.654   3.715   8.186 -0.0595 -0.0325  0.1863
 7947SOL    HW135303   2.697   3.794   8.155 -2.5142  2.0095  1.9806
 7947SOL    HW235304   2.661   3.664   8.105  0.1758 -0.6800  0.6116
 7948SOL     OW35305   1.680   0.905  17.105 -1.1058  0.0173 -0.0424
 7948SOL    HW135306   1.683   0.823  17.154  2.2392  0.7425  1.0068
 7948SOL    HW235307   1.774   0.922  17.101 -1.3293  1.1962 -0.3261
 7949SOL     OW35308   4.465   0.739   4.238 -0.0131  0.0530 -0.1547
 7949SOL    HW135309   4.423   0.658   4.265 -0.1484  1.5831  4.3525
 7949SOL    HW235310   4.554   0.702   4.243  0.9530  2.6044  1.7492
 7950SOL     OW35311   2.806   3.830   4.541 -0.2460  0.1670 -0.4639
 7950SOL    HW135312   2.740   3.781   4.492  1.3560 -2.5184  0.0573
 7950SOL    HW235313   2.758   3.913   4.541 -3.6948 -1.8060  0.1913
 7951SOL     OW35314   3.314   0.254  10.804  0.6598 -0.6492 -0.2956
 7951SOL    HW135315   3.352   0.166  10.809 -0.5651 -1.0262  2.0231
 7951SOL    HW235316   3.307   0.284  10.894 -3.3920 -2.4196 -0.0238
 7952SOL     OW35317   2.456   2.173   9.416 -0.5507  0.1232  0.2032
 7952SOL    HW135318   2.419   2.247   9.367 -2.1405 -1.0644 -0.3953
 7952SOL    HW235319   2.501   2.211   9.491 -1.0385 -0.7975  0.9712
 7953SOL     OW35320   1.960   0.847  17.158 -0.1005 -0.1104  0.1863
 7953SOL    HW135321   1.998   0.896  17.231 -2.6281  0.7251  0.9368
 7953SOL    HW235322   2.029   0.782  17.146 -0.0877 -0.1585  0.5065
 7954SOL     OW35323   1.378   2.766   4.099 -0.1848 -0.0422  0.0471
 7954SOL    HW135324   1.439   2.751   4.171 -0.3693 -1.3738 -0.0589
 7954SOL    HW235325   1.420   2.719   4.026 -0.2242  0.1401 -0.0922
 7955SOL     OW35326   1.958   0.048   0.071  0.5845  0.0641 -0.1329
 7955SOL    HW135327   1.973   0.138   0.042  1.7574 -0.8639 -2.4950
 7955SOL    HW235328   1.944   0.007  17.683 -0.6663 -0.6965  0.4351
 7956SOL     OW35329   3.601   1.268   6.729  0.5097  0.0302  0.1950
 7956SOL    HW135330   3.516   1.312   6.729 -0.7711 -2.4404  1.0305
 7956SOL    HW235331   3.608   1.248   6.636  1.1087 -2.2663  0.7496
 7957SOL     OW35332   2.861   0.718   8.173  0.3769 -0.0518 -0.0048
 7957SOL    HW135333   2.884   0.734   8.081 -3.7984 -1.7583 -1.3560
 7957SOL    HW235334   2.940   0.675   8.204  1.0269  2.8396  2.2699
 7958SOL     OW35335   4.601   1.269   3.733  0.3096 -0.4157 -0.1953
 7958SOL    HW135336   4.596   1.255   3.639 -2.6279  0.7836 -0.1976
 7958SOL    HW235337   4.553   1.190   3.759  0.8031 -0.4412  0.6488
 7959SOL     OW35338   3.459   2.215   4.763  0.2592 -0.4099  0.0962
 7959SOL    HW135339   3.476   2.290   4.706 -1.2452 -0.2687 -0.1662
 7959SOL    HW235340   3.422   2.151   4.703 -3.4031  1.2737  0.5303
 7960SOL     OW35341   3.895   3.503  13.944 -0.0113  0.0424 -0.2558
 7960SOL    HW135342   3.872   3.553  14.022  0.6099 -0.7094  0.4037
 7960SOL    HW235343   3.989   3.508  13.929 -0.0886  1.4093 -0.2779
 7961SOL     OW35344   0.216   1.778  11.815 -0.1765 -0.1119  0.8326
 7961SOL    HW135345   0.244   1.697  11.857  0.3429 -0.7694 -0.7743
 7961SOL    HW235346   0.300   1.823  11.825  0.4152 -0.8425 -0.7328
 7962SOL     OW35347   3.377   1.719   2.524 -0.0282 -0.1206  0.4363
 7962SOL    HW135348   3.342   1.641   2.482  0.5788 -0.6704  0.9456
 7962SOL    HW235349   3.392   1.777   2.449 -3.2554 -0.5196 -0.5250
 7963SOL     OW35350   0.332   4.396   7.596  0.2682  0.1742 -0.0916
 7963SOL    HW135351   0.407   4.342   7.571 -0.5737 -1.8484  1.7174
 7963SOL    HW235352   0.344   4.401   7.691 -0.7673 -0.3387  0.0763
 7964SOL     OW35353   0.162   0.305   1.489 -0.6566  1.2725 -0.1470
 7964SOL    HW135354   0.108   0.251   1.546 -2.3207  0.0507 -2.8525
 7964SOL    HW235355   0.226   0.339   1.551  0.8787  1.5036 -1.8422
 7965SOL     OW35356   2.988   0.651   2.753  0.3498 -0.2421  0.0427
 7965SOL    HW135357   2.988   0.669   2.659  0.9826 -0.5995 -0.0257
 7965SOL    HW235358   3.060   0.588   2.759  2.4545  2.1809  0.6885
 7966SOL     OW35359   0.783   1.535  16.808 -0.3651 -0.4306  0.4620
 7966SOL    HW135360   0.817   1.621  16.785 -0.6817 -1.2141 -2.9209
 7966SOL    HW235361   0.802   1.491  16.726  1.2836 -0.8275  1.0463
 7967SOL     OW35362   4.637   2.397  13.627  0.8071 -0.4337 -0.0652
 7967SOL    HW135363   4.617   2.306  13.647  0.5592 -0.3544  0.0524
 7967SOL    HW235364   4.588   2.408  13.546  0.2597  1.0033  0.4544
 7968SOL     OW35365   4.273   0.343   8.648  0.0139 -0.4803 -0.1695
 7968SOL    HW135366   4.180   0.367   8.650  0.2295  0.4400 -1.4651
 7968SOL    HW235367   4.312   0.381   8.727 -0.6149  2.0206 -1.0531
 7969SOL     OW35368   1.958   2.458   6.667 -0.5664  0.5950  0.0487
 7969SOL    HW135369   1.893   2.406   6.620  0.7664 -2.4638  1.6316
 7969SOL    HW235370   1.998   2.394   6.725 -0.7751  1.9660  1.6937
 7970SOL     OW35371   0.060   0.495   6.043  0.5595 -0.0733  0.2848
 7970SOL    HW135372   0.005   0.542   6.107  1.1440  0.1706  0.6083
 7970SOL    HW235373   0.001   0.424   6.019 -1.0623  0.3449  2.9043
 7971SOL     OW35374   2.782   0.522  10.601 -0.6285  0.1966  0.0098
 7971SOL    HW135375   2.842   0.480  10.539 -1.1216 -2.5627  1.3969
 7971SOL    HW235376   2.829   0.598  10.634  0.8738 -0.7188 -0.0172
 7972SOL     OW35377   3.000   3.128   8.375 -0.0223 -0.4836  1.0902
 7972SOL    HW135378   3.088   3.163   8.358 -0.5845  0.9230  1.0676
 7972SOL    HW235379   2.951   3.200   8.415 -1.3415  0.4815 -2.3369
 7973SOL     OW35380   1.795   1.919   5.372  0.0922  0.9817 -0.3044
 7973SOL    HW135381   1.771   1.987   5.435  0.8908  1.1805 -0.2101
 7973SOL    HW235382   1.715   1.867   5.379  0.8894 -0.1956  0.0673
 7974SOL     OW35383   2.733   0.594   7.782  0.5089 -0.4065 -0.0745
 7974SOL    HW135384   2.818   0.577   7.742  0.0743  1.2585 -1.6938
 7974SOL    HW235385   2.684   0.513   7.768 -0.9477  0.4136  0.3204
 7975SOL     OW35386   3.907   1.152   3.086 -0.1340 -1.3862 -0.3057
 7975SOL    HW135387   3.840   1.164   3.154  1.0279  0.0076  0.6044
 7975SOL    HW235388   3.932   1.060   3.095  1.6618 -1.1166 -2.6923
 7976SOL     OW35389   3.639   0.662   9.054  0.2665  0.2163 -0.0409
 7976SOL    HW135390   3.614   0.656   9.146 -1.5270  2.9599 -0.3311
 7976SOL    HW235391   3.729   0.696   9.056  0.1040  0.7595 -2.3316
 7977SOL     OW35392   2.290   0.861   5.157 -0.0674 -0.0370 -0.2845
 7977SOL    HW135393   2.368   0.845   5.210 -0.0758 -1.3679 -0.6875
 7977SOL    HW235394   2.237   0.910   5.220  4.0739  0.2075  3.0153
 7978SOL     OW35395   4.079   3.681   7.525  0.6797 -0.2790  0.2633
 7978SOL    HW135396   4.143   3.653   7.591 -0.0980 -1.9735  0.3063
 7978SOL    HW235397   4.122   3.653   7.445  1.5088  0.2123  0.5412
 7979SOL     OW35398   0.104   4.577  11.163  0.2237  0.0655 -0.0171
 7979SOL    HW135399   0.135   4.492  11.194 -2.2153 -0.3661  1.2291
 7979SOL    HW235400   0.095   4.625  11.246 -0.6068  1.2976 -0.8134
 7980SOL     OW35401   2.886   2.743  16.616  0.2435  0.2271 -0.3754
 7980SOL    HW135402   2.885   2.835  16.587 -0.2562 -0.0199 -1.1527
 7980SOL    HW235403   2.956   2.706  16.562  1.9150 -0.3308  2.1989
 7981SOL     OW35404   1.018   3.910   9.149  0.1207  0.7855  0.5076
 7981SOL    HW135405   1.050   3.887   9.062  0.3532  1.9709  0.2818
 7981SOL    HW235406   1.009   3.827   9.196  1.2348  0.5623  0.3234
 7982SOL     OW35407   0.288   1.791   1.522  0.3468  0.0948 -0.3286
 7982SOL    HW135408   0.214   1.837   1.482  1.9920  1.1731 -2.1280
 7982SOL    HW235409   0.291   1.836   1.607  1.0775 -2.7760  1.1615
 7983SOL     OW35410   4.064   3.029   0.450  0.0728 -0.4229  0.0039
 7983SOL    HW135411   4.126   2.958   0.468  1.8115  1.7955  2.7649
 7983SOL    HW235412   3.994   2.983   0.404  0.3415 -1.7759  0.9312
 7984SOL     OW35413   2.230   2.857   5.809  0.0654  0.7003  0.1168
 7984SOL    HW135414   2.207   2.788   5.747  1.6380  1.2668 -1.0909
 7984SOL    HW235415   2.274   2.805   5.876 -2.3821 -0.2724  0.9751
 7985SOL     OW35416   2.521   1.250   0.340 -1.0821 -0.3823 -0.3509
 7985SOL    HW135417   2.601   1.281   0.297 -1.2502 -0.7460 -0.9254
 7985SOL    HW235418   2.464   1.324   0.319 -1.4482 -0.5431  0.0907
 7986SOL     OW35419   1.574   1.733   5.063 -0.1999 -0.4039 -0.8497
 7986SOL    HW135420   1.665   1.710   5.084 -0.1483  1.0061  0.4508
 7986SOL    HW235421   1.574   1.828   5.069 -1.8984 -0.4587  0.0559
 7987SOL     OW35422   0.436   3.102   3.306  0.5158 -0.3885  0.8859
 7987SOL    HW135423   0.465   3.164   3.240  3.1377 -0.6555  1.7548
 7987SOL    HW235424   0.457   3.016   3.269 -1.2571 -0.5761  0.3348
 7988SOL     OW35425   3.260   3.968   6.985 -0.1080 -0.0569  0.2059
 7988SOL    HW135426   3.267   3.880   7.022  2.9712  0.3856  0.6083
 7988SOL    HW235427   3.307   4.013   7.054 -2.1259  3.2449 -0.5829
 7989SOL     OW35428   3.434   2.268   4.417 -0.4034  0.3376  0.5013
 7989SOL    HW135429   3.464   2.358   4.418 -1.9837  0.8858 -0.6503
 7989SOL    HW235430   3.455   2.242   4.328  0.6826  1.7630  0.3466
 7990SOL     OW35431   0.948   0.735   2.770 -0.2998  0.1710 -0.0750
 7990SOL    HW135432   0.883   0.685   2.819 -1.5901  2.1764  0.2615
 7990SOL    HW235433   0.983   0.800   2.831 -0.6798  0.2443  0.0644
 7991SOL     OW35434   1.357   1.392   7.114  0.0134  0.4650 -0.1197
 7991SOL    HW135435   1.445   1.356   7.108  0.5934  1.7594  0.5246
 7991SOL    HW235436   1.308   1.317   7.079  0.8261 -0.3281  0.4525
 7992SOL     OW35437   4.107   3.485  11.675 -0.2403  0.1908 -0.7164
 7992SOL    HW135438   4.130   3.426  11.603  0.7340  0.8645 -0.9520
 7992SOL    HW235439   4.026   3.519  11.636  1.6355  2.8151 -2.3368
 7993SOL     OW35440   3.617   3.161   2.132 -0.4697  0.3986 -0.6163
 7993SOL    HW135441   3.600   3.170   2.038  0.6014  2.1890 -0.6358
 7993SOL    HW235442   3.687   3.226   2.140  0.4103 -0.6295 -0.0078
 7994SOL     OW35443   2.805   0.644   6.765  0.1531 -0.1855 -0.1538
 7994SOL    HW135444   2.881   0.596   6.799  0.4826 -2.5865 -4.3172
 7994SOL    HW235445   2.731   0.588   6.787  0.3157 -0.6416 -0.7856
 7995SOL     OW35446   1.182   3.031  10.561 -0.0942 -0.2208  0.0434
 7995SOL    HW135447   1.258   3.054  10.507  0.4713  1.0577  1.3789
 7995SOL    HW235448   1.116   3.084  10.516  0.8085  0.1976 -0.7866
 7996SOL     OW35449   3.970   4.437  13.046 -0.3285 -0.0897 -0.5573
 7996SOL    HW135450   3.974   4.375  12.973  1.3618 -1.5843  0.8308
 7996SOL    HW235451   3.985   4.522  13.004 -2.9657  0.7643  0.1841
 7997SOL     OW35452   3.373   2.067   8.038  0.6745  0.1411  0.3494
 7997SOL    HW135453   3.383   2.018   8.120  1.4041 -1.1609 -0.5095
 7997SOL    HW235454   3.453   2.045   7.990 -0.1965 -1.0767 -0.5569
 7998SOL     OW35455   3.859   0.824   8.807  0.1479  0.3334  0.2802
 7998SOL    HW135456   3.938   0.819   8.753 -0.1979  0.1316 -0.2130
 7998SOL    HW235457   3.808   0.760   8.758 -0.6390  0.6278  0.7203
 7999SOL     OW35458   0.230   2.773   2.112 -0.2533 -0.1090 -0.5375
 7999SOL    HW135459   0.177   2.846   2.081 -2.1478 -1.3266 -0.1451
 7999SOL    HW235460   0.281   2.753   2.034  1.2667 -0.1567  0.4510
 8000SOL     OW35461   2.069   4.510   2.110  0.0013 -0.2036  0.5914
 8000SOL    HW135462   2.050   4.573   2.180 -2.1071  0.3891 -0.5230
 8000SOL    HW235463   2.024   4.429   2.135 -0.2776 -1.5405 -4.3259
 8001SOL     OW35464   1.393   2.037   4.604  0.5495  0.6387  0.2615
 8001SOL    HW135465   1.331   2.103   4.572 -1.9029 -1.7648  0.0438
 8001SOL    HW235466   1.346   2.022   4.686  1.7769  2.2951  1.2638
 8002SOL     OW35467   2.832   0.894   6.675 -0.3416  0.2583  0.0677
 8002SOL    HW135468   2.838   0.810   6.721  2.7236  0.0022 -0.7726
 8002SOL    HW235469   2.902   0.884   6.610  1.7597  1.4047  2.1622
 8003SOL     OW35470   0.442   2.619  13.474 -0.2639 -0.2328  0.1683
 8003SOL    HW135471   0.401   2.706  13.473  1.5924  0.6115 -0.9273
 8003SOL    HW235472   0.366   2.561  13.475 -0.8761  0.5541 -0.9622
 8004SOL     OW35473   2.509   1.554   9.596  0.2465 -0.0542  0.3745
 8004SOL    HW135474   2.590   1.563   9.647 -0.1189 -1.2494  1.1430
 8004SOL    HW235475   2.447   1.503   9.648 -1.8929  1.5358 -0.6040
 8005SOL     OW35476   1.765   0.305   8.001  0.0258 -0.1972 -0.3624
 8005SOL    HW135477   1.793   0.300   8.093 -0.8610 -0.4293 -0.1105
 8005SOL    HW235478   1.690   0.364   7.996 -0.4308 -0.6183  1.2570
 8006SOL     OW35479   3.534   2.257  11.394 -0.1369  0.1843  0.4587
 8006SOL    HW135480   3.471   2.329  11.393  0.6737  0.9363  2.8707
 8006SOL    HW235481   3.527   2.226  11.484 -0.4719 -0.0894  0.3370
 8007SOL     OW35482   1.989   1.957  10.303 -0.2877 -0.2829  0.2680
 8007SOL    HW135483   1.927   1.884  10.297  0.6271 -0.9675 -0.7945
 8007SOL    HW235484   2.063   1.920  10.254 -0.0896  1.3076 -0.6402
 8008SOL     OW35485   4.280   1.210   4.124 -0.2161  0.0543  0.1333
 8008SOL    HW135486   4.351   1.261   4.086  1.0583 -2.2075 -0.5395
 8008SOL    HW235487   4.329   1.150   4.181  0.8841  0.0587 -0.8052
 8009SOL     OW35488   2.760   0.803   3.788 -0.5403 -0.2285 -0.1898
 8009SOL    HW135489   2.781   0.717   3.824  1.3592  0.0597 -0.5998
 8009SOL    HW235490   2.714   0.776   3.708 -0.9265  0.0726 -0.0629
 8010SOL     OW35491   1.618   1.528   5.736 -0.0687  0.0723  0.7461
 8010SOL    HW135492   1.534   1.571   5.749 -0.5618 -0.7648  0.3837
 8010SOL    HW235493   1.669   1.600   5.773 -1.1925  0.2564  1.9288
 8011SOL     OW35494   3.256   1.814   1.054 -0.2697 -0.3818 -0.7146
 8011SOL    HW135495   3.195   1.786   1.122  0.5564 -1.8828 -0.5958
 8011SOL    HW235496   3.201   1.809   0.975 -0.6842 -3.5893 -0.2384
 8012SOL     OW35497   2.298   1.327  13.791  0.2266 -0.2442  0.6242
 8012SOL    HW135498   2.296   1.235  13.763  1.2328 -0.5024  1.3878
 8012SOL    HW235499   2.377   1.360  13.747  0.4964 -0.9105  0.5998
 8013SOL     OW35500   1.421   3.289   4.992 -0.1721  0.2823  0.2480
 8013SOL    HW135501   1.433   3.196   4.971  0.5238  0.3966  0.1256
 8013SOL    HW235502   1.335   3.302   5.031 -0.4118  0.6691 -0.3890
 8014SOL     OW35503   1.091   0.007   9.395 -0.0611 -0.4613  0.3618
 8014SOL    HW135504   1.043   0.071   9.343 -0.8562 -0.6015  0.9253
 8014SOL    HW235505   1.098   0.054   9.478 -0.8880  1.9254 -0.9428
 8015SOL     OW35506   3.829   2.138  13.671  0.5009  0.1538 -0.1491
 8015SOL    HW135507   3.828   2.203  13.742 -0.3692 -1.9646  1.8107
 8015SOL    HW235508   3.790   2.065  13.720 -2.3126 -0.2122 -2.9610
 8016SOL     OW35509   3.123   1.825  10.533 -0.7274  0.2008  0.2215
 8016SOL    HW135510   3.099   1.914  10.508  0.8364  0.7206  0.6085
 8016SOL    HW235511   3.122   1.826  10.628 -0.2284  1.4146  0.2170
 8017SOL     OW35512   1.897   4.145   8.742  0.1173 -0.0583 -0.6661
 8017SOL    HW135513   1.803   4.136   8.726 -0.0111  1.2557 -0.6525
 8017SOL    HW235514   1.919   4.074   8.803  2.8410  0.1417 -1.3744
 8018SOL     OW35515   2.360   2.730   2.539 -0.4036 -0.3436  0.2899
 8018SOL    HW135516   2.354   2.665   2.469 -0.0444  0.4713 -0.4938
 8018SOL    HW235517   2.444   2.696   2.570 -0.8785 -1.0171  0.8409
 8019SOL     OW35518   0.204   1.335   7.559  0.0625 -0.6770 -0.4314
 8019SOL    HW135519   0.121   1.383   7.552  0.4926 -0.0559 -1.3864
 8019SOL    HW235520   0.188   1.253   7.512  1.0836 -1.2470  0.2297
 8020SOL     OW35521   4.710   1.444   8.923  0.5213  0.0958 -0.0804
 8020SOL    HW135522   0.072   1.415   8.894  0.0176 -1.1465 -0.3284
 8020SOL    HW235523   4.697   1.392   9.002 -3.6606  1.4196  0.1015
 8021SOL     OW35524   1.095   2.075   8.447 -0.0698  0.2878  0.6643
 8021SOL    HW135525   1.015   2.079   8.395  1.3963 -2.0176 -1.7449
 8021SOL    HW235526   1.148   2.016   8.394  0.5163  3.0334 -1.8178
 8022SOL     OW35527   1.990   1.954   5.586  0.2052 -0.0906 -0.1301
 8022SOL    HW135528   1.915   2.015   5.590  0.2762  0.0414 -0.8494
 8022SOL    HW235529   2.048   1.996   5.650 -0.9623 -1.7871  2.0430
 8023SOL     OW35530   3.636   4.647   6.495  0.0776  0.7500  0.3713
 8023SOL    HW135531   3.546   4.660   6.466  0.8806  1.9710 -1.5592
 8023SOL    HW235532   3.621   4.657   6.589  1.9988 -1.1704  0.8762
 8024SOL     OW35533   0.357   2.226   3.778 -0.3984  0.3437 -0.5792
 8024SOL    HW135534   0.383   2.162   3.711 -1.3809 -0.1773 -0.4637
 8024SOL    HW235535   0.436   2.279   3.783  0.9262 -1.7687  0.9428
 8025SOL     OW35536   4.629   3.324   1.277  0.6582  0.1060 -0.2995
 8025SOL    HW135537   4.544   3.280   1.279  1.3457 -1.2082 -0.3349
 8025SOL    HW235538   4.653   3.332   1.369  0.6532 -0.6695 -0.2302
 8026SOL     OW35539   3.972   3.671   9.269 -0.0533  0.3120 -0.1984
 8026SOL    HW135540   3.985   3.727   9.345 -0.2731 -0.0654  0.1217
 8026SOL    HW235541   4.045   3.687   9.210  0.3280 -0.4350  0.0698
 8027SOL     OW35542   0.904   0.432  15.206 -0.7845  0.4667 -0.3029
 8027SOL    HW135543   0.959   0.408  15.131  2.6803  0.0826  2.3402
 8027SOL    HW235544   0.897   0.348  15.251  2.4839  0.2751 -0.1528
 8028SOL     OW35545   3.515   3.616   2.809 -0.0679  0.3137  0.5976
 8028SOL    HW135546   3.481   3.534   2.774 -0.4385 -0.3832  2.5648
 8028SOL    HW235547   3.609   3.595   2.806  0.4046  2.4126  0.9604
 8029SOL     OW35548   4.591   4.544   5.349  0.4024 -0.2557 -0.2039
 8029SOL    HW135549   4.513   4.594   5.372  0.1649 -0.8949  0.3856
 8029SOL    HW235550   4.561   4.526   5.260 -0.0924 -1.6678  0.2539
 8030SOL     OW35551   3.055   0.385   1.833 -0.4656 -0.6512  0.0652
 8030SOL    HW135552   3.150   0.374   1.828 -0.2341  0.8314  1.0788
 8030SOL    HW235553   3.048   0.461   1.890 -0.2362  0.5715 -1.5403
 8031SOL     OW35554   0.023   2.970   7.906 -1.0249  0.5586  0.4320
 8031SOL    HW135555   0.002   3.047   7.959  2.4680  0.9619  1.2502
 8031SOL    HW235556   0.102   2.933   7.946 -1.9316  0.8799  2.5482
 8032SOL     OW35557   1.396   2.760   2.601  0.3829 -0.2090 -0.0439
 8032SOL    HW135558   1.447   2.783   2.678  0.9957 -0.8183 -0.2643
 8032SOL    HW235559   1.323   2.701   2.620 -0.1318  0.4176 -0.0743
 8033SOL     OW35560   1.083   2.458  11.157  0.6487  0.3597 -0.8369
 8033SOL    HW135561   1.170   2.418  11.151  0.8262  0.6631 -0.3148
 8033SOL    HW235562   1.087   2.482  11.250 -1.1868  0.3359 -0.7685
 8034SOL     OW35563   0.502   0.208   8.023  0.6045 -0.5372 -0.0119
 8034SOL    HW135564   0.492   0.301   8.003  1.0539 -0.1256  1.6453
 8034SOL    HW235565   0.594   0.200   8.048  0.9813  1.0983 -0.8324
 8035SOL     OW35566   4.234   3.847   3.236 -0.1503  0.2822  0.0809
 8035SOL    HW135567   4.141   3.831   3.217 -0.4585  3.7142 -1.4840
 8035SOL    HW235568   4.247   3.777   3.300 -0.7745  0.5776  0.5308
 8036SOL     OW35569   2.313   4.701   2.459  0.0384 -0.0256 -0.4080
 8036SOL    HW135570   2.274   0.059   2.489 -1.2384 -0.3145 -1.3100
 8036SOL    HW235571   2.366   4.664   2.529  1.0044  2.4164  0.1776
 8037SOL     OW35572   2.171   2.376   5.131 -0.1027 -0.4483 -0.2280
 8037SOL    HW135573   2.201   2.465   5.111  1.1776 -0.9638 -0.6271
 8037SOL    HW235574   2.147   2.342   5.045 -1.1522 -2.6353  0.9392
 8038SOL     OW35575   0.158   0.117  17.625 -0.1108  0.6649 -0.0808
 8038SOL    HW135576   0.105   0.110   0.006 -0.7183 -0.3519 -0.5794
 8038SOL    HW235577   0.238   0.067  17.641 -1.2853 -1.3055 -0.4124
 8039SOL     OW35578   1.499   4.448   5.589  0.0404  0.5529 -0.2886
 8039SOL    HW135579   1.546   4.410   5.663 -1.8513 -1.8862 -0.3277
 8039SOL    HW235580   1.467   4.371   5.543  2.1255 -0.8410  0.6297
 8040SOL     OW35581   1.757   2.387   5.609 -0.4409 -0.0869 -0.2212
 8040SOL    HW135582   1.820   2.356   5.544 -0.4591  3.0042 -1.7474
 8040SOL    HW235583   1.721   2.462   5.561 -0.3507 -0.7830 -1.3659
 8041SOL     OW35584   3.368   2.519   3.304  0.0163 -0.7497 -0.1731
 8041SOL    HW135585   3.304   2.521   3.233  0.9919  0.5457 -1.0013
 8041SOL    HW235586   3.335   2.451   3.363 -1.1781 -1.3821 -1.5685
 8042SOL     OW35587   2.163   0.578   0.208 -0.1360 -0.5910 -0.3653
 8042SOL    HW135588   2.237   0.520   0.192 -1.5059 -2.2777 -0.5886
 8042SOL    HW235589   2.087   0.520   0.209  0.1294 -0.9189  0.6292
 8043SOL     OW35590   0.829   4.015  13.010  0.1698 -0.0703  0.1958
 8043SOL    HW135591   0.811   3.941  13.068  3.4907 -1.2086 -0.2017
 8043SOL    HW235592   0.798   4.089  13.062 -3.6411 -2.4124  1.2675
 8044SOL     OW35593   2.920   1.889   2.635  0.5797 -0.5820 -0.3392
 8044SOL    HW135594   3.005   1.853   2.662  0.9454  0.5692  0.0486
 8044SOL    HW235595   2.855   1.844   2.689  0.7354 -1.0595 -0.5443
 8045SOL     OW35596   2.114   0.456   6.244 -0.7988 -0.0171 -0.2953
 8045SOL    HW135597   2.083   0.534   6.288  1.2185  0.9390 -0.5624
 8045SOL    HW235598   2.207   0.474   6.258 -0.7864  0.3414 -0.8795
 8046SOL     OW35599   0.518   1.818   8.179  0.4640  0.4334 -0.2480
 8046SOL    HW135600   0.439   1.872   8.182  0.6812  0.8735 -2.3188
 8046SOL    HW235601   0.563   1.871   8.113 -0.6720  0.1461 -1.2714
 8047SOL     OW35602   2.204   4.622   0.904 -0.2738 -0.4356 -0.2130
 8047SOL    HW135603   2.194   4.533   0.872  1.1409 -0.4761 -0.5561
 8047SOL    HW235604   2.198   4.680   0.827 -2.2010  2.2249  1.9225
 8048SOL     OW35605   4.593   2.789   1.676 -0.1922  0.2446 -0.0775
 8048SOL    HW135606   4.608   2.870   1.625 -0.3570 -0.4896 -1.3000
 8048SOL    HW235607   4.639   2.725   1.622  0.2309  0.4849  0.0018
 8049SOL     OW35608   0.808   4.571  16.028 -0.3506  0.4169 -0.3261
 8049SOL    HW135609   0.791   4.527  15.945 -0.0513 -0.5540  0.1261
 8049SOL    HW235610   0.896   4.606  16.014 -0.2173  0.2638  0.1425
 8050SOL     OW35611   4.714   4.271   2.032 -0.0271  0.2775  0.3572
 8050SOL    HW135612   0.063   4.215   2.006  1.0381  0.9107  2.0045
 8050SOL    HW235613   4.637   4.229   1.995 -0.4106  2.2537 -1.0968
 8051SOL     OW35614   0.447   4.089   7.231  0.0754  0.2973 -0.4083
 8051SOL    HW135615   0.389   4.039   7.173 -0.6025  0.1855  0.3672
 8051SOL    HW235616   0.387   4.100   7.305 -1.1273  1.3188 -1.5171
 8052SOL     OW35617   0.636   1.442   4.637  0.1325  0.1787  0.2547
 8052SOL    HW135618   0.661   1.528   4.670 -1.2079  1.5652 -2.3759
 8052SOL    HW235619   0.694   1.386   4.688  1.6877  1.5745  0.0048
 8053SOL     OW35620   1.667   1.669  16.517  0.5545  0.0483  0.0953
 8053SOL    HW135621   1.724   1.676  16.440 -1.2416 -0.4578 -1.2836
 8053SOL    HW235622   1.707   1.736  16.572 -1.1605 -0.5445  2.0589
 8054SOL     OW35623   4.438   4.340  10.528 -0.2270 -0.0779 -0.0447
 8054SOL    HW135624   4.387   4.409  10.572  0.6174  1.0852 -0.8724
 8054SOL    HW235625   4.520   4.341  10.577 -0.0834 -0.1403 -0.2801
 8055SOL     OW35626   0.377   0.000   7.459 -0.2186  0.6464 -0.2599
 8055SOL    HW135627   0.465   4.687   7.467 -1.6743 -2.8415 -0.3802
 8055SOL    HW235628   0.329   4.705   7.540  1.0446  2.3211  0.9056
 8056SOL     OW35629   3.567   2.931   3.206 -0.3745  0.7091 -0.1511
 8056SOL    HW135630   3.615   2.912   3.286  2.1219  0.8826 -1.6226
 8056SOL    HW235631   3.535   2.843   3.188 -1.6560  0.9336  0.9968
 8057SOL     OW35632   2.750   0.035   2.598 -0.5529 -0.5370 -0.6475
 8057SOL    HW135633   2.817   0.085   2.552  0.0775  0.0048  0.8707
 8057SOL    HW235634   2.706   0.107   2.642 -1.7124 -1.5826 -0.0873
 8058SOL     OW35635   1.345   0.275   7.121 -0.3548 -0.4730  0.3168
 8058SOL    HW135636   1.413   0.341   7.106  0.0242 -0.9714 -0.1670
 8058SOL    HW235637   1.385   0.223   7.191  2.9671  2.0729  0.3598
 8059SOL     OW35638   0.335   3.892   7.875  0.7259 -0.1176 -0.5537
 8059SOL    HW135639   0.245   3.914   7.849  0.2797 -0.1868  0.9311
 8059SOL    HW235640   0.359   3.823   7.813  2.4265 -1.8145  2.0410
 8060SOL     OW35641   0.109   0.278  17.420 -0.3999  0.0666 -0.1644
 8060SOL    HW135642   0.147   0.352  17.467 -1.6972  0.8965 -0.4190
 8060SOL    HW235643   0.091   0.212  17.486  1.9609 -1.0701 -0.6635
 8061SOL     OW35644   3.999   1.335  15.463  0.3542 -0.3076  0.3659
 8061SOL    HW135645   3.964   1.335  15.374  0.5322  2.1575  0.2913
 8061SOL    HW235646   3.949   1.261  15.498 -1.3905  0.0988 -1.2268
 8062SOL     OW35647   2.895   2.934   7.581  0.1222  0.0932  0.5162
 8062SOL    HW135648   2.895   3.011   7.638  0.6271  0.1449  0.4456
 8062SOL    HW235649   2.925   2.869   7.644 -0.6415 -1.4753 -0.7487
 8063SOL     OW35650   4.197   1.425  15.669  0.2259  0.3868  0.5171
 8063SOL    HW135651   4.142   1.418  15.592 -1.2788 -0.0243  1.6187
 8063SOL    HW235652   4.219   1.518  15.671  1.4017  0.1056  0.8543
 8064SOL     OW35653   4.596   4.067   5.434  0.3622 -0.3489  0.6210
 8064SOL    HW135654   4.577   4.158   5.458 -0.7112 -0.6340  0.8444
 8064SOL    HW235655   4.652   4.038   5.506 -1.1316 -2.2933  0.9934
 8065SOL     OW35656   2.827   4.211   7.448  0.4595 -0.4086  0.2194
 8065SOL    HW135657   2.741   4.169   7.439  0.9426 -1.7172  1.7195
 8065SOL    HW235658   2.876   4.132   7.470  0.8629 -0.2947 -0.2704
 8066SOL     OW35659   0.219   1.546   4.797  0.0224 -0.3245 -0.4110
 8066SOL    HW135660   0.191   1.524   4.708  1.5332 -0.8051 -0.7766
 8066SOL    HW235661   0.293   1.485   4.803 -0.8211 -1.1753  1.2375
 8067SOL     OW35662   1.723   2.398  13.958  0.3217 -0.2278 -0.0840
 8067SOL    HW135663   1.818   2.407  13.968  0.2540 -0.2156  0.5722
 8067SOL    HW235664   1.720   2.307  13.928  0.1427 -0.4392  0.5793
 8068SOL     OW35665   3.498   1.004   3.540 -0.0098 -0.3079 -0.0738
 8068SOL    HW135666   3.491   0.932   3.603  0.2897  0.3454  0.7086
 8068SOL    HW235667   3.447   0.974   3.465  0.1417  2.0118 -1.0931
 8069SOL     OW35668   1.570   1.591   7.367 -0.0222  0.4772  0.7104
 8069SOL    HW135669   1.626   1.668   7.367  1.0107 -0.2581 -0.9688
 8069SOL    HW235670   1.637   1.540   7.320  1.0027  2.1822  0.3205
 8070SOL     OW35671   2.922   2.866   3.251 -0.0654  0.7311 -0.2062
 8070SOL    HW135672   2.978   2.904   3.182  1.2838 -0.1285  0.4177
 8070SOL    HW235673   2.937   2.774   3.232  0.8582  0.9130 -0.3931
 8071SOL     OW35674   3.928   2.510   4.022  0.1375 -0.2716  0.2582
 8071SOL    HW135675   3.920   2.600   3.991  0.4440 -0.3958 -0.1784
 8071SOL    HW235676   3.938   2.470   3.935  3.7786  0.1123  0.5175
 8072SOL     OW35677   1.013   0.339   8.130 -0.4527 -0.3358 -0.6569
 8072SOL    HW135678   1.025   0.386   8.213 -4.0262 -2.1451  0.8920
 8072SOL    HW235679   1.065   0.401   8.078 -0.1646  0.1379  0.1934
 8073SOL     OW35680   2.312   2.032   8.272 -0.7507 -0.1290 -0.0798
 8073SOL    HW135681   2.343   2.009   8.359  0.9634  1.8125 -0.1829
 8073SOL    HW235682   2.362   2.111   8.253  1.8731 -2.5199 -3.1358
 8074SOL     OW35683   1.982   1.615   8.439 -0.2805 -0.5034 -1.0668
 8074SOL    HW135684   2.047   1.653   8.497 -0.6135 -1.9549  0.2379
 8074SOL    HW235685   2.023   1.530   8.422  1.6540  0.5365 -1.6477
 8075SOL     OW35686   1.090   3.531   1.325 -0.1182 -0.1095 -0.3754
 8075SOL    HW135687   1.168   3.522   1.269 -0.0089 -0.3402 -0.1868
 8075SOL    HW235688   1.041   3.591   1.269  0.8227  1.0330  0.0238
 8076SOL     OW35689   3.844   0.212   5.152  0.1266 -0.3039 -0.1221
 8076SOL    HW135690   3.750   0.195   5.163  0.1499 -0.9663 -0.9176
 8076SOL    HW235691   3.842   0.225   5.057  0.2579 -2.3249 -0.3874
 8077SOL     OW35692   0.022   4.029   1.010 -0.2389 -0.5161 -0.1820
 8077SOL    HW135693   4.724   3.950   1.058  2.5479 -0.7997  0.6607
 8077SOL    HW235694   0.094   4.068   1.060  1.6158 -3.8267 -0.2490
 8078SOL     OW35695   0.799   2.663   4.709  0.2194 -0.1453  0.3573
 8078SOL    HW135696   0.756   2.624   4.785  1.5052 -0.9820  0.6678
 8078SOL    HW235697   0.813   2.751   4.745 -2.8019  0.1129  0.8961
 8079SOL     OW35698   0.781   0.953   4.784  0.3678 -0.4833 -0.9786
 8079SOL    HW135699   0.870   0.987   4.790 -0.0833 -0.0349  3.3246
 8079SOL    HW235700   0.756   0.954   4.877  0.2297  0.2459 -1.0259
 8080SOL     OW35701   1.294   2.124   3.963  0.3725  0.2194  0.1825
 8080SOL    HW135702   1.231   2.191   3.989  1.2757  1.1312  0.0180
 8080SOL    HW235703   1.377   2.154   4.000  1.3199 -2.6412  0.3333
 8081SOL     OW35704   4.496   4.284   7.409  0.0513  0.0209  0.3636
 8081SOL    HW135705   4.530   4.284   7.320  0.5268 -1.1513  0.5400
 8081SOL    HW235706   4.542   4.212   7.452 -0.4303 -1.2061 -1.1847
 8082SOL     OW35707   1.852   3.597   7.305  0.0357  0.0097  0.5882
 8082SOL    HW135708   1.939   3.612   7.342  0.7381 -0.3209 -0.9195
 8082SOL    HW235709   1.832   3.507   7.330  1.0905 -0.6081 -0.8049
 8083SOL     OW35710   2.735   4.412   7.642  0.3487 -0.5481 -0.1910
 8083SOL    HW135711   2.675   4.471   7.597  2.3362  0.7041 -1.2273
 8083SOL    HW235712   2.761   4.350   7.574  1.9183 -1.9203  1.6247
 8084SOL     OW35713   4.051   2.442   8.864 -0.1838  0.2090 -0.5779
 8084SOL    HW135714   4.038   2.536   8.848 -1.7940  0.3523  1.4588
 8084SOL    HW235715   4.141   2.436   8.896 -0.8946  1.0203  1.6182
 8085SOL     OW35716   0.473   1.487  10.511 -0.3729  0.0163 -0.5250
 8085SOL    HW135717   0.523   1.560  10.475 -0.0876 -0.2876 -0.7531
 8085SOL    HW235718   0.464   1.427  10.436 -1.6899  0.1528 -0.4742
 8086SOL     OW35719   1.376   4.502  16.639  0.1113  0.0764 -0.2710
 8086SOL    HW135720   1.287   4.496  16.604 -0.4120  2.0310  0.6664
 8086SOL    HW235721   1.343   4.553  16.714  0.3281  0.9825 -0.7933
 8087SOL     OW35722   0.769   2.659   7.374 -0.4043  0.1892  0.3726
 8087SOL    HW135723   0.730   2.574   7.388 -0.4991  0.6521  2.9104
 8087SOL    HW235724   0.800   2.635   7.286  2.6004 -1.2623  1.8196
 8088SOL     OW35725   1.326   3.233  12.796 -0.7806  0.0864  0.1398
 8088SOL    HW135726   1.264   3.191  12.856  0.7591  0.2038  1.8114
 8088SOL    HW235727   1.317   3.172  12.723 -0.7523 -3.7260  3.3418
 8089SOL     OW35728   0.051   1.162  14.766  0.3224  0.1911 -0.3153
 8089SOL    HW135729   0.060   1.187  14.674  2.5968  1.7765  0.3607
 8089SOL    HW235730   0.102   1.229  14.812  0.1221  0.4690 -0.4949
 8090SOL     OW35731   3.080   0.153  11.850 -0.2663 -0.2923 -0.5307
 8090SOL    HW135732   3.148   0.200  11.898 -0.8482  1.5422 -1.4901
 8090SOL    HW235733   3.002   0.161  11.905  0.4531  1.3630  0.2521
 8091SOL     OW35734   1.159   3.905   5.127 -0.4368 -0.4812  0.1141
 8091SOL    HW135735   1.169   4.000   5.114  3.3586 -1.0233 -0.8785
 8091SOL    HW235736   1.091   3.891   5.061 -2.2343  1.2122  1.5779
 8092SOL     OW35737   0.132   4.350   6.170 -0.1403  0.2307 -0.0436
 8092SOL    HW135738   0.110   4.433   6.129  1.5256  1.1007  0.8486
 8092SOL    HW235739   0.220   4.330   6.138  0.8578  2.1285  1.4893
 8093SOL     OW35740   2.839   0.206   0.588 -0.0933 -0.0609  0.0442
 8093SOL    HW135741   2.773   0.147   0.553 -0.6082  1.2923 -1.2795
 8093SOL    HW235742   2.910   0.152   0.623  0.4081  0.1502 -0.6493
 8094SOL     OW35743   4.653   1.161   7.290 -0.0646 -0.5161  0.0274
 8094SOL    HW135744   4.713   1.123   7.355 -0.8920  0.2373  1.2327
 8094SOL    HW235745   4.713   1.219   7.243  0.7551 -2.7377 -1.6505
 8095SOL     OW35746   2.825   3.702   2.817 -0.5084 -0.1617 -0.1167
 8095SOL    HW135747   2.778   3.784   2.803 -2.5490 -1.3715 -0.2110
 8095SOL    HW235748   2.789   3.652   2.744 -1.4536 -1.4990  1.2946
 8096SOL     OW35749   2.302   1.402   3.390 -0.5244 -0.1457 -0.0199
 8096SOL    HW135750   2.211   1.375   3.378  0.2581 -2.3348 -1.0398
 8096SOL    HW235751   2.298   1.489   3.351  2.1715  0.4938  1.1456
 8097SOL     OW35752   3.350   0.573   0.372 -0.2854 -0.1105  0.0844
 8097SOL    HW135753   3.425   0.626   0.342 -1.6691  1.2590 -0.9772
 8097SOL    HW235754   3.348   0.599   0.464  1.4727  0.2097  0.0355
 8098SOL     OW35755   0.349   2.155   5.895  0.3679  0.4020  0.3601
 8098SOL    HW135756   0.315   2.238   5.928 -5.0473 -0.7659 -2.2659
 8098SOL    HW235757   0.443   2.167   5.886  0.0853  2.0268 -0.4377
 8099SOL     OW35758   2.523   3.700   9.952 -0.2643  0.2816 -0.2323
 8099SOL    HW135759   2.597   3.652   9.916  0.0965  0.0356  0.8147
 8099SOL    HW235760   2.478   3.626   9.992 -1.2973  0.5040 -0.9865
 8100SOL     OW35761   2.035   2.453  11.044  0.2878  0.0534  0.1670
 8100SOL    HW135762   2.112   2.415  11.003  0.4906  1.0868 -0.4089
 8100SOL    HW235763   2.003   2.518  10.981  1.8562  2.3151  1.6905
 8101SOL     OW35764   2.800   2.648   1.938  0.7479  0.2943 -0.1702
 8101SOL    HW135765   2.716   2.611   1.912  1.4012 -1.6130  0.4686
 8101SOL    HW235766   2.862   2.583   1.906 -0.3318 -0.3455 -0.9737
 8102SOL     OW35767   3.677   1.922   2.126 -0.2452 -0.0885 -0.2167
 8102SOL    HW135768   3.738   1.933   2.054  1.4909  1.1341  1.4407
 8102SOL    HW235769   3.630   2.004   2.119  1.1168  0.4735 -2.5439
 8103SOL     OW35770   1.549   2.501   3.739 -0.2879  0.8012  0.0903
 8103SOL    HW135771   1.474   2.543   3.781 -0.9489 -1.8526  1.5176
 8103SOL    HW235772   1.615   2.570   3.745  1.3795 -1.1186  3.3793
 8104SOL     OW35773   2.477   3.434  11.076 -0.7708 -0.6627 -0.7535
 8104SOL    HW135774   2.429   3.369  11.025 -0.9327 -1.6269  0.6344
 8104SOL    HW235775   2.412   3.499  11.101 -1.9668 -0.9418 -3.1066
 8105SOL     OW35776   1.400   2.758   2.887  0.0026 -0.5204 -0.0579
 8105SOL    HW135777   1.494   2.754   2.905 -0.4247 -2.1762  1.7545
 8105SOL    HW235778   1.373   2.820   2.954  1.6691 -1.3215  1.3436
 8106SOL     OW35779   1.258   0.701   4.962  0.8256 -0.4916 -0.2439
 8106SOL    HW135780   1.332   0.756   4.936  1.2052 -1.5221 -1.3617
 8106SOL    HW235781   1.296   0.665   5.043  2.3735  3.0057  0.5944
 8107SOL     OW35782   1.857   1.143   2.889  0.2683 -0.4579 -0.6165
 8107SOL    HW135783   1.918   1.133   2.816  3.6140  2.5246  1.7682
 8107SOL    HW235784   1.878   1.058   2.928  0.7746 -0.0547 -0.0250
 8108SOL     OW35785   2.515   2.895   6.123 -0.1079  0.2489 -0.1472
 8108SOL    HW135786   2.538   2.808   6.155  0.0705  1.2190  2.3609
 8108SOL    HW235787   2.536   2.889   6.029  1.5585  1.0245  0.1839
 8109SOL     OW35788   4.374   3.248   4.352 -0.3194 -0.3567 -0.3792
 8109SOL    HW135789   4.379   3.341   4.373  2.3372 -0.7781  0.8162
 8109SOL    HW235790   4.463   3.220   4.373  0.4209  1.8969 -0.5007
 8110SOL     OW35791   2.424   0.246   4.106 -0.1719  0.2018 -0.0352
 8110SOL    HW135792   2.517   0.268   4.099  0.0601 -0.6769  0.2759
 8110SOL    HW235793   2.413   0.243   4.201 -3.4080  3.2235 -0.2982
 8111SOL     OW35794   1.577   2.554   2.447 -0.4209 -0.5787 -0.1611
 8111SOL    HW135795   1.584   2.555   2.351 -3.0612  1.7414 -0.3456
 8111SOL    HW235796   1.493   2.592   2.473 -1.5875 -1.3009 -2.8337
 8112SOL     OW35797   3.454   0.402   3.043  0.3696 -0.1772 -0.1921
 8112SOL    HW135798   3.547   0.407   3.062  0.6006 -2.8145 -0.5945
 8112SOL    HW235799   3.453   0.414   2.948 -2.5961  0.6736 -0.0553
 8113SOL     OW35800   0.888   0.319   3.595  0.3521 -0.2073  0.1260
 8113SOL    HW135801   0.976   0.298   3.625  1.1785  0.6231 -1.6846
 8113SOL    HW235802   0.857   0.232   3.569 -0.0828 -0.2288  0.7247
 8114SOL     OW35803   2.537   1.680   5.972 -0.8117 -0.0676 -0.2349
 8114SOL    HW135804   2.445   1.693   5.995 -0.8017 -1.4390  0.5512
 8114SOL    HW235805   2.574   1.623   6.039 -0.4978  0.3106 -0.0853
 8115SOL     OW35806   3.313   1.032   1.693  1.0114  0.0275 -0.2277
 8115SOL    HW135807   3.339   1.001   1.780  0.9580 -3.8347 -1.5616
 8115SOL    HW235808   3.395   1.039   1.645 -0.3032  1.8617 -2.1654
 8116SOL     OW35809   3.631   3.742   3.052  0.5715  0.0484 -0.1017
 8116SOL    HW135810   3.667   3.826   3.080 -0.9268  0.9594 -0.9433
 8116SOL    HW235811   3.582   3.768   2.974  1.0322  2.3556  0.3838
 8117SOL     OW35812   0.620   1.553   9.321 -0.4630  0.5279 -0.4517
 8117SOL    HW135813   0.649   1.530   9.232  1.0977  2.0362 -0.3407
 8117SOL    HW235814   0.529   1.573   9.299 -0.7861 -0.7015 -0.1818
 8118SOL     OW35815   2.895   3.598  15.021  0.0248  0.3703 -0.0441
 8118SOL    HW135816   2.799   3.591  15.019 -0.0629  1.1383  1.5417
 8118SOL    HW235817   2.909   3.649  15.101 -0.7243 -0.0692  0.3715
 8119SOL     OW35818   4.594   0.735   5.900 -0.1052 -0.0759 -0.3256
 8119SOL    HW135819   4.574   0.652   5.856  1.3849 -0.9163  0.6097
 8119SOL    HW235820   4.525   0.786   5.857  0.0456  0.0154 -0.4570
 8120SOL     OW35821   0.362   4.050   8.736  0.0882 -0.0555  0.6035
 8120SOL    HW135822   0.438   4.044   8.677 -0.5393  0.7871 -0.2767
 8120SOL    HW235823   0.331   4.132   8.698 -0.1874 -1.1302 -1.5081
 8121SOL     OW35824   2.736   3.028   6.798  0.4275  0.4388  0.3854
 8121SOL    HW135825   2.785   3.043   6.878 -1.0290  2.3129  0.9347
 8121SOL    HW235826   2.658   2.986   6.834  1.1217 -0.7411  0.5325
 8122SOL     OW35827   2.027   4.690   2.309  0.4024  0.1144 -0.5967
 8122SOL    HW135828   2.109   4.712   2.353  1.0554 -1.1712 -1.1770
 8122SOL    HW235829   1.978   4.681   2.390  0.2697 -0.5140 -0.7502
 8123SOL     OW35830   0.681   1.671   9.830 -0.4594 -0.6316  0.0313
 8123SOL    HW135831   0.672   1.764   9.814 -0.5405 -0.5948  0.2841
 8123SOL    HW235832   0.693   1.627   9.746  0.4343  0.6562 -0.5072
 8124SOL     OW35833   1.068   3.731   6.759 -0.2273  0.0112  0.9388
 8124SOL    HW135834   1.023   3.657   6.801  0.0672 -1.1879 -0.8598
 8124SOL    HW235835   1.155   3.692   6.751 -0.8964 -1.5584  1.2728
 8125SOL     OW35836   4.641   4.327  14.624  0.1033  0.3717  0.3518
 8125SOL    HW135837   4.668   4.304  14.713  0.0579 -1.1051 -0.0167
 8125SOL    HW235838   4.713   4.289  14.573 -0.6897 -1.2550  0.4393
 8126SOL     OW35839   4.294   1.394   8.022 -0.3750  0.5283  0.1750
 8126SOL    HW135840   4.341   1.465   8.066 -2.6933  1.6962  0.7302
 8126SOL    HW235841   4.317   1.328   8.088  0.6095  0.0213 -0.6672
 8127SOL     OW35842   0.861   1.275  13.585 -0.1069 -0.6450 -0.2547
 8127SOL    HW135843   0.908   1.345  13.630 -2.9783  0.6474  0.7191
 8127SOL    HW235844   0.789   1.325  13.547 -0.4025 -1.9255 -1.3804
 8128SOL     OW35845   2.478   4.362  13.439 -0.0179  0.8760  0.0552
 8128SOL    HW135846   2.432   4.432  13.392  0.9756  0.2954 -1.7862
 8128SOL    HW235847   2.543   4.334  13.374 -1.9720 -1.9336 -0.6802
 8129SOL     OW35848   0.324   1.010   6.736 -0.4115 -0.0124 -0.0117
 8129SOL    HW135849   0.320   1.022   6.831  0.8255  2.1949 -0.2380
 8129SOL    HW235850   0.401   0.953   6.731 -1.1100 -0.8941 -0.8122
 8130SOL     OW35851   1.320   4.333   3.471 -0.3872  0.6459 -0.3570
 8130SOL    HW135852   1.226   4.344   3.456  0.5328  2.5434 -4.8997
 8130SOL    HW235853   1.362   4.387   3.403 -0.3953 -1.0623 -1.7188
 8131SOL     OW35854   3.412   0.399   4.035 -0.0879 -0.0220 -0.3698
 8131SOL    HW135855   3.355   0.322   4.039 -0.2921  0.0734 -1.3736
 8131SOL    HW235856   3.350   0.470   4.050 -2.3800 -1.7558 -1.6450
 8132SOL     OW35857   0.836   3.556   5.644  0.3778 -0.4399 -0.0872
 8132SOL    HW135858   0.804   3.466   5.636 -0.2790 -0.0563 -1.7035
 8132SOL    HW235859   0.887   3.563   5.563 -2.1862 -0.4784 -1.7078
 8133SOL     OW35860   1.886   2.967   8.011 -0.0228  0.3783 -0.1307
 8133SOL    HW135861   1.842   3.015   7.941 -1.7057 -1.0937 -0.0705
 8133SOL    HW235862   1.921   2.892   7.962  0.6751  0.2488  0.5664
 8134SOL     OW35863   0.271   3.532   4.629  0.2806  0.3342  0.2682
 8134SOL    HW135864   0.340   3.591   4.597 -0.9717  0.6296 -1.9200
 8134SOL    HW235865   0.222   3.522   4.547 -0.5518 -0.0047  0.8143
 8135SOL     OW35866   2.168   0.830   7.843  0.4636 -0.3146 -0.9026
 8135SOL    HW135867   2.075   0.817   7.824  0.3888  0.1328 -0.8431
 8135SOL    HW235868   2.224   0.763   7.804  1.6782  0.5714 -0.6873
 8136SOL     OW35869   1.487   0.413   3.914  0.4753 -0.1701 -0.0659
 8136SOL    HW135870   1.455   0.503   3.905 -0.8146 -0.6930 -0.6437
 8136SOL    HW235871   1.409   0.373   3.951  0.4602  1.0314  1.2328
 8137SOL     OW35872   2.308   2.895   4.345  0.4321  0.0562  0.2575
 8137SOL    HW135873   2.273   2.908   4.257  0.6670  0.1721  0.1828
 8137SOL    HW235874   2.366   2.971   4.349  1.5024 -0.6334 -2.0855
 8138SOL     OW35875   0.847   2.739  16.918  0.0554  0.5977 -0.4961
 8138SOL    HW135876   0.780   2.797  16.953 -0.6323 -0.9668  0.7700
 8138SOL    HW235877   0.817   2.661  16.964 -0.2347 -0.1272 -1.8905
 8139SOL     OW35878   1.374   3.405   1.615 -0.1076 -0.3598 -0.4055
 8139SOL    HW135879   1.466   3.389   1.639 -0.6581 -3.0710 -0.0847
 8139SOL    HW235880   1.376   3.498   1.635 -2.3922  0.0125 -1.9125
 8140SOL     OW35881   0.143   1.432   3.071  0.0010  0.3279  0.0816
 8140SOL    HW135882   0.071   1.383   3.111  0.7738 -1.0131 -0.1520
 8140SOL    HW235883   0.169   1.364   3.009 -1.8745  0.7149 -1.1049
 8141SOL     OW35884   3.364   0.228   3.233  0.0411  0.0034  0.3094
 8141SOL    HW135885   3.292   0.205   3.174 -0.0328 -1.4978  0.9616
 8141SOL    HW235886   3.399   0.299   3.180  3.8864 -1.5103  0.8002
 8142SOL     OW35887   2.480   4.017   4.369  0.4323 -0.0892  0.1257
 8142SOL    HW135888   2.529   4.041   4.447  3.3585 -0.5779 -1.5516
 8142SOL    HW235889   2.452   3.931   4.401  0.0979  0.4897  1.3803
 8143SOL     OW35890   2.717   4.105   7.741 -0.1860 -0.3301 -0.5545
 8143SOL    HW135891   2.655   4.099   7.813 -1.8879  0.3434 -1.9654
 8143SOL    HW235892   2.716   4.198   7.718  0.3777 -0.6192 -1.7106
 8144SOL     OW35893   3.384   0.638   5.962 -0.3263 -0.3297 -0.1480
 8144SOL    HW135894   3.346   0.553   5.984 -0.2015 -0.1071  0.9504
 8144SOL    HW235895   3.390   0.631   5.867  0.5957  1.9375 -0.2527
 8145SOL     OW35896   2.163   3.354   2.542 -0.3449  0.0859  0.0056
 8145SOL    HW135897   2.241   3.349   2.487 -1.0217 -0.3072 -0.9122
 8145SOL    HW235898   2.143   3.263   2.561  0.8693  0.1021  1.3854
 8146SOL     OW35899   1.829   0.766  17.501 -0.0588 -0.0994  0.3406
 8146SOL    HW135900   1.795   0.826  17.435  1.4824 -0.2957 -0.6461
 8146SOL    HW235901   1.775   0.794  17.575  0.7120  2.4316 -0.0637
 8147SOL     OW35902   1.060   0.211   7.132 -0.0662  0.2712 -0.3316
 8147SOL    HW135903   1.134   0.259   7.095 -0.3142  2.0789  1.5644
 8147SOL    HW235904   0.987   0.214   7.069 -0.0816  0.6673 -0.2907
 8148SOL     OW35905   0.724   0.259  13.471 -0.3148  0.4543  0.1935
 8148SOL    HW135906   0.769   0.281  13.552 -0.4596  0.4625  0.2712
 8148SOL    HW235907   0.646   0.314  13.472 -1.3116 -0.9019 -1.7045
 8149SOL     OW35908   2.305   4.397   9.767 -0.1115  0.4846 -0.4229
 8149SOL    HW135909   2.325   4.482   9.807  2.5834 -0.6732  0.7058
 8149SOL    HW235910   2.395   4.380   9.739 -1.1826 -0.1391 -3.4938
 8150SOL     OW35911   1.826   1.289   7.591  0.0258  0.3456  0.4460
 8150SOL    HW135912   1.787   1.375   7.574 -0.2133  0.6390  2.5584
 8150SOL    HW235913   1.747   1.239   7.570  0.2347  0.1052  0.2454
 8151SOL     OW35914   4.481   0.770   7.243  0.2884 -0.8242  0.3252
 8151SOL    HW135915   4.481   0.683   7.203 -1.6988 -0.8292  0.3766
 8151SOL    HW235916   4.415   0.756   7.310  2.1685  0.3508  2.4285
 8152SOL     OW35917   2.990   3.793  11.212  0.2345 -0.0264 -0.2782
 8152SOL    HW135918   2.985   3.812  11.118 -2.3406  1.3513  0.1452
 8152SOL    HW235919   2.997   3.697  11.216  0.3916  0.0396  0.9133
 8153SOL     OW35920   1.129   4.297   8.091 -0.3072 -0.2721  0.4153
 8153SOL    HW135921   1.052   4.267   8.140  0.5743 -0.4893  1.6779
 8153SOL    HW235922   1.092   4.331   8.010 -2.1010  0.5827  1.5813
 8154SOL     OW35923   1.099   2.056   7.579 -0.2144  0.6424 -0.5038
 8154SOL    HW135924   1.151   2.135   7.569 -1.2818  1.4148  0.1588
 8154SOL    HW235925   1.146   1.992   7.524  0.3515  0.8573 -0.2701
 8155SOL     OW35926   1.765   3.356  11.272 -0.0020 -0.7335  0.4453
 8155SOL    HW135927   1.859   3.339  11.277  0.5070  1.3543 -2.1627
 8155SOL    HW235928   1.729   3.305  11.345  0.8839 -2.4715 -0.3291
 8156SOL     OW35929   2.979   4.318  14.631 -0.1495 -0.8045  0.5902
 8156SOL    HW135930   3.001   4.402  14.672 -3.1461  0.4771 -0.3788
 8156SOL    HW235931   3.001   4.249  14.693  0.2503 -0.7660  0.4892
 8157SOL     OW35932   2.016   0.647   6.401 -0.8562  0.4014 -0.6812
 8157SOL    HW135933   2.039   0.738   6.383  1.0517 -0.0708 -0.6412
 8157SOL    HW235934   2.056   0.650   6.488  0.1806 -2.0204 -1.0849
 8158SOL     OW35935   1.540   0.656  16.567  0.0670 -0.5948 -0.2929
 8158SOL    HW135936   1.616   0.706  16.598  0.0280 -0.4853 -0.3771
 8158SOL    HW235937   1.515   0.695  16.483 -2.1301 -0.6405  0.3590
 8159SOL     OW35938   2.422   2.779  12.787  0.2867  0.2444  0.2899
 8159SOL    HW135939   2.339   2.754  12.829 -0.5830  0.0854 -1.5589
 8159SOL    HW235940   2.468   2.792  12.871 -0.4067  0.6570  0.6097
 8160SOL     OW35941   1.362   1.855  12.096  0.1216  0.2994 -0.1106
 8160SOL    HW135942   1.327   1.914  12.163  0.4364 -2.0827  2.1440
 8160SOL    HW235943   1.427   1.909  12.051 -0.3089 -0.4304 -1.6170
 8161SOL     OW35944   0.186   2.884   5.104 -0.2180 -0.2985 -0.6362
 8161SOL    HW135945   0.240   2.925   5.037  0.4737  0.5673  0.4512
 8161SOL    HW235946   0.136   2.817   5.058  0.0925 -0.8294 -0.2047
 8162SOL     OW35947   4.544   4.042   7.533  0.0327 -0.1238  0.2822
 8162SOL    HW135948   4.626   4.011   7.493 -0.2157 -0.0999 -0.2416
 8162SOL    HW235949   4.482   3.969   7.532 -0.4749  0.2938  1.0622
 8163SOL     OW35950   0.928   0.740   4.632  0.1254 -0.0805 -0.4646
 8163SOL    HW135951   0.858   0.802   4.650 -0.9244 -1.0756 -1.1261
 8163SOL    HW235952   0.884   0.656   4.645 -1.6494  0.9326  0.1463
 8164SOL     OW35953   0.352   0.325   6.340 -0.1571 -0.4031 -0.1981
 8164SOL    HW135954   0.381   0.290   6.424  1.5820  1.5626  0.0029
 8164SOL    HW235955   0.284   0.386   6.370 -1.4735 -1.2361 -1.4585
 8165SOL     OW35956   4.350   0.341   4.525  0.1531  0.4285 -0.5412
 8165SOL    HW135957   4.313   0.271   4.579  1.0984  0.5129  0.2158
 8165SOL    HW235958   4.425   0.369   4.577  0.3436  0.2656 -0.7291
 8166SOL     OW35959   1.055   3.281  15.408 -0.5587 -0.4249  0.5324
 8166SOL    HW135960   1.015   3.277  15.495  0.9620 -1.3146  1.1985
 8166SOL    HW235961   1.055   3.191  15.376 -2.0137 -0.9070  1.8520
 8167SOL     OW35962   4.113   2.043   0.991 -0.1746  0.4486 -0.0184
 8167SOL    HW135963   4.042   2.096   0.954  1.2612  1.7380 -0.9578
 8167SOL    HW235964   4.062   2.009   1.065  1.6564  1.2661  1.6161
 8168SOL     OW35965   4.244   4.488   6.990 -0.0444 -0.0475  0.0669
 8168SOL    HW135966   4.285   4.402   7.005  0.4238 -0.1727 -1.9532
 8168SOL    HW235967   4.264   4.508   6.898  2.0507  1.5291  0.8578
 8169SOL     OW35968   0.094   4.073   1.760 -0.5947  0.6828 -0.3729
 8169SOL    HW135969   0.021   4.135   1.754 -0.1955  1.3960  2.0616
 8169SOL    HW235970   0.171   4.128   1.747 -1.4276  1.8187 -0.4884
 8170SOL     OW35971   3.015   4.058   4.794 -0.1867 -0.2721 -0.0724
 8170SOL    HW135972   2.921   4.050   4.812  0.0089 -0.9356  0.6526
 8170SOL    HW235973   3.054   3.970   4.800 -0.5026 -0.3936  0.2297
 8171SOL     OW35974   3.050   2.584  14.366 -0.0740  0.8515 -0.1654
 8171SOL    HW135975   3.011   2.651  14.310  0.3860 -0.6760 -2.3448
 8171SOL    HW235976   3.080   2.522  14.299  1.7906  0.9034  0.6150
 8172SOL     OW35977   0.227   2.077   2.643  0.2577 -0.1915  0.6435
 8172SOL    HW135978   0.277   2.010   2.597 -0.2584 -0.6912  0.8113
 8172SOL    HW235979   0.154   2.025   2.674  0.7540 -2.2389 -1.6762
 8173SOL     OW35980   3.761   3.872  17.570  0.3176  0.4871 -0.3153
 8173SOL    HW135981   3.725   3.870  17.481 -0.4013 -0.1658 -0.0097
 8173SOL    HW235982   3.813   3.792  17.575 -0.6948  0.0180  2.4881
 8174SOL     OW35983   4.331   4.644   5.805 -0.1410 -0.0922  0.0541
 8174SOL    HW135984   4.350   4.606   5.719 -0.1598 -0.7712  0.3516
 8174SOL    HW235985   4.241   4.674   5.797 -0.1378 -0.0135  0.3111
 8175SOL     OW35986   0.970   3.233  13.831 -0.0617  0.0526 -0.3759
 8175SOL    HW135987   1.056   3.210  13.867  0.1269 -2.0886 -2.1841
 8175SOL    HW235988   0.925   3.154  13.860 -2.6914  0.8133 -2.4597
 8176SOL     OW35989   0.427   4.165   2.467 -0.0268  0.3810 -0.4268
 8176SOL    HW135990   0.514   4.171   2.507  0.0002  0.5819 -0.5129
 8176SOL    HW235991   0.376   4.128   2.539 -1.4379  2.5440 -0.3186
 8177SOL     OW35992   2.402   2.033  11.906  0.1408  0.6740 -0.0491
 8177SOL    HW135993   2.315   2.070  11.920  0.3104  0.4278  1.6942
 8177SOL    HW235994   2.392   2.005  11.815  0.5663 -0.1766  0.1677
 8178SOL     OW35995   1.680   2.421  17.389  0.6504  0.4324  0.3087
 8178SOL    HW135996   1.600   2.467  17.362  1.7669  2.4415  0.4238
 8178SOL    HW235997   1.727   2.483  17.444 -0.4256  2.0166 -0.5573
 8179SOL     OW35998   3.428   4.301   2.717 -0.1776 -0.4605 -0.4604
 8179SOL    HW135999   3.463   4.375   2.765  0.3769 -1.9071  1.3395
 8179SOL    HW236000   3.402   4.346   2.636  1.1619  0.3825 -0.4144
 8180SOL     OW36001   3.030   4.034  17.550  0.2822 -0.2076 -0.1236
 8180SOL    HW136002   3.090   3.971  17.510  2.2512  1.3783  0.3482
 8180SOL    HW236003   3.089   4.109  17.553  0.3261 -0.1628 -2.1016
 8181SOL     OW36004   0.303   1.329   5.505 -0.6850 -0.2916  0.4275
 8181SOL    HW136005   0.245   1.298   5.436 -0.0032  4.2556 -2.1475
 8181SOL    HW236006   0.333   1.245   5.540  1.8823  0.5619  0.2892
 8182SOL     OW36007   2.305   3.433   8.573 -0.5273 -0.5421 -0.2488
 8182SOL    HW136008   2.272   3.523   8.566  0.3045 -0.0907  1.5550
 8182SOL    HW236009   2.399   3.449   8.557 -0.7378  1.1445  0.1430
 8183SOL     OW36010   0.948   4.620  14.444 -0.4477  0.1621 -0.0142
 8183SOL    HW136011   1.006   4.690  14.415 -0.8812  1.0016  1.1495
 8183SOL    HW236012   1.011   4.548  14.443 -1.2400 -0.5479  1.2059
 8184SOL     OW36013   3.294   1.738   8.892 -0.0637 -0.1275 -0.3818
 8184SOL    HW136014   3.236   1.728   8.818  0.5029  1.5793 -1.0608
 8184SOL    HW236015   3.289   1.830   8.917 -1.6150 -0.3019 -0.0954
 8185SOL     OW36016   4.445   2.656   5.264  0.6881  0.9472 -0.5131
 8185SOL    HW136017   4.505   2.608   5.207  1.3190 -1.0789  1.8656
 8185SOL    HW236018   4.379   2.669   5.197 -0.8368 -1.4188  0.5193
 8186SOL     OW36019   0.957   4.683  10.861 -0.3782 -0.1108  0.1678
 8186SOL    HW136020   0.990   4.692  10.950 -3.3867  1.3116  1.1457
 8186SOL    HW236021   0.900   0.036  10.853  0.5140  0.4925 -0.5163
 8187SOL     OW36022   3.277   0.923   9.108  0.1363 -0.4103 -0.0387
 8187SOL    HW136023   3.297   0.852   9.169 -2.4468 -3.0403 -2.2335
 8187SOL    HW236024   3.255   0.989   9.173 -1.2390  0.9401 -1.8686
 8188SOL     OW36025   3.860   0.396   4.121 -0.6944  0.0382 -0.0649
 8188SOL    HW136026   3.769   0.420   4.107 -0.3788  1.3719  0.1588
 8188SOL    HW236027   3.904   0.479   4.138  0.1108 -0.5375  0.7047
 8189SOL     OW36028   4.323   0.660   6.460  0.4034 -0.2265  0.3584
 8189SOL    HW136029   4.311   0.567   6.446  1.0967 -0.5270  1.7124
 8189SOL    HW236030   4.344   0.693   6.373  1.0999 -3.1616 -0.5578
 8190SOL     OW36031   4.324   0.309   6.779  0.0037  0.2181 -0.0737
 8190SOL    HW136032   4.364   0.279   6.860  0.1416 -0.4074 -0.3737
 8190SOL    HW236033   4.236   0.272   6.786 -0.1320  0.3803 -0.9309
 8191SOL     OW36034   1.515   3.790   7.283 -0.1077  0.6865  0.0835
 8191SOL    HW136035   1.448   3.850   7.314 -0.1711 -0.1344  1.5628
 8191SOL    HW236036   1.478   3.705   7.304 -1.2309  0.6793 -1.9375
 8192SOL     OW36037   2.438   4.306   7.547 -0.2986  0.1755 -0.4245
 8192SOL    HW136038   2.460   4.229   7.495 -1.1394 -1.9820  2.4329
 8192SOL    HW236039   2.419   4.373   7.481 -0.2248  0.5312 -0.0848
 8193SOL     OW36040   4.605   2.736   7.972  0.4372  0.2865  0.1250
 8193SOL    HW136041   4.509   2.744   7.966  0.3353 -1.2694 -0.2712
 8193SOL    HW236042   4.631   2.825   7.950 -0.7295  0.9416  1.3592
 8194SOL     OW36043   2.752   4.315  13.917 -0.3428  0.1636  0.2700
 8194SOL    HW136044   2.792   4.373  13.853  1.3327 -1.5713 -0.2263
 8194SOL    HW236045   2.809   4.241  13.901  0.0290  0.3182  0.8719
 8195SOL     OW36046   1.071   0.687   1.452  0.3426  0.3430 -0.1480
 8195SOL    HW136047   1.108   0.617   1.399 -0.1748 -0.8883  1.1136
 8195SOL    HW236048   1.090   0.756   1.389 -0.7039 -0.0351 -0.8774
 8196SOL     OW36049   3.853   0.475   0.354  0.3684  0.0778  0.1488
 8196SOL    HW136050   3.840   0.466   0.260  1.2155 -0.7941  0.1079
 8196SOL    HW236051   3.856   0.384   0.387 -0.5091 -0.4569 -1.2746
 8197SOL     OW36052   3.864   3.980   6.703  0.3401  0.3205  0.2468
 8197SOL    HW136053   3.797   3.941   6.758  1.2779 -1.4020  0.1723
 8197SOL    HW236054   3.847   3.931   6.622 -0.1166  1.0001 -0.0695
 8198SOL     OW36055   4.338   3.533  12.879  0.1624 -0.6095 -0.4881
 8198SOL    HW136056   4.252   3.495  12.893  0.4705 -2.0946 -2.5763
 8198SOL    HW236057   4.366   3.543  12.970 -0.7003 -1.4485 -0.1318
 8199SOL     OW36058   1.598   2.865   0.088  0.0697  0.1085  0.1079
 8199SOL    HW136059   1.594   2.850  17.692 -0.5551  1.3930 -0.0694
 8199SOL    HW236060   1.514   2.834   0.122  0.8418 -0.1383  1.7601
 8200SOL     OW36061   2.493   2.759   6.677 -0.3373  0.0015  0.3024
 8200SOL    HW136062   2.454   2.672   6.671  0.1828 -0.1503 -0.8961
 8200SOL    HW236063   2.555   2.764   6.604  1.9973 -0.8499  2.2030
 8201SOL     OW36064   1.096   0.683   5.282 -0.5187 -0.2606 -0.0744
 8201SOL    HW136065   1.101   0.657   5.374  0.8578 -1.2315 -0.4297
 8201SOL    HW236066   1.176   0.639   5.252  1.3800  0.7454  3.5274
 8202SOL     OW36067   0.211   0.790   9.024 -0.2296 -0.4147  0.4942
 8202SOL    HW136068   0.124   0.795   8.986  0.5182  0.3370 -1.1418
 8202SOL    HW236069   0.263   0.814   8.947 -0.9202  0.4810  0.3057
 8203SOL     OW36070   3.143   2.769   6.905 -0.3985 -0.3281  0.1794
 8203SOL    HW136071   3.191   2.688   6.883  0.2476 -0.0334  0.5096
 8203SOL    HW236072   3.135   2.804   6.816  2.5085 -0.0682  0.0015
 8204SOL     OW36073   1.646   1.906   7.658  0.0262  0.0033 -0.2222
 8204SOL    HW136074   1.662   1.918   7.564  0.5794 -0.0715 -0.1334
 8204SOL    HW236075   1.558   1.867   7.658  0.2890 -0.5763  1.2664
 8205SOL     OW36076   3.714   1.559   7.481 -0.1493 -0.0650 -0.0969
 8205SOL    HW136077   3.668   1.493   7.534 -0.7088  0.0080 -0.4854
 8205SOL    HW236078   3.806   1.551   7.503 -0.1403  1.0587  0.2547
 8206SOL     OW36079   3.440   3.201  15.303 -0.3366  0.1289  0.6042
 8206SOL    HW136080   3.396   3.229  15.383 -0.9492  0.0201  0.3065
 8206SOL    HW236081   3.417   3.277  15.250  1.2584  0.3331  0.2009
 8207SOL     OW36082   3.386   4.613   9.089 -0.8870  0.0975  0.0140
 8207SOL    HW136083   3.410   4.705   9.098  0.4731 -0.3252  0.6098
 8207SOL    HW236084   3.396   4.606   8.994 -0.2548 -1.1025  0.1687
 8208SOL     OW36085   1.601   0.677  14.434  0.8918 -0.0130  0.0734
 8208SOL    HW136086   1.638   0.765  14.424  0.5081 -0.0169 -1.3744
 8208SOL    HW236087   1.637   0.660  14.521 -1.4426 -1.8277  0.6603
 8209SOL     OW36088   1.592   2.892  13.791  0.0158 -0.1551 -0.4819
 8209SOL    HW136089   1.537   2.922  13.719  0.0422 -0.0158 -0.4455
 8209SOL    HW236090   1.661   2.956  13.772  0.6350 -0.8701 -0.6354
 8210SOL     OW36091   2.414   3.384   6.655 -0.5557 -0.2863 -0.7223
 8210SOL    HW136092   2.360   3.394   6.733  1.7066  1.1041  0.6629
 8210SOL    HW236093   2.501   3.364   6.690 -1.6007 -0.9347  1.5048
 8211SOL     OW36094   2.530   1.035   5.204 -0.0345  0.7007  0.0220
 8211SOL    HW136095   2.592   0.976   5.161  0.7203  1.1486  0.5134
 8211SOL    HW236096   2.521   0.980   5.281  0.7847  0.3465 -0.1396
 8212SOL     OW36097   2.077   1.685   3.550  0.0042  0.1699  0.0106
 8212SOL    HW136098   2.020   1.610   3.532  0.5897 -0.8131  2.1761
 8212SOL    HW236099   2.152   1.640   3.589  0.7533 -0.5985 -2.3086
 8213SOL     OW36100   0.575   1.589   6.797 -0.3876  0.4769 -0.5980
 8213SOL    HW136101   0.545   1.502   6.826  0.5847  0.7687  1.2966
 8213SOL    HW236102   0.634   1.607   6.870  0.7390 -2.8852 -0.6693
 8214SOL     OW36103   2.334   0.580   4.826 -0.2380 -0.4969  0.1007
 8214SOL    HW136104   2.271   0.576   4.754 -2.2887 -2.0028  1.9981
 8214SOL    HW236105   2.276   0.609   4.896 -0.2331  0.4798 -0.2951
 8215SOL     OW36106   2.176   2.883   3.791 -0.6584 -0.7547  0.0341
 8215SOL    HW136107   2.255   2.867   3.739  0.1802 -0.8504  1.3217
 8215SOL    HW236108   2.114   2.919   3.728 -1.6544 -1.4329  0.6207
 8216SOL     OW36109   2.276   3.702   8.539  0.1843 -0.1809  0.4409
 8216SOL    HW136110   2.335   3.729   8.609 -0.4484  1.8850  0.1492
 8216SOL    HW236111   2.330   3.689   8.462 -2.3750  1.3947 -1.6105
 8217SOL     OW36112   3.619   3.114  15.082  0.2649  0.6561 -0.2004
 8217SOL    HW136113   3.551   3.146  15.022 -1.6175 -0.3482  1.4274
 8217SOL    HW236114   3.700   3.135  15.035  0.4128 -0.1991 -0.3266
 8218SOL     OW36115   3.198   0.127   4.932 -0.1945  0.3656 -0.4210
 8218SOL    HW136116   3.193   0.067   4.858  1.4058 -0.8416  0.4204
 8218SOL    HW236117   3.133   0.100   4.996 -0.6721 -1.0390 -1.5025
 8219SOL     OW36118   1.789   3.681   0.011  0.2826 -0.3438  0.1352
 8219SOL    HW136119   1.839   3.756   0.043  1.2739 -0.5258 -0.9981
 8219SOL    HW236120   1.718   3.678   0.074  0.3077 -0.2058  0.1710
 8220SOL     OW36121   0.002   2.463   2.094  0.3919 -0.1320 -0.1553
 8220SOL    HW136122   0.023   2.373   2.071  1.5270  0.4845 -1.5605
 8220SOL    HW236123   0.043   2.512   2.023  2.4003 -0.2689  0.9111
 8221SOL     OW36124   0.821   2.952   4.221 -0.5353 -0.0095  0.2397
 8221SOL    HW136125   0.882   2.879   4.231  1.8438  2.1051  1.3224
 8221SOL    HW236126   0.874   3.006   4.162  0.0181 -1.0837 -0.2490
 8222SOL     OW36127   3.124   3.596   2.066  0.1718  0.0220  0.0543
 8222SOL    HW136128   3.172   3.679   2.067  0.3909 -0.0698 -2.4276
 8222SOL    HW236129   3.201   3.540   2.075 -1.2886 -2.0847 -0.4615
 8223SOL     OW36130   2.705   4.433   5.483 -0.2411 -0.5598 -0.4510
 8223SOL    HW136131   2.744   4.519   5.498  0.6501 -1.0156 -0.1765
 8223SOL    HW236132   2.668   4.440   5.395 -0.4350  0.2447 -0.3006
 8224SOL     OW36133   1.780   2.893  12.106 -0.1024  0.2616 -0.1072
 8224SOL    HW136134   1.705   2.929  12.153 -0.6157 -0.1003 -0.6605
 8224SOL    HW236135   1.748   2.876  12.018  0.4406 -0.9366 -0.0657
 8225SOL     OW36136   4.094   0.525  12.732 -0.0584  0.7006  0.8553
 8225SOL    HW136137   4.067   0.442  12.771 -0.4833  0.5849  0.3177
 8225SOL    HW236138   4.168   0.551  12.787  0.7041  0.3785 -0.0049
 8226SOL     OW36139   3.687   1.406   2.190  0.8156  0.5426 -0.6818
 8226SOL    HW136140   3.721   1.383   2.104  0.9903 -0.1651 -0.4284
 8226SOL    HW236141   3.661   1.496   2.173  2.3993  1.2041  0.3727
 8227SOL     OW36142   4.638   4.460   6.650  0.8356  0.5732 -0.3133
 8227SOL    HW136143   0.004   4.481   6.628  1.9785 -3.2648  0.5952
 8227SOL    HW236144   4.588   4.517   6.592 -0.0982 -1.1182 -1.1844
 8228SOL     OW36145   2.451   2.102   6.766  0.1167  0.0462 -1.1594
 8228SOL    HW136146   2.432   2.176   6.709 -2.5104 -0.0165 -0.3891
 8228SOL    HW236147   2.507   2.048   6.710  1.4673 -0.2909  0.4883
 8229SOL     OW36148   1.875   0.875   2.974 -0.0332 -0.4055 -0.3401
 8229SOL    HW136149   1.839   0.791   2.946 -2.5452  0.4279  0.4034
 8229SOL    HW236150   1.805   0.898   3.035 -1.4764 -3.1693 -0.9882
 8230SOL     OW36151   0.071   0.347   3.145 -0.1206  0.3365  0.0965
 8230SOL    HW136152   0.123   0.360   3.065 -1.7146  2.4547 -0.5871
 8230SOL    HW236153   0.129   0.389   3.208 -1.5473  0.2651  1.4543
 8231SOL     OW36154   1.602   1.562   9.284 -0.3178  0.3276 -0.5375
 8231SOL    HW136155   1.623   1.494   9.220  1.1234  0.9566 -0.7489
 8231SOL    HW236156   1.676   1.623   9.280 -0.2945  0.2277 -1.6217
 8232SOL     OW36157   3.068   0.488  14.201  0.5807 -0.4735  0.6029
 8232SOL    HW136158   3.000   0.422  14.189  0.3116 -0.6204  3.0156
 8232SOL    HW236159   3.099   0.498  14.111 -0.7466 -2.6079 -0.0940
 8233SOL     OW36160   0.871   1.013   2.671 -0.7394  0.2256  0.0807
 8233SOL    HW136161   0.960   0.988   2.697 -0.9901 -0.2490  0.4655
 8233SOL    HW236162   0.883   1.105   2.647 -0.9527 -0.9145 -4.4183
 8234SOL     OW36163   2.471   4.472   1.123  0.5193  0.3132 -0.0185
 8234SOL    HW136164   2.469   4.563   1.092  0.4005  0.6796  1.0622
 8234SOL    HW236165   2.560   4.469   1.158  0.3251  1.1185  0.5322
 8235SOL     OW36166   2.361   4.114   4.998 -0.2952  0.0341 -0.2037
 8235SOL    HW136167   2.289   4.051   5.002  1.7502 -2.3304 -0.5567
 8235SOL    HW236168   2.371   4.099   4.904  0.9014  0.3789 -0.1341
 8236SOL     OW36169   0.606   2.786   4.023  0.1323 -0.3572  0.1899
 8236SOL    HW136170   0.657   2.773   3.943  0.9184  1.4465  0.4060
 8236SOL    HW236171   0.670   2.808   4.090 -1.1999  1.0434  0.9913
 8237SOL     OW36172   4.300   2.949   3.900  0.3685 -0.2168 -0.5577
 8237SOL    HW136173   4.355   3.002   3.958 -1.1826  0.3575  0.4145
 8237SOL    HW236174   4.293   2.867   3.948  0.4315 -0.2415 -0.5904
 8238SOL     OW36175   0.591   0.840   8.668  0.1578 -0.4717  0.7934
 8238SOL    HW136176   0.604   0.792   8.587  0.2983  1.1693 -0.1477
 8238SOL    HW236177   0.682   0.866   8.681  0.6622 -1.2825 -1.1219
 8239SOL     OW36178   4.441   3.557  11.824  0.2901  0.3388 -0.5526
 8239SOL    HW136179   4.432   3.481  11.767  1.1206  0.0617 -0.3199
 8239SOL    HW236180   4.464   3.625  11.761 -1.1299  2.1978  0.9126
 8240SOL     OW36181   1.493   0.636  16.889 -0.1067 -0.1002 -0.2110
 8240SOL    HW136182   1.589   0.641  16.890 -0.0791 -0.4679 -0.6434
 8240SOL    HW236183   1.483   0.561  16.830  1.6497 -0.9139  0.5036
 8241SOL     OW36184   4.572   1.845  15.652 -0.0073  0.1537  0.0575
 8241SOL    HW136185   4.650   1.881  15.695 -1.8465  2.9414  1.0957
 8241SOL    HW236186   4.523   1.923  15.626 -0.1514  0.1325  0.2627
 8242SOL     OW36187   1.193   0.279  16.399 -0.1511 -0.1659  0.5848
 8242SOL    HW136188   1.117   0.336  16.386  0.6013  0.3596 -1.5137
 8242SOL    HW236189   1.228   0.285  16.310 -2.0561 -1.8343 -0.2941
 8243SOL     OW36190   4.541   2.695  17.420 -0.2152  0.3881 -0.5996
 8243SOL    HW136191   4.470   2.684  17.483  0.6769  0.4191  0.4089
 8243SOL    HW236192   4.492   2.684  17.338  0.9438  1.2074 -1.4119
 8244SOL     OW36193   2.676   0.661  17.366  0.0583 -0.1252  0.1113
 8244SOL    HW136194   2.742   0.658  17.435  0.6215  0.7672 -0.3933
 8244SOL    HW236195   2.591   0.650  17.409  0.1167  1.2258  0.5781
 8245SOL     OW36196   4.106   4.219  14.053 -0.5354  0.2058  0.2891
 8245SOL    HW136197   4.017   4.194  14.026 -0.5455  0.5290  0.0271
 8245SOL    HW236198   4.078   4.266  14.132  0.3640  0.2891  0.5612
 8246SOL     OW36199   1.549   0.804   4.377  0.3331  0.0569  0.0218
 8246SOL    HW136200   1.541   0.775   4.468  1.6120 -2.2146 -0.5936
 8246SOL    HW236201   1.489   0.878   4.366  0.1788  0.1569  1.5757
 8247SOL     OW36202   2.682   1.386   3.651  0.5548 -0.6733  0.3136
 8247SOL    HW136203   2.639   1.399   3.736  0.6049  0.6229  0.1354
 8247SOL    HW236204   2.743   1.457   3.636  0.0076 -0.5797 -1.4487
 8248SOL     OW36205   0.605   4.244   3.340  0.1051  0.1884  0.0839
 8248SOL    HW136206   0.643   4.258   3.253 -0.8852 -0.0066 -0.3904
 8248SOL    HW236207   0.522   4.201   3.320 -0.8281  2.5358 -1.0907
 8249SOL     OW36208   3.027   1.967  15.227  0.4767  0.3055  0.2130
 8249SOL    HW136209   2.975   1.987  15.149 -0.9259  0.4190  1.1725
 8249SOL    HW236210   3.115   1.992  15.199  0.8043 -1.2911 -0.1620
 8250SOL     OW36211   3.024   1.570   7.606 -0.0859 -0.3922  0.1127
 8250SOL    HW136212   2.944   1.518   7.612 -0.7394  0.4997 -0.9217
 8250SOL    HW236213   3.060   1.552   7.693  1.6909  1.1197 -0.2883
 8251SOL     OW36214   0.053   2.471   5.025  0.3270  0.4240  0.0095
 8251SOL    HW136215   0.144   2.444   5.013 -0.1959 -0.3477 -2.3330
 8251SOL    HW236216   0.059   2.529   5.100  0.2270 -3.1532  2.7748
 8252SOL     OW36217   1.673   0.884   3.854 -0.4457  0.3996  0.1869
 8252SOL    HW136218   1.633   0.884   3.941 -2.1211  1.6199 -0.5850
 8252SOL    HW236219   1.594   0.876   3.800  0.3790 -0.6854 -0.8582
 8253SOL     OW36220   4.066   2.543  11.897  0.1092 -0.0405 -0.3761
 8253SOL    HW136221   4.124   2.488  11.948  0.8936 -0.6908 -1.9557
 8253SOL    HW236222   4.097   2.528  11.807  1.3163  1.3610 -0.2007
 8254SOL     OW36223   2.601   1.661  13.170  0.3456  0.1626  0.5379
 8254SOL    HW136224   2.625   1.663  13.262  0.6432 -0.7558  0.4789
 8254SOL    HW236225   2.603   1.567  13.155 -1.9115  0.7266 -3.2646
 8255SOL     OW36226   1.514   2.764   6.968  0.2678  0.5493 -0.4767
 8255SOL    HW136227   1.471   2.680   6.955  1.7457 -0.3547  0.5993
 8255SOL    HW236228   1.521   2.759   7.063 -1.1246 -2.3900 -0.5248
 8256SOL     OW36229   0.040   0.084   3.192 -0.3335 -0.2161  0.1113
 8256SOL    HW136230   0.057   0.177   3.176 -0.9230  0.0938  1.3345
 8256SOL    HW236231   0.127   0.051   3.213 -0.5971 -1.1376 -0.2505
 8257SOL     OW36232   0.855   1.159  16.880 -0.0468  0.3127  0.4144
 8257SOL    HW136233   0.946   1.148  16.852 -0.1313 -1.4280  0.8427
 8257SOL    HW236234   0.810   1.160  16.795  0.7821 -0.9876 -0.0419
 8258SOL     OW36235   1.982   1.632   2.773  0.0656  0.6314  0.0489
 8258SOL    HW136236   2.067   1.634   2.728 -0.0517  1.4325 -0.1497
 8258SOL    HW236237   1.930   1.687   2.714 -3.3430  0.1290  2.6277
 8259SOL     OW36238   0.930   1.831   6.280  0.1690 -0.0006 -0.0380
 8259SOL    HW136239   0.998   1.884   6.240  0.4526 -1.6594 -1.7676
 8259SOL    HW236240   0.970   1.745   6.270 -2.2264 -1.4191  2.3469
 8260SOL     OW36241   4.621   1.459   4.799  0.0961  0.6815  0.1152
 8260SOL    HW136242   4.569   1.384   4.768  3.3444 -1.7671  0.6049
 8260SOL    HW236243   4.648   1.489   4.712 -0.4047 -1.0361 -0.6246
 8261SOL     OW36244   3.341   3.074   3.264 -0.1152 -0.0152  0.2912
 8261SOL    HW136245   3.419   3.020   3.255  0.2497  0.5896 -0.1850
 8261SOL    HW236246   3.383   3.150   3.223  3.3652 -0.1465  3.7016
 8262SOL     OW36247   3.339   1.039   8.216  0.1927 -0.3472 -0.2205
 8262SOL    HW136248   3.249   1.054   8.186 -0.9316 -1.5332  2.5976
 8262SOL    HW236249   3.335   0.943   8.218  1.0348 -0.3569  0.8223
 8263SOL     OW36250   3.601   2.803  12.789  0.0108 -0.2561 -1.0420
 8263SOL    HW136251   3.533   2.740  12.762  0.2211 -1.3579  0.9466
 8263SOL    HW236252   3.583   2.809  12.883  2.2395  0.0174 -0.6376
 8264SOL     OW36253   3.416   3.281   5.282  0.1823 -0.2542 -0.8035
 8264SOL    HW136254   3.462   3.223   5.221  0.5527 -1.0249  0.2023
 8264SOL    HW236255   3.411   3.223   5.358 -0.2633  0.3423 -0.3816
 8265SOL     OW36256   2.862   2.082   1.802 -0.2551  0.1498 -0.2477
 8265SOL    HW136257   2.870   2.025   1.878  1.4955  0.4785 -0.1878
 8265SOL    HW236258   2.829   2.164   1.839  0.1084 -0.6517  1.8747
 8266SOL     OW36259   3.771   3.368  16.885  0.1631  0.3918 -0.0315
 8266SOL    HW136260   3.686   3.362  16.841 -0.5469  1.4132  1.1834
 8266SOL    HW236261   3.787   3.462  16.889  1.6471  0.0957  0.8209
 8267SOL     OW36262   3.079   4.413   5.324  0.0255  0.6239 -0.4077
 8267SOL    HW136263   3.085   4.357   5.401  0.4899  0.9581 -0.2023
 8267SOL    HW236264   3.030   4.362   5.260 -1.1030  0.3489  0.6892
 8268SOL     OW36265   0.664   1.905   4.530 -0.0870  0.1262 -0.2031
 8268SOL    HW136266   0.584   1.913   4.478  0.9242 -1.9909 -2.1226
 8268SOL    HW236267   0.699   1.820   4.504 -1.1374  0.5703 -3.0811
 8269SOL     OW36268   4.455   0.096  16.912  0.4411 -0.6608 -0.5566
 8269SOL    HW136269   4.416   0.181  16.892  0.2499 -0.7646 -0.6290
 8269SOL    HW236270   4.534   0.120  16.959 -1.0143 -1.0210  2.0910
 8270SOL     OW36271   1.128   1.653   8.491 -0.0362 -0.3652  0.2264
 8270SOL    HW136272   1.216   1.621   8.468  0.2461 -1.6330  3.0692
 8270SOL    HW236273   1.132   1.728   8.431 -0.5046 -0.5656 -0.0509
 8271SOL     OW36274   0.591   3.453   6.556 -0.4311  0.0205  0.5166
 8271SOL    HW136275   0.622   3.537   6.588 -0.4547  0.2750 -0.1286
 8271SOL    HW236276   0.558   3.418   6.639 -2.2464  0.4670  0.0043
 8272SOL     OW36277   1.720   1.191   2.258 -0.2955 -0.1804 -0.1455
 8272SOL    HW136278   1.656   1.123   2.279 -0.3105 -0.8731 -2.4483
 8272SOL    HW236279   1.800   1.155   2.295 -1.0798 -0.0562  1.6582
 8273SOL     OW36280   4.567   0.884   6.381 -0.3153 -0.3019 -0.1237
 8273SOL    HW136281   4.631   0.848   6.319  1.5838  0.0119  1.6285
 8273SOL    HW236282   4.489   0.850   6.337  0.3843 -1.9157 -0.1153
 8274SOL     OW36283   0.085   1.535   7.239 -0.6679 -0.1753 -0.4779
 8274SOL    HW136284   0.136   1.466   7.280  0.7672 -0.3986 -2.6197
 8274SOL    HW236285   0.056   1.490   7.159  2.1817 -3.6743  0.4744
 8275SOL     OW36286   1.023   2.263  10.063 -0.1867 -0.7660  0.4970
 8275SOL    HW136287   0.944   2.302  10.100 -0.8344  1.8019 -3.5852
 8275SOL    HW236288   1.082   2.260  10.138  1.6777  1.5541 -0.8824
 8276SOL     OW36289   3.824   3.023   2.723 -0.5863  0.4224  0.2722
 8276SOL    HW136290   3.829   3.118   2.708  0.1616  0.4067  0.4360
 8276SOL    HW236291   3.903   3.008   2.774 -0.4789 -1.9979 -0.6261
 8277SOL     OW36292   2.112   2.946   9.197 -0.1174  0.2198 -0.8323
 8277SOL    HW136293   2.073   2.884   9.258  0.1616 -0.0104 -0.8860
 8277SOL    HW236294   2.201   2.912   9.190 -0.5306 -0.7328 -1.4671
 8278SOL     OW36295   3.202   0.065   1.959  0.7742 -0.2692 -0.1285
 8278SOL    HW136296   3.190   0.158   1.979  1.8422  0.5396 -3.2540
 8278SOL    HW236297   3.225   0.033   2.047 -2.6230 -0.1229  0.8216
 8279SOL     OW36298   1.570   0.643   7.298 -0.1458  0.0345  0.4887
 8279SOL    HW136299   1.484   0.684   7.292  0.4516  1.1990 -0.0449
 8279SOL    HW236300   1.557   0.571   7.237  0.8966 -0.2966  0.6486
 8280SOL     OW36301   3.019   2.220   4.892  0.0533  0.4550  0.0942
 8280SOL    HW136302   2.980   2.250   4.974 -0.2323 -0.7184  0.3899
 8280SOL    HW236303   3.083   2.288   4.870  0.8608  0.4464  2.4792
 8281SOL     OW36304   3.560   3.342   6.942  0.6818  0.7577  0.7261
 8281SOL    HW136305   3.474   3.306   6.961  0.8413  0.6273  1.1979
 8281SOL    HW236306   3.594   3.353   7.031  2.5899 -2.1659  0.3654
 8282SOL     OW36307   0.336   0.130   8.578  0.7007 -0.2950 -0.7558
 8282SOL    HW136308   0.327   0.075   8.500 -4.3768  1.1165 -1.1434
 8282SOL    HW236309   0.382   0.199   8.530  1.4199 -0.3379 -0.1290
 8283SOL     OW36310   1.565   0.259  13.674 -0.1467 -0.5252 -0.3453
 8283SOL    HW136311   1.620   0.282  13.599 -0.5044 -0.3744 -0.5569
 8283SOL    HW236312   1.633   0.247  13.741  0.2000 -0.0337 -0.6126
 8284SOL     OW36313   4.018   3.333  10.577 -0.2604 -0.1762 -0.0746
 8284SOL    HW136314   4.039   3.243  10.553 -0.4490 -0.0334 -0.7806
 8284SOL    HW236315   3.948   3.322  10.641 -0.2896 -0.0264 -0.0812
 8285SOL     OW36316   0.468   3.772   2.364  0.2163 -0.0279 -0.4896
 8285SOL    HW136317   0.394   3.828   2.386  0.9778  0.2769  1.3733
 8285SOL    HW236318   0.538   3.795   2.426  0.6105  0.2531 -1.0442
 8286SOL     OW36319   2.199   3.556  15.282  0.0893 -0.0600  0.2920
 8286SOL    HW136320   2.233   3.601  15.204  0.2409  0.7551  0.8247
 8286SOL    HW236321   2.122   3.607  15.304 -0.6387 -1.9037  1.9689
 8287SOL     OW36322   1.561   2.779   3.870 -0.0176  0.5300  0.0700
 8287SOL    HW136323   1.649   2.792   3.905 -0.6498  0.8745  1.5286
 8287SOL    HW236324   1.551   2.871   3.842  2.1125  0.0667 -2.2059
 8288SOL     OW36325   1.040   4.444   7.869 -0.3922 -0.1210 -0.5030
 8288SOL    HW136326   1.119   4.497   7.872 -1.4751  1.4405  0.5907
 8288SOL    HW236327   1.039   4.426   7.775  0.2280 -1.3462 -0.2744
 8289SOL     OW36328   2.326   0.371   5.490 -0.1996  0.0472  0.1328
 8289SOL    HW136329   2.300   0.454   5.529  1.2037  0.4019  0.3269
 8289SOL    HW236330   2.321   0.309   5.564 -1.0071 -2.1660 -1.7867
 8290SOL     OW36331   2.679   1.274   7.451  0.0135 -0.0158 -0.7094
 8290SOL    HW136332   2.737   1.214   7.498 -0.0866 -0.6372 -1.3731
 8290SOL    HW236333   2.664   1.224   7.370  1.5511  2.1369 -2.3163
 8291SOL     OW36334   4.391   4.421   7.751 -0.0000 -0.2351  0.3082
 8291SOL    HW136335   4.393   4.328   7.730  1.6265 -0.3449  0.9523
 8291SOL    HW236336   4.335   4.428   7.829  1.3679  1.9127  1.0809
 8292SOL     OW36337   2.113   2.122  11.523  0.5166 -0.3543  0.0570
 8292SOL    HW136338   2.096   2.215  11.511 -1.0913 -0.8136 -1.1306
 8292SOL    HW236339   2.208   2.111  11.510  0.5926 -1.3604  1.3997
 8293SOL     OW36340   4.308   3.225   8.378  0.4003  0.4317  0.1532
 8293SOL    HW136341   4.227   3.257   8.417  1.2477  0.2456  2.0507
 8293SOL    HW236342   4.262   3.182   8.306 -0.1856  1.4927 -0.0924
 8294SOL     OW36343   2.818   2.832   0.847 -0.1989 -0.4266  0.4258
 8294SOL    HW136344   2.792   2.873   0.929  0.3791  0.1099  0.3398
 8294SOL    HW236345   2.869   2.757   0.877  0.8648  0.1529  0.0490
 8295SOL     OW36346   2.291   3.117   2.816 -0.2740 -1.0352  0.0563
 8295SOL    HW136347   2.206   3.131   2.857 -1.3027 -3.6700 -1.1623
 8295SOL    HW236348   2.259   3.100   2.727  0.8101  1.9855 -0.8835
 8296SOL     OW36349   2.396   1.035   4.845 -0.0575 -0.1951 -0.1010
 8296SOL    HW136350   2.326   0.992   4.796 -1.0959 -1.7775  2.7756
 8296SOL    HW236351   2.358   1.068   4.927  1.1658  3.2673 -0.8961
 8297SOL     OW36352   1.723   1.124   1.558  0.3231  0.3938 -0.2708
 8297SOL    HW136353   1.807   1.079   1.561 -0.7389 -1.5738 -0.3111
 8297SOL    HW236354   1.664   1.065   1.511  1.9572 -2.9869  2.0025
 8298SOL     OW36355   4.087   3.468   2.301 -0.1106 -0.1785 -0.0019
 8298SOL    HW136356   4.160   3.409   2.321 -0.6277 -0.7485  0.2060
 8298SOL    HW236357   4.069   3.433   2.213 -2.5567 -1.0047  0.8284
 8299SOL     OW36358   3.945   1.370   2.873  0.1352 -0.0037 -0.7868
 8299SOL    HW136359   4.009   1.366   2.802  0.6962 -1.2922 -0.2034
 8299SOL    HW236360   3.926   1.281   2.903 -1.6418  0.6112 -0.0565
 8300SOL     OW36361   1.701   2.900   6.837 -0.2736  0.4560 -0.0748
 8300SOL    HW136362   1.746   2.819   6.862 -1.6465 -0.1124  0.5508
 8300SOL    HW236363   1.612   2.886   6.869 -0.7288  1.4410 -0.9296
 8301SOL     OW36364   1.680   3.672  14.260 -0.3255  0.1138 -0.3872
 8301SOL    HW136365   1.737   3.737  14.302  1.7270 -0.5981 -2.0344
 8301SOL    HW236366   1.732   3.592  14.267 -0.9524 -0.3157 -0.5858
 8302SOL     OW36367   1.906   0.011  15.868 -0.1440  0.2435 -0.0240
 8302SOL    HW136368   1.842   4.700  15.929 -0.0323  1.1668  0.6338
 8302SOL    HW236369   1.929   0.094  15.911 -0.7179  0.8516 -0.8829
 8303SOL     OW36370   0.520   1.607   3.630 -0.3311  0.2867  0.1643
 8303SOL    HW136371   0.457   1.535   3.643  0.2203  0.2626  2.7019
 8303SOL    HW236372   0.501   1.642   3.544  1.2669 -3.1341 -1.5848
 8304SOL     OW36373   1.868   1.628  12.594 -0.3489 -0.4214  0.5583
 8304SOL    HW136374   1.938   1.563  12.586 -2.1608 -2.4801  1.2846
 8304SOL    HW236375   1.914   1.703  12.558  1.5199 -0.7315  2.3218
 8305SOL     OW36376   4.711   1.483  14.452  0.3125  0.4231 -0.3137
 8305SOL    HW136377   0.051   1.411  14.455  0.5450  0.6820  1.0568
 8305SOL    HW236378   4.656   1.439  14.387  0.4813  1.4549 -1.1428
 8306SOL     OW36379   1.635   1.903  11.359  0.3965 -0.5600 -0.0711
 8306SOL    HW136380   1.684   1.879  11.438  1.4038  2.5997  0.2902
 8306SOL    HW236381   1.546   1.907  11.392  0.3833 -0.9206 -0.0655
 8307SOL     OW36382   1.054   1.401   3.109 -0.6164 -0.1633  0.2389
 8307SOL    HW136383   1.089   1.473   3.056  0.2724 -0.7014  0.1103
 8307SOL    HW236384   1.004   1.452   3.174 -3.0660 -1.4522 -0.6576
 8308SOL     OW36385   1.633   2.137   4.077 -0.8688  0.0172  0.4095
 8308SOL    HW136386   1.658   2.063   4.021 -0.4667  0.2906  0.2208
 8308SOL    HW236387   1.710   2.193   4.070  0.1273 -1.3653  0.1600
 8309SOL     OW36388   3.116   1.702   3.177 -0.3348  0.0656 -0.4294
 8309SOL    HW136389   3.073   1.762   3.237  0.6044 -0.8609  1.1639
 8309SOL    HW236390   3.038   1.692   3.122 -0.5141 -0.8515  0.0023
 8310SOL     OW36391   2.737   3.864   0.198 -0.0716  0.4631 -0.3779
 8310SOL    HW136392   2.710   3.940   0.249  0.2432  0.1075  0.3176
 8310SOL    HW236393   2.775   3.918   0.129 -0.2821 -0.0384 -0.8889
 8311SOL     OW36394   0.980   2.418   3.727 -0.6009  0.0785 -0.7837
 8311SOL    HW136395   0.909   2.440   3.788 -0.2086 -1.8199  0.3513
 8311SOL    HW236396   0.987   2.330   3.763 -0.2960  0.1230 -0.7332
 8312SOL     OW36397   0.185   4.721   8.762  0.0611  0.3466  0.5446
 8312SOL    HW136398   0.098   0.006   8.725  0.3871 -1.5137 -0.6795
 8312SOL    HW236399   0.242   0.043   8.700  1.0022 -2.8257 -0.9463
 8313SOL     OW36400   4.134   3.703  11.850  0.5144 -0.0743  0.4899
 8313SOL    HW136401   4.170   3.752  11.775 -0.2517 -0.0634  0.1234
 8313SOL    HW236402   4.138   3.617  11.808 -1.0332 -0.1433  0.4876
 8314SOL     OW36403   0.064   1.348   7.009 -0.1352 -0.5552  0.4446
 8314SOL    HW136404   0.088   1.389   6.925  1.0485 -0.0547  1.0273
 8314SOL    HW236405   4.692   1.349   7.012 -0.0946  2.3858  1.0103
 8315SOL     OW36406   3.691   1.363  14.244  0.3479 -0.2967 -0.2211
 8315SOL    HW136407   3.614   1.361  14.188  0.2552  2.3678 -0.2099
 8315SOL    HW236408   3.732   1.436  14.197  0.2255 -1.6719 -2.4435
 8316SOL     OW36409   0.603   0.338   8.749  0.7556  0.2221 -0.4691
 8316SOL    HW136410   0.604   0.266   8.686  1.0385 -0.1402 -0.0434
 8316SOL    HW236411   0.546   0.403   8.707  0.3151  0.0968 -0.0703
 8317SOL     OW36412   2.309   2.154  12.247  0.2519  0.4852  0.2981
 8317SOL    HW136413   2.338   2.221  12.185  1.3755  1.9578  2.4306
 8317SOL    HW236414   2.389   2.113  12.280 -0.1036  1.3808  2.2571
 8318SOL     OW36415   3.820   4.282   6.906  0.3431 -0.1485  0.5056
 8318SOL    HW136416   3.738   4.322   6.876 -0.2534 -1.4429  0.4115
 8318SOL    HW236417   3.869   4.362   6.923  1.3162 -0.9037  1.1982
 8319SOL     OW36418   0.118   0.294  14.462 -0.0904 -0.3907 -0.1129
 8319SOL    HW136419   0.031   0.333  14.463  0.6668  1.3279 -0.2035
 8319SOL    HW236420   0.110   0.241  14.541 -2.2179 -0.2187 -0.2188
 8320SOL     OW36421   4.094   2.623  12.152  0.1442  0.2664 -0.3107
 8320SOL    HW136422   4.081   2.606  12.059 -0.2183 -0.4803 -0.1213
 8320SOL    HW236423   4.009   2.600  12.188  0.6382 -0.8497  0.1393
 8321SOL     OW36424   2.112   1.436   7.697 -0.9827  0.0337  0.1802
 8321SOL    HW136425   2.090   1.351   7.736 -1.4263 -1.1798 -2.6690
 8321SOL    HW236426   2.200   1.452   7.731 -2.2122  1.1573  2.8522
 8322SOL     OW36427   0.886   4.073  11.713  0.2850  0.5090  0.1874
 8322SOL    HW136428   0.817   4.021  11.755  0.3086  0.1178 -0.2606
 8322SOL    HW236429   0.931   4.005  11.663  1.7066  0.8903  0.9619
 8323SOL     OW36430   3.319   3.276  10.890  0.1478 -0.6423 -0.1633
 8323SOL    HW136431   3.360   3.332  10.824 -2.3838 -1.6168 -2.5466
 8323SOL    HW236432   3.389   3.278  10.955 -0.2470 -1.1820  0.2759
 8324SOL     OW36433   3.460   4.165  16.311  0.2018 -0.1856  0.2672
 8324SOL    HW136434   3.449   4.081  16.355 -1.1672 -0.1206  0.0422
 8324SOL    HW236435   3.556   4.166  16.301  0.2759  0.0975  0.9344
 8325SOL     OW36436   1.526   4.163   4.954  0.5198 -0.0782 -0.1547
 8325SOL    HW136437   1.443   4.159   4.906  0.7102  1.2177 -0.5831
 8325SOL    HW236438   1.502   4.105   5.026  4.1123 -0.0250  1.0988
 8326SOL     OW36439   4.254   1.052   7.480 -0.1504 -0.3197  0.0603
 8326SOL    HW136440   4.315   1.078   7.548 -0.3009  3.0737 -1.0932
 8326SOL    HW236441   4.293   0.968   7.455  0.4263 -0.7961  2.6451
 8327SOL     OW36442   4.009   0.355  16.896  0.6135 -0.2025  0.9673
 8327SOL    HW136443   4.059   0.434  16.918  1.6367 -0.5581 -0.0641
 8327SOL    HW236444   3.961   0.348  16.978  0.5942 -1.1216  0.8829
 8328SOL     OW36445   2.889   0.182   8.325  0.0156  0.1886 -0.0656
 8328SOL    HW136446   2.909   0.097   8.288  2.0376  0.3527  0.6701
 8328SOL    HW236447   2.956   0.235   8.282 -0.5820  2.6076  1.9263
 8329SOL     OW36448   0.531   1.419  12.061 -0.2545 -1.0137 -0.7801
 8329SOL    HW136449   0.561   1.352  12.124  0.7683  0.2412  0.0714
 8329SOL    HW236450   0.595   1.417  11.990  0.3037 -2.8991 -0.2396
 8330SOL     OW36451   3.877   1.267   8.078  0.2128 -0.6571 -0.8030
 8330SOL    HW136452   3.890   1.329   8.149  1.1032 -0.2895 -1.2950
 8330SOL    HW236453   3.938   1.297   8.011  0.3646  3.8794  1.3780
 8331SOL     OW36454   2.261   0.400   0.547  0.2411  0.0573 -0.1147
 8331SOL    HW136455   2.213   0.346   0.484  1.2112 -1.7235  0.6886
 8331SOL    HW236456   2.297   0.465   0.487  0.7015  2.1148  2.4077
 8332SOL     OW36457   0.197   3.772   3.689 -0.7742 -0.4353 -0.0596
 8332SOL    HW136458   0.251   3.703   3.651 -0.5160 -0.4590  0.3492
 8332SOL    HW236459   0.260   3.811   3.750 -0.5169 -2.2171  0.8037
 8333SOL     OW36460   0.463   3.976   7.579  0.4238  0.5125 -0.6152
 8333SOL    HW136461   0.482   3.908   7.514 -0.3773 -1.3239  1.0633
 8333SOL    HW236462   0.381   4.009   7.543 -0.1404  1.7145  1.7648
 8334SOL     OW36463   1.566   3.903  14.105  0.1965 -0.1306 -0.1574
 8334SOL    HW136464   1.475   3.930  14.116  0.7433  0.8297  2.0781
 8334SOL    HW236465   1.568   3.811  14.130 -2.7794 -0.2148 -0.2177
 8335SOL     OW36466   4.346   0.228   1.507  0.5903 -0.1882 -0.0934
 8335SOL    HW136467   4.263   0.190   1.478  1.1972  0.2811 -2.4543
 8335SOL    HW236468   4.405   0.155   1.488 -0.0774 -0.8270  0.2603
 8336SOL     OW36469   1.076   3.045  14.143 -0.3499  0.2336 -0.1545
 8336SOL    HW136470   1.004   3.041  14.081 -1.2813 -0.6288  0.9935
 8336SOL    HW236471   1.145   3.070  14.082 -0.5553  0.7915 -0.1591
 8337SOL     OW36472   4.482   4.309   6.450  0.2169 -0.4172 -0.8113
 8337SOL    HW136473   4.569   4.333   6.483  0.0206 -0.0090 -0.5886
 8337SOL    HW236474   4.480   4.349   6.363 -2.6080  1.0723 -0.0544
 8338SOL     OW36475   3.471   1.520   5.905 -0.2764  0.6457  0.3563
 8338SOL    HW136476   3.465   1.431   5.940 -0.0544  0.3913 -0.2451
 8338SOL    HW236477   3.502   1.566   5.983  1.7020 -1.1473  0.6367
 8339SOL     OW36478   0.386   2.823   9.441 -0.0271  0.0759 -1.2026
 8339SOL    HW136479   0.403   2.729   9.449 -0.9365  0.2280  2.6628
 8339SOL    HW236480   0.326   2.834   9.515  0.1517 -1.8110 -0.7796
 8340SOL     OW36481   0.979   4.120  13.917  0.0200 -0.1685 -0.1170
 8340SOL    HW136482   0.999   4.198  13.866  1.1770 -0.3673  0.0257
 8340SOL    HW236483   0.884   4.113  13.922  0.0020 -1.7984 -2.4391
 8341SOL     OW36484   0.389   2.339  10.259 -0.3815 -0.1448  1.0329
 8341SOL    HW136485   0.457   2.357  10.193 -0.7452  0.1485  0.7360
 8341SOL    HW236486   0.437   2.322  10.340 -1.5161 -2.5224  1.1985
 8342SOL     OW36487   4.390   2.408  10.023 -0.4187 -0.2491 -0.3647
 8342SOL    HW136488   4.486   2.404  10.020 -0.3622  1.8843 -1.3187
 8342SOL    HW236489   4.368   2.315  10.017  2.9706 -0.9786 -1.5129
 8343SOL     OW36490   4.459   3.894  16.747  0.0150 -0.3126 -0.2379
 8343SOL    HW136491   4.487   3.909  16.656  0.8297  2.2773  0.4329
 8343SOL    HW236492   4.419   3.980  16.758  2.2505  0.4078  2.3126
 8344SOL     OW36493   2.488   0.463  15.763  0.3349  0.4632  0.3578
 8344SOL    HW136494   2.416   0.431  15.817 -1.1931  0.9949 -1.3849
 8344SOL    HW236495   2.549   0.485  15.834  1.0887  0.1276 -0.1838
 8345SOL     OW36496   1.054   4.384   6.163  0.3044  0.2144 -0.1063
 8345SOL    HW136497   1.066   4.293   6.136  0.3201  0.1049  0.2727
 8345SOL    HW236498   1.137   4.394   6.210 -1.0015 -1.2455  2.5341
 8346SOL     OW36499   3.262   0.317   2.074  0.0268  0.5450 -0.1567
 8346SOL    HW136500   3.297   0.369   2.001 -2.6101 -0.8535 -2.4139
 8346SOL    HW236501   3.225   0.374   2.141 -1.1309  0.1016 -0.4236
 8347SOL     OW36502   1.392   2.854  16.642 -0.1774  0.4725  0.1714
 8347SOL    HW136503   1.393   2.934  16.694 -0.4202 -0.1363  1.1145
 8347SOL    HW236504   1.438   2.892  16.568  2.6838 -0.6639  1.3543
 8348SOL     OW36505   0.667   2.428   8.051  0.3913 -0.2737  0.3367
 8348SOL    HW136506   0.594   2.373   8.078  1.0794 -1.1330  0.4290
 8348SOL    HW236507   0.622   2.476   7.981 -0.3675 -0.4118  0.7213
 8349SOL     OW36508   1.756   2.568   8.204 -0.2114  0.0048  0.2440
 8349SOL    HW136509   1.734   2.649   8.158  2.4687  0.1626 -0.7609
 8349SOL    HW236510   1.779   2.518   8.125 -0.8483 -0.3871  0.3083
 8350SOL     OW36511   2.706   0.432  15.572 -0.0535 -0.2516 -0.5732
 8350SOL    HW136512   2.757   0.462  15.647  0.6754  0.9928 -1.5544
 8350SOL    HW236513   2.617   0.447  15.602  0.3942  0.7712  0.2205
 8351SOL     OW36514   1.452   4.638   2.031 -0.5870 -0.0774  0.4077
 8351SOL    HW136515   1.538   4.680   2.034 -2.2618  3.4793 -0.8180
 8351SOL    HW236516   1.394   4.712   2.050  1.3904  1.3534  0.8949
 8352SOL     OW36517   2.180   1.917   7.579  0.4634 -0.3082  0.1004
 8352SOL    HW136518   2.114   1.986   7.587  0.6967 -0.0631 -0.0814
 8352SOL    HW236519   2.245   1.945   7.644  1.5216 -0.6198 -0.8163
 8353SOL     OW36520   2.300   1.604   3.691  0.2069 -0.3449 -0.0244
 8353SOL    HW136521   2.309   1.518   3.650 -0.5973 -0.1129 -0.6995
 8353SOL    HW236522   2.389   1.637   3.705  0.3033 -0.2889 -0.7701
 8354SOL     OW36523   1.525   1.547   3.029 -0.2284  0.3605  0.3439
 8354SOL    HW136524   1.614   1.579   3.038 -0.3706  0.0851  2.6494
 8354SOL    HW236525   1.534   1.496   2.948  0.8755  1.3173 -0.1232
 8355SOL     OW36526   3.851   4.714   3.467 -0.3251  0.3489  0.1878
 8355SOL    HW136527   3.893   0.060   3.418  1.6659 -1.4881 -0.7836
 8355SOL    HW236528   3.913   4.695   3.538 -1.4557 -2.2493  0.5040
 8356SOL     OW36529   1.470   2.527   5.074  0.3041 -0.2949  0.1165
 8356SOL    HW136530   1.437   2.460   5.016 -1.2646 -0.4935  1.2381
 8356SOL    HW236531   1.444   2.604   5.023 -2.1545 -0.7154  0.7375
 8357SOL     OW36532   4.532   0.020  13.510 -0.2343  0.6064 -0.3259
 8357SOL    HW136533   4.452   0.072  13.503 -0.2510  0.4615 -1.2935
 8357SOL    HW236534   4.577   0.081  13.569 -1.8507  0.9786  0.5084
 8358SOL     OW36535   1.387   3.737   1.390 -0.0522  0.2364 -0.3540
 8358SOL    HW136536   1.386   3.668   1.324  0.8500  0.1562 -0.2809
 8358SOL    HW236537   1.313   3.786   1.355  0.2979  0.4156 -0.8438
 8359SOL     OW36538   2.057   3.548  13.953  0.2021  0.5942 -0.3877
 8359SOL    HW136539   2.020   3.636  13.947  1.0124  0.8764 -1.4003
 8359SOL    HW236540   2.005   3.504  13.886 -0.5299  0.3488  0.3498
 8360SOL     OW36541   2.494   3.305   5.986 -1.0585  0.0990  0.5665
 8360SOL    HW136542   2.440   3.320   6.063 -2.1643 -1.0177 -0.0060
 8360SOL    HW236543   2.454   3.228   5.947  0.4970 -1.0762  1.3040
 8361SOL     OW36544   3.101   1.388   5.729  0.5754 -0.1739 -0.5928
 8361SOL    HW136545   3.100   1.454   5.661 -1.0961  0.7798  0.3651
 8361SOL    HW236546   3.161   1.330   5.682  1.8439  1.3878 -0.8882
 8362SOL     OW36547   4.281   1.646  12.286 -0.0169  0.4274  0.1593
 8362SOL    HW136548   4.369   1.672  12.260  0.2949 -0.7921 -0.0005
 8362SOL    HW236549   4.291   1.625  12.379  1.7941  0.3006 -0.0674
 8363SOL     OW36550   1.162   2.333   7.257  0.3011  0.0888  0.5635
 8363SOL    HW136551   1.201   2.264   7.312  1.5943 -0.2107 -0.7296
 8363SOL    HW236552   1.069   2.311   7.258 -0.3510  2.8540 -0.5471
 8364SOL     OW36553   3.249   2.772   0.722 -0.3913  0.1494 -0.1883
 8364SOL    HW136554   3.241   2.703   0.788  2.8897  0.1465  0.1981
 8364SOL    HW236555   3.258   2.724   0.639 -0.7732 -0.1400 -0.0651
 8365SOL     OW36556   1.298   1.425   0.160 -0.3539  0.2828  0.5083
 8365SOL    HW136557   1.222   1.478   0.184  1.3501  3.2361 -0.6887
 8365SOL    HW236558   1.308   1.383   0.245 -1.7407  2.2356  1.6213
 8366SOL     OW36559   1.976   4.348   6.969  0.2782 -0.2362  0.2446
 8366SOL    HW136560   1.998   4.399   7.047 -1.7914 -1.7329  1.8150
 8366SOL    HW236561   1.954   4.421   6.910  2.4247 -0.2631 -0.5617
 8367SOL     OW36562   4.070   4.350  17.150 -0.5215  0.3830  0.3924
 8367SOL    HW136563   4.025   4.339  17.233 -1.0436 -0.1021  0.0403
 8367SOL    HW236564   4.129   4.420  17.178  1.5219 -0.3431 -2.0285
 8368SOL     OW36565   0.340   4.443  13.587  0.2550 -0.1866 -0.0960
 8368SOL    HW136566   0.325   4.348  13.595 -1.2552  0.1253  0.6487
 8368SOL    HW236567   0.261   4.475  13.545  0.5669  2.7948  1.6168
 8369SOL     OW36568   3.738   2.360   7.945  0.0748 -0.4004 -0.6763
 8369SOL    HW136569   3.694   2.435   7.905 -4.2248 -2.0954  0.8668
 8369SOL    HW236570   3.800   2.408   8.000  0.1739  0.2370 -1.3502
 8370SOL     OW36571   2.915   2.809  14.253 -0.3375 -0.0595 -0.0270
 8370SOL    HW136572   2.965   2.852  14.322 -2.1878  0.1134  1.1885
 8370SOL    HW236573   2.931   2.874  14.184 -0.0510 -0.4139 -0.2912
 8371SOL     OW36574   2.916   3.942   3.637  0.2918 -0.5271 -0.0609
 8371SOL    HW136575   3.001   3.898   3.624  0.2462 -0.4656 -0.5907
 8371SOL    HW236576   2.921   4.011   3.571 -1.4530 -0.6307 -0.2967
 8372SOL     OW36577   3.071   0.716   2.493  0.3052 -0.0689  0.1267
 8372SOL    HW136578   3.147   0.665   2.524  0.1590 -0.2271  0.2243
 8372SOL    HW236579   3.109   0.800   2.469  2.6162 -1.1607 -0.1242
 8373SOL     OW36580   1.249   4.335   4.955 -0.4479 -0.6797  0.0417
 8373SOL    HW136581   1.266   4.272   4.884  1.6081 -1.1857  0.9693
 8373SOL    HW236582   1.157   4.359   4.944 -0.4200 -0.6340 -0.0902
 8374SOL     OW36583   4.592   1.130  17.511  0.0152  0.0813  0.3747
 8374SOL    HW136584   4.614   1.201  17.450  1.2673 -0.5424  0.0986
 8374SOL    HW236585   4.506   1.162  17.539  0.3529  1.3718 -0.0496
 8375SOL     OW36586   2.451   2.458  14.567 -0.3270 -0.2099  0.1337
 8375SOL    HW136587   2.412   2.372  14.583 -1.4510  0.6244  1.7329
 8375SOL    HW236588   2.525   2.437  14.509 -0.6225 -0.1410 -0.2723
 8376SOL     OW36589   0.001   4.620   2.985  0.2805 -0.4796 -0.4050
 8376SOL    HW136590   4.698   4.546   3.038  1.0163  0.2286  0.9509
 8376SOL    HW236591   0.018   4.692   3.046 -2.2282  0.1593 -0.4848
 8377SOL     OW36592   2.015   0.517  12.680 -0.1715  0.0064 -0.2493
 8377SOL    HW136593   2.103   0.528  12.717 -1.1547  1.8273  1.5759
 8377SOL    HW236594   1.960   0.528  12.758  0.2927  1.7730 -0.1657
 8378SOL     OW36595   0.315   2.286   4.522  0.4370 -0.1482  0.0808
 8378SOL    HW136596   0.330   2.259   4.431  0.3798  2.9283 -0.8357
 8378SOL    HW236597   0.346   2.204   4.560 -0.0292 -0.2564  0.2304
 8379SOL     OW36598   1.832   1.949   4.457 -0.4732  0.2155  0.7025
 8379SOL    HW136599   1.879   1.867   4.474  0.7538  0.4836 -1.3117
 8379SOL    HW236600   1.860   1.962   4.366 -2.3586 -2.9572 -0.3722
 8380SOL     OW36601   4.440   3.056   9.605 -0.5763  0.4607 -0.4393
 8380SOL    HW136602   4.412   3.028   9.518 -1.3091 -0.7379  0.1702
 8380SOL    HW236603   4.421   2.982   9.664  1.9212  0.8339  0.8120
 8381SOL     OW36604   2.416   0.707   0.691  0.1848 -0.0851  0.4345
 8381SOL    HW136605   2.390   0.645   0.759  0.6876  0.4677  1.1290
 8381SOL    HW236606   2.457   0.773   0.746 -1.3982  0.7611  0.6123
 8382SOL     OW36607   0.180   2.492  13.482 -0.2157 -0.7782 -0.0299
 8382SOL    HW136608   0.164   2.573  13.530  2.5771 -0.3165  0.1582
 8382SOL    HW236609   0.113   2.430  13.512 -0.7296 -0.3022 -0.2001
 8383SOL     OW36610   0.418   2.995   6.240 -0.0355 -0.9292  0.2792
 8383SOL    HW136611   0.367   2.976   6.318 -1.7646 -1.9262 -1.0857
 8383SOL    HW236612   0.346   3.005   6.178 -0.7657 -1.1550  1.1086
 8384SOL     OW36613   1.592   1.629  12.780 -0.2141 -0.9778 -0.6235
 8384SOL    HW136614   1.511   1.677  12.794  1.2452  1.3499 -0.1351
 8384SOL    HW236615   1.611   1.632  12.686  1.8951  0.8555 -0.1329
 8385SOL     OW36616   2.714   3.431  10.124 -0.7133  0.1743  0.7233
 8385SOL    HW136617   2.689   3.386  10.205 -0.8117  0.6386  0.9513
 8385SOL    HW236618   2.628   3.437  10.084 -1.8033 -0.9708  2.9056
 8386SOL     OW36619   4.184   4.275   1.560 -0.8653 -0.9396 -0.0262
 8386SOL    HW136620   4.102   4.261   1.514  1.2231 -1.8256 -3.4897
 8386SOL    HW236621   4.154   4.335   1.628  2.3353 -2.0982  2.4192
 8387SOL     OW36622   4.371   0.719   2.124 -0.0772 -0.3443 -0.1767
 8387SOL    HW136623   4.399   0.649   2.065 -0.2568  0.1932 -0.8925
 8387SOL    HW236624   4.416   0.787   2.075  0.4107  1.7100  3.1282
 8388SOL     OW36625   1.832   2.530  16.761 -0.1383  0.1423  0.5256
 8388SOL    HW136626   1.881   2.458  16.800  0.4531  1.0275  1.4384
 8388SOL    HW236627   1.830   2.504  16.669  0.9344 -0.5607  0.7048
 8389SOL     OW36628   2.543   0.827   8.997 -0.4241 -0.3305  0.8878
 8389SOL    HW136629   2.619   0.782   8.961  0.1898  1.5986 -0.2185
 8389SOL    HW236630   2.487   0.772   8.943 -0.2406  0.2255  0.1291
 8390SOL     OW36631   1.113   2.565   8.137 -0.0933  0.0702 -0.4514
 8390SOL    HW136632   1.142   2.656   8.135  1.2420 -0.3445  0.1770
 8390SOL    HW236633   1.035   2.569   8.082  0.7145  2.3192 -1.4398
 8391SOL     OW36634   4.579   3.953  11.379 -0.1577  0.2361 -0.0921
 8391SOL    HW136635   4.615   4.020  11.437 -0.5330 -0.0592  0.4943
 8391SOL    HW236636   4.491   3.954  11.417  0.8758  2.6710  2.2108
 8392SOL     OW36637   1.150   0.769   2.384 -0.8309 -0.5255 -0.3839
 8392SOL    HW136638   1.058   0.781   2.407 -0.7096 -3.7265  1.6683
 8392SOL    HW236639   1.171   0.676   2.383 -1.2764 -0.6637  2.9487
 8393SOL     OW36640   2.479   0.274   6.293 -0.4765  0.2755  0.8810
 8393SOL    HW136641   2.555   0.261   6.350 -0.3903  0.6601  0.8553
 8393SOL    HW236642   2.445   0.185   6.292 -0.1713  0.1721 -0.1311
 8394SOL     OW36643   1.060   1.932  11.758  0.1452  0.2735 -0.8615
 8394SOL    HW136644   0.976   1.972  11.781  1.5428  1.3242  2.4892
 8394SOL    HW236645   1.098   1.913  11.844 -0.9417 -2.6349 -1.0311
 8395SOL     OW36646   2.464   2.014   4.193 -0.6825 -0.6463 -0.0148
 8395SOL    HW136647   2.517   1.958   4.249  1.2210 -0.0557 -1.2178
 8395SOL    HW236648   2.454   1.975   4.106  0.9041  0.6849 -0.7980
 8396SOL     OW36649   2.680   2.209  10.976  0.1596 -0.7142  0.8897
 8396SOL    HW136650   2.671   2.300  11.005  2.4375  0.6001 -2.4835
 8396SOL    HW236651   2.770   2.181  10.995  0.5907  1.5912  2.3384
 8397SOL     OW36652   1.845   3.076   4.226  0.2437  0.0420 -0.2253
 8397SOL    HW136653   1.909   3.056   4.157 -0.3199 -2.1218 -0.1265
 8397SOL    HW236654   1.797   3.148   4.185 -0.2643 -0.7213 -0.9682
 8398SOL     OW36655   1.874   3.685   5.517  0.3445  0.3652 -0.0222
 8398SOL    HW136656   1.859   3.592   5.501 -0.9703  0.6431 -0.3456
 8398SOL    HW236657   1.799   3.714   5.568  0.3366  0.2547  0.0311
 8399SOL     OW36658   4.069   2.822   7.314  0.0102  0.1846 -0.0307
 8399SOL    HW136659   3.995   2.774   7.277 -0.0817 -0.7019  1.3108
 8399SOL    HW236660   4.142   2.763   7.295  0.0860  0.5273 -0.8201
 8400SOL     OW36661   3.935   1.572  17.633  0.7483  0.3480  0.6004
 8400SOL    HW136662   3.896   1.550  17.549 -2.0933 -0.9758  2.2597
 8400SOL    HW236663   3.970   1.656  17.605  1.0362 -0.2979 -0.9255
 8401SOL     OW36664   0.566   2.553  13.757  0.4986  0.1361  0.4035
 8401SOL    HW136665   0.538   2.612  13.827  0.8427  0.8779 -0.0836
 8401SOL    HW236666   0.538   2.591  13.674 -0.2983 -1.6841 -0.1765
 8402SOL     OW36667   4.259   1.464  12.022 -0.5316  0.4321  0.6098
 8402SOL    HW136668   4.335   1.516  11.994 -1.6910  1.7198 -0.1943
 8402SOL    HW236669   4.256   1.400  11.951  2.7461 -0.5339  1.3614
 8403SOL     OW36670   3.908   3.898   6.239  0.4107  0.1809  0.1341
 8403SOL    HW136671   3.827   3.900   6.189  0.5132  0.2561 -0.0314
 8403SOL    HW236672   3.960   3.964   6.192  1.0892 -1.7098 -1.7464
 8404SOL     OW36673   0.922   4.041   2.185 -0.3942  0.9299 -0.1159
 8404SOL    HW136674   0.993   4.105   2.187  0.6180 -0.1384 -1.7049
 8404SOL    HW236675   0.871   4.068   2.261 -1.6228  1.4307 -1.1085
 8405SOL     OW36676   1.470   2.761   3.506  0.2459  0.1495 -0.1208
 8405SOL    HW136677   1.451   2.713   3.587  1.5783 -0.5770 -0.2197
 8405SOL    HW236678   1.508   2.690   3.453  2.2755 -0.1277  1.6819
 8406SOL     OW36679   0.363   2.272   1.043  0.0126  0.4220 -0.3173
 8406SOL    HW136680   0.323   2.316   0.968  2.3724 -0.7803 -2.2888
 8406SOL    HW236681   0.287   2.216   1.062  2.0082 -1.3697  2.4189
 8407SOL     OW36682   2.799   1.312   0.398 -0.0041 -0.4480  0.1970
 8407SOL    HW136683   2.780   1.296   0.490  5.4409  0.6780  1.4856
 8407SOL    HW236684   2.894   1.326   0.395  0.2556 -2.4700 -0.8467
 8408SOL     OW36685   2.734   4.005   8.750  0.0232 -0.0851 -0.6165
 8408SOL    HW136686   2.673   3.959   8.693 -0.5972  0.9009 -0.7383
 8408SOL    HW236687   2.711   4.098   8.755  0.0332 -0.0278 -1.7510
 8409SOL     OW36688   0.018   3.727   8.382 -0.1724 -0.2475  0.7103
 8409SOL    HW136689   0.070   3.798   8.420  2.1387 -0.4273 -2.0841
 8409SOL    HW236690   0.071   3.660   8.424  0.6083  0.0939  0.2739
 8410SOL     OW36691   2.620   1.328   2.876  0.1410 -0.6944 -0.4772
 8410SOL    HW136692   2.694   1.368   2.922  0.4524  0.2391 -1.8160
 8410SOL    HW236693   2.652   1.240   2.896 -2.0992 -0.9979  1.8803
 8411SOL     OW36694   0.920   2.739   9.442 -0.1784  0.0172  0.0430
 8411SOL    HW136695   0.993   2.800   9.453 -0.7661  0.7097  0.1475
 8411SOL    HW236696   0.961   2.655   9.461 -1.2853 -0.4852  0.2531
 8412SOL     OW36697   3.404   2.257   5.437 -0.2984 -0.5094  0.2956
 8412SOL    HW136698   3.340   2.304   5.489 -0.2642 -1.4781  1.2233
 8412SOL    HW236699   3.434   2.330   5.383  2.3578 -2.3922 -0.8525
 8413SOL     OW36700   2.256   2.072  13.038 -1.2409  0.2264 -0.0887
 8413SOL    HW136701   2.269   2.067  13.133 -3.5422 -2.7291  0.0786
 8413SOL    HW236702   2.268   2.167  13.042 -0.6136  0.1290  0.4518
 8414SOL     OW36703   0.744   3.187  16.932  0.3033  0.2173  0.3025
 8414SOL    HW136704   0.700   3.265  16.965  0.1530  0.1170  0.3409
 8414SOL    HW236705   0.698   3.122  16.986  1.5872 -1.1704 -0.2610
 8415SOL     OW36706   3.995   3.484   4.067  0.8205  0.0203 -0.1994
 8415SOL    HW136707   3.927   3.523   4.013  0.5144 -0.5692 -0.2373
 8415SOL    HW236708   3.975   3.391   4.075  1.3703 -0.3216 -2.7657
 8416SOL     OW36709   0.694   0.575   5.367 -0.1870 -0.2701 -0.4008
 8416SOL    HW136710   0.757   0.602   5.300 -1.4893 -1.3990 -2.1129
 8416SOL    HW236711   0.709   0.642   5.433 -0.3188 -0.1509 -0.4921
 8417SOL     OW36712   2.879   1.885   7.269 -0.1676  0.0707  0.1379
 8417SOL    HW136713   2.834   1.850   7.345  1.0084  1.0919  1.3187
 8417SOL    HW236714   2.966   1.906   7.303 -0.3192  0.0191  0.5547
 8418SOL     OW36715   2.988   3.401  10.103  0.0690 -0.6037 -0.7483
 8418SOL    HW136716   3.000   3.307  10.111  0.8292 -0.3301  1.1994
 8418SOL    HW236717   2.893   3.400  10.098 -0.0298  0.3689  1.0607
 8419SOL     OW36718   3.841   0.815   4.057  0.5915  0.6929 -0.0872
 8419SOL    HW136719   3.748   0.829   4.077  0.1077 -0.1963 -1.7178
 8419SOL    HW236720   3.879   0.900   4.077  3.3528 -0.7164  0.7277
 8420SOL     OW36721   1.613   0.107   3.083  0.3210  0.2996 -0.0581
 8420SOL    HW136722   1.652   0.020   3.093 -0.3514  0.0442  0.2916
 8420SOL    HW236723   1.568   0.116   3.167  1.4452 -0.4896  0.6333
 8421SOL     OW36724   2.513   0.639   2.759  0.1581  0.2657  0.1559
 8421SOL    HW136725   2.467   0.583   2.696  0.6286  1.6507 -1.4426
 8421SOL    HW236726   2.440   0.700   2.768 -0.2209 -0.2045  0.2173
 8422SOL     OW36727   3.276   3.862  10.532 -0.4208 -0.4590  0.5774
 8422SOL    HW136728   3.212   3.874  10.602 -0.2037  0.5449  0.5991
 8422SOL    HW236729   3.347   3.915  10.567  2.8048 -3.0373 -2.0190
 8423SOL     OW36730   3.058   1.280   3.735  0.6182 -0.1711 -0.6297
 8423SOL    HW136731   3.103   1.217   3.792 -2.7717  0.1614  2.4072
 8423SOL    HW236732   3.136   1.311   3.689 -0.4174  3.4006  0.0458
 8424SOL     OW36733   2.240   0.878  14.449  0.3940  0.0597 -0.4571
 8424SOL    HW136734   2.252   0.814  14.379 -0.2539 -2.3283  1.6070
 8424SOL    HW236735   2.299   0.838  14.513 -1.6598 -0.4983  1.0943
 8425SOL     OW36736   3.231   3.921   5.819  0.2165  0.1132  0.1776
 8425SOL    HW136737   3.176   3.901   5.894  1.1947 -2.0871  0.2841
 8425SOL    HW236738   3.317   3.907   5.858  0.5381 -1.6890 -1.2059
 8426SOL     OW36739   2.774   1.631   6.893  0.1160 -0.2705  0.1959
 8426SOL    HW136740   2.693   1.594   6.859 -1.0822  3.7130 -1.1303
 8426SOL    HW236741   2.759   1.608   6.985 -0.6263  1.7939  0.5729
 8427SOL     OW36742   4.149   2.212   5.912 -0.4352  0.2111  0.6820
 8427SOL    HW136743   4.219   2.163   5.955 -0.6051  0.3838  1.1619
 8427SOL    HW236744   4.194   2.291   5.883  1.3223  0.2461  3.4792
 8428SOL     OW36745   0.635   3.004   4.415 -0.0569  0.3115  0.0428
 8428SOL    HW136746   0.679   2.995   4.331 -0.8129  0.7842 -0.3959
 8428SOL    HW236747   0.542   2.988   4.398  0.7369 -4.7188  0.1840
 8429SOL     OW36748   3.679   1.968   5.211 -0.3640  0.0796  0.8414
 8429SOL    HW136749   3.751   1.919   5.251 -0.7031 -0.5683  0.6593
 8429SOL    HW236750   3.664   2.046   5.264  2.3381  0.4102  1.1549
 8430SOL     OW36751   3.397   0.849   5.197  0.1284 -0.4325 -0.0484
 8430SOL    HW136752   3.306   0.875   5.215  0.7651  0.7257  1.5373
 8430SOL    HW236753   3.406   0.777   5.259  0.6352 -0.3388 -0.0159
 8431SOL     OW36754   0.859   3.554   9.500 -0.0670  0.1846  0.3266
 8431SOL    HW136755   0.930   3.497   9.469 -0.2204  0.0956  0.1368
 8431SOL    HW236756   0.795   3.489   9.531  0.6000  0.9238  3.1763
 8432SOL     OW36757   3.159   0.876   3.438 -0.3256 -0.2173  0.0788
 8432SOL    HW136758   3.143   0.909   3.350 -0.0294  3.1813  1.2982
 8432SOL    HW236759   3.229   0.812   3.427 -2.0378 -1.9349 -0.7994
 8433SOL     OW36760   3.126   4.091   2.013 -0.4430 -0.0359  0.5126
 8433SOL    HW136761   3.086   4.025   1.956 -2.1463 -0.1243  1.8247
 8433SOL    HW236762   3.216   4.064   1.997 -0.6905 -1.7697  2.0711
 8434SOL     OW36763   4.604   2.819   6.605 -0.4691 -0.0281  0.1108
 8434SOL    HW136764   4.603   2.752   6.673  2.1038  0.9467  1.1193
 8434SOL    HW236765   4.524   2.870   6.605  0.9402  2.1700  0.5366
 8435SOL     OW36766   1.313   1.396  13.831  0.4425  0.0399  0.1939
 8435SOL    HW136767   1.401   1.365  13.852  0.0828 -1.7187 -0.8878
 8435SOL    HW236768   1.326   1.490  13.827  1.3782 -0.1220 -0.4377
 8436SOL     OW36769   2.955   2.724   4.630  1.1014  0.0613  0.0700
 8436SOL    HW136770   2.941   2.631   4.645  2.1848 -0.2463 -0.8215
 8436SOL    HW236771   2.978   2.736   4.537 -1.6581  0.1151 -0.6128
 8437SOL     OW36772   4.230   4.305  12.171 -0.1802  0.0070  0.1579
 8437SOL    HW136773   4.156   4.275  12.118 -1.4118  0.5169  1.5977
 8437SOL    HW236774   4.308   4.262  12.136  1.2823  3.2363 -0.5753
 8438SOL     OW36775   1.759   0.989  17.362 -0.2810 -1.0252 -0.1738
 8438SOL    HW136776   1.841   1.033  17.340 -0.9372  0.1839 -0.2107
 8438SOL    HW236777   1.710   1.003  17.281  0.9924 -0.7558 -0.9004
 8439SOL     OW36778   3.118   1.100   2.897 -0.1621  0.1100 -0.0065
 8439SOL    HW136779   3.083   1.019   2.935  0.5155  0.6556  1.8017
 8439SOL    HW236780   3.049   1.125   2.835  2.3659  2.6773 -1.7889
 8440SOL     OW36781   2.730   2.052   3.901  0.0124  0.3447 -0.1812
 8440SOL    HW136782   2.639   2.039   3.873  0.5568  0.7575 -2.1561
 8440SOL    HW236783   2.727   2.079   3.993  0.2659 -2.3194  0.6079
 8441SOL     OW36784   0.045   4.329  13.589 -0.2968 -0.6598  0.4975
 8441SOL    HW136785   0.081   4.401  13.538  0.9894 -2.1758 -0.7119
 8441SOL    HW236786   4.711   4.370  13.653  1.7611  0.1138  1.8709
 8442SOL     OW36787   0.414   1.190  15.919 -0.5672 -0.0014  0.3674
 8442SOL    HW136788   0.411   1.159  16.010  2.1340 -1.3378 -0.0040
 8442SOL    HW236789   0.380   1.109  15.881 -3.0149  1.0040  0.4471
 8443SOL     OW36790   4.456   3.708  11.529 -0.2993  0.2708 -0.4264
 8443SOL    HW136791   4.534   3.666  11.494  0.0842 -0.1951  1.0029
 8443SOL    HW236792   4.393   3.706  11.457 -0.1598 -0.7084 -0.5073
 8444SOL     OW36793   4.467   2.182   4.843  0.7882  0.0444 -0.0386
 8444SOL    HW136794   4.373   2.192   4.858  0.6559 -1.3866  0.0615
 8444SOL    HW236795   4.488   2.275   4.832  2.1718  0.1937  3.7199
 8445SOL     OW36796   2.929   3.372   8.813 -0.4051 -0.6847  0.8174
 8445SOL    HW136797   2.944   3.425   8.891  0.4325 -0.1013  0.2519
 8445SOL    HW236798   3.005   3.397   8.761 -1.3536 -0.9911 -0.7205
 8446SOL     OW36799   4.356   2.165   0.658  0.3307 -0.0878  0.1376
 8446SOL    HW136800   4.308   2.233   0.705  0.7355 -0.7090  1.4454
 8446SOL    HW236801   4.356   2.202   0.570 -0.0926  0.5901  0.4236
 8447SOL     OW36802   1.952   4.009   2.492  0.0366 -0.5484  0.1453
 8447SOL    HW136803   1.864   3.990   2.459  0.4566 -0.0188 -1.2416
 8447SOL    HW236804   1.961   3.958   2.573  3.1823 -0.2417 -0.0268
 8448SOL     OW36805   0.531   0.806   5.126  0.1600 -0.5087 -0.0421
 8448SOL    HW136806   0.575   0.860   5.192  0.7360 -1.8698  0.6890
 8448SOL    HW236807   0.549   0.864   5.052  1.3197 -1.2430 -0.3323
 8449SOL     OW36808   1.232   3.907   5.658  0.2577  0.1331 -0.1529
 8449SOL    HW136809   1.263   3.900   5.568  0.6971 -0.0022  0.0122
 8449SOL    HW236810   1.174   3.830   5.664  0.4236 -0.1174 -1.8045
 8450SOL     OW36811   0.841   0.823   3.200  0.1330  0.3532  0.2901
 8450SOL    HW136812   0.753   0.857   3.186  0.4473  1.2225  0.4348
 8450SOL    HW236813   0.856   0.754   3.135  0.1284  1.1886 -0.6024
 8451SOL     OW36814   1.617   1.795   6.705  0.4890 -0.0251 -0.1054
 8451SOL    HW136815   1.616   1.785   6.801  1.0592  1.0689  0.0226
 8451SOL    HW236816   1.536   1.751   6.681 -0.1723  1.0948  0.0548
 8452SOL     OW36817   0.866   4.332  11.845  0.5451  0.4880  0.1357
 8452SOL    HW136818   0.893   4.257  11.792 -1.3437  0.1803 -0.3975
 8452SOL    HW236819   0.872   4.401  11.779  3.0485 -0.9274 -1.1683
 8453SOL     OW36820   3.080   0.003   4.074  0.6053 -0.9238  0.2648
 8453SOL    HW136821   3.035   4.645   4.093  1.0345 -0.8814  1.4939
 8453SOL    HW236822   3.108   0.040   4.158 -0.2620  0.3650 -0.0204
 8454SOL     OW36823   4.679   2.837  11.167 -0.1318 -0.4247 -0.1240
 8454SOL    HW136824   4.640   2.779  11.233  1.9165 -0.8259  0.7277
 8454SOL    HW236825   4.711   2.912  11.217  1.9235 -0.9648 -0.6066
 8455SOL     OW36826   1.251   0.344  17.230 -0.0105  0.2004 -0.0387
 8455SOL    HW136827   1.314   0.275  17.253  1.7184  2.3995  1.7676
 8455SOL    HW236828   1.311   0.417  17.213 -0.9908  0.6870 -1.3897
 8456SOL     OW36829   1.045   4.516  10.659 -1.4356  0.0411  0.3269
 8456SOL    HW136830   0.969   4.468  10.627 -0.2873 -0.7230 -1.2227
 8456SOL    HW236831   1.006   4.568  10.730 -1.3835 -1.1772  1.2562
 8457SOL     OW36832   0.532   1.631   1.266 -0.2176 -0.1012 -0.7564
 8457SOL    HW136833   0.601   1.697   1.271  1.0496 -1.5068  0.2102
 8457SOL    HW236834   0.561   1.584   1.188  1.0676 -3.2018  1.5923
 8458SOL     OW36835   4.675   0.223   6.721  0.0176  0.3231 -0.0761
 8458SOL    HW136836   4.646   0.315   6.720 -0.6407  0.1180  0.6029
 8458SOL    HW236837   4.655   0.201   6.811 -0.4020 -0.6494 -0.4093
 8459SOL     OW36838   0.090   0.271   3.761  0.2410  0.5500 -0.1063
 8459SOL    HW136839   0.086   0.330   3.685  1.0488  0.7756  0.0312
 8459SOL    HW236840   0.083   0.185   3.721  2.3184  0.7671 -0.9044
 8460SOL     OW36841   3.188   1.457   5.998 -0.0843  0.0351 -0.1865
 8460SOL    HW136842   3.263   1.482   5.944  0.9717  0.2296  1.3649
 8460SOL    HW236843   3.116   1.442   5.937 -1.5232 -0.8068  1.7363
 8461SOL     OW36844   2.277   1.828  14.254 -0.1040 -0.0949 -0.2217
 8461SOL    HW136845   2.275   1.923  14.249 -1.6356 -0.0858  0.5296
 8461SOL    HW236846   2.315   1.819  14.341 -0.9092  2.8594  0.4197
 8462SOL     OW36847   2.909   1.544   5.549 -0.0140 -0.1058  0.2298
 8462SOL    HW136848   2.911   1.449   5.556 -1.8882  0.0229  2.4273
 8462SOL    HW236849   2.852   1.563   5.474  0.1908 -1.0714 -0.1778
 8463SOL     OW36850   2.371   0.007   2.779  0.1153  0.4689 -0.5613
 8463SOL    HW136851   2.369   4.710   2.873  0.8512 -1.9535 -1.0932
 8463SOL    HW236852   2.424   4.659   2.745  1.3941  1.1748 -0.0636
 8464SOL     OW36853   2.124   3.610  16.394  0.0061  0.0661 -0.0971
 8464SOL    HW136854   2.120   3.698  16.356  0.9709  0.1579  0.0248
 8464SOL    HW236855   2.209   3.581  16.360  0.0032  0.6519 -0.6069
 8465SOL     OW36856   1.356   0.601   5.220  0.4028 -0.1379  0.0112
 8465SOL    HW136857   1.392   0.688   5.238 -0.0130  0.2260 -0.9335
 8465SOL    HW236858   1.439   0.553   5.226  0.5824  0.1069 -0.5688
 8466SOL     OW36859   4.312   2.863   5.373  0.1268  0.2451  0.0983
 8466SOL    HW136860   4.365   2.943   5.377 -0.5568  0.6611  1.0607
 8466SOL    HW236861   4.367   2.804   5.322  1.6958  1.3270  0.5463
 8467SOL     OW36862   2.870   3.125  11.901 -0.2034  0.0120  0.6837
 8467SOL    HW136863   2.816   3.061  11.948  0.0438 -0.0426  0.8942
 8467SOL    HW236864   2.949   3.116  11.954  0.3514 -2.6841 -0.6072
 8468SOL     OW36865   3.000   3.697  17.198  0.2981 -0.3029 -0.1053
 8468SOL    HW136866   2.970   3.608  17.177 -0.7130  0.1701 -0.6786
 8468SOL    HW236867   3.005   3.730  17.108  1.3612  2.0508  0.8056
 8469SOL     OW36868   3.544   1.447   5.253  0.3369  0.2627 -0.2260
 8469SOL    HW136869   3.553   1.491   5.169  0.2846 -1.0502 -0.9228
 8469SOL    HW236870   3.522   1.517   5.315  1.3480  0.0361  0.3924
 8470SOL     OW36871   0.416   1.886   2.211  0.7517 -0.0999  0.5513
 8470SOL    HW136872   0.353   1.873   2.140  2.4960 -0.6950 -0.8761
 8470SOL    HW236873   0.370   1.840   2.282 -1.7233 -1.7314 -2.1148
 8471SOL     OW36874   1.831   0.720  16.919  0.0054  0.3342  0.2329
 8471SOL    HW136875   1.892   0.779  16.963  0.5965 -0.3760  0.3590
 8471SOL    HW236876   1.777   0.692  16.992  1.8123 -1.3774  0.9150
 8472SOL     OW36877   3.587   2.585   7.842 -0.7145 -0.3835 -0.5058
 8472SOL    HW136878   3.589   2.663   7.787  0.0997 -1.5937 -2.1919
 8472SOL    HW236879   3.494   2.591   7.861 -0.3183 -1.3613  1.7370
 8473SOL     OW36880   3.098   0.583   8.253 -0.0244 -0.7506 -0.0101
 8473SOL    HW136881   3.111   0.604   8.345  0.3222  0.0360 -0.2440
 8473SOL    HW236882   3.170   0.631   8.212  0.2414 -2.2761 -1.3449
 8474SOL     OW36883   4.033   3.003  12.286 -0.2307  0.1302  0.1843
 8474SOL    HW136884   4.129   3.006  12.287 -0.2267 -0.3387  0.9582
 8474SOL    HW236885   4.020   2.938  12.217  0.4443 -1.2320  1.3355
 8475SOL     OW36886   2.545   1.888   9.474  0.0313 -0.3747  0.1769
 8475SOL    HW136887   2.636   1.873   9.501  0.4770 -0.8934 -1.5381
 8475SOL    HW236888   2.549   1.983   9.479  1.0131 -0.3759 -0.4879
 8476SOL     OW36889   2.871   0.157   5.479 -0.7677  0.1454  0.2222
 8476SOL    HW136890   2.897   0.080   5.427  0.1675  0.2295  0.5649
 8476SOL    HW236891   2.844   0.209   5.404 -3.1354 -4.0586 -1.8344
 8477SOL     OW36892   0.015   3.364   9.237  0.1328  0.0725 -0.3474
 8477SOL    HW136893   4.654   3.387   9.201 -0.0347  0.8258  0.5381
 8477SOL    HW236894   0.002   3.313   9.318  1.1785  0.6247  0.1595
 8478SOL     OW36895   2.444   3.721  12.145 -0.2294 -0.1377  0.3013
 8478SOL    HW136896   2.462   3.631  12.174  2.4307  0.5486  0.7398
 8478SOL    HW236897   2.527   3.738  12.101 -0.7588  2.2241  0.2097
 8479SOL     OW36898   3.361   3.385  15.085  0.0100  0.2542  0.1443
 8479SOL    HW136899   3.403   3.321  15.027 -2.0054  1.7325 -2.9076
 8479SOL    HW236900   3.340   3.459  15.028  3.4722  0.9879 -0.1999
 8480SOL     OW36901   1.549   4.669   9.431 -0.2597 -0.3590 -0.3221
 8480SOL    HW136902   1.597   4.587   9.420  1.0858  0.6273 -2.0001
 8480SOL    HW236903   1.469   4.634   9.470  0.4897  1.1369  2.5712
 8481SOL     OW36904   4.267   0.588   3.035  0.2945  0.2882  0.0271
 8481SOL    HW136905   4.361   0.598   3.050  0.6547 -3.3076  0.3434
 8481SOL    HW236906   4.244   0.680   3.022  0.4519  0.3363  0.0818
 8482SOL     OW36907   4.587   3.107   8.362 -0.1724  0.1827 -0.0643
 8482SOL    HW136908   4.493   3.119   8.375 -0.2256 -0.1468 -0.1412
 8482SOL    HW236909   4.594   3.124   8.268 -0.6461  1.0154  0.0525
 8483SOL     OW36910   3.835   2.859   8.819 -0.4582  0.1755 -0.2907
 8483SOL    HW136911   3.751   2.814   8.832  0.0104 -0.2161  1.2726
 8483SOL    HW236912   3.829   2.944   8.861  1.3295  1.3663 -2.4267
 8484SOL     OW36913   3.000   1.196   6.651  0.4216 -0.1049 -0.1101
 8484SOL    HW136914   2.982   1.290   6.646  2.6978  0.2781 -1.1785
 8484SOL    HW236915   3.009   1.165   6.561 -1.2696 -3.2561  0.8144
 8485SOL     OW36916   3.189   3.919  12.109  0.1338 -0.1009 -0.1193
 8485SOL    HW136917   3.256   3.980  12.077  1.2502 -1.1300  0.2756
 8485SOL    HW236918   3.118   3.954  12.055 -0.0858 -0.4084 -0.0287
 8486SOL     OW36919   3.153   2.428   3.112  0.0888  0.0990 -0.3619
 8486SOL    HW136920   3.171   2.466   3.026  0.8134 -1.4978 -0.9082
 8486SOL    HW236921   3.179   2.337   3.096  0.0733  0.1724 -0.8086
 8487SOL     OW36922   0.391   0.132   3.372 -0.5228 -0.8183  0.7783
 8487SOL    HW136923   0.481   0.101   3.382  0.2065  0.6163 -1.4960
 8487SOL    HW236924   0.367   0.098   3.286 -1.2527  0.9292  0.3008
 8488SOL     OW36925   2.282   3.625  15.029 -0.4745  0.1864  0.1733
 8488SOL    HW136926   2.344   3.699  15.035 -2.3159  1.8792 -1.4712
 8488SOL    HW236927   2.310   3.581  14.949 -1.7224  0.0562 -0.1872
 8489SOL     OW36928   3.797   2.471   4.391 -0.1016  0.1596  0.3809
 8489SOL    HW136929   3.798   2.413   4.467  1.4317  0.2397  0.4231
 8489SOL    HW236930   3.787   2.553   4.440 -1.7483 -0.0470  0.3565
 8490SOL     OW36931   2.186   2.896  12.317  0.3142  0.0559  0.1846
 8490SOL    HW136932   2.133   2.874  12.240  0.8094 -2.3224  0.5393
 8490SOL    HW236933   2.142   2.977  12.344  1.1926  1.3582 -2.2443
 8491SOL     OW36934   4.610   4.500   2.216 -0.4219  0.0870  0.3253
 8491SOL    HW136935   4.690   4.553   2.221 -0.5343  0.2723  0.1891
 8491SOL    HW236936   4.650   4.415   2.228 -0.7509 -0.5654 -3.0037
 8492SOL     OW36937   0.602   0.357   6.956  0.0754  0.0991 -0.1582
 8492SOL    HW136938   0.614   0.369   6.862  1.9089 -0.1953  0.0343
 8492SOL    HW236939   0.546   0.280   6.965  0.1671  0.3682  2.5598
 8493SOL     OW36940   4.471   3.991   3.214 -0.7184 -0.0720 -0.2906
 8493SOL    HW136941   4.530   3.916   3.225  0.1995  0.5740 -0.7986
 8493SOL    HW236942   4.384   3.955   3.230 -0.8399  0.3842  0.0840
 8494SOL     OW36943   1.475   3.248   9.419  0.2421  0.1814  0.6427
 8494SOL    HW136944   1.550   3.222   9.473  0.1649  0.5596  0.9325
 8494SOL    HW236945   1.512   3.275   9.335  2.1225 -0.6767  1.1925
 8495SOL     OW36946   4.176   4.230   4.161  0.3025  0.1912 -0.0285
 8495SOL    HW136947   4.181   4.278   4.078  1.6282 -0.4343 -0.3069
 8495SOL    HW236948   4.262   4.249   4.198  0.1473  0.6078  0.1251
 8496SOL     OW36949   2.252   2.467   5.378  0.1433 -0.0471 -0.1222
 8496SOL    HW136950   2.220   2.399   5.438  1.8250 -0.6789  0.0477
 8496SOL    HW236951   2.212   2.435   5.298  1.0885  0.1607 -0.6765
 8497SOL     OW36952   0.533   2.597  10.699 -0.6220 -0.7516  0.3460
 8497SOL    HW136953   0.490   2.662  10.753  3.9230  2.3710  0.2796
 8497SOL    HW236954   0.605   2.570  10.756  0.2160 -1.2578 -0.9370
 8498SOL     OW36955   2.547   2.238   7.406 -0.4193 -0.1324  0.7092
 8498SOL    HW136956   2.615   2.241   7.474 -0.3459 -0.5016  0.6534
 8498SOL    HW236957   2.558   2.149   7.374  1.5162  0.6109 -0.6688
 8499SOL     OW36958   4.367   4.407   4.699 -0.2126 -0.1788  0.5593
 8499SOL    HW136959   4.330   4.330   4.742 -0.4042  0.1210  0.9277
 8499SOL    HW236960   4.347   4.385   4.608  3.3998 -3.7867  0.6392
 8500SOL     OW36961   0.040   3.840   1.608 -0.4028  0.1549 -0.0749
 8500SOL    HW136962   0.094   3.817   1.533 -0.9274  0.8255 -0.6529
 8500SOL    HW236963   0.081   3.914   1.653  1.3771 -0.0010 -1.4530
 8501SOL     OW36964   1.643   1.252  14.719 -0.0649  0.6594  0.7448
 8501SOL    HW136965   1.548   1.239  14.711 -0.1357  1.7193 -0.0973
 8501SOL    HW236966   1.655   1.253  14.624  2.2175  2.0523  1.0513
 8502SOL     OW36967   0.475   4.169  13.778 -0.3599  0.3249 -0.0492
 8502SOL    HW136968   0.386   4.161  13.746 -0.2275  2.2180 -0.8894
 8502SOL    HW236969   0.509   4.080  13.767 -0.2456  0.4363 -0.6165
 8503SOL     OW36970   1.723   1.826   8.018  0.0438  0.6047  0.1840
 8503SOL    HW136971   1.763   1.739   8.022  0.2390  0.5732 -2.4927
 8503SOL    HW236972   1.666   1.826   8.095  0.6044 -0.3270  0.5947
 8504SOL     OW36973   3.591   2.568   5.960  0.1656  0.4562  0.7628
 8504SOL    HW136974   3.579   2.630   5.888  0.4107 -1.0830 -0.5896
 8504SOL    HW236975   3.622   2.620   6.034 -1.7147  2.3298  0.2432
 8505SOL     OW36976   0.879   3.980   5.929  0.1728 -0.2520  0.2941
 8505SOL    HW136977   0.842   3.898   5.895  0.4959 -0.3368  0.1395
 8505SOL    HW236978   0.867   4.043   5.859 -0.0305 -0.8217 -0.1837
 8506SOL     OW36979   0.015   2.969  10.443 -0.6890 -0.1602 -0.6111
 8506SOL    HW136980   4.670   2.979  10.508 -0.3962 -1.0050 -0.1587
 8506SOL    HW236981   4.706   3.024  10.372 -1.0162 -0.7574 -0.9157
 8507SOL     OW36982   0.622   1.571  17.033  0.1655  0.3262 -0.0790
 8507SOL    HW136983   0.687   1.553  16.965 -0.1301  0.2047 -0.3279
 8507SOL    HW236984   0.558   1.624  16.986 -2.1433 -2.3749 -0.0145
 8508SOL     OW36985   0.282   1.945   8.095 -0.0378 -0.6043 -0.3160
 8508SOL    HW136986   0.283   1.980   8.006 -0.2169  1.4028  0.4895
 8508SOL    HW236987   0.235   2.017   8.136 -0.6752 -2.4208  2.1093
 8509SOL     OW36988   2.863   1.006   2.289 -0.4151  0.3246 -0.5401
 8509SOL    HW136989   2.859   0.969   2.201 -1.6402  1.6525 -1.0382
 8509SOL    HW236990   2.794   0.959   2.335  0.9442 -1.3193 -0.1827
 8510SOL     OW36991   2.155   4.098   4.094  0.1850 -0.1585  0.6901
 8510SOL    HW136992   2.119   4.050   4.168  0.5432  1.1249  1.6945
 8510SOL    HW236993   2.074   4.118   4.045 -0.3738 -1.7983  0.9577
 8511SOL     OW36994   1.211   1.967   4.177 -0.1020 -0.2449  0.4116
 8511SOL    HW136995   1.251   2.006   4.099  0.1322 -2.7044 -0.6912
 8511SOL    HW236996   1.268   2.018   4.235  1.2241 -2.8945  1.4038
 8512SOL     OW36997   2.549   3.540   7.038  0.1197  0.1227 -0.8943
 8512SOL    HW136998   2.552   3.632   7.013 -0.0112  0.6526  1.0365
 8512SOL    HW236999   2.468   3.518   6.992 -0.3170  0.9703 -0.5426
 8513SOL     OW37000   4.039   1.475  14.982  0.0841 -0.1924  0.0597
 8513SOL    HW137001   3.984   1.434  14.915  0.7236 -1.1708  0.1255
 8513SOL    HW237002   4.010   1.422  15.056  0.4169 -1.0092 -0.3916
 8514SOL     OW37003   2.321   0.790   6.017 -0.2737  0.0982 -0.3125
 8514SOL    HW137004   2.333   0.877   5.980  1.0007 -0.0857 -0.3262
 8514SOL    HW237005   2.238   0.810   6.060 -0.5111  0.9199 -1.1675
 8515SOL     OW37006   0.981   3.088   4.067 -0.0939  0.4221  0.2945
 8515SOL    HW137007   1.050   3.036   4.027 -0.2280 -0.5640  1.3321
 8515SOL    HW237008   1.001   3.179   4.042 -0.0045 -0.1164 -1.5923
 8516SOL     OW37009   3.775   0.748   2.954 -0.2730  0.0822 -0.3064
 8516SOL    HW137010   3.802   0.797   2.876  0.8148  1.1841  0.7716
 8516SOL    HW237011   3.736   0.666   2.921  0.1951 -0.1013 -0.4076
 8517SOL     OW37012   1.815   3.561   7.724 -0.1652  0.3509 -0.3916
 8517SOL    HW137013   1.797   3.562   7.818  1.1205 -1.4166 -0.1248
 8517SOL    HW237014   1.769   3.485   7.690  1.0810 -1.5422  2.1323
 8518SOL     OW37015   2.235   2.299   0.855 -0.0584  0.0574 -1.1681
 8518SOL    HW137016   2.328   2.282   0.870 -0.1978 -0.7878 -1.2653
 8518SOL    HW237017   2.223   2.374   0.913  1.0770 -0.3589 -0.3957
 8519SOL     OW37018   2.402   1.213   1.556  0.0310  0.5053  0.1843
 8519SOL    HW137019   2.343   1.286   1.541 -0.5418 -0.2019 -1.0025
 8519SOL    HW237020   2.380   1.198   1.648 -2.0869 -1.8836 -0.7159
 8520SOL     OW37021   1.586   4.315   5.835 -0.4119 -0.1774 -0.2685
 8520SOL    HW137022   1.637   4.319   5.916  0.7705 -0.0722 -1.0181
 8520SOL    HW237023   1.518   4.252   5.857 -0.3268 -0.5886 -1.1768
 8521SOL     OW37024   4.721   3.375  13.144  0.0926 -0.0201 -0.1741
 8521SOL    HW137025   0.055   3.301  13.128 -0.4070 -0.4411 -0.0595
 8521SOL    HW237026   4.678   3.393  13.060  0.6911  1.5059 -0.1498
 8522SOL     OW37027   2.236   2.344   6.064 -0.2278 -0.0377 -0.3029
 8522SOL    HW137028   2.141   2.335   6.073 -0.1472  0.3841  0.9218
 8522SOL    HW237029   2.241   2.409   6.134  0.9628  0.2220 -0.6297
 8523SOL     OW37030   1.969   2.570   5.878  0.4984  0.4837  0.3305
 8523SOL    HW137031   1.876   2.594   5.875  1.2609  3.3733  0.0611
 8523SOL    HW237032   1.988   2.598   5.968 -0.5440  0.6893  0.4940
 8524SOL     OW37033   4.034   1.490   6.368  0.4277  0.0264 -0.5962
 8524SOL    HW137034   4.102   1.485   6.301 -0.3478  0.1334 -1.3803
 8524SOL    HW237035   4.084   1.543   6.431 -0.1046  0.6903 -0.7311
 8525SOL     OW37036   1.624   4.057   3.614 -0.5466  0.4426 -0.0357
 8525SOL    HW137037   1.657   4.081   3.527  0.5779 -0.9298  0.0210
 8525SOL    HW237038   1.570   3.979   3.603  3.2313 -2.1919 -0.0363
 8526SOL     OW37039   0.900   3.463   3.792  0.1276  0.2972 -0.3132
 8526SOL    HW137040   0.948   3.524   3.736 -0.7675  1.1704 -0.1288
 8526SOL    HW237041   0.963   3.434   3.859 -1.8476 -0.9576  1.0032
 8527SOL     OW37042   3.036   0.029   9.598 -0.0434 -0.4298  0.4722
 8527SOL    HW137043   3.014   0.025   9.504 -2.1872  0.1734  0.9587
 8527SOL    HW237044   2.994   0.114   9.614 -0.7469 -0.8817  1.0335
 8528SOL     OW37045   2.768   0.257   7.420  0.4956  0.3040  0.1378
 8528SOL    HW137046   2.701   0.199   7.383  0.9364 -0.8682  1.1979
 8528SOL    HW237047   2.752   0.338   7.371  2.4083  0.0230 -0.9447
 8529SOL     OW37048   3.661   2.186   5.396  0.1289  0.1448 -0.1065
 8529SOL    HW137049   3.581   2.195   5.448 -1.1359  2.4098 -2.3936
 8529SOL    HW237050   3.725   2.200   5.465 -0.5688  3.7466 -0.1868
 8530SOL     OW37051   4.252   0.610   8.053  0.6608 -0.5377 -0.0095
 8530SOL    HW137052   4.216   0.528   8.087  0.6239  0.1152  1.5239
 8530SOL    HW237053   4.343   0.610   8.083 -0.0594  1.0601  2.2015
 8531SOL     OW37054   3.256   0.623   2.188  0.4320  0.7813  0.2237
 8531SOL    HW137055   3.334   0.678   2.201  0.7148  0.2375  0.8334
 8531SOL    HW237056   3.247   0.584   2.274  1.1164 -0.3389 -0.2090
 8532SOL     OW37057   3.756   0.912   4.918  0.3960  0.2376 -0.4116
 8532SOL    HW137058   3.761   0.828   4.873 -1.9909  1.5863 -3.1249
 8532SOL    HW237059   3.758   0.885   5.010  1.1610 -1.3531 -0.8850
 8533SOL     OW37060   0.032   3.877   3.029  0.3974 -0.4922 -0.2333
 8533SOL    HW137061   0.012   3.895   3.121 -1.2463 -0.8702 -0.5305
 8533SOL    HW237062   4.713   3.792   3.026 -0.1184 -0.1188 -2.7456
 8534SOL     OW37063   1.812   4.456   8.381  0.1701  0.2427 -0.6657
 8534SOL    HW137064   1.737   4.396   8.378 -0.8882  1.4500  1.4055
 8534SOL    HW237065   1.891   4.404   8.397 -0.0996  0.2334  0.6963
 8535SOL     OW37066   0.971   3.924   0.936  0.7802 -0.9351  0.3441
 8535SOL    HW137067   0.877   3.908   0.934  0.4880  1.0216 -1.3170
 8535SOL    HW237068   0.980   3.986   0.864 -1.5541  0.4548  1.2677
 8536SOL     OW37069   0.172   4.391  12.069 -0.0396  0.1951 -0.2068
 8536SOL    HW137070   0.241   4.325  12.065 -0.4008 -0.2562  1.1511
 8536SOL    HW237071   0.213   4.478  12.072 -2.1052  1.1699 -0.6070
 8537SOL     OW37072   3.993   0.801   6.947 -0.4546  0.6461  0.2030
 8537SOL    HW137073   3.911   0.836   6.911 -1.0782 -0.0644  0.9303
 8537SOL    HW237074   4.024   0.869   7.008  0.6657 -0.4909  0.8988
 8538SOL     OW37075   0.086   1.710  13.438  0.3859 -0.5857  0.3265
 8538SOL    HW137076   0.007   1.763  13.425  0.7379 -0.4621 -1.3118
 8538SOL    HW237077   0.152   1.777  13.420 -1.2766  0.7581 -0.7758
 8539SOL     OW37078   2.190   2.951  14.258  0.0099  0.2110 -0.0961
 8539SOL    HW137079   2.155   2.982  14.341 -0.7362 -1.5313  0.2276
 8539SOL    HW237080   2.234   3.022  14.211  1.4209 -0.3024  0.4385
 8540SOL     OW37081   1.296   1.144   6.728  0.0302 -0.2565  0.5633
 8540SOL    HW137082   1.231   1.162   6.659  0.7222  3.4698  0.8862
 8540SOL    HW237083   1.279   1.212   6.793  0.1088  0.3672 -0.0681
 8541SOL     OW37084   3.958   1.773   4.119 -0.1452 -0.5152 -0.0321
 8541SOL    HW137085   3.923   1.784   4.031  1.2986 -0.7414 -0.6286
 8541SOL    HW237086   3.962   1.678   4.130 -4.7730 -0.6747  0.5183
 8542SOL     OW37087   3.467   3.119   7.187  0.0316  0.1659 -0.4818
 8542SOL    HW137088   3.386   3.107   7.236  0.4635  2.3168  0.7417
 8542SOL    HW237089   3.449   3.057   7.116  0.7513 -2.8006  1.9236
 8543SOL     OW37090   1.110   4.134   1.600 -0.8516  0.3526 -0.2540
 8543SOL    HW137091   1.104   4.118   1.694 -0.0136 -1.1000 -0.4415
 8543SOL    HW237092   1.057   4.067   1.555 -2.0876  0.1890  1.4564
 8544SOL     OW37093   4.405   1.315   3.529 -0.3435 -0.4333 -0.1933
 8544SOL    HW137094   4.418   1.393   3.584 -1.3370 -1.8676  2.1056
 8544SOL    HW237095   4.406   1.366   3.448  2.9006 -1.0724 -0.5379
 8545SOL     OW37096   4.470   4.154  12.145 -0.2630 -0.0024  0.1533
 8545SOL    HW137097   4.458   4.059  12.139 -1.3787  0.1572 -0.2559
 8545SOL    HW237098   4.558   4.172  12.113 -1.0982  2.8652 -0.5023
 8546SOL     OW37099   0.003   1.075   4.569 -0.4607  0.1880  0.1138
 8546SOL    HW137100   4.635   1.103   4.571  0.5435  3.3193  2.4934
 8546SOL    HW237101   0.050   1.144   4.523 -0.1209 -0.9748 -1.2974
 8547SOL     OW37102   1.088   1.101   4.081 -0.0738 -0.3858  0.1570
 8547SOL    HW137103   1.080   1.006   4.094 -0.4939 -0.5437 -1.2823
 8547SOL    HW237104   1.164   1.101   4.140 -0.3249 -0.7640  0.4790
 8548SOL     OW37105   1.390   1.878   3.493 -0.2570 -0.6138  0.0425
 8548SOL    HW137106   1.322   1.862   3.427  1.3179 -3.0886 -0.9712
 8548SOL    HW237107   1.334   1.907   3.565 -1.9625  0.7713 -1.8463
 8549SOL     OW37108   0.524   4.495   3.413  0.1169  0.2554  0.1886
 8549SOL    HW137109   0.453   4.431   3.420  2.2664 -2.2371 -0.5101
 8549SOL    HW237110   0.595   4.440   3.380 -2.5334 -2.7133 -0.6722
 8550SOL     OW37111   0.858   1.867  15.991  0.0965 -0.4691  0.6226
 8550SOL    HW137112   0.804   1.838  15.919  0.3303 -0.2390  0.3553
 8550SOL    HW237113   0.841   1.961  15.993  3.4446  0.1806 -2.1414
 8551SOL     OW37114   2.595   1.419   7.857 -0.3121  0.6020  0.1690
 8551SOL    HW137115   2.589   1.327   7.834 -2.0060  0.6279  0.5286
 8551SOL    HW237116   2.589   1.414   7.952 -1.9721  1.0981  0.0886
 8552SOL     OW37117   0.767   1.015   5.909  0.0266 -0.4854 -0.6597
 8552SOL    HW137118   0.672   1.006   5.912 -0.1193  0.2130 -3.1886
 8552SOL    HW237119   0.787   0.961   5.832  1.4258 -2.3032  0.9910
 8553SOL     OW37120   4.722   0.221   4.021 -0.2033 -0.0237  0.0889
 8553SOL    HW137121   0.000   0.231   3.926 -1.6619  1.5085  0.2191
 8553SOL    HW237122   4.664   0.145   4.023 -1.0477  0.6224 -0.0099
 8554SOL     OW37123   3.726   4.166   6.189  0.0178  0.0194 -0.3439
 8554SOL    HW137124   3.792   4.221   6.230  0.3758 -0.0642 -0.8075
 8554SOL    HW237125   3.697   4.110   6.261  0.7038 -2.1984 -1.7634
 8555SOL     OW37126   2.988   4.203   6.041  0.1783  0.4364  0.2071
 8555SOL    HW137127   3.005   4.116   6.005  0.4256  0.1315  1.0798
 8555SOL    HW237128   2.905   4.224   5.997 -0.5036 -1.9432  0.3436
 8556SOL     OW37129   4.327   0.311   4.052  0.0633 -0.1025 -0.0737
 8556SOL    HW137130   4.357   0.393   4.011 -0.6529  0.8418  1.3076
 8556SOL    HW237131   4.236   0.319   4.022  0.5889  1.2900 -1.3197
 8557SOL     OW37132   3.680   1.608  15.539  0.7002 -0.0345 -0.5357
 8557SOL    HW137133   3.771   1.579  15.549  1.4910  2.6962  0.1133
 8557SOL    HW237134   3.707   1.700  15.532 -1.5992  0.6424 -0.5297
 8558SOL     OW37135   3.552   2.701   2.462 -0.3631  0.3759  0.4293
 8558SOL    HW137136   3.578   2.680   2.372 -0.5461  1.5582  0.1066
 8558SOL    HW237137   3.553   2.796   2.459  0.0778  0.3747  0.6285
 8559SOL     OW37138   0.088   3.948   4.393  0.2070 -0.4641  0.1534
 8559SOL    HW137139   0.087   4.029   4.343  0.1079 -1.1461 -0.9499
 8559SOL    HW237140   4.723   3.913   4.385  0.0491 -0.3202  1.2209
 8560SOL     OW37141   2.740   2.903   4.665  0.5136  0.5890 -0.0597
 8560SOL    HW137142   2.765   2.917   4.574  0.4760 -0.0475 -0.1681
 8560SOL    HW237143   2.806   2.836   4.678 -0.6395 -0.5535 -0.1096
 8561SOL     OW37144   2.905   0.268   9.320 -0.4338 -0.9455  0.5133
 8561SOL    HW137145   2.817   0.289   9.290 -0.0397  0.2538  0.1776
 8561SOL    HW237146   2.932   0.343   9.373  0.2367 -0.2995 -0.7229
 8562SOL     OW37147   4.583   1.869   8.914 -0.1153  0.0509 -0.4032
 8562SOL    HW137148   4.612   1.830   8.997 -0.7131 -1.2454 -0.8035
 8562SOL    HW237149   4.667   1.890   8.875  1.2503 -0.4082  2.2450
 8563SOL     OW37150   0.339   1.084   6.158 -0.0359  0.0890 -0.1927
 8563SOL    HW137151   0.298   1.015   6.210 -0.3832  0.9515  0.6833
 8563SOL    HW237152   0.264   1.109   6.103 -1.2457 -2.4024  0.3228
 8564SOL     OW37153   2.820   2.003   6.379  0.5598 -0.1298  0.4917
 8564SOL    HW137154   2.850   1.994   6.470  0.5268 -2.9392  0.2047
 8564SOL    HW237155   2.895   2.003   6.319  0.5673 -0.0811  0.5005
 8565SOL     OW37156   2.834   0.139   2.221 -0.0796  0.3908 -0.7448
 8565SOL    HW137157   2.853   0.212   2.163 -1.3992  1.0673 -0.3272
 8565SOL    HW237158   2.740   0.127   2.205 -0.0362 -0.4730 -0.3734
 8566SOL     OW37159   3.854   0.301   5.643 -0.5367 -0.3484 -0.3946
 8566SOL    HW137160   3.764   0.323   5.619 -0.3206  1.5098  0.5900
 8566SOL    HW237161   3.884   0.294   5.552 -0.6922 -1.0244 -0.3960
 8567SOL     OW37162   2.536   1.626   5.674  0.4839 -0.1129  0.2567
 8567SOL    HW137163   2.516   1.715   5.644  1.2301 -0.1513 -0.3689
 8567SOL    HW237164   2.556   1.641   5.766  1.9247 -1.4858  0.1641
 8568SOL     OW37165   1.538   1.516   0.273 -0.2088  0.0290  0.0215
 8568SOL    HW137166   1.620   1.477   0.303  0.3904  1.9385  0.8748
 8568SOL    HW237167   1.535   1.567   0.354  0.8380 -0.4095  0.3434
 8569SOL     OW37168   4.162   3.481   5.131  0.1749 -0.3064 -0.2552
 8569SOL    HW137169   4.190   3.442   5.048 -1.3633 -0.9295 -0.4954
 8569SOL    HW237170   4.234   3.461   5.190  0.8811  0.1341 -0.9661
 8570SOL     OW37171   3.086   1.610   6.475  0.2258 -0.4148 -0.1436
 8570SOL    HW137172   3.156   1.550   6.449  0.0334 -0.2808 -0.9746
 8570SOL    HW237173   3.044   1.639   6.394  0.9096  0.9745  0.0053
 8571SOL     OW37174   3.984   3.724   7.963  0.6096  0.5859  0.6365
 8571SOL    HW137175   3.927   3.671   8.019  0.7434 -0.9653 -0.7178
 8571SOL    HW237176   3.924   3.790   7.930  0.7962  0.5488  0.2176
 8572SOL     OW37177   2.481   0.299   2.787 -0.3221  0.0491 -0.1518
 8572SOL    HW137178   2.573   0.293   2.813 -0.3337  1.4467  0.1787
 8572SOL    HW237179   2.455   0.207   2.786 -0.3784  0.0663 -0.3302
 8573SOL     OW37180   3.563   2.664   3.173 -0.5354 -0.1444 -0.5611
 8573SOL    HW137181   3.489   2.619   3.211 -1.1582  0.8132 -0.6356
 8573SOL    HW237182   3.562   2.624   3.086  0.9667 -0.0741 -0.6206
 8574SOL     OW37183   2.468   4.614   5.501  0.8009 -0.7063 -0.0556
 8574SOL    HW137184   2.515   4.566   5.569  0.5870  2.1400  2.1384
 8574SOL    HW237185   2.487   4.565   5.421 -1.3743 -0.6853 -0.5841
 8575SOL     OW37186   3.925   4.546   5.958 -0.2105 -0.0497  0.0221
 8575SOL    HW137187   3.869   4.578   6.029 -0.9098  1.3653 -1.1647
 8575SOL    HW237188   4.011   4.580   5.983  0.0666 -0.5018 -0.3186
 8576SOL     OW37189   1.911   2.253   4.355 -1.0341  0.1184  0.1861
 8576SOL    HW137190   1.846   2.308   4.313  1.2497  0.9117 -2.2636
 8576SOL    HW237191   1.982   2.316   4.371  0.2887 -1.2172 -0.3879
 8577SOL     OW37192   2.576   0.978   3.506 -0.1260  0.0308  0.2589
 8577SOL    HW137193   2.604   0.909   3.445 -1.8162 -1.4841  1.1758
 8577SOL    HW237194   2.502   0.943   3.555  0.1519  0.3493  0.9128
 8578SOL     OW37195   3.443   1.909   4.137  0.2142 -0.4621 -0.4049
 8578SOL    HW137196   3.493   1.989   4.153  1.0889 -0.7389 -1.7676
 8578SOL    HW237197   3.497   1.840   4.176 -0.3733 -1.2768 -1.0409
 8579SOL     OW37198   3.531   4.579   1.142 -0.3968  0.2174 -0.3015
 8579SOL    HW137199   3.620   4.613   1.135 -0.4300 -0.2891 -3.0984
 8579SOL    HW237200   3.512   4.628   1.222 -1.3740  0.0100 -0.4059
 8580SOL     OW37201   2.679   1.104   6.166  0.1680  0.1579 -0.4904
 8580SOL    HW137202   2.644   1.015   6.173  0.8989  0.0408  1.6819
 8580SOL    HW237203   2.642   1.143   6.245 -1.5424 -1.1783 -0.6239
 8581SOL     OW37204   2.242   3.761  10.103  0.3421  0.1197 -0.5048
 8581SOL    HW137205   2.299   3.776  10.179 -0.4432 -0.1597  0.1360
 8581SOL    HW237206   2.261   3.671  10.076  0.4161  0.0822 -0.3325
 8582SOL     OW37207   1.431   4.010   4.025 -0.2876 -0.0831  0.2829
 8582SOL    HW137208   1.407   4.101   4.007  1.3380  0.0843 -1.0790
 8582SOL    HW237209   1.416   3.992   4.118 -1.9711  0.1115  0.0485
 8583SOL     OW37210   3.564   1.589   9.125  0.0181 -0.0412  0.5226
 8583SOL    HW137211   3.569   1.614   9.032 -2.6361 -0.3518  0.2856
 8583SOL    HW237212   3.601   1.661   9.175 -1.0987  0.3065  0.8432
 8584SOL     OW37213   0.247   2.832   9.676 -0.5833 -0.5507  0.1831
 8584SOL    HW137214   0.241   2.925   9.653  1.1543 -0.7406 -1.0613
 8584SOL    HW237215   0.327   2.837   9.729 -1.0480 -0.6987  0.8988
 8585SOL     OW37216   0.891   0.176   6.144 -0.7021 -0.0233  0.1274
 8585SOL    HW137217   0.864   0.268   6.138 -4.3761 -0.9555  2.6133
 8585SOL    HW237218   0.901   0.181   6.239  0.4898  2.2105 -0.1267
 8586SOL     OW37219   1.044   4.188  16.937  0.5204 -0.2487  0.1216
 8586SOL    HW137220   0.997   4.255  16.987  1.4935  0.4900  0.0538
 8586SOL    HW237221   0.976   4.122  16.952 -1.8161  1.7351 -1.6985
 8587SOL     OW37222   2.667   1.104   3.786  0.1150 -0.2601 -0.2761
 8587SOL    HW137223   2.683   1.018   3.746  0.5587  0.1497 -0.9939
 8587SOL    HW237224   2.727   1.153   3.729 -0.9091 -0.7423 -1.7923
 8588SOL     OW37225   1.976   0.029  15.611 -0.4842  0.0431  0.5362
 8588SOL    HW137226   1.938   0.019  15.699 -1.9104 -0.8023 -0.1709
 8588SOL    HW237227   2.022   4.670  15.600 -0.5614  0.1138 -0.2955
 8589SOL     OW37228   2.447   3.950   9.214 -0.2266 -0.2551 -0.3040
 8589SOL    HW137229   2.482   4.033   9.245 -0.7626 -0.3049  0.4240
 8589SOL    HW237230   2.528   3.902   9.194 -0.0047 -0.4845  1.1454
 8590SOL     OW37231   0.838   0.385  11.213 -0.0817 -0.0356 -0.0319
 8590SOL    HW137232   0.774   0.318  11.189  2.4672 -2.1464 -0.8884
 8590SOL    HW237233   0.820   0.455  11.150 -0.0183  1.8040  1.9799
 8591SOL     OW37234   4.639   0.373   5.840  0.3462 -0.5802 -0.2601
 8591SOL    HW137235   4.624   0.408   5.752  1.8815  0.5535 -0.0858
 8591SOL    HW237236   4.630   0.278   5.833  0.7500 -0.8535  2.8087
 8592SOL     OW37237   1.478   3.288   3.431  0.7923  0.3874 -0.1971
 8592SOL    HW137238   1.539   3.320   3.497  1.0539 -1.6289  0.5479
 8592SOL    HW237239   1.392   3.307   3.468  0.2568 -0.0800 -1.1921
 8593SOL     OW37240   4.535   0.974   8.843 -0.0321  0.3408  0.3855
 8593SOL    HW137241   4.596   1.010   8.907  1.3969 -0.9425 -0.2491
 8593SOL    HW237242   4.479   0.909   8.885  0.9136 -0.5781  0.2436
 8594SOL     OW37243   0.824   2.537   8.490  0.0692  0.1273  0.1817
 8594SOL    HW137244   0.812   2.632   8.487  1.1316  0.2753  0.8333
 8594SOL    HW237245   0.780   2.517   8.573  2.3945 -1.0390  1.1417
 8595SOL     OW37246   0.709   2.057   3.731  0.1418 -0.2069 -0.2172
 8595SOL    HW137247   0.673   2.135   3.689  0.8901  0.3317  0.1304
 8595SOL    HW237248   0.630   2.023   3.773 -0.1761  0.6585 -0.1261
 8596SOL     OW37249   0.688   2.315  11.838  0.2875 -0.3007  0.2433
 8596SOL    HW137250   0.749   2.342  11.770  0.0573  1.1386  0.6110
 8596SOL    HW237251   0.619   2.381  11.827  0.9087  0.3856  0.5130
 8597SOL     OW37252   0.334   1.675   2.871  0.6959  0.2435  0.3409
 8597SOL    HW137253   0.312   1.594   2.826  1.2096  0.8716 -1.0602
 8597SOL    HW237254   0.298   1.746   2.818 -0.6187 -0.6248  0.0785
 8598SOL     OW37255   1.058   1.010  11.448 -0.5385 -0.0726  0.6750
 8598SOL    HW137256   1.085   0.939  11.390  0.9115 -0.6249  2.0033
 8598SOL    HW237257   1.047   0.957  11.527  0.1154 -0.4691  0.5005
 8599SOL     OW37258   3.069   2.351  10.383  0.2745 -0.3049  0.5818
 8599SOL    HW137259   3.103   2.380  10.468  1.4211 -0.5950  0.2244
 8599SOL    HW237260   3.122   2.410  10.328 -0.0616 -2.1737 -1.6931
 8600SOL     OW37261   0.349   2.479   6.610 -0.2212 -0.0149  0.4030
 8600SOL    HW137262   0.406   2.489   6.533 -1.0947  1.2366 -0.0837
 8600SOL    HW237263   0.417   2.484   6.676  0.9887 -0.4981 -0.8112
 8601SOL     OW37264   3.589   1.993   1.594  0.6564 -0.3224 -0.1578
 8601SOL    HW137265   3.523   1.927   1.616  1.1590 -1.1479 -1.1304
 8601SOL    HW237266   3.588   2.036   1.680  1.9248 -0.7944  0.0867
 8602SOL     OW37267   2.612   3.806   7.032 -0.0914  0.3571  0.6799
 8602SOL    HW137268   2.592   3.899   7.022 -2.4789 -0.0060  2.1017
 8602SOL    HW237269   2.692   3.799   7.082  0.6515 -0.4950 -0.6230
 8603SOL     OW37270   1.717   1.956  17.532 -0.3445 -0.0870  0.4318
 8603SOL    HW137271   1.634   2.004  17.532  0.7326  1.7888 -0.3007
 8603SOL    HW237272   1.763   2.006  17.465 -0.4527 -1.0648 -0.3749
 8604SOL     OW37273   0.422   2.223   4.251 -0.2326  0.5996 -0.2191
 8604SOL    HW137274   0.460   2.268   4.176  2.7466  0.3581  1.1284
 8604SOL    HW237275   0.410   2.134   4.218 -1.0811  0.6823 -0.1302
 8605SOL     OW37276   0.800   4.127   5.690 -0.5192  0.1829 -0.3661
 8605SOL    HW137277   0.807   4.072   5.612 -2.3744 -0.1746 -0.2856
 8605SOL    HW237278   0.882   4.174   5.701  0.5808 -1.4559 -1.7181
 8606SOL     OW37279   0.685   1.090  13.254 -0.2388 -0.3324  0.5140
 8606SOL    HW137280   0.654   1.173  13.219 -1.2733 -0.3399  1.4222
 8606SOL    HW237281   0.670   1.037  13.175 -0.3832 -1.8392  1.5561
 8607SOL     OW37282   2.912   4.721  15.135  0.1737  0.0033  0.7435
 8607SOL    HW137283   2.943   4.633  15.117  0.4357 -0.1498  1.9268
 8607SOL    HW237284   2.876   0.019  15.049  0.1862  0.5187  0.8683
 8608SOL     OW37285   4.487   2.527  13.427 -0.4735 -0.8108  0.4086
 8608SOL    HW137286   4.394   2.509  13.443 -0.4730 -1.2303 -0.0898
 8608SOL    HW237287   4.490   2.620  13.449  1.3175 -1.0557  1.1478
 8609SOL     OW37288   2.185   0.667   6.596 -0.7716 -0.5512  1.1925
 8609SOL    HW137289   2.208   0.640   6.685 -1.4316  0.2110  1.5903
 8609SOL    HW237290   2.243   0.744   6.593 -2.2483  0.5465  0.8213
 8610SOL     OW37291   2.249   3.425   3.095  0.3580  0.7117  0.6116
 8610SOL    HW137292   2.213   3.345   3.132  1.4940 -0.6184 -1.1248
 8610SOL    HW237293   2.343   3.404   3.096 -0.2894 -2.1392  0.8134
 8611SOL     OW37294   3.342   3.686  11.358 -0.4763 -0.2535  0.0035
 8611SOL    HW137295   3.436   3.701  11.344 -0.5248  0.5665  0.5865
 8611SOL    HW237296   3.309   3.771  11.331 -0.5759  0.2013  1.5671
 8612SOL     OW37297   0.715   3.806   7.935  0.2736  0.4465  0.3133
 8612SOL    HW137298   0.724   3.862   7.858 -0.2271 -2.1844 -1.6649
 8612SOL    HW237299   0.792   3.819   7.990  0.4942  1.5454 -0.2734
 8613SOL     OW37300   3.765   3.621  11.924 -0.4298  0.4919  0.5841
 8613SOL    HW137301   3.802   3.702  11.890 -0.6290  0.7413  0.9525
 8613SOL    HW237302   3.747   3.573  11.843 -0.1985  0.2704  0.6638
 8614SOL     OW37303   3.558   2.261   0.781  0.6923  0.2156 -0.5324
 8614SOL    HW137304   3.567   2.332   0.845  1.9290 -1.8937  1.6297
 8614SOL    HW237305   3.610   2.200   0.834  1.8494  1.8391  0.1892
 8615SOL     OW37306   2.382   2.935   9.212 -0.6037  0.2465 -0.1784
 8615SOL    HW137307   2.413   2.859   9.261 -2.1793 -1.2964 -1.5426
 8615SOL    HW237308   2.415   2.922   9.122 -1.4132 -0.4531 -0.3733
 8616SOL     OW37309   3.088   3.771   6.845 -0.0093 -0.2253  0.0293
 8616SOL    HW137310   3.077   3.771   6.940  3.5919 -1.8773  0.4292
 8616SOL    HW237311   3.010   3.721   6.820 -0.9533  0.2833  1.9106
 8617SOL     OW37312   0.026   3.573   6.371 -0.0628  0.5121 -0.9579
 8617SOL    HW137313   0.062   3.561   6.284 -0.7707  1.1812 -1.3430
 8617SOL    HW237314   4.681   3.509   6.383 -0.1288  0.9995  1.4660
 8618SOL     OW37315   1.621   3.341  16.432 -0.1064 -0.3363  0.3666
 8618SOL    HW137316   1.697   3.295  16.468  0.8982  0.1751 -1.1513
 8618SOL    HW237317   1.637   3.326  16.339 -2.6793 -2.6412  0.2875
 8619SOL     OW37318   4.113   4.667   1.988  0.2982 -0.0825  0.2749
 8619SOL    HW137319   4.035   4.707   2.026  0.5575  2.1695 -1.6245
 8619SOL    HW237320   4.175   4.651   2.060  2.0405 -1.5135 -1.5395
 8620SOL     OW37321   3.688   0.822   5.936  0.3637 -0.2256 -0.3451
 8620SOL    HW137322   3.715   0.799   6.024  1.3606 -0.1928 -0.6460
 8620SOL    HW237323   3.681   0.733   5.902 -0.5813 -0.4383  0.4105
 8621SOL     OW37324   0.990   3.206   2.883 -0.6369  0.3600 -0.0731
 8621SOL    HW137325   1.019   3.180   2.970 -0.6692  1.0418  0.1395
 8621SOL    HW237326   1.063   3.178   2.828 -0.2468  1.3668 -0.0534
 8622SOL     OW37327   4.080   0.267  12.810  0.0474  0.1024  0.5699
 8622SOL    HW137328   4.076   0.203  12.881  1.1170 -1.6691 -0.9849
 8622SOL    HW237329   4.114   0.209  12.742 -1.3961  0.5232 -0.5267
 8623SOL     OW37330   0.631   4.343   1.869  0.6049  0.2118 -0.0420
 8623SOL    HW137331   0.578   4.365   1.792 -1.2261 -0.8909  0.9155
 8623SOL    HW237332   0.699   4.287   1.831  0.3327  0.1799 -0.4865
 8624SOL     OW37333   3.149   0.951   7.929 -0.2615 -0.9318  0.1977
 8624SOL    HW137334   3.064   0.918   7.901 -1.6119  1.7322  1.0814
 8624SOL    HW237335   3.195   0.875   7.964 -0.9223 -0.8704  1.2221
 8625SOL     OW37336   3.744   4.029  11.634  0.1576 -0.9482 -0.3155
 8625SOL    HW137337   3.839   4.032  11.622  0.1246 -0.2494 -0.3562
 8625SOL    HW237338   3.713   4.110  11.593 -1.0620 -0.8223  0.8706
 8626SOL     OW37339   0.487   4.618  16.548  0.1056  0.2195  0.5821
 8626SOL    HW137340   0.520   4.544  16.497  0.8752  1.2530 -0.4224
 8626SOL    HW237341   0.470   4.570  16.629  1.7851 -0.5767  0.4639
 8627SOL     OW37342   0.276   0.668   6.553  0.0007  0.2201  0.0854
 8627SOL    HW137343   0.251   0.646   6.643  0.3131 -2.4907 -0.5074
 8627SOL    HW237344   0.197   0.646   6.504 -0.5423  0.6962  0.7472
 8628SOL     OW37345   0.888   1.488   3.348  0.2263  0.0950 -0.0205
 8628SOL    HW137346   0.845   1.429   3.411 -2.1663 -0.8440 -2.5548
 8628SOL    HW237347   0.812   1.540   3.321 -0.3711 -0.2679  0.9267
 8629SOL     OW37348   1.828   2.103  11.273  0.1591 -0.2403 -0.4874
 8629SOL    HW137349   1.748   2.067  11.310  0.2570  1.9939  1.9563
 8629SOL    HW237350   1.820   2.069  11.184  1.0758 -2.9909  0.4803
 8630SOL     OW37351   3.423   2.754  17.113  0.7183  0.1171  0.2672
 8630SOL    HW137352   3.436   2.846  17.136  0.2055  0.6659 -1.5817
 8630SOL    HW237353   3.418   2.763  17.017 -2.9076 -1.1616  0.3312
 8631SOL     OW37354   3.635   3.455   4.427  0.0575 -0.0486  0.2331
 8631SOL    HW137355   3.553   3.502   4.414 -1.1012 -2.0868  0.1012
 8631SOL    HW237356   3.694   3.512   4.379  1.0386  0.7264  2.3871
 8632SOL     OW37357   0.492   1.081   3.317  0.0326 -0.1094 -0.0184
 8632SOL    HW137358   0.509   0.992   3.287  0.3538  0.2985 -1.0109
 8632SOL    HW237359   0.565   1.127   3.276  0.7706  1.5811  3.1970
 8633SOL     OW37360   3.446   0.922   5.561  0.5401 -0.0719  0.1587
 8633SOL    HW137361   3.473   1.006   5.600  0.5092 -0.5294  1.1541
 8633SOL    HW237362   3.531   0.879   5.572  0.4934 -0.3699 -0.6777
 8634SOL     OW37363   4.171   1.316  10.463 -0.7293  0.4850  0.0692
 8634SOL    HW137364   4.138   1.240  10.510 -0.4790  0.5304  0.3194
 8634SOL    HW237365   4.266   1.306  10.466 -0.5095  2.2434 -0.5804
 8635SOL     OW37366   1.734   2.831   4.690 -0.4435  0.1596 -0.0513
 8635SOL    HW137367   1.823   2.850   4.663 -0.3589 -0.2645 -0.0624
 8635SOL    HW237368   1.688   2.824   4.606 -2.9217 -0.0138  1.3196
 8636SOL     OW37369   3.388   4.713   2.776 -0.1162 -0.8075  0.0650
 8636SOL    HW137370   3.429   4.668   2.702  1.6702 -0.3282  0.7541
 8636SOL    HW237371   3.418   4.668   2.855  3.9588  2.4484  0.4340
 8637SOL     OW37372   1.547   3.472   6.663 -0.0219  0.0204  0.4850
 8637SOL    HW137373   1.639   3.449   6.655 -0.1061  0.4455 -1.7436
 8637SOL    HW237374   1.528   3.393   6.713  1.5458 -1.8700 -1.9140
 8638SOL     OW37375   0.677   0.495  13.918 -0.2263 -0.5117 -0.0368
 8638SOL    HW137376   0.672   0.478  14.012  1.2488 -0.3667  0.0696
 8638SOL    HW237377   0.583   0.502  13.900 -0.1407 -0.3582 -0.4240
 8639SOL     OW37378   1.984   3.485   1.695  0.5907  0.0019  0.0299
 8639SOL    HW137379   2.001   3.573   1.729 -1.4357  0.7402 -0.9004
 8639SOL    HW237380   1.982   3.432   1.774 -1.3128 -0.2378 -0.1796
 8640SOL     OW37381   4.397   0.449   5.101 -0.5657 -0.2956 -0.5343
 8640SOL    HW137382   4.477   0.465   5.051  0.7846 -0.5857  1.5475
 8640SOL    HW237383   4.379   0.538   5.131 -0.2569 -0.3536 -0.1890
 8641SOL     OW37384   3.732   0.493   3.401  0.4475 -0.1531 -0.0613
 8641SOL    HW137385   3.727   0.406   3.443  0.3496  0.0407  0.3273
 8641SOL    HW237386   3.719   0.542   3.482 -0.0086  0.5647 -0.5799
 8642SOL     OW37387   3.293   0.649   6.868 -0.8307  0.3283 -0.4055
 8642SOL    HW137388   3.292   0.616   6.958  0.7323 -2.4261 -1.3800
 8642SOL    HW237389   3.242   0.730   6.873  1.8146  2.0512 -1.3553
 8643SOL     OW37390   0.015   1.802   5.826  0.0115  0.6244  0.4713
 8643SOL    HW137391   0.097   1.826   5.868  0.3574  0.5348 -0.1515
 8643SOL    HW237392   0.024   1.708   5.839  0.5691  0.5636 -0.3736
 8644SOL     OW37393   1.109   0.632   6.315  0.7095  0.4321 -0.8344
 8644SOL    HW137394   1.057   0.680   6.380  2.6959  2.3358 -0.6733
 8644SOL    HW237395   1.115   0.548   6.362 -0.9888 -0.0818 -1.5504
 8645SOL     OW37396   3.306   3.945  15.672  0.0708 -0.1117  0.5222
 8645SOL    HW137397   3.295   4.038  15.693  1.6718  0.4062 -0.9989
 8645SOL    HW237398   3.285   3.943  15.578  1.3406 -0.0631  0.2426
 8646SOL     OW37399   2.306   2.588   8.107 -0.2250 -0.1909 -0.2361
 8646SOL    HW137400   2.282   2.678   8.082 -2.4160 -0.8316 -0.4688
 8646SOL    HW237401   2.396   2.573   8.081 -0.2372 -0.3195 -0.2031
 8647SOL     OW37402   2.623   4.659  10.005 -0.0868 -0.2278 -0.2312
 8647SOL    HW137403   2.643   4.711  10.083  1.2119  0.0624 -0.7538
 8647SOL    HW237404   2.528   4.651  10.016 -0.2051 -1.4758 -2.3359
 8648SOL     OW37405   1.291   1.985   9.289 -0.0932  0.2018 -0.1460
 8648SOL    HW137406   1.365   1.925   9.277  0.3413  0.2996  2.1121
 8648SOL    HW237407   1.257   2.004   9.201  2.8034  1.0628 -1.1094
 8649SOL     OW37408   3.722   2.205   8.834 -0.3012  0.1787  0.2598
 8649SOL    HW137409   3.719   2.262   8.912  1.3162 -0.9338  1.1326
 8649SOL    HW237410   3.637   2.228   8.796 -0.8629 -2.5069 -0.1262
 8650SOL     OW37411   4.372   2.241  15.799 -0.0805 -0.6653  0.7625
 8650SOL    HW137412   4.402   2.324  15.762 -0.3045 -0.8842  0.0854
 8650SOL    HW237413   4.429   2.222  15.874  1.4705 -2.2367 -0.8112
 8651SOL     OW37414   1.195   3.843  14.903  0.1705  0.3373 -0.0007
 8651SOL    HW137415   1.184   3.749  14.917  0.3459  0.3315  0.1065
 8651SOL    HW237416   1.270   3.848  14.844  0.1261 -0.4340 -0.1221
 8652SOL     OW37417   3.258   1.444   7.487 -0.3389 -0.2076  0.3861
 8652SOL    HW137418   3.197   1.502   7.533  0.2924  1.0160 -0.3123
 8652SOL    HW237419   3.228   1.477   7.402 -1.3239  1.3994  1.3393
 8653SOL     OW37420   3.375   0.103   4.217  0.6279  0.1658  0.1643
 8653SOL    HW137421   3.448   0.156   4.184  1.0713  0.0087  0.8883
 8653SOL    HW237422   3.348   0.150   4.296  0.5118 -0.7023  0.6370
 8654SOL     OW37423   4.382   0.184   7.606  0.3193 -0.1120 -0.1076
 8654SOL    HW137424   4.360   0.188   7.513 -0.9335  1.3182  0.2444
 8654SOL    HW237425   4.403   0.091   7.615 -1.9432 -0.7460 -1.4429
 8655SOL     OW37426   1.230   3.585   6.360 -0.1260 -0.6686 -0.3979
 8655SOL    HW137427   1.238   3.552   6.270 -3.1538 -0.0189 -0.9201
 8655SOL    HW237428   1.318   3.592   6.395  0.3894  0.9843 -2.0268
 8656SOL     OW37429   3.317   1.818   5.610  0.0928 -0.0141 -0.0610
 8656SOL    HW137430   3.261   1.892   5.632  1.9743  1.6518 -0.7903
 8656SOL    HW237431   3.359   1.803   5.695 -1.6949 -0.3942  0.7514
 8657SOL     OW37432   1.056   3.194   8.590 -0.2864 -0.0856 -0.1834
 8657SOL    HW137433   1.031   3.202   8.682 -1.4414  1.0717 -0.5948
 8657SOL    HW237434   1.117   3.268   8.584 -0.9270  0.4979  0.4606
 8658SOL     OW37435   3.764   4.631   4.402 -0.7214  0.0936 -0.1034
 8658SOL    HW137436   3.834   4.636   4.337 -0.1791 -0.4375  0.4335
 8658SOL    HW237437   3.741   4.538   4.400 -1.2194  0.1956  0.8392
 8659SOL     OW37438   4.151   0.287   8.345 -0.1944  0.2119 -0.6369
 8659SOL    HW137439   4.065   0.245   8.342 -0.0851 -0.1364  1.3586
 8659SOL    HW237440   4.138   0.357   8.409 -2.7027  0.3408 -1.2734
 8660SOL     OW37441   1.807   3.613   3.637  0.5255  0.2070 -0.2792
 8660SOL    HW137442   1.712   3.619   3.653  0.6834  1.2294  0.2600
 8660SOL    HW237443   1.850   3.633   3.720  2.9297  1.4689 -1.8570
 8661SOL     OW37444   4.224   0.107   9.861  0.2829 -0.6285 -0.0386
 8661SOL    HW137445   4.297   0.105   9.923 -1.1351  0.6534  1.6944
 8661SOL    HW237446   4.255   0.147   9.780  2.2122 -2.4009 -0.1674
 8662SOL     OW37447   3.814   4.489   9.088  0.7897  0.1210  0.3097
 8662SOL    HW137448   3.801   4.559   9.152 -0.0296 -1.4661  1.8845
 8662SOL    HW237449   3.896   4.500   9.041  1.5257 -1.0686  1.2954
 8663SOL     OW37450   3.445   0.901   6.068  0.2383  0.3612 -0.6563
 8663SOL    HW137451   3.522   0.901   6.011  1.6101  2.5906  1.2058
 8663SOL    HW237452   3.430   0.809   6.047 -1.9702  0.5289  0.0899
 8664SOL     OW37453   1.388   0.973  11.504  0.1210  0.0982 -0.0051
 8664SOL    HW137454   1.391   0.878  11.491  1.7725  0.3187 -1.1559
 8664SOL    HW237455   1.459   0.988  11.566  1.9757  1.5408 -2.5284
 8665SOL     OW37456   1.707   2.316  17.146 -0.4940 -0.7828  0.2098
 8665SOL    HW137457   1.655   2.366  17.083 -1.7205  2.1393  3.5679
 8665SOL    HW237458   1.702   2.365  17.228 -1.7780 -2.2247  1.0075
 8666SOL     OW37459   4.163   1.656   4.509 -0.2470  0.1437  0.2643
 8666SOL    HW137460   4.157   1.597   4.433  1.9769 -1.1513  1.0948
 8666SOL    HW237461   4.069   1.670   4.521 -0.1992  1.0817 -0.4605
 8667SOL     OW37462   1.751   4.383   9.999 -0.0776  0.3544 -0.0620
 8667SOL    HW137463   1.673   4.347   9.957  0.4470 -1.6041  0.6463
 8667SOL    HW237464   1.825   4.325   9.982  1.5566  2.4524 -0.0326
 8668SOL     OW37465   3.187   0.561  12.888  0.7074 -0.7160  0.6615
 8668SOL    HW137466   3.193   0.533  12.797 -1.2800 -1.1864  0.6816
 8668SOL    HW237467   3.160   0.652  12.876  2.3050 -0.4932 -1.3535
 8669SOL     OW37468   4.123   4.659   7.546 -0.0396  0.4966  0.1591
 8669SOL    HW137469   4.129   4.618   7.460 -0.7783  1.0087 -0.1394
 8669SOL    HW237470   4.215   4.672   7.569  0.0324 -0.0634  0.1941
 8670SOL     OW37471   0.342   1.051   4.245 -0.0975 -0.2884  0.2436
 8670SOL    HW137472   0.397   1.065   4.169 -0.2878  0.3440  0.2212
 8670SOL    HW237473   0.266   1.102   4.220  2.1868  1.9647 -2.0174
 8671SOL     OW37474   4.096   0.332   6.202 -0.3094  0.0728  0.2651
 8671SOL    HW137475   4.109   0.289   6.117  1.5982 -1.0162  1.0995
 8671SOL    HW237476   4.077   0.419   6.167 -0.1192  0.5167  1.2508
 8672SOL     OW37477   1.957   4.483   9.174 -0.0411  0.2109  0.4003
 8672SOL    HW137478   1.894   4.535   9.125  0.7845  0.6807 -0.1676
 8672SOL    HW237479   1.996   4.559   9.219 -1.6614  0.7093  0.9616
 8673SOL     OW37480   4.247   3.197   2.716 -0.3314 -0.4331 -0.2101
 8673SOL    HW137481   4.275   3.186   2.625 -2.4259 -0.0091 -0.9108
 8673SOL    HW237482   4.331   3.230   2.747 -1.2352  0.5399  1.1888
 8674SOL     OW37483   0.668   0.113   2.924 -0.4624  0.2388  0.5298
 8674SOL    HW137484   0.705   0.119   3.012  0.6993  0.2982  0.0342
 8674SOL    HW237485   0.699   0.192   2.881  0.1404 -0.1392  0.2754
 8675SOL     OW37486   1.979   3.656   9.021  0.0961  0.3273  0.7095
 8675SOL    HW137487   2.043   3.700   9.077 -1.1572 -0.1236  2.4779
 8675SOL    HW237488   2.029   3.627   8.944 -0.8247 -0.9344  0.5976
 8676SOL     OW37489   0.401   1.226  12.960  0.0477  0.7761  0.2239
 8676SOL    HW137490   0.483   1.270  12.979  0.0448  0.5729  0.6963
 8676SOL    HW237491   0.342   1.298  12.939 -0.6086 -0.1211 -1.0164
 8677SOL     OW37492   2.024   0.586   5.239 -0.5290 -0.4197 -0.0994
 8677SOL    HW137493   1.973   0.658   5.203  0.3065 -0.1130 -0.6691
 8677SOL    HW237494   2.054   0.636   5.315 -0.1619  1.1401 -1.2621
 8678SOL     OW37495   1.724   0.578   6.050 -0.0283 -0.4205 -0.2200
 8678SOL    HW137496   1.686   0.490   6.053 -0.5399 -0.1996 -0.2309
 8678SOL    HW237497   1.753   0.589   5.960  1.0866  1.2922  0.3398
 8679SOL     OW37498   4.665   2.565   7.625 -1.0140  0.1572 -0.9210
 8679SOL    HW137499   4.633   2.653   7.641  0.7990  1.3307 -3.5887
 8679SOL    HW237500   4.635   2.556   7.534 -1.7289  0.5344 -0.7248
 8680SOL     OW37501   3.859   1.494  10.561 -0.0553  0.1702 -0.2281
 8680SOL    HW137502   3.944   1.454  10.544 -0.0879 -0.2834  0.7059
 8680SOL    HW237503   3.883   1.584  10.583 -0.1637  0.2646 -0.5011
 8681SOL     OW37504   0.569   0.442  14.159  1.0052 -0.1626 -0.0105
 8681SOL    HW137505   0.610   0.362  14.192 -1.4640 -0.9329  1.1905
 8681SOL    HW237506   0.483   0.435  14.201  0.3448  0.0339 -1.3389
 8682SOL     OW37507   2.012   0.314  14.259  0.2611 -0.3335  0.5060
 8682SOL    HW137508   1.954   0.376  14.304 -1.9964 -3.4047  1.8375
 8682SOL    HW237509   1.984   0.235  14.305  0.4954  0.7896  2.6153
 8683SOL     OW37510   0.191   0.033  17.247 -0.1506  0.5111 -0.3450
 8683SOL    HW137511   0.280   0.013  17.275  0.7345  2.3444 -1.8433
 8683SOL    HW237512   0.130   0.051  17.318 -2.3510  2.6658 -2.8072
 8684SOL     OW37513   0.700   1.979   2.178 -0.2680  0.4212  0.1365
 8684SOL    HW137514   0.696   2.074   2.189 -0.8083  0.5193 -0.9524
 8684SOL    HW237515   0.608   1.957   2.161 -0.1619  1.2691 -1.5035
 8685SOL     OW37516   3.724   2.538   6.719  0.0800  0.1377  0.2047
 8685SOL    HW137517   3.656   2.533   6.787 -1.3508  3.1700 -1.0430
 8685SOL    HW237518   3.676   2.557   6.638 -2.3227  2.4906  2.1569
 8686SOL     OW37519   1.745   1.250   0.531 -0.4038  0.0174  0.0498
 8686SOL    HW137520   1.658   1.275   0.562  0.1481  1.3617  0.5033
 8686SOL    HW237521   1.809   1.292   0.588  2.2687 -1.9555 -1.4475
 8687SOL     OW37522   0.305   4.324   8.669 -0.2029  0.2446  0.1337
 8687SOL    HW137523   0.338   4.382   8.737  0.7462  0.6682 -0.6776
 8687SOL    HW237524   0.271   4.384   8.603 -0.6030  0.3863  0.4752
 8688SOL     OW37525   3.995   4.428   4.302 -0.4830  0.7816 -0.1000
 8688SOL    HW137526   3.982   4.386   4.387  0.3812  1.3399  0.3078
 8688SOL    HW237527   4.086   4.401   4.289 -1.0826 -1.0698 -0.4922
 8689SOL     OW37528   4.528   3.500   4.815 -0.4316 -0.1757 -0.1628
 8689SOL    HW137529   4.465   3.527   4.749  0.9243  1.7643 -0.6862
 8689SOL    HW237530   4.604   3.557   4.803 -1.5427  1.6800  1.5352
 8690SOL     OW37531   1.180   1.167   4.348  0.1923 -0.2205  0.5420
 8690SOL    HW137532   1.085   1.168   4.357  0.2243  0.2968  0.7963
 8690SOL    HW237533   1.203   1.259   4.334 -2.2694  0.4512  1.0376
 8691SOL     OW37534   0.552   1.228   9.216 -0.0476 -0.1212  0.5048
 8691SOL    HW137535   0.531   1.278   9.138 -0.3472 -0.6440  0.2515
 8691SOL    HW237536   0.520   1.296   9.276 -0.9780  0.2822 -0.4533
 8692SOL     OW37537   2.434   4.522   9.046  0.1301 -0.1278 -0.2787
 8692SOL    HW137538   2.472   4.508   9.133  1.7389 -1.9812 -1.2770
 8692SOL    HW237539   2.517   4.529   9.000  0.6601  0.4623  0.7623
 8693SOL     OW37540   3.869   4.010   3.376 -0.3603  0.2711 -0.3868
 8693SOL    HW137541   3.887   4.103   3.386  1.6119 -0.2644  0.8843
 8693SOL    HW237542   3.917   3.974   3.450  0.3030 -0.2752 -1.0807
 8694SOL     OW37543   2.559   0.658   9.650  0.1607 -0.2534  0.6456
 8694SOL    HW137544   2.611   0.733   9.619 -1.4796  0.2786 -0.7949
 8694SOL    HW237545   2.616   0.606   9.707  0.4491  1.4660  1.9548
 8695SOL     OW37546   1.699   1.045   5.375  0.4448  0.4908 -0.1106
 8695SOL    HW137547   1.755   1.030   5.299 -1.4342  1.1308 -1.6043
 8695SOL    HW237548   1.748   1.101   5.436  0.5677 -0.5202  0.7219
 8696SOL     OW37549   2.457   2.739  12.037  0.1805  0.0192 -0.4864
 8696SOL    HW137550   2.487   2.652  12.065 -0.0768 -0.9108 -3.0292
 8696SOL    HW237551   2.452   2.728  11.942 -0.7041  1.2844 -0.5843
 8697SOL     OW37552   1.591   0.326   2.863  0.4227  0.4366  0.1827
 8697SOL    HW137553   1.600   0.277   2.945 -0.0329  1.4633  0.8475
 8697SOL    HW237554   1.680   0.322   2.828  0.9438 -0.7084  1.6160
 8698SOL     OW37555   3.601   3.613   1.018  0.1521  0.0158  0.2978
 8698SOL    HW137556   3.514   3.651   1.017 -0.1602 -0.7280 -1.8593
 8698SOL    HW237557   3.591   3.529   0.974  0.1139 -0.7400  1.7549
 8699SOL     OW37558   1.049   1.436   6.036 -0.0842 -0.0588  0.1838
 8699SOL    HW137559   0.977   1.487   6.073 -1.5051 -3.0728  1.5847
 8699SOL    HW237560   1.118   1.473   6.091 -0.7956 -1.9786  2.3836
 8700SOL     OW37561   0.220   3.887   9.907 -0.2432 -0.0946 -0.2662
 8700SOL    HW137562   0.160   3.898   9.833  1.1352 -0.3013 -1.4179
 8700SOL    HW237563   0.265   3.803   9.891 -1.9997 -1.0149 -0.3815
 8701SOL     OW37564   1.985   2.658   1.207  0.0592 -0.2427 -0.1774
 8701SOL    HW137565   1.912   2.676   1.147  1.7906  0.2400 -2.1377
 8701SOL    HW237566   2.052   2.723   1.183  0.0790  0.1181  0.8462
 8702SOL     OW37567   2.030   3.360   4.952  0.8871 -0.1896 -0.3147
 8702SOL    HW137568   2.077   3.333   4.873  1.4229  1.6865 -0.6353
 8702SOL    HW237569   1.957   3.299   4.957 -0.0527  0.9199 -0.2974
 8703SOL     OW37570   2.576   0.232  10.481 -0.3865 -0.6365 -0.3894
 8703SOL    HW137571   2.561   0.327  10.481  1.6327 -0.3147 -1.2715
 8703SOL    HW237572   2.571   0.204  10.572 -1.4655  1.6405  0.2567
 8704SOL     OW37573   1.055   1.787   9.779 -0.3779 -0.3382 -0.1301
 8704SOL    HW137574   1.041   1.700   9.741  1.4332 -0.0592 -1.3699
 8704SOL    HW237575   1.122   1.821   9.721  0.3459 -0.9502  0.3488
 8705SOL     OW37576   1.320   1.700  11.869  0.2950  0.1002 -0.6295
 8705SOL    HW137577   1.337   1.648  11.947  0.2247  2.2561  0.8145
 8705SOL    HW237578   1.304   1.787  11.905 -1.3135 -0.3934 -0.1851
 8706SOL     OW37579   0.780   3.757   5.840 -0.0636 -0.8663 -0.7319
 8706SOL    HW137580   0.795   3.696   5.912  1.0336 -0.7210 -0.8356
 8706SOL    HW237581   0.814   3.699   5.771  0.8102 -0.8559 -0.3166
 8707SOL     OW37582   0.140   1.850   9.711  0.5787  0.1158  0.1112
 8707SOL    HW137583   0.219   1.878   9.759  1.0161 -1.1357  0.1116
 8707SOL    HW237584   0.180   1.821   9.629 -0.5169 -1.1980  0.0563
 8708SOL     OW37585   2.762   0.124   1.474  0.1511 -0.1985 -0.1602
 8708SOL    HW137586   2.783   0.031   1.482 -0.1670 -0.2414  0.1815
 8708SOL    HW237587   2.823   0.162   1.537  0.2648  0.8358 -0.8853
 8709SOL     OW37588   1.561   4.415   6.850  0.2135  0.6491 -0.5390
 8709SOL    HW137589   1.469   4.412   6.825 -0.1086 -2.3964  0.9915
 8709SOL    HW237590   1.562   4.401   6.945 -2.1711 -0.0985 -0.6332
 8710SOL     OW37591   3.559   3.753   0.751 -0.0543 -0.7057  0.1012
 8710SOL    HW137592   3.544   3.707   0.833  0.6048 -2.0054 -0.5170
 8710SOL    HW237593   3.589   3.839   0.782  0.2184 -0.6149 -0.4200
 8711SOL     OW37594   0.183   0.988  13.535 -0.6544  0.0209 -0.5369
 8711SOL    HW137595   0.271   1.005  13.501 -0.1912 -1.9916 -0.3491
 8711SOL    HW237596   0.192   1.028  13.621  1.1838 -1.3664 -0.0681
 8712SOL     OW37597   0.263   4.312   3.786  0.2621  0.2472  0.2272
 8712SOL    HW137598   0.320   4.266   3.848 -0.8955 -1.2720  0.1597
 8712SOL    HW237599   0.319   4.314   3.708  2.3599 -2.0393  1.6805
 8713SOL     OW37600   2.995   3.696   0.586  0.2247 -0.2705 -1.4476
 8713SOL    HW137601   3.048   3.768   0.550  0.2495 -0.1349 -1.1414
 8713SOL    HW237602   2.987   3.730   0.675  0.6344 -2.8526 -0.4357
 8714SOL     OW37603   4.252   0.031   0.333 -0.0849 -0.1692  0.0541
 8714SOL    HW137604   4.262   4.711   0.418 -0.4634 -1.2368 -0.4539
 8714SOL    HW237605   4.300   4.692   0.279  3.1766  0.1104  2.6480
 8715SOL     OW37606   2.137   2.835   0.439  0.1373 -0.0360 -0.9281
 8715SOL    HW137607   2.203   2.777   0.400  0.1942 -0.5304 -0.0919
 8715SOL    HW237608   2.085   2.857   0.362 -1.8387 -0.0892  0.4133
 8716SOL     OW37609   3.477   2.530   4.333 -0.7907  0.6583  1.1382
 8716SOL    HW137610   3.476   2.616   4.375 -2.0792  1.3851 -0.3501
 8716SOL    HW237611   3.534   2.541   4.257 -0.1856  0.7932  1.6115
 8717SOL     OW37612   0.336   2.477   8.772 -0.0921 -0.4732 -0.1839
 8717SOL    HW137613   0.297   2.558   8.806 -0.2162 -0.8781  0.6386
 8717SOL    HW237614   0.369   2.452   8.858 -0.4099  1.0024  0.3646
 8718SOL     OW37615   3.080   0.370   9.110  0.3896  0.3703 -0.2692
 8718SOL    HW137616   3.091   0.290   9.162 -1.0892  0.4589  0.1678
 8718SOL    HW237617   3.084   0.329   9.024  0.1552 -0.0298 -0.0917
 8719SOL     OW37618   2.170   3.632   2.712 -0.0168  0.3160  0.0903
 8719SOL    HW137619   2.159   3.547   2.670  2.0645  0.1156 -0.0605
 8719SOL    HW237620   2.257   3.657   2.682  0.4874  0.2433  1.4974
 8720SOL     OW37621   3.857   2.784   1.473 -0.9259 -0.0036 -0.1292
 8720SOL    HW137622   3.769   2.821   1.465 -1.0170  0.0111  0.9127
 8720SOL    HW237623   3.907   2.843   1.417 -0.3123  3.0340  3.6048
 8721SOL     OW37624   1.118   4.340   8.954  0.5072 -0.0027  0.6537
 8721SOL    HW137625   1.154   4.420   8.991 -1.6126  1.3491 -0.2132
 8721SOL    HW237626   1.085   4.290   9.028 -2.2670 -0.4852 -0.9139
 8722SOL     OW37627   3.252   0.774   4.713  0.5162 -0.3130  0.1672
 8722SOL    HW137628   3.194   0.788   4.637  2.0277 -0.9214 -1.1030
 8722SOL    HW237629   3.218   0.842   4.770  0.2608  0.1803 -0.5792
 8723SOL     OW37630   1.325   2.350   7.741 -0.5334 -0.2110 -0.4445
 8723SOL    HW137631   1.264   2.335   7.813  1.0342  0.7118  1.0611
 8723SOL    HW237632   1.301   2.438   7.710  0.5793 -0.0816 -0.9496
 8724SOL     OW37633   0.906   3.013   7.844 -1.0638 -0.5260 -0.4500
 8724SOL    HW137634   0.861   3.042   7.765  2.1458  1.2231 -1.6124
 8724SOL    HW237635   0.889   2.919   7.845 -1.4747 -0.4464  0.3836
 8725SOL     OW37636   2.369   3.731  17.042 -0.0965  0.1386  0.1147
 8725SOL    HW137637   2.412   3.800  16.990  1.6464 -2.2287 -1.5837
 8725SOL    HW237638   2.331   3.791  17.106 -0.2195  0.4516 -0.2482
 8726SOL     OW37639   4.502   3.822   8.276  0.0250 -0.4600  0.4341
 8726SOL    HW137640   4.574   3.776   8.318 -1.1213  0.3569  3.3053
 8726SOL    HW237641   4.429   3.761   8.285 -0.2575 -0.3155 -0.8975
 8727SOL     OW37642   3.882   3.627  17.622  0.1497  0.1737 -0.0404
 8727SOL    HW137643   3.922   3.557  17.571  1.5306  0.9739 -0.0443
 8727SOL    HW237644   3.958   3.676  17.653  1.0528 -0.8522 -0.6439
 8728SOL     OW37645   0.508   2.886   9.797  0.5085  0.2042 -0.4112
 8728SOL    HW137646   0.581   2.849   9.748  0.7267  1.0163 -0.6952
 8728SOL    HW237647   0.500   2.829   9.874  0.3688 -1.1026 -1.3866
 8729SOL     OW37648   3.707   3.281   6.150 -0.2075 -0.2297 -0.0466
 8729SOL    HW137649   3.768   3.291   6.077 -0.4833  1.8302  0.0093
 8729SOL    HW237650   3.693   3.374   6.171 -2.7549 -0.5585 -0.2951
 8730SOL     OW37651   4.617   0.317  13.928  0.3751 -0.3188  0.4837
 8730SOL    HW137652   4.679   0.309  14.000  3.1712 -1.8072 -2.1098
 8730SOL    HW237653   4.537   0.272  13.955  0.9110  0.0180  2.6666
 8731SOL     OW37654   2.220   1.728  17.479 -0.1032  0.4314  0.2455
 8731SOL    HW137655   2.152   1.667  17.453  0.8396 -0.3605 -0.3764
 8731SOL    HW237656   2.190   1.764  17.562 -0.8407  0.9513 -0.2502
 8732SOL     OW37657   3.714   4.632  12.956 -0.1025 -0.6210  0.2050
 8732SOL    HW137658   3.728   4.559  13.016 -0.8162 -1.0102 -0.1043
 8732SOL    HW237659   3.800   4.675  12.950 -0.3231 -0.2673 -0.4781
 8733SOL     OW37660   1.611   3.514  13.090 -0.4943 -0.1234 -0.1676
 8733SOL    HW137661   1.537   3.504  13.149 -3.7230  2.1887 -3.9079
 8733SOL    HW237662   1.571   3.481  13.009  2.3878 -0.6772 -1.3950
 8734SOL     OW37663   3.678   3.992  13.487 -0.0033 -0.3818  0.3657
 8734SOL    HW137664   3.727   3.984  13.568  0.1055 -2.6784  0.0810
 8734SOL    HW237665   3.692   4.086  13.474  2.1979 -0.7823 -0.2097
 8735SOL     OW37666   0.147   2.594   7.789 -0.2274  0.1047  0.3642
 8735SOL    HW137667   0.099   2.564   7.866 -1.4720 -2.6615 -1.4966
 8735SOL    HW237668   0.085   2.586   7.716  1.1776  3.0761 -1.1625
 8736SOL     OW37669   2.098   0.611  17.036  0.7157  0.3294  0.1018
 8736SOL    HW137670   2.150   0.661  16.973 -1.7729  1.3436 -1.1271
 8736SOL    HW237671   2.083   0.531  16.986 -0.2681  0.7376 -0.2570
 8737SOL     OW37672   3.848   3.674   5.018 -0.4047  0.4648 -0.0869
 8737SOL    HW137673   3.827   3.582   5.036  0.5480  0.1972 -0.3533
 8737SOL    HW237674   3.831   3.717   5.102  2.7534  1.8500 -0.1685
 8738SOL     OW37675   4.233   0.904  17.234  0.2903  0.0128 -0.4412
 8738SOL    HW137676   4.288   0.881  17.159  0.9706  2.0976 -0.5814
 8738SOL    HW237677   4.156   0.861  17.197  0.1835 -0.2839  0.1323
 8739SOL     OW37678   0.466   2.370   1.276  0.4252  0.0208 -0.7987
 8739SOL    HW137679   0.420   2.330   1.203 -0.1564 -2.7065  1.0507
 8739SOL    HW237680   0.530   2.436   1.248 -1.6543  1.7126 -1.5801
 8740SOL     OW37681   2.693   3.173   4.815 -0.0868 -0.3969 -0.1963
 8740SOL    HW137682   2.709   3.145   4.905 -1.4824 -0.4655  0.0335
 8740SOL    HW237683   2.697   3.088   4.772 -0.4342  1.5052 -3.9695
 8741SOL     OW37684   1.544   4.235   4.639  0.2621  0.2939  0.4616
 8741SOL    HW137685   1.540   4.163   4.576 -1.3001  0.2671  0.5771
 8741SOL    HW237686   1.545   4.187   4.722  0.5895 -1.1516 -0.3841
 8742SOL     OW37687   4.407   0.185   3.646  0.0007 -0.5575  0.1203
 8742SOL    HW137688   4.455   0.135   3.580 -1.3323 -0.0104 -1.2709
 8742SOL    HW237689   4.420   0.278   3.630  1.1417 -0.5094  1.3795
 8743SOL     OW37690   4.323   4.119   2.460 -0.0122 -0.3671  0.8679
 8743SOL    HW137691   4.302   4.118   2.366 -0.0135  1.3437  0.8451
 8743SOL    HW237692   4.263   4.048   2.481 -0.2464 -0.5507 -0.4367
 8744SOL     OW37693   4.638   0.925  13.417  0.7448 -0.3357 -0.0239
 8744SOL    HW137694   4.679   0.947  13.334 -2.1086  1.6968 -0.8784
 8744SOL    HW237695   4.708   0.961  13.472 -0.3555 -0.6473  1.6104
 8745SOL     OW37696   1.038   2.452   9.351  0.1028 -0.1558  0.1813
 8745SOL    HW137697   1.125   2.414   9.344 -0.3967 -1.0923 -0.8044
 8745SOL    HW237698   1.009   2.480   9.265  0.8080  1.3285  0.4250
 8746SOL     OW37699   3.851   2.361   3.816  0.9519  0.1813  0.0271
 8746SOL    HW137700   3.827   2.279   3.774 -3.0002  1.3296  0.0858
 8746SOL    HW237701   3.931   2.384   3.767 -0.5153  0.5862 -2.1816
 8747SOL     OW37702   0.984   2.578   5.828 -0.4954 -0.3483 -0.1021
 8747SOL    HW137703   1.045   2.638   5.786 -2.2754  1.0166 -0.7558
 8747SOL    HW237704   1.026   2.565   5.913  0.9449 -2.9325 -1.2260
 8748SOL     OW37705   1.776   1.640   9.870  0.3156  0.0022  0.1303
 8748SOL    HW137706   1.728   1.679   9.943  2.2910  2.4362  0.1529
 8748SOL    HW237707   1.782   1.552   9.907 -1.6175  0.3732  1.3099
 8749SOL     OW37708   4.507   1.952   6.501 -0.3626 -0.6311 -0.6176
 8749SOL    HW137709   4.516   1.889   6.573  0.2463  1.3400  1.0075
 8749SOL    HW237710   4.426   1.920   6.462 -1.6873 -0.0566  1.6887
 8750SOL     OW37711   2.161   3.880   6.773 -0.4654 -0.3198  0.1290
 8750SOL    HW137712   2.246   3.898   6.734 -0.1388 -0.3690  0.8069
 8750SOL    HW237713   2.106   3.849   6.701  0.5996  0.2842 -0.9412
 8751SOL     OW37714   2.916   2.678  13.388 -0.0284  0.0246 -0.2315
 8751SOL    HW137715   2.997   2.678  13.439  0.5603 -0.0794 -1.1633
 8751SOL    HW237716   2.931   2.606  13.326 -1.7581 -1.7740  1.4142
 8752SOL     OW37717   4.440   3.610   2.099  0.3658 -0.1409 -0.0123
 8752SOL    HW137718   4.377   3.657   2.154 -0.2965 -1.7783  0.6334
 8752SOL    HW237719   4.524   3.638   2.136  0.2043  0.0297  0.2260
 8753SOL     OW37720   3.930   0.992   9.280  0.4156  0.2908 -0.3741
 8753SOL    HW137721   3.918   0.898   9.267 -0.2736  0.7675 -3.1469
 8753SOL    HW237722   3.876   1.023   9.207  1.1534 -0.3784 -1.2122
 8754SOL     OW37723   1.640   0.815   9.441 -0.3759  0.2559  0.1724
 8754SOL    HW137724   1.641   0.729   9.484  0.6415  0.4639  0.5600
 8754SOL    HW237725   1.594   0.805   9.358  0.3025  1.8400 -0.3855
 8755SOL     OW37726   0.953   0.260   0.579 -0.8056 -0.0242  0.5255
 8755SOL    HW137727   0.872   0.235   0.535 -0.1257 -1.4758  0.0889
 8755SOL    HW237728   1.020   0.225   0.520  1.7507  1.4673  2.5280
 8756SOL     OW37729   3.956   2.254  16.188 -0.3157  0.2517 -0.0442
 8756SOL    HW137730   3.968   2.199  16.266  2.3170 -0.8420 -1.2346
 8756SOL    HW237731   3.872   2.298  16.201  1.0003  2.3854  1.2670
 8757SOL     OW37732   4.484   2.277  16.569  0.6483  0.0858 -0.0834
 8757SOL    HW137733   4.423   2.349  16.556  3.0232  1.5525 -3.0026
 8757SOL    HW237734   4.562   2.309  16.524  0.1475  1.2593 -0.1134
 8758SOL     OW37735   1.098   3.997  13.651 -0.1649  0.0177 -0.3170
 8758SOL    HW137736   1.003   4.002  13.640 -0.5246 -1.1706  2.3527
 8758SOL    HW237737   1.104   4.006  13.746 -3.6306  1.6504 -0.2363
 8759SOL     OW37738   0.246   3.543   6.186 -0.1527  0.1051 -0.5026
 8759SOL    HW137739   0.269   3.529   6.277 -2.1081 -0.4768 -0.1197
 8759SOL    HW237740   0.197   3.462   6.175 -1.0330  0.6453 -0.5411
 8760SOL     OW37741   2.371   1.478   8.266  0.1924  0.1831 -0.5450
 8760SOL    HW137742   2.290   1.452   8.223  0.7584 -0.5784 -1.1557
 8760SOL    HW237743   2.356   1.437   8.352  0.8638  2.8364  0.8419
 8761SOL     OW37744   3.506   3.741   2.550  0.0085  0.0755  0.7685
 8761SOL    HW137745   3.410   3.737   2.548  0.0257 -0.9886  1.9744
 8761SOL    HW237746   3.534   3.695   2.629 -0.2921 -1.6945 -0.1365
 8762SOL     OW37747   3.727   2.288   7.082 -0.1377  0.3571  0.1698
 8762SOL    HW137748   3.646   2.240   7.065  0.6392 -1.6813  2.1599
 8762SOL    HW237749   3.791   2.249   7.022  1.5841  1.5868  1.1998
 8763SOL     OW37750   4.616   3.603  16.395 -0.3954 -0.6835 -0.2682
 8763SOL    HW137751   4.590   3.682  16.442 -1.9271 -2.5571  2.0089
 8763SOL    HW237752   4.711   3.617  16.395 -0.7198  1.6219 -0.3259
 8764SOL     OW37753   1.022   1.416  13.755  0.2990 -0.3847  0.2320
 8764SOL    HW137754   1.091   1.446  13.813  1.0805 -2.2432  0.2762
 8764SOL    HW237755   0.943   1.450  13.798  0.5190 -0.9920  1.0964
 8765SOL     OW37756   2.874   3.696   1.917 -0.6066  0.7015 -0.3112
 8765SOL    HW137757   2.946   3.665   1.972 -0.0961  3.1387  0.4266
 8765SOL    HW237758   2.828   3.755   1.977  0.2693  0.8153  0.2465
 8766SOL     OW37759   2.654   3.590  16.851  0.3758 -0.1482 -0.1205
 8766SOL    HW137760   2.610   3.669  16.882  1.2976  0.4994 -0.4802
 8766SOL    HW237761   2.634   3.586  16.758 -1.8924  0.9639  0.3164
 8767SOL     OW37762   1.459   3.980   0.901 -0.2234 -0.1095 -0.4888
 8767SOL    HW137763   1.459   4.075   0.898 -0.9507 -0.1096 -0.7624
 8767SOL    HW237764   1.549   3.964   0.872 -0.2152  0.8321 -0.9835
 8768SOL     OW37765   3.161   0.426   0.615 -0.2406 -0.3853  0.1279
 8768SOL    HW137766   3.255   0.444   0.615  0.0786 -2.0359 -0.0596
 8768SOL    HW237767   3.157   0.330   0.618  1.3678 -0.4306  0.3954
 8769SOL     OW37768   3.987   4.065  16.372  0.0549  0.2310 -0.3969
 8769SOL    HW137769   4.030   4.146  16.398  0.6528 -0.1715 -0.1399
 8769SOL    HW237770   4.023   4.001  16.433  0.4864 -0.3326 -1.2396
 8770SOL     OW37771   2.440   1.715   7.538  0.3942  0.5915  0.4114
 8770SOL    HW137772   2.393   1.749   7.461  0.5895 -0.2855 -0.0990
 8770SOL    HW237773   2.450   1.625   7.507  1.6114  0.9603 -0.2924
 8771SOL     OW37774   3.377   3.580   6.988  0.0902  0.1533 -0.2277
 8771SOL    HW137775   3.310   3.617   7.045 -0.1108 -0.1821 -0.2502
 8771SOL    HW237776   3.329   3.499   6.973  0.5140  0.2889 -2.2511
 8772SOL     OW37777   1.980   2.481   2.396 -0.1122 -0.3175  0.1834
 8772SOL    HW137778   1.887   2.498   2.412  0.2759  0.8675  1.1936
 8772SOL    HW237779   1.986   2.493   2.302 -1.7085  1.7346  0.3582
 8773SOL     OW37780   3.322   2.650   6.572  0.1651  0.5923 -0.4508
 8773SOL    HW137781   3.262   2.724   6.570 -1.1004 -0.4309 -0.5341
 8773SOL    HW237782   3.313   2.623   6.664 -1.3259 -0.9845 -1.0560
 8774SOL     OW37783   2.865   1.588   3.597  0.4216  0.1396 -0.3631
 8774SOL    HW137784   2.878   1.671   3.642  0.5971 -0.1022  0.0357
 8774SOL    HW237785   2.875   1.623   3.508 -2.2370  2.4318  0.2562
 8775SOL     OW37786   1.751   2.414   5.042 -0.4270 -0.2232 -0.8916
 8775SOL    HW137787   1.804   2.485   5.004 -1.3518  0.9334 -0.0374
 8775SOL    HW237788   1.667   2.460   5.044  0.1727  0.9021 -1.6082
 8776SOL     OW37789   0.600   2.993   4.870 -0.3254 -0.1182 -0.5396
 8776SOL    HW137790   0.519   2.988   4.820  0.6959  0.8110 -2.2842
 8776SOL    HW237791   0.560   3.001   4.957  1.5308 -2.0221  0.4996
 8777SOL     OW37792   4.607   3.289   6.934  0.5157 -0.0636 -0.0490
 8777SOL    HW137793   4.565   3.224   6.877  1.9581 -0.1257 -1.0656
 8777SOL    HW237794   4.543   3.360   6.935 -0.0047 -0.5367 -0.2285
 8778SOL     OW37795   4.567   3.814   8.641 -0.2635  0.0555 -0.4736
 8778SOL    HW137796   4.561   3.846   8.731 -3.0849 -1.0491 -0.2836
 8778SOL    HW237797   4.645   3.858   8.606 -0.3219  0.1615 -0.4695
 8779SOL     OW37798   0.759   2.516  10.839  0.3259 -0.3505 -0.0605
 8779SOL    HW137799   0.769   2.424  10.866  2.2155 -0.0287  0.3658
 8779SOL    HW237800   0.845   2.553  10.858 -0.6659  2.2005 -0.5673
 8780SOL     OW37801   2.326   3.459   6.924  0.2833  0.2955  0.8734
 8780SOL    HW137802   2.242   3.501   6.907  0.4731 -0.7709 -2.5935
 8780SOL    HW237803   2.289   3.388   6.976 -0.8817 -0.2204 -0.6673
 8781SOL     OW37804   0.833   2.323   1.359 -0.2027 -0.5674  0.7233
 8781SOL    HW137805   0.789   2.391   1.410 -0.1213 -0.1955  0.2987
 8781SOL    HW237806   0.833   2.363   1.272  1.3181  1.1175  1.5087
 8782SOL     OW37807   2.620   2.421   3.900  0.3271 -0.1714  0.1052
 8782SOL    HW137808   2.595   2.493   3.958  0.2943  1.1758 -1.5637
 8782SOL    HW237809   2.550   2.358   3.916  0.0306  0.3057  0.7273
 8783SOL     OW37810   2.679   2.387   0.225 -0.2492  0.2596  0.1328
 8783SOL    HW137811   2.763   2.346   0.245 -0.5727  0.2250  1.4059
 8783SOL    HW237812   2.630   2.310   0.196 -0.9982  1.2581 -1.2403
 8784SOL     OW37813   2.657   1.458   1.708  0.1283 -0.0413  0.6836
 8784SOL    HW137814   2.625   1.545   1.684  0.5905 -0.4643 -1.4648
 8784SOL    HW237815   2.751   1.472   1.716  0.0740  1.0325 -0.6324
 8785SOL     OW37816   3.918   3.582   6.165 -0.3277 -0.2172  0.4744
 8785SOL    HW137817   3.976   3.642   6.211 -1.6631  3.3029 -2.3747
 8785SOL    HW237818   3.872   3.641   6.105  1.7260 -0.2926 -1.1820
 8786SOL     OW37819   2.965   2.334   8.536 -0.2209  0.0506  0.2705
 8786SOL    HW137820   2.991   2.417   8.576  2.1567  0.8064 -2.8345
 8786SOL    HW237821   2.936   2.294   8.618  0.5436  1.4879  1.2421
 8787SOL     OW37822   0.646   0.043  16.715 -0.0134 -0.2745 -0.0908
 8787SOL    HW137823   0.575   0.013  16.658  0.4878  1.6084 -1.7031
 8787SOL    HW237824   0.605   0.046  16.802  0.0668 -0.0133 -0.0629
 8788SOL     OW37825   2.137   3.528   7.210 -0.0516  0.7606  0.2086
 8788SOL    HW137826   2.070   3.543   7.143 -1.2304  1.7699  1.6136
 8788SOL    HW237827   2.183   3.450   7.178 -1.5135 -0.2752  0.5627
 8789SOL     OW37828   2.310   1.980   5.362  0.3511  0.4394  0.4133
 8789SOL    HW137829   2.222   1.977   5.326  0.2715 -4.0829  1.0046
 8789SOL    HW237830   2.353   2.045   5.306  0.3201 -0.8967 -1.1713
 8790SOL     OW37831   3.594   4.682   7.905  0.5632 -0.4101  0.5791
 8790SOL    HW137832   3.518   4.623   7.903 -0.3356  0.7541 -0.0436
 8790SOL    HW237833   3.629   4.664   7.992  1.4348 -3.0133 -0.3172
 8791SOL     OW37834   2.351   1.277   2.558 -0.4576  0.5287  0.0722
 8791SOL    HW137835   2.338   1.185   2.583  1.5483  0.0385 -0.7045
 8791SOL    HW237836   2.301   1.315   2.630  1.6611 -0.3934  2.0219
 8792SOL     OW37837   0.579   0.956   9.159 -0.5248 -0.3042  0.4247
 8792SOL    HW137838   0.643   0.934   9.227  2.3913 -0.3591 -2.3690
 8792SOL    HW237839   0.564   1.051   9.166 -0.3661 -0.4612  2.9412
 8793SOL     OW37840   2.082   3.559   6.554 -0.2302 -0.3963  0.1904
 8793SOL    HW137841   2.172   3.574   6.582  0.6023 -1.9318 -1.6800
 8793SOL    HW237842   2.047   3.648   6.564  2.1051  0.7543 -2.0163
 8794SOL     OW37843   2.250   1.739   4.300 -0.1293  0.2117 -0.1682
 8794SOL    HW137844   2.191   1.684   4.247 -0.8911  0.5024  0.3824
 8794SOL    HW237845   2.206   1.821   4.280 -0.5749 -0.5051 -2.1846
 8795SOL     OW37846   0.081   1.673   2.645 -0.4933 -0.0425  0.3239
 8795SOL    HW137847   0.074   1.768   2.631 -0.7614 -0.0185  0.6335
 8795SOL    HW237848   0.029   1.637   2.572  1.1478 -0.6979 -0.5110
 8796SOL     OW37849   0.423   4.137   8.006 -0.0396 -0.2096 -0.4899
 8796SOL    HW137850   0.403   4.058   7.956 -0.6492 -0.3518 -0.0088
 8796SOL    HW237851   0.341   4.146   8.053 -1.0763  0.0773 -2.3398
 8797SOL     OW37852   1.557   2.179  17.471  0.5762  0.3798  0.1248
 8797SOL    HW137853   1.587   2.267  17.446  1.6118  0.1342  0.5227
 8797SOL    HW237854   1.499   2.205  17.543 -1.6402 -1.0623 -1.1424
 8798SOL     OW37855   2.991   2.558   0.124 -0.4581  0.1632  0.1371
 8798SOL    HW137856   2.933   2.530   0.054 -0.3308 -2.9157  1.2708
 8798SOL    HW237857   2.972   2.482   0.179 -1.8086  0.3151 -0.1216
 8799SOL     OW37858   1.987   0.228   6.311 -0.4826  0.0842  0.9529
 8799SOL    HW137859   2.028   0.314   6.317 -0.5598  0.0869  1.4047
 8799SOL    HW237860   1.892   0.237   6.319 -0.8581 -0.1589 -3.1531
 8800SOL     OW37861   0.975   2.626   4.002  0.0977  0.5197 -0.2169
 8800SOL    HW137862   0.895   2.574   4.009 -0.0485  0.5009 -1.8912
 8800SOL    HW237863   0.960   2.664   3.915 -0.5789  3.4264  1.1467
 8801SOL     OW37864   2.207   1.818   0.060 -0.1912  0.4052  0.6273
 8801SOL    HW137865   2.173   1.742   0.106 -0.9840 -0.1158 -0.8420
 8801SOL    HW237866   2.298   1.798   0.039  0.2482  1.3260  1.6453
 8802SOL     OW37867   3.051   2.487  13.248 -0.5622  0.4452 -0.2542
 8802SOL    HW137868   3.012   2.429  13.182  0.3634  0.7318 -1.0544
 8802SOL    HW237869   3.129   2.433  13.264 -0.0761  1.3273  0.3546
 8803SOL     OW37870   0.062   0.876   4.168 -0.4829 -0.2366  0.0699
 8803SOL    HW137871   0.081   0.893   4.260 -0.7701 -0.8970  0.2507
 8803SOL    HW237872   0.043   0.783   4.179 -1.4786 -0.2667 -1.9911
 8804SOL     OW37873   1.398   2.543  11.490  0.7357  0.5617  0.4167
 8804SOL    HW137874   1.362   2.455  11.488  0.2292  0.7600  0.9054
 8804SOL    HW237875   1.471   2.548  11.427 -1.3725  3.5231 -1.8242
 8805SOL     OW37876   0.971   4.409   4.857 -0.0434  0.7420  0.6241
 8805SOL    HW137877   0.897   4.350   4.843  1.5841 -1.4576  1.3944
 8805SOL    HW237878   0.996   4.427   4.766  0.1281 -2.4238  0.0512
 8806SOL     OW37879   4.688   4.335   4.985  0.0339 -0.4002 -0.2726
 8806SOL    HW137880   4.691   4.240   4.994  1.3591 -0.4068 -0.7107
 8806SOL    HW237881   0.049   4.356   4.946  0.5860 -1.6666  0.2397
 8807SOL     OW37882   3.360   3.563   6.419  0.9934 -0.1097 -0.2530
 8807SOL    HW137883   3.264   3.563   6.423  0.9714  0.0590 -0.7864
 8807SOL    HW237884   3.388   3.651   6.443  0.7703  0.0990 -0.7648
 8808SOL     OW37885   1.914   1.967   5.942  0.2535  0.2869  0.1686
 8808SOL    HW137886   1.875   2.054   5.946 -0.5471 -0.0592  0.0515
 8808SOL    HW237887   2.003   1.987   5.914 -0.4281 -1.1585 -2.9991
 8809SOL     OW37888   0.333   2.315   5.158  0.4993  0.1170 -0.8350
 8809SOL    HW137889   0.392   2.282   5.090  1.6993  0.2852  0.1340
 8809SOL    HW237890   0.390   2.290   5.231 -0.9612 -0.6839  0.0341
 8810SOL     OW37891   1.714   2.693   5.800 -0.8346 -0.0914  0.2153
 8810SOL    HW137892   1.626   2.677   5.832 -1.2708  0.0672 -0.9050
 8810SOL    HW237893   1.711   2.666   5.708  1.9788  0.8587 -0.1470
 8811SOL     OW37894   3.577   4.565  10.025 -0.4297  0.0739  0.1491
 8811SOL    HW137895   3.618   4.485   9.993 -2.0835 -0.4176 -0.7732
 8811SOL    HW237896   3.608   4.620   9.952 -1.2812  2.5136  1.6300
 8812SOL     OW37897   4.005   0.631   4.161  0.2528  0.1730  0.3244
 8812SOL    HW137898   3.934   0.692   4.142  1.8430  0.7494 -3.8214
 8812SOL    HW237899   4.054   0.628   4.079 -0.1723  2.3053 -0.0191
 8813SOL     OW37900   2.922   2.137   8.884 -0.2455 -0.5516 -0.1005
 8813SOL    HW137901   3.001   2.090   8.859 -1.1865 -1.9750 -0.4017
 8813SOL    HW237902   2.934   2.140   8.979  1.9839  2.7133 -0.4829
 8814SOL     OW37903   2.838   0.088   3.839 -0.0334  0.2851  0.9538
 8814SOL    HW137904   2.752   0.093   3.881 -0.0780  2.1682  0.6081
 8814SOL    HW237905   2.809   0.078   3.748  0.8152  0.6956  0.6393
 8815SOL     OW37906   2.749   0.932   1.612 -0.0332  0.5972  0.3337
 8815SOL    HW137907   2.753   1.022   1.581  1.6027  0.2430 -0.4586
 8815SOL    HW237908   2.672   0.896   1.568  0.4443 -1.7120  1.3594
 8816SOL     OW37909   4.199   3.611   4.204  0.1706  0.1360 -0.0436
 8816SOL    HW137910   4.256   3.603   4.128  1.2314 -2.6224  1.0526
 8816SOL    HW237911   4.122   3.572   4.162 -0.8091  1.0474  0.8942
 8817SOL     OW37912   0.474   3.650   4.925 -0.3991  0.2179 -0.3121
 8817SOL    HW137913   0.524   3.593   4.984 -0.8122 -0.4903 -0.6424
 8817SOL    HW237914   0.436   3.593   4.858  1.5027 -0.6493 -0.6579
 8818SOL     OW37915   4.366   1.982   5.780 -0.4966  0.0750 -0.1484
 8818SOL    HW137916   4.374   1.888   5.793  1.8518  0.2504 -0.4658
 8818SOL    HW237917   4.348   2.004   5.872 -2.0255 -1.2318 -0.1313
 8819SOL     OW37918   1.158   2.495  16.602  0.2120 -0.2015 -0.3449
 8819SOL    HW137919   1.124   2.419  16.648 -1.5861  1.2105  0.6719
 8819SOL    HW237920   1.206   2.536  16.674 -2.1805  2.0592 -0.0121
 8820SOL     OW37921   0.082   2.791  13.465  0.4453  0.2978  0.3630
 8820SOL    HW137922   0.173   2.815  13.483  0.1473  0.5913  1.4873
 8820SOL    HW237923   0.061   2.829  13.380 -0.9408 -2.1056 -0.3662
 8821SOL     OW37924   2.322   3.580   5.958 -0.1633  0.0093  0.1884
 8821SOL    HW137925   2.231   3.593   5.931  0.8587 -0.1406 -3.3339
 8821SOL    HW237926   2.312   3.511   6.024 -0.3818 -0.7727 -0.6768
 8822SOL     OW37927   2.958   0.480   5.999  0.4713  0.5654  0.2985
 8822SOL    HW137928   2.920   0.512   5.917 -0.5378  1.1316  0.9983
 8822SOL    HW237929   3.008   0.556   6.030 -0.2435 -0.0951  3.0589
 8823SOL     OW37930   4.267   2.830   0.899  0.4454  0.5755 -0.1229
 8823SOL    HW137931   4.312   2.792   0.975 -1.7775  0.3328  1.0558
 8823SOL    HW237932   4.342   2.840   0.840  1.3198  1.1176  1.0786
 8824SOL     OW37933   3.142   2.449   4.805  0.8079  0.0603  0.6921
 8824SOL    HW137934   3.199   2.522   4.777  0.2397 -0.2274 -1.2509
 8824SOL    HW237935   3.078   2.445   4.734  0.4287  0.3863  1.0151
 8825SOL     OW37936   1.101   3.098  12.376 -0.1500  0.2161 -0.0245
 8825SOL    HW137937   1.078   3.167  12.439  1.1086  2.9114 -2.5219
 8825SOL    HW237938   1.177   3.059  12.418 -0.6561 -2.4409 -1.5628
 8826SOL     OW37939   4.514   0.679   4.678 -0.1303  0.3418 -0.2762
 8826SOL    HW137940   4.435   0.700   4.628 -1.3259  2.2243  2.3965
 8826SOL    HW237941   4.519   0.586   4.655 -1.4647  0.2999 -0.4077
 8827SOL     OW37942   3.540   2.490   6.918 -0.3783 -0.3710 -0.3563
 8827SOL    HW137943   3.455   2.508   6.956 -0.5886  1.7662 -1.8436
 8827SOL    HW237944   3.591   2.443   6.984  2.9020  2.8763 -0.5725
 8828SOL     OW37945   3.090   3.343   1.776  0.4373 -0.3571  0.1706
 8828SOL    HW137946   3.022   3.286   1.740 -1.3460  2.5776 -1.0666
 8828SOL    HW237947   3.123   3.392   1.702  0.8948  0.5036  0.9457
 8829SOL     OW37948   4.310   0.242   7.341  0.0273  0.9898  0.6169
 8829SOL    HW137949   4.223   0.268   7.310 -0.3764  0.0032  0.9272
 8829SOL    HW237950   4.340   0.332   7.329 -2.1311  1.4594 -1.3456
 8830SOL     OW37951   3.034   2.462   4.223 -0.0454  0.1100  0.2663
 8830SOL    HW137952   2.969   2.430   4.286 -0.7395 -0.5034 -0.7609
 8830SOL    HW237953   3.067   2.381   4.185  0.0016  0.2437  0.0245
 8831SOL     OW37954   3.160   4.454   6.888 -0.1541 -0.0758 -0.3429
 8831SOL    HW137955   3.185   4.466   6.980 -2.0773 -0.1380  0.1935
 8831SOL    HW237956   3.178   4.360   6.882  0.3819  0.0734 -1.0119
 8832SOL     OW37957   1.379   2.986   6.820  0.1707 -0.2290 -0.6035
 8832SOL    HW137958   1.314   2.917   6.827 -0.8144  0.8012  0.3704
 8832SOL    HW237959   1.380   3.002   6.914  0.4223 -0.8341 -0.5067
 8833SOL     OW37960   0.706   0.455   3.199  0.2935  0.2429 -0.7529
 8833SOL    HW137961   0.701   0.362   3.176 -2.0395 -0.1250  1.2759
 8833SOL    HW237962   0.620   0.493   3.182  0.4354  0.7296 -0.3865
 8834SOL     OW37963   1.062   0.248  15.809  0.0831 -0.4307 -0.5691
 8834SOL    HW137964   0.979   0.201  15.821 -0.1374  0.3935  1.1281
 8834SOL    HW237965   1.039   0.336  15.781 -0.5748 -0.3977  0.0567
 8835SOL     OW37966   4.498   2.783  16.903  0.1443  0.2924 -0.4636
 8835SOL    HW137967   4.589   2.775  16.877  0.5807  1.2824  0.7573
 8835SOL    HW237968   4.450   2.739  16.833  1.3223  0.4378 -1.3588
 8836SOL     OW37969   4.160   0.283   0.253 -0.0521  0.3933 -0.4812
 8836SOL    HW137970   4.066   0.263   0.252  0.4740 -2.0371 -0.2635
 8836SOL    HW237971   4.198   0.200   0.281 -0.6338  0.5346  0.7339
 8837SOL     OW37972   4.522   2.693   7.377 -0.9446  0.2099 -0.2444
 8837SOL    HW137973   4.596   2.753   7.389 -1.9590  1.6788 -1.2216
 8837SOL    HW237974   4.474   2.700   7.459  0.1769  1.1019  0.3362
 8838SOL     OW37975   2.007   1.874  11.360  0.4107  0.7420 -0.0372
 8838SOL    HW137976   2.021   1.965  11.386 -0.8292  0.9024  0.0464
 8838SOL    HW237977   1.938   1.851  11.422 -0.8389  1.0614 -1.3190
 8839SOL     OW37978   2.876   3.988  11.700  0.0921 -0.4241  0.7419
 8839SOL    HW137979   2.782   3.968  11.704 -0.1287  0.0180 -2.4721
 8839SOL    HW237980   2.887   4.009  11.607  1.1898 -0.1942  0.9232
 8840SOL     OW37981   3.893   1.384  15.216  0.1806  0.5015  0.1250
 8840SOL    HW137982   3.856   1.472  15.208  3.7999  2.1737  1.6847
 8840SOL    HW237983   3.835   1.342  15.152 -0.4602 -0.1453  1.1194
 8841SOL     OW37984   3.094   3.473   0.367  0.1602 -0.6022  0.1592
 8841SOL    HW137985   3.061   3.528   0.296 -0.5062 -0.2657  0.7279
 8841SOL    HW237986   3.014   3.452   0.417 -0.9745  2.5125 -0.3782
 8842SOL     OW37987   4.717   4.132   3.339 -0.0691 -0.1148 -0.0846
 8842SOL    HW137988   4.645   4.101   3.283  2.3957 -0.0740 -3.2539
 8842SOL    HW237989   4.694   4.107   3.429  1.4385 -0.7742  0.1158
 8843SOL     OW37990   0.894   1.954  14.226  0.2826  0.0277  0.6980
 8843SOL    HW137991   0.870   1.872  14.269  3.7673 -1.0211  0.6366
 8843SOL    HW237992   0.964   1.987  14.282 -0.2536 -0.9808  1.9382
 8844SOL     OW37993   1.156   2.957  15.873 -0.0566 -0.2157 -0.0797
 8844SOL    HW137994   1.094   2.884  15.872 -0.5332  0.1955 -0.4470
 8844SOL    HW237995   1.175   2.966  15.966  2.0357  1.5116 -0.6751
 8845SOL     OW37996   4.677   4.468   6.943 -0.1164 -0.4220  0.1411
 8845SOL    HW137997   0.026   4.408   6.926  2.0453  2.4962 -0.8010
 8845SOL    HW237998   4.653   4.484   6.852  0.7608 -0.9313 -0.1857
 8846SOL     OW37999   0.665   0.235   9.163  0.5292 -0.2140  0.0034
 8846SOL    HW138000   0.622   0.311   9.124  1.7622  1.1570  1.2790
 8846SOL    HW238001   0.668   0.182   9.084  1.4008  0.3207 -0.3285
 8847SOL     OW38002   1.792   4.400   8.068 -0.3569 -0.4500 -0.3500
 8847SOL    HW138003   1.875   4.358   8.087  0.3977  1.6960  1.0407
 8847SOL    HW238004   1.729   4.346   8.117 -0.1500  0.5429  0.9932
 8848SOL     OW38005   0.115   3.348   8.080 -0.0035 -0.1692 -0.3095
 8848SOL    HW138006   0.181   3.316   8.141  0.3310 -0.2254 -0.6979
 8848SOL    HW238007   0.149   3.431   8.046 -2.4874  1.4804  1.2173
 8849SOL     OW38008   2.596   4.344   9.752  0.6472  0.1071 -0.8378
 8849SOL    HW138009   2.666   4.392   9.796 -0.1418  0.6124 -0.1436
 8849SOL    HW238010   2.580   4.286   9.827 -0.7465  2.2896  0.5679
 8850SOL     OW38011   1.670   0.162   4.572 -0.5590 -0.6706  0.3770
 8850SOL    HW138012   1.719   0.144   4.652 -3.2111 -0.9223  1.9464
 8850SOL    HW238013   1.690   0.084   4.520 -1.3487 -0.9574  0.5090
 8851SOL     OW38014   4.602   3.338  13.779 -0.0730 -0.0714 -0.0151
 8851SOL    HW138015   4.639   3.258  13.816 -0.8826 -1.1619 -1.5666
 8851SOL    HW238016   4.569   3.319  13.691 -1.9934  2.8139  0.0919
 8852SOL     OW38017   3.893   4.040   9.217  0.1250 -0.2673  0.4716
 8852SOL    HW138018   3.869   3.981   9.288  3.3551 -0.8373  1.0866
 8852SOL    HW238019   3.838   4.114   9.245 -0.0434 -0.6946  1.2613
 8853SOL     OW38020   3.284   4.385   9.598 -0.4940  0.1671  0.0707
 8853SOL    HW138021   3.236   4.313   9.556 -0.4973  1.1611 -1.6328
 8853SOL    HW238022   3.238   4.391   9.681 -0.6309  1.0333 -0.0691
 8854SOL     OW38023   3.672   3.519   2.164  0.5594  0.5770 -0.8610
 8854SOL    HW138024   3.698   3.461   2.235 -0.9114 -1.2280 -1.7962
 8854SOL    HW238025   3.667   3.599   2.216 -0.7780 -0.6201  0.8533
 8855SOL     OW38026   4.137   1.435  12.560 -0.2260  0.0211  0.2764
 8855SOL    HW138027   4.210   1.379  12.587  1.1464  2.0437  0.8573
 8855SOL    HW238028   4.173   1.518  12.592  1.5321 -0.5061 -0.3070
 8856SOL     OW38029   3.875   2.681   7.159  0.0961  0.0408  0.1531
 8856SOL    HW138030   3.791   2.716   7.188  0.2482  2.7571 -2.6540
 8856SOL    HW238031   3.882   2.690   7.064 -0.8853 -0.1375  0.0610
 8857SOL     OW38032   0.874   0.565  12.853 -0.4549 -0.0769 -0.2181
 8857SOL    HW138033   0.804   0.547  12.916  1.0654 -3.2325  0.5879
 8857SOL    HW238034   0.949   0.518  12.889 -0.5900 -0.3357 -0.2751
 8858SOL     OW38035   0.459   4.025   2.039  0.6304 -0.3668  0.2958
 8858SOL    HW138036   0.419   3.948   1.999 -0.7688  0.3184  0.4096
 8858SOL    HW238037   0.548   4.007   2.007 -0.6664 -2.7479 -1.9760
 8859SOL     OW38038   0.486   2.617  10.434 -0.5581  0.2080  0.6937
 8859SOL    HW138039   0.391   2.612  10.446 -0.5533 -0.7288  0.3400
 8859SOL    HW238040   0.499   2.609  10.528  0.7222 -1.6118  0.3695
 8860SOL     OW38041   3.174   2.947  10.351 -0.0385  0.4586 -0.5200
 8860SOL    HW138042   3.170   2.928  10.444 -1.3651 -2.9614 -1.2981
 8860SOL    HW238043   3.242   3.015  10.347  2.2472 -1.7861  0.3262
 8861SOL     OW38044   0.490   0.229  17.297  0.2733 -0.3324  0.2967
 8861SOL    HW138045   0.463   0.149  17.341  0.2186 -1.2572 -1.4232
 8861SOL    HW238046   0.454   0.204  17.212 -0.3826  0.8898  0.2173
 8862SOL     OW38047   2.908   3.001  14.810 -0.5730 -0.3470  0.2270
 8862SOL    HW138048   2.822   3.043  14.816 -0.1767  0.3919  0.7437
 8862SOL    HW238049   2.887   2.914  14.775 -0.5771  0.4847 -1.8028
 8863SOL     OW38050   1.051   0.367   5.422 -0.4673  0.4837 -0.3500
 8863SOL    HW138051   0.998   0.287   5.419 -1.4950  1.2522 -2.2240
 8863SOL    HW238052   1.034   0.383   5.515 -1.8496 -0.0495 -0.5098
 8864SOL     OW38053   1.252   4.576   0.321 -0.3186  0.0765 -0.4893
 8864SOL    HW138054   1.271   4.495   0.369  0.0264  0.0735 -0.6252
 8864SOL    HW238055   1.341   4.594   0.289  0.3942 -1.6964  0.5071
 8865SOL     OW38056   0.535   4.615   8.692  0.4282  0.0359  0.4001
 8865SOL    HW138057   0.508   4.693   8.643  0.9241 -0.6390 -0.9727
 8865SOL    HW238058   0.458   4.596   8.745  0.5550 -1.4889  0.0221
 8866SOL     OW38059   0.357   3.648   9.809  0.4798  0.1418  0.3076
 8866SOL    HW138060   0.413   3.677   9.737  0.2291  1.2647  0.5724
 8866SOL    HW238061   0.309   3.580   9.762 -0.1339 -0.1371  1.3282
 8867SOL     OW38062   3.388   0.469   8.157 -0.0154 -0.1407 -0.0226
 8867SOL    HW138063   3.463   0.462   8.098 -0.9181  1.2272 -1.3352
 8867SOL    HW238064   3.367   0.376   8.161 -1.1951  0.1569  0.5666
 8868SOL     OW38065   1.836   2.299   8.324  0.2410 -0.2225  0.2544
 8868SOL    HW138066   1.824   2.391   8.299  0.9471 -0.2001  0.0180
 8868SOL    HW238067   1.921   2.286   8.283  0.3053  1.4751 -0.1503
 8869SOL     OW38068   3.483   1.121   6.208 -0.4185  0.0275  0.2403
 8869SOL    HW138069   3.468   1.040   6.160 -0.5676 -0.1699  0.6141
 8869SOL    HW238070   3.464   1.183   6.138  1.4592  0.4933  0.1221
 8870SOL     OW38071   2.933   4.135   8.933 -0.5895 -0.4385 -0.3568
 8870SOL    HW138072   2.884   4.054   8.926 -1.3110  0.2238 -2.6565
 8870SOL    HW238073   2.905   4.156   9.022  2.0893 -0.2518  0.4684
 8871SOL     OW38074   2.970   1.613   4.077 -0.4765 -0.1660  0.3466
 8871SOL    HW138075   2.889   1.635   4.123 -0.1678  2.0195 -0.1605
 8871SOL    HW238076   2.924   1.544   4.029  0.8181  0.0015 -1.1688
 8872SOL     OW38077   2.893   2.305   3.933  0.0629 -0.5050  0.5814
 8872SOL    HW138078   2.816   2.334   3.883  1.7787  2.3235 -0.4031
 8872SOL    HW238079   2.852   2.259   4.007 -0.0281 -0.2432  0.6939
 8873SOL     OW38080   2.491   4.273  13.908 -0.2407  0.6091 -0.1298
 8873SOL    HW138081   2.516   4.185  13.938 -0.7401  1.6401  3.3604
 8873SOL    HW238082   2.577   4.315  13.908 -0.6815  1.4751 -4.0569
 8874SOL     OW38083   1.261   3.124   9.475  0.3100  0.3688  0.3777
 8874SOL    HW138084   1.349   3.157   9.462 -0.7204  3.6902  1.7710
 8874SOL    HW238085   1.238   3.170   9.556 -3.5497 -0.5269 -0.1723
 8875SOL     OW38086   1.461   3.613   8.707  0.2983  0.2535 -0.0083
 8875SOL    HW138087   1.464   3.708   8.702 -1.2722  0.2853 -0.2937
 8875SOL    HW238088   1.546   3.600   8.667  0.2175  0.3838 -0.2237
 8876SOL     OW38089   1.726   0.036   7.542  0.3694  1.0423  0.1707
 8876SOL    HW138090   1.817   0.010   7.533 -0.2638 -1.1517  0.2380
 8876SOL    HW238091   1.721   0.063   7.634 -1.1618  0.0326  0.3839
 8877SOL     OW38092   0.558   2.789   8.717  0.2649  0.4949 -0.0882
 8877SOL    HW138093   0.570   2.694   8.715  2.3236  0.7326  0.8307
 8877SOL    HW238094   0.627   2.808   8.781 -1.2566  1.8608  1.1238
 8878SOL     OW38095   0.725   4.229   4.883  0.1761  0.6369 -0.4562
 8878SOL    HW138096   0.641   4.199   4.846 -0.0511  1.4535 -0.5991
 8878SOL    HW238097   0.700   4.252   4.972  0.6183  3.6101 -1.1023
 8879SOL     OW38098   4.069   1.362   7.918 -0.8045  0.1791  0.2113
 8879SOL    HW138099   4.057   1.454   7.893 -1.3749  0.1689  0.4316
 8879SOL    HW238100   4.158   1.360   7.951 -0.5060  2.8508 -0.4207
 8880SOL     OW38101   2.025   3.766  11.042  0.0604 -0.3836  0.0200
 8880SOL    HW138102   1.960   3.819  11.089 -0.5318  0.4165 -1.7036
 8880SOL    HW238103   2.037   3.683  11.088 -0.8440 -0.4914  0.0585
 8881SOL     OW38104   0.058   3.569  17.289 -0.3259  0.3417 -0.4051
 8881SOL    HW138105   0.145   3.595  17.259 -0.3303 -0.6568 -1.2960
 8881SOL    HW238106   0.055   3.630  17.362 -2.5092  0.9021 -0.9617
 8882SOL     OW38107   1.485   2.931  13.534  0.3337  0.1036  0.0865
 8882SOL    HW138108   1.431   2.947  13.456 -0.7226 -0.0537  0.7880
 8882SOL    HW238109   1.555   2.871  13.510 -0.7743 -1.0075 -0.3460
 8883SOL     OW38110   1.303   4.552  10.740  0.7376 -0.4977 -0.0642
 8883SOL    HW138111   1.306   4.646  10.720 -0.3026 -0.2387  0.9856
 8883SOL    HW238112   1.216   4.526  10.710  0.4767  0.0867  0.1770
 8884SOL     OW38113   2.257   0.899   0.502  1.0831  0.2280  0.6691
 8884SOL    HW138114   2.278   0.832   0.567  2.2226  1.3777  1.4790
 8884SOL    HW238115   2.206   0.952   0.563  0.5650 -1.3277  1.5875
 8885SOL     OW38116   3.493   2.943   0.941 -0.0649  0.0213  0.1031
 8885SOL    HW138117   3.427   2.937   1.009  0.1289 -0.0610  0.2831
 8885SOL    HW238118   3.432   2.982   0.879 -0.0318  0.6134  0.4412
 8886SOL     OW38119   0.624   0.833   1.871 -0.0589  0.4591 -0.0158
 8886SOL    HW138120   0.711   0.855   1.839  0.6276 -0.0590  1.4774
 8886SOL    HW238121   0.573   0.907   1.839  2.2603  2.4730  0.9399
 8887SOL     OW38122   3.836   2.509   3.027 -0.2198 -0.3309  0.1417
 8887SOL    HW138123   3.838   2.579   2.963 -0.8475 -1.3512 -0.9960
 8887SOL    HW238124   3.866   2.557   3.104  0.7869 -2.5227  1.1265
 8888SOL     OW38125   2.117   0.247   4.090  0.1711  0.0682 -0.3724
 8888SOL    HW138126   2.108   0.168   4.144  1.3428  0.2820  0.1238
 8888SOL    HW238127   2.210   0.235   4.073  0.0571 -0.3461 -0.7075
 8889SOL     OW38128   3.082   2.797   2.710  0.3959 -0.1655 -0.1844
 8889SOL    HW138129   3.054   2.735   2.643  0.8243 -0.3378 -0.2090
 8889SOL    HW238130   3.171   2.811   2.676  1.3048  1.1813  2.7226
 8890SOL     OW38131   2.070   1.498   5.525  0.2781 -0.2139 -0.1734
 8890SOL    HW138132   2.084   1.573   5.583  1.0199  0.3354 -1.0481
 8890SOL    HW238133   1.987   1.521   5.484  0.9756  0.0300 -1.4664
 8891SOL     OW38134   2.095   0.807   5.506  0.4154 -0.5859 -0.7162
 8891SOL    HW138135   2.042   0.758   5.569  2.0476 -2.4496 -0.7830
 8891SOL    HW238136   2.185   0.783   5.529  0.5711  1.6039  0.9253
 8892SOL     OW38137   1.762   3.292   4.486 -0.0173  0.6115  0.3278
 8892SOL    HW138138   1.773   3.337   4.571  0.1151  0.8332  0.1939
 8892SOL    HW238139   1.843   3.319   4.443  1.2222 -1.7520  1.1994
 8893SOL     OW38140   4.502   2.560   0.415  0.5611 -0.2327 -0.0177
 8893SOL    HW138141   4.525   2.652   0.399  1.6086 -0.3499  0.8319
 8893SOL    HW238142   4.530   2.530   0.328  1.4885  2.0763 -0.5158
 8894SOL     OW38143   1.905   0.367   1.606  0.5447  0.5353  0.4213
 8894SOL    HW138144   1.831   0.425   1.589  0.5896  0.3246 -0.4665
 8894SOL    HW238145   1.866   0.304   1.666 -1.2284  0.0521 -1.2298
 8895SOL     OW38146   0.337   0.786   8.796 -0.2680  0.5153  0.1145
 8895SOL    HW138147   0.429   0.779   8.768 -0.3443 -0.0185 -0.0186
 8895SOL    HW238148   0.313   0.844   8.723  0.8993  0.4050 -0.3580
 8896SOL     OW38149   2.623   0.853   6.182  0.5904 -0.2992  0.2066
 8896SOL    HW138150   2.538   0.815   6.157  0.2683 -0.0638  0.9266
 8896SOL    HW238151   2.666   0.784   6.233  0.2308 -0.4000  0.3749
 8897SOL     OW38152   4.105   3.283   7.474  0.1784 -0.3259 -0.3712
 8897SOL    HW138153   4.174   3.350   7.482 -0.9200  1.1526 -3.3078
 8897SOL    HW238154   4.153   3.214   7.428 -1.2177 -2.0003  0.7183
 8898SOL     OW38155   1.587   1.051  11.682 -0.7626  0.3740 -0.1844
 8898SOL    HW138156   1.625   1.130  11.645  0.8753 -1.3297 -2.1507
 8898SOL    HW238157   1.628   1.046  11.769  0.2550 -0.3468 -0.7060
 8899SOL     OW38158   2.250   4.312   3.883 -0.1801  0.4918  0.0275
 8899SOL    HW138159   2.259   4.219   3.862 -0.3932  0.5559 -0.3493
 8899SOL    HW238160   2.209   4.301   3.969 -2.4678 -0.8054 -1.2027
 8900SOL     OW38161   2.632   3.148   2.227  0.0296  0.4704  0.1094
 8900SOL    HW138162   2.615   3.092   2.303  2.5871  2.0777  1.9051
 8900SOL    HW238163   2.583   3.120   2.150  0.1190  0.6622 -0.0170
 8901SOL     OW38164   2.566   2.987   6.473 -0.3195 -0.6363 -0.5162
 8901SOL    HW138165   2.536   3.020   6.388 -1.3042  1.0499  0.4804
 8901SOL    HW238166   2.483   2.973   6.519 -0.1180 -0.2694 -0.0513
 8902SOL     OW38167   1.280   2.306   6.507  0.1775 -0.0336 -0.2459
 8902SOL    HW138168   1.278   2.328   6.600 -2.7844  0.0746 -0.3470
 8902SOL    HW238169   1.188   2.307   6.480  0.0324  0.6038  0.2617
 8903SOL     OW38170   3.500   2.181   4.162 -0.2553 -0.6551  0.0094
 8903SOL    HW138171   3.443   2.230   4.103  0.9649 -0.8732 -1.3406
 8903SOL    HW238172   3.576   2.238   4.153 -0.5048 -0.4397 -0.8018
 8904SOL     OW38173   2.715   1.869   5.174 -0.1769  0.5070 -0.5811
 8904SOL    HW138174   2.777   1.913   5.233  1.1709  0.4785 -1.9810
 8904SOL    HW238175   2.766   1.836   5.100  3.4988  1.0496  1.7029
 8905SOL     OW38176   2.014   4.580   2.565  0.2387  0.2910  0.1172
 8905SOL    HW138177   2.053   4.665   2.583  3.8053 -1.6062  1.2314
 8905SOL    HW238178   2.091   4.531   2.537 -0.5893  0.0850 -1.8313
 8906SOL     OW38179   0.995   0.455  13.587  0.1589 -0.3515  0.2018
 8906SOL    HW138180   1.039   0.516  13.528  0.1098 -1.0593 -0.5677
 8906SOL    HW238181   0.965   0.521  13.648  0.7487 -1.6170  1.8508
 8907SOL     OW38182   1.384   3.361   5.815  0.0504 -0.2981  0.0678
 8907SOL    HW138183   1.320   3.348   5.745  0.1567  2.7771 -0.5732
 8907SOL    HW238184   1.404   3.454   5.801 -0.0004 -0.3813 -0.5930
 8908SOL     OW38185   3.868   3.256   1.043  0.1653 -0.4898 -0.1626
 8908SOL    HW138186   3.952   3.238   1.001  1.8852  2.5108  2.0622
 8908SOL    HW238187   3.812   3.222   0.973  0.8296 -0.3216 -0.7750
 8909SOL     OW38188   1.290   2.863  12.365 -0.1070 -0.3507 -0.5774
 8909SOL    HW138189   1.202   2.861  12.329 -0.9677 -0.3664  1.5816
 8909SOL    HW238190   1.340   2.845  12.285  0.0849  2.8476 -1.2145
 8910SOL     OW38191   1.606   0.302  17.680 -0.1485 -0.8568  0.7745
 8910SOL    HW138192   1.586   0.249   0.059  0.8720  0.0246  1.6255
 8910SOL    HW238193   1.604   0.392   0.014  0.5111 -0.6393  0.2064
 8911SOL     OW38194   1.936   1.459   9.119  0.1571  0.4035  0.1098
 8911SOL    HW138195   1.964   1.404   9.193 -0.9992  1.8077  1.6087
 8911SOL    HW238196   2.001   1.439   9.052  0.1479 -1.2255  0.5830
 8912SOL     OW38197   0.635   2.981  11.995  0.1784 -0.4571 -0.0527
 8912SOL    HW138198   0.655   2.941  12.080 -0.8897  0.4308  0.6209
 8912SOL    HW238199   0.563   2.929  11.961 -1.1674  1.1759  0.2933
 8913SOL     OW38200   3.265   4.439  15.504 -0.5047  0.2021  0.1098
 8913SOL    HW138201   3.261   4.534  15.491  0.2228  0.1830 -0.2641
 8913SOL    HW238202   3.352   4.428  15.542  1.2528 -0.7781 -4.2003
 8914SOL     OW38203   2.119   3.882   8.390 -0.0781  0.1554  0.1798
 8914SOL    HW138204   2.157   3.802   8.427  0.5418 -1.0517 -3.0338
 8914SOL    HW238205   2.132   3.947   8.459 -0.3372 -1.3686  1.6466
 8915SOL     OW38206   3.322   2.480   9.229 -0.1779  0.1729  0.5181
 8915SOL    HW138207   3.340   2.408   9.168 -0.7050 -0.5820  1.2633
 8915SOL    HW238208   3.410   2.517   9.241  0.9437 -2.4190  0.2789
 8916SOL     OW38209   3.610   1.925   6.360  0.1272 -0.4754 -0.4316
 8916SOL    HW138210   3.639   1.984   6.291  1.0499 -0.2148  0.1811
 8916SOL    HW238211   3.516   1.928   6.342  0.0094 -1.2736  0.0612
 8917SOL     OW38212   3.448   2.635   8.406  0.6499 -0.2450  0.4375
 8917SOL    HW138213   3.526   2.670   8.449  0.4890 -1.5511  1.7830
 8917SOL    HW238214   3.411   2.710   8.358 -0.9719 -1.1613  0.2530
 8918SOL     OW38215   3.271   2.197   3.036  0.2330 -0.0613 -0.2455
 8918SOL    HW138216   3.323   2.205   2.956  2.8351 -1.4188  1.2983
 8918SOL    HW238217   3.287   2.106   3.061  2.9173  0.4782 -0.0109
 8919SOL     OW38218   4.128   3.035  15.840  0.1205 -0.3513  0.8161
 8919SOL    HW138219   4.092   3.071  15.920  0.1619  0.0845  0.6378
 8919SOL    HW238220   4.062   2.974  15.805  1.0422 -0.0347 -1.4774
 8920SOL     OW38221   1.951   1.910   0.904  0.3106  0.0020  0.7150
 8920SOL    HW138222   1.944   2.002   0.878  3.0659  0.2139  0.7666
 8920SOL    HW238223   2.025   1.888   0.848  0.0751  3.2441 -0.9292
 8921SOL     OW38224   4.315   2.139   2.096  0.7912  0.1852 -0.4261
 8921SOL    HW138225   4.393   2.101   2.137  1.5176  0.9823 -1.0766
 8921SOL    HW238226   4.308   2.083   2.018 -3.4815  1.9412 -1.2783
 8922SOL     OW38227   0.151   3.524   8.505  0.1485  0.3142 -0.0228
 8922SOL    HW138228   0.186   3.508   8.593 -1.3157 -1.0349  0.3203
 8922SOL    HW238229   0.089   3.451   8.507 -0.7426  1.0382 -1.6429
 8923SOL     OW38230   3.351   1.787   8.524  0.4919  0.1369 -0.8482
 8923SOL    HW138231   3.393   1.747   8.447 -1.3771 -1.0445 -1.2407
 8923SOL    HW238232   3.294   1.718   8.559 -0.5108  0.9258 -0.9360
 8924SOL     OW38233   2.708   0.204   6.417  0.1500  0.0209 -0.2095
 8924SOL    HW138234   2.746   0.116   6.407 -2.0109 -0.9499  0.0761
 8924SOL    HW238235   2.758   0.249   6.349  0.1796  1.4422  0.7543
 8925SOL     OW38236   0.116   1.606   5.041 -0.1677  0.5880  0.0059
 8925SOL    HW138237   0.131   1.700   5.032  1.4852  0.3576  0.3713
 8925SOL    HW238238   0.147   1.573   4.956 -0.3282 -2.4959  1.1711
 8926SOL     OW38239   3.168   3.960   5.149  0.0012 -0.3903  1.0438
 8926SOL    HW138240   3.213   4.029   5.199 -0.9148 -1.4699  3.3442
 8926SOL    HW238241   3.080   3.972   5.184 -1.1349 -1.0306 -1.6314
 8927SOL     OW38242   2.333   2.832  14.918 -0.4078  0.4122  0.2225
 8927SOL    HW138243   2.389   2.877  14.982  0.0460 -1.1453  0.9438
 8927SOL    HW238244   2.329   2.906  14.858  3.1062 -0.0904 -0.6364
 8928SOL     OW38245   2.365   1.910   6.239  0.0675 -0.2869  0.0464
 8928SOL    HW138246   2.441   1.870   6.281 -0.2139  0.4268  1.2254
 8928SOL    HW238247   2.389   2.002   6.228 -0.5916 -0.0426  0.7067
 8929SOL     OW38248   2.513   0.696  16.944 -0.6103  0.5926 -0.5987
 8929SOL    HW138249   2.537   0.715  17.035  0.6177 -1.6444 -0.4259
 8929SOL    HW238250   2.420   0.714  16.952 -0.4462  0.7947  0.9059
 8930SOL     OW38251   0.523   0.091   5.095 -0.5213  0.3439 -0.3594
 8930SOL    HW138252   0.508   0.183   5.076  2.0683  0.8026 -0.1434
 8930SOL    HW238253   0.619   0.087   5.093 -0.4388  1.1737  2.0573
 8931SOL     OW38254   3.281   3.518   4.881 -0.1426  0.2432  0.1559
 8931SOL    HW138255   3.249   3.607   4.896  0.2986  0.6771 -1.4571
 8931SOL    HW238256   3.371   3.527   4.912 -0.2863  0.3747  0.5413
 8932SOL     OW38257   2.598   3.961  12.957 -0.0109  0.4459 -0.0523
 8932SOL    HW138258   2.577   4.044  12.999 -2.3785  0.2376 -0.8395
 8932SOL    HW238259   2.686   3.977  12.923 -0.7342  1.5965 -1.4188
 8933SOL     OW38260   4.335   2.056  16.778  0.0557 -0.1210  0.7307
 8933SOL    HW138261   4.372   1.998  16.845 -0.0416  0.1076  0.9834
 8933SOL    HW238262   4.412   2.088  16.733 -0.0897  1.4606  1.5859
 8934SOL     OW38263   1.291   3.320  15.728 -0.2001 -0.7346  0.1839
 8934SOL    HW138264   1.345   3.318  15.807  2.4543  1.7681 -1.5698
 8934SOL    HW238265   1.297   3.226  15.714  0.4562 -0.6123 -0.3595
 8935SOL     OW38266   0.366   3.385   4.841  0.0745  0.2035  0.0018
 8935SOL    HW138267   0.304   3.384   4.915  1.1028  1.7163  0.8799
 8935SOL    HW238268   0.315   3.436   4.779  1.1152  0.5207 -0.5851
 8936SOL     OW38269   2.880   2.499   2.759 -0.0614 -0.4586  0.2042
 8936SOL    HW138270   2.804   2.539   2.800 -0.8967  0.1009 -1.9300
 8936SOL    HW238271   2.870   2.543   2.675  0.4353  2.2611  1.5756
 8937SOL     OW38272   4.641   1.679   4.367  0.0253  0.3085  0.6728
 8937SOL    HW138273   4.631   1.774   4.360 -3.8213 -0.1888 -0.7566
 8937SOL    HW238274   4.562   1.658   4.417 -0.9249 -1.6200 -1.5961
 8938SOL     OW38275   4.042   4.101  11.539 -0.3288 -0.4075  0.4558
 8938SOL    HW138276   4.111   4.100  11.606  0.7044  1.5323 -0.5777
 8938SOL    HW238277   4.052   4.192  11.509  1.5459 -1.5182 -2.3252
 8939SOL     OW38278   2.798   3.380  16.950 -0.5765  0.1587 -0.0993
 8939SOL    HW138279   2.837   3.412  17.031 -0.3236  0.7983 -0.4782
 8939SOL    HW238280   2.747   3.454  16.917 -1.7304 -0.8279 -0.5371
 8940SOL     OW38281   1.904   0.862   5.954 -0.2093 -0.1462  0.6225
 8940SOL    HW138282   1.816   0.864   5.916  0.4302  1.5372 -0.7357
 8940SOL    HW238283   1.898   0.907   6.038 -2.9883 -0.8366  0.8049
 8941SOL     OW38284   0.570   4.125   8.942  0.6101 -0.5630  0.8294
 8941SOL    HW138285   0.508   4.090   8.878  0.1387  1.4362  0.2179
 8941SOL    HW238286   0.532   4.095   9.025  0.2961 -1.0648  0.5095
 8942SOL     OW38287   1.275   0.450  15.391 -0.4647  0.6130 -0.2852
 8942SOL    HW138288   1.298   0.475  15.302  1.2281  0.3598  0.0984
 8942SOL    HW238289   1.192   0.498  15.395 -0.3840  0.6175  1.3270
 8943SOL     OW38290   0.625   0.619   2.063  0.0750  0.1083 -0.0071
 8943SOL    HW138291   0.615   0.546   2.003 -2.6789 -0.4356  1.1175
 8943SOL    HW238292   0.617   0.694   2.004 -0.3408  0.6120  0.6884
 8944SOL     OW38293   0.152   2.655   8.252  0.0635 -0.3158  0.0349
 8944SOL    HW138294   0.183   2.683   8.338  1.3469  1.3167 -0.9687
 8944SOL    HW238295   0.059   2.652   8.277  0.1443 -3.2839  0.0322
 8945SOL     OW38296   3.804   3.336   5.749  0.0080 -0.1169  0.3474
 8945SOL    HW138297   3.859   3.279   5.695 -2.9368 -2.5130 -0.0733
 8945SOL    HW238298   3.873   3.352   5.815 -1.2452  2.7017  0.9877
 8946SOL     OW38299   3.688   3.497   1.382  0.0832 -0.5034  0.0340
 8946SOL    HW138300   3.629   3.428   1.414  0.2924 -1.0988 -0.8630
 8946SOL    HW238301   3.627   3.558   1.341 -0.5255  0.5776  2.5275
 8947SOL     OW38302   0.874   3.401   7.350 -0.1854  0.4232 -0.4585
 8947SOL    HW138303   0.843   3.354   7.273 -0.0568 -1.5084  0.6898
 8947SOL    HW238304   0.952   3.357   7.382  0.4344  0.5200 -1.8222
 8948SOL     OW38305   1.978   0.101   7.736  0.2447 -0.0363 -0.6528
 8948SOL    HW138306   2.006   0.013   7.760  1.6741  0.7860  0.6495
 8948SOL    HW238307   1.902   0.107   7.794  2.1205 -0.2347  1.8185
 8949SOL     OW38308   4.601   4.275   1.680  0.4243 -0.3297 -0.3369
 8949SOL    HW138309   4.519   4.227   1.690  0.1082 -0.0339 -1.5135
 8949SOL    HW238310   4.634   4.226   1.604  1.1382  3.4915 -2.5361
 8950SOL     OW38311   4.676   1.454   7.574 -0.3307  0.1972 -0.3522
 8950SOL    HW138312   4.630   1.391   7.629  0.6437  0.0530  0.2999
 8950SOL    HW238313   4.599   1.484   7.525  0.8004  0.3424 -2.0553
 8951SOL     OW38314   0.578   3.487   5.110 -0.3868  0.4724  0.2839
 8951SOL    HW138315   0.646   3.450   5.053 -0.2153 -2.6058  2.5013
 8951SOL    HW238316   0.502   3.431   5.097  0.5425 -0.8587  0.5656
 8952SOL     OW38317   0.501   0.980   5.943 -0.7826  0.0256  0.5604
 8952SOL    HW138318   0.463   0.905   5.898 -0.8061  1.6838 -2.1449
 8952SOL    HW238319   0.482   0.963   6.036  0.9629  0.9153  1.0932
 8953SOL     OW38320   0.765   0.292   0.157 -0.4343  0.5455 -0.4212
 8953SOL    HW138321   0.677   0.329   0.149 -0.1602  1.4129  0.6158
 8953SOL    HW238322   0.815   0.368   0.187 -1.1739  2.1315 -3.1717
 8954SOL     OW38323   4.093   2.408   3.725 -0.2264  0.3349  0.2141
 8954SOL    HW138324   4.158   2.471   3.757 -1.3037  3.6125 -4.0111
 8954SOL    HW238325   4.142   2.387   3.646 -1.1808  0.2227 -0.3446
 8955SOL     OW38326   0.607   3.422   4.519 -0.1366  0.2555 -0.0197
 8955SOL    HW138327   0.578   3.512   4.533 -3.3575 -0.6474 -0.8830
 8955SOL    HW238328   0.553   3.359   4.566  0.3904  0.0197  0.2772
 8956SOL     OW38329   3.653   2.428   2.640  0.3863 -0.3065  0.3388
 8956SOL    HW138330   3.685   2.507   2.596  0.6266 -1.5492 -1.7117
 8956SOL    HW238331   3.687   2.351   2.594 -1.7632 -0.2918 -1.3096
 8957SOL     OW38332   0.543   3.665   4.580 -0.4039 -0.0334  0.1606
 8957SOL    HW138333   0.483   3.711   4.521 -1.0654 -0.8810  0.1764
 8957SOL    HW238334   0.578   3.745   4.619  0.7252 -0.1353 -0.6258
 8958SOL     OW38335   0.436   1.315  17.663  0.0770 -0.2433  0.7813
 8958SOL    HW138336   0.478   1.375   0.026 -3.4742  2.4399  0.5997
 8958SOL    HW238337   0.508   1.271  17.619 -0.5177  1.8040 -2.3048
 8959SOL     OW38338   1.837   1.402   4.690 -0.1462 -0.2303  0.1021
 8959SOL    HW138339   1.880   1.396   4.605  1.2692  0.6284  0.7737
 8959SOL    HW238340   1.886   1.333   4.736  0.0746 -0.9236 -1.1665
 8960SOL     OW38341   0.831   4.691   6.480  0.2440 -0.1551 -0.4171
 8960SOL    HW138342   0.922   4.677   6.505  0.3946  0.2021 -0.7607
 8960SOL    HW238343   0.824   0.061   6.468 -1.1291 -0.3824 -1.5076
 8961SOL     OW38344   0.474   0.941   9.820  0.3819 -0.2152 -0.0025
 8961SOL    HW138345   0.389   0.913   9.854  0.0588  1.2566  0.4280
 8961SOL    HW238346   0.438   1.012   9.766 -0.6978 -0.9141 -0.2016
 8962SOL     OW38347   4.359   3.831   7.080 -0.4690 -0.3058  0.5574
 8962SOL    HW138348   4.301   3.804   7.009 -0.9192 -0.3894  0.9530
 8962SOL    HW238349   4.344   3.926   7.083  1.2222 -0.0870  1.8305
 8963SOL     OW38350   3.819   2.021   6.191  0.1050  0.2163  0.2043
 8963SOL    HW138351   3.855   1.938   6.221 -1.4023 -0.8530 -0.9173
 8963SOL    HW238352   3.776   1.981   6.114  0.5533 -0.7265  0.4439
 8964SOL     OW38353   3.940   0.765   6.559 -0.4149  0.5470  0.2921
 8964SOL    HW138354   3.890   0.795   6.635 -1.8891 -1.2804  0.0373
 8964SOL    HW238355   4.025   0.762   6.603 -0.6951 -2.8137  0.6120
 8965SOL     OW38356   3.903   1.801  14.748  0.0749  0.4102  0.0370
 8965SOL    HW138357   3.930   1.862  14.679 -2.4025  0.7114 -0.6512
 8965SOL    HW238358   3.854   1.745  14.688 -0.6501  0.2920  0.7510
 8966SOL     OW38359   1.388   1.669   9.144 -0.6389  0.0329 -0.4809
 8966SOL    HW138360   1.445   1.699   9.073  0.5065  0.1548  0.4854
 8966SOL    HW238361   1.452   1.649   9.213  0.6171  1.0780 -1.3293
 8967SOL     OW38362   3.019   2.975  11.713  0.4407 -0.6584 -0.8945
 8967SOL    HW138363   2.954   3.037  11.747  0.8430 -1.5838  1.5744
 8967SOL    HW238364   2.970   2.893  11.712 -0.7572  0.0610 -1.2452
 8968SOL     OW38365   4.143   3.362  14.344  0.0482  0.1984 -0.3617
 8968SOL    HW138366   4.128   3.268  14.359  2.4182  0.1775  2.0801
 8968SOL    HW238367   4.171   3.379  14.434  1.5775  0.4486 -0.8690
 8969SOL     OW38368   2.929   2.725  11.639 -0.3137 -0.1800 -0.3248
 8969SOL    HW138369   2.840   2.735  11.672 -0.7936  1.6910 -2.1631
 8969SOL    HW238370   2.925   2.630  11.628  3.0222 -0.2404 -0.9824
 8970SOL     OW38371   4.280   0.716   4.499  0.4832  0.1802  0.6096
 8970SOL    HW138372   4.228   0.636   4.502 -0.2109  0.6081 -0.2789
 8970SOL    HW238373   4.229   0.769   4.438  0.6757  0.8845  1.0591
 8971SOL     OW38374   3.749   3.873   6.946 -0.5501 -0.0437  0.1152
 8971SOL    HW138375   3.722   3.949   6.999 -2.6145  0.6640 -1.9639
 8971SOL    HW238376   3.719   3.797   6.997  0.2785 -0.8286 -0.5786
 8972SOL     OW38377   1.823   2.339   7.226 -0.2293 -0.5577  0.1724
 8972SOL    HW138378   1.748   2.370   7.174 -0.0971 -0.0965  0.2548
 8972SOL    HW238379   1.902   2.370   7.182 -1.0072 -0.5339 -1.2325
 8973SOL     OW38380   3.620   2.338  14.059 -0.5906 -0.4952 -0.0216
 8973SOL    HW138381   3.659   2.315  14.144  0.5642  1.8891  0.0726
 8973SOL    HW238382   3.576   2.421  14.075  1.7081  0.4271  1.4722
 8974SOL     OW38383   0.253   3.307  10.318  0.2145 -0.3568  0.0518
 8974SOL    HW138384   0.216   3.261  10.243  0.0859  2.1078 -1.4123
 8974SOL    HW238385   0.267   3.394  10.281  0.2718 -1.2327 -2.0034
 8975SOL     OW38386   3.599   3.467   4.877 -0.1216  0.4158  0.2488
 8975SOL    HW138387   3.594   3.543   4.819  0.4908  1.2241  1.2438
 8975SOL    HW238388   3.619   3.407   4.805  1.9858  1.6054 -0.1720
 8976SOL     OW38389   0.254   1.995  13.120 -0.3722 -0.0088  0.2295
 8976SOL    HW138390   0.328   1.998  13.060 -1.5089 -1.1044 -1.2167
 8976SOL    HW238391   0.270   1.941  13.198 -3.1442 -0.9957  0.1346
 8977SOL     OW38392   4.584   3.004   7.153 -0.0371  0.5677  0.5617
 8977SOL    HW138393   4.560   2.969   7.239 -0.0486 -0.4000  0.1630
 8977SOL    HW238394   4.665   3.048   7.180 -0.8818  1.9642  0.8438
 8978SOL     OW38395   3.208   0.357   5.289  0.9295 -0.0991  0.3513
 8978SOL    HW138396   3.126   0.390   5.251  0.4440 -1.5565  0.1537
 8978SOL    HW238397   3.269   0.379   5.219 -0.6486 -1.6724 -1.5386
 8979SOL     OW38398   2.816   2.207  10.599  0.0184 -0.0551  0.3896
 8979SOL    HW138399   2.870   2.225  10.676 -0.2485  2.5705 -0.0376
 8979SOL    HW238400   2.871   2.154  10.542  1.5736 -1.1092  2.8591
 8980SOL     OW38401   4.478   1.810   2.632 -0.4018  0.2338  0.2971
 8980SOL    HW138402   4.430   1.829   2.713 -2.1416  0.4692 -0.7899
 8980SOL    HW238403   4.405   1.791   2.574  0.6887  2.1089 -1.6900
 8981SOL     OW38404   0.078   3.434   4.131  0.0641 -0.1071  0.3089
 8981SOL    HW138405   0.077   3.440   4.226 -5.3828  1.3358  0.1260
 8981SOL    HW238406   0.108   3.346   4.108 -0.2596 -0.5264  1.4779
 8982SOL     OW38407   3.515   0.037   5.423 -0.2952 -0.2406 -0.2661
 8982SOL    HW138408   3.515   4.668   5.444 -0.3474 -0.3492 -0.7589
 8982SOL    HW238409   3.543   0.070   5.509  0.6552 -1.4669 -0.1055
 8983SOL     OW38410   4.045   0.965   3.573 -0.0926  0.5026 -0.2713
 8983SOL    HW138411   4.088   0.966   3.658  0.7023 -1.0594 -0.6550
 8983SOL    HW238412   4.102   1.010   3.510  0.7128  1.4221  1.1083
 8984SOL     OW38413   1.739   1.259   1.782 -0.5334  0.0937  0.0719
 8984SOL    HW138414   1.740   1.203   1.705  1.6682 -1.0064  0.8924
 8984SOL    HW238415   1.666   1.314   1.754 -0.5525  0.5976  1.1231
 8985SOL     OW38416   3.071   2.257  13.466 -0.0811  0.2761  0.2594
 8985SOL    HW138417   3.096   2.282  13.377 -1.0215  1.6662  0.4011
 8985SOL    HW238418   3.142   2.192  13.476  1.9111  2.0810 -1.9604
 8986SOL     OW38419   4.101   1.089   3.953 -0.2579  0.1980 -0.0252
 8986SOL    HW138420   4.137   1.095   3.864 -1.2816  1.1264 -0.3687
 8986SOL    HW238421   4.172   1.135   3.998 -0.0711 -0.0312 -0.0861
 8987SOL     OW38422   1.342   4.643  15.479  0.2979 -0.1818  0.0196
 8987SOL    HW138423   1.272   4.708  15.484 -1.5690 -2.3204  1.5861
 8987SOL    HW238424   1.346   4.619  15.572 -1.3781 -0.4749  0.0206
 8988SOL     OW38425   0.727   4.704  13.401 -0.4320  0.5791  0.3791
 8988SOL    HW138426   0.700   0.064  13.437 -2.1200  0.8894 -1.5871
 8988SOL    HW238427   0.649   4.661  13.434 -0.7082  0.2775 -0.6496
 8989SOL     OW38428   4.461   2.429  11.356  0.0821  0.1584  0.5289
 8989SOL    HW138429   4.469   2.370  11.281 -0.7477  1.4100 -0.5413
 8989SOL    HW238430   4.437   2.381  11.435 -0.3128  0.5328  0.6310
 8990SOL     OW38431   4.076   0.831   8.370 -0.0631  0.5979  0.7215
 8990SOL    HW138432   4.020   0.867   8.301  2.1644 -0.9411 -1.8716
 8990SOL    HW238433   4.152   0.889   8.381 -0.5829  1.4594 -0.2380
 8991SOL     OW38434   3.097   3.404   3.429  0.1128 -0.1208 -0.3537
 8991SOL    HW138435   3.160   3.475   3.437 -0.2241 -0.0810  1.8187
 8991SOL    HW238436   3.064   3.398   3.518  2.0714  0.0088  0.3692
 8992SOL     OW38437   3.664   2.661   1.172 -0.1417 -0.5063 -0.2119
 8992SOL    HW138438   3.572   2.669   1.199  0.0040  4.7953 -1.3260
 8992SOL    HW238439   3.685   2.748   1.138  2.0608 -2.5425 -4.1172
 8993SOL     OW38440   1.095   1.101  15.074 -0.5505 -0.5191 -0.2186
 8993SOL    HW138441   1.184   1.066  15.077 -1.3056 -2.1123  3.3671
 8993SOL    HW238442   1.105   1.163  15.002 -0.4636 -1.7436 -1.2610
 8994SOL     OW38443   1.408   3.665   6.045 -0.2501 -0.1925 -0.1683
 8994SOL    HW138444   1.470   3.613   5.994  0.3999  2.6766 -2.2451
 8994SOL    HW238445   1.346   3.601   6.080 -0.5233 -0.1284 -0.5291
 8995SOL     OW38446   2.021   2.874   8.735  0.3831  0.0383  0.1650
 8995SOL    HW138447   1.954   2.933   8.769 -1.3464 -2.6857  1.4790
 8995SOL    HW238448   2.108   2.911   8.751  1.4100 -2.4752  0.3889
 8996SOL     OW38449   4.332   1.004   6.045  0.0352 -0.3430 -0.4225
 8996SOL    HW138450   4.272   1.057   6.098  1.8413 -0.3428  1.6158
 8996SOL    HW238451   4.416   1.039   6.072  0.1129 -0.7250 -0.1664
 8997SOL     OW38452   3.711   4.259   9.243  0.2575 -0.1510  0.6077
 8997SOL    HW138453   3.727   4.321   9.313 -2.2663 -1.3401  2.2068
 8997SOL    HW238454   3.750   4.311   9.173 -1.3250  1.2203  0.7467
 8998SOL     OW38455   4.274   2.139   2.835  0.2043  0.0146 -0.3958
 8998SOL    HW138456   4.220   2.060   2.835  0.0616  0.1100 -0.1300
 8998SOL    HW238457   4.307   2.138   2.925 -1.0098 -0.4527  0.0435
 8999SOL     OW38458   4.188   3.224   6.771 -0.2773 -0.1233 -0.9538
 8999SOL    HW138459   4.126   3.284   6.729 -0.0770  0.5858 -0.2385
 8999SOL    HW238460   4.138   3.143   6.767 -3.1146  1.6675 -1.6726
 9000SOL     OW38461   3.717   0.866   5.220  0.5752 -0.4049 -0.9115
 9000SOL    HW138462   3.782   0.900   5.282  0.5947 -1.6847 -0.2292
 9000SOL    HW238463   3.649   0.934   5.221 -0.3341 -1.3361  0.7542
 9001SOL     OW38464   3.966   0.077   8.297 -0.5922  0.3612  0.5387
 9001SOL    HW138465   3.881   0.063   8.339 -0.5885  0.1121  0.4625
 9001SOL    HW238466   3.928   0.091   8.210  2.4745  1.1390 -0.6722
 9002SOL     OW38467   3.905   1.695   4.596 -0.2773  0.0315 -0.0056
 9002SOL    HW138468   3.880   1.785   4.618  2.4315  0.7033  0.2624
 9002SOL    HW238469   3.878   1.648   4.675 -1.5045  1.8798  0.6786
 9003SOL     OW38470   0.591   2.494   5.708 -0.2120  0.4096 -0.2400
 9003SOL    HW138471   0.625   2.405   5.721  0.2252  0.4120 -1.3822
 9003SOL    HW238472   0.509   2.477   5.662 -0.9768 -1.0064  1.6343
 9004SOL     OW38473   3.180   0.333   8.575  0.3765 -0.0504  0.0903
 9004SOL    HW138474   3.189   0.372   8.488  1.6657  1.3920  0.8621
 9004SOL    HW238475   3.146   0.408   8.625  1.6529  1.2468 -1.0052
 9005SOL     OW38476   1.034   3.219   8.862 -0.1128  0.0469 -0.4356
 9005SOL    HW138477   1.045   3.311   8.888 -0.2807  0.0005 -0.2029
 9005SOL    HW238478   1.079   3.176   8.934  1.4836 -0.3474 -1.6595
 9006SOL     OW38479   3.058   1.672  17.535  0.6558 -0.0464  0.0310
 9006SOL    HW138480   3.065   1.593  17.589 -0.4894 -0.7493 -0.8424
 9006SOL    HW238481   2.997   1.724  17.588 -0.1249  0.7027 -1.5655
 9007SOL     OW38482   1.578   3.590   0.729 -0.5179 -0.1788  0.2255
 9007SOL    HW138483   1.602   3.521   0.667 -0.3454  0.7516 -0.7257
 9007SOL    HW238484   1.661   3.636   0.727  0.2874 -1.6596 -0.5310
 9008SOL     OW38485   2.825   3.142  16.843  0.1733 -0.0745  0.0507
 9008SOL    HW138486   2.821   3.232  16.877  2.6822  0.5348 -1.2750
 9008SOL    HW238487   2.748   3.154  16.788  1.1176  2.2132 -0.7747
 9009SOL     OW38488   0.692   3.193   2.310 -0.1751  0.1836 -0.4070
 9009SOL    HW138489   0.630   3.265   2.303 -1.1862 -0.5526  0.9589
 9009SOL    HW238490   0.672   3.131   2.240 -1.5268  0.8106 -0.5654
 9010SOL     OW38491   0.919   1.726   8.319 -0.3448  0.2323 -0.1837
 9010SOL    HW138492   0.847   1.687   8.270 -0.1048 -1.3142  0.7136
 9010SOL    HW238493   0.970   1.647   8.336  0.2264  0.5624 -0.3782
 9011SOL     OW38494   3.152   3.350   6.238 -0.3792 -0.1896 -0.8261
 9011SOL    HW138495   3.174   3.405   6.163  1.2840  1.9706  1.2267
 9011SOL    HW238496   3.100   3.421   6.276 -1.4393 -1.2597 -0.2665
 9012SOL     OW38497   3.878   2.619   5.684 -0.2731  0.1126  0.0429
 9012SOL    HW138498   3.868   2.694   5.625  1.9863  2.7728  2.9655
 9012SOL    HW238499   3.966   2.638   5.718 -0.4397 -0.0433  0.5617
 9013SOL     OW38500   3.139   3.000   8.701 -0.4867 -0.0084  0.0509
 9013SOL    HW138501   3.192   3.001   8.620 -1.3975 -1.9263 -0.5474
 9013SOL    HW238502   3.120   2.907   8.710  0.6096 -0.3793 -1.3722
 9014SOL     OW38503   0.757   2.438   2.566  0.6068 -0.2063 -0.1732
 9014SOL    HW138504   0.705   2.433   2.486 -0.5953 -0.7913  0.6634
 9014SOL    HW238505   0.733   2.522   2.605  0.6054  0.1357 -0.8960
 9015SOL     OW38506   1.422   3.276   1.992  0.1985 -0.1191  0.0216
 9015SOL    HW138507   1.371   3.212   2.040  0.1182  1.4554  2.0571
 9015SOL    HW238508   1.507   3.260   2.033  0.2002 -0.0172  0.0582
 9016SOL     OW38509   2.119   3.042   1.252  0.4599  0.1400 -0.2672
 9016SOL    HW138510   2.157   2.959   1.223  1.8237  0.6489  0.0412
 9016SOL    HW238511   2.072   3.067   1.173 -1.0503 -1.6118  0.0829
 9017SOL     OW38512   1.632   4.489  11.038 -0.3612 -0.2349 -0.4462
 9017SOL    HW138513   1.612   4.535  10.957 -1.4504  2.0090  1.0882
 9017SOL    HW238514   1.626   4.397  11.013  0.4022 -0.7157  1.1216
 9018SOL     OW38515   3.151   0.988   6.169  0.0003 -0.3174  0.4398
 9018SOL    HW138516   3.244   0.967   6.176  0.0630 -0.3548 -0.4433
 9018SOL    HW238517   3.157   1.069   6.120  4.3412  0.4262  2.2028
 9019SOL     OW38518   1.222   3.765   2.444  0.4581 -0.2995 -0.3240
 9019SOL    HW138519   1.203   3.775   2.351  0.3604 -0.2883 -0.3024
 9019SOL    HW238520   1.219   3.670   2.448 -1.0445 -0.3265 -1.9210
 9020SOL     OW38521   2.898   3.053   2.446  0.2034  0.3989  0.2117
 9020SOL    HW138522   2.944   2.990   2.391 -0.7189 -0.7971  0.7800
 9020SOL    HW238523   2.908   3.134   2.398  3.0472 -1.3162 -2.0467
 9021SOL     OW38524   1.038   3.607   3.572 -0.2845  0.5271  0.2605
 9021SOL    HW138525   0.960   3.660   3.554  0.5638  1.1319 -1.5679
 9021SOL    HW238526   1.013   3.535   3.513 -1.0114  0.5814  0.5026
 9022SOL     OW38527   1.427   3.029  14.781 -0.0365 -0.1711 -0.2088
 9022SOL    HW138528   1.487   3.069  14.718 -1.2226  1.0969 -0.5265
 9022SOL    HW238529   1.365   2.991  14.719  1.9460 -2.3485 -0.8604
 9023SOL     OW38530   1.179   0.379  12.100  0.0803 -0.1674 -0.0477
 9023SOL    HW138531   1.261   0.334  12.080 -0.6612 -2.9170  3.2587
 9023SOL    HW238532   1.194   0.454  12.042  0.4967 -0.5399 -0.4240
 9024SOL     OW38533   1.308   2.264   5.896 -0.1153 -1.0079 -0.9310
 9024SOL    HW138534   1.366   2.308   5.834  1.1065  0.2749  1.1492
 9024SOL    HW238535   1.314   2.173   5.868  0.2287 -1.9295  2.1551
 9025SOL     OW38536   3.114   0.501  16.261  0.4807 -0.3205 -0.0884
 9025SOL    HW138537   3.051   0.558  16.304  1.2328  1.3012 -1.1483
 9025SOL    HW238538   3.080   0.501  16.172 -0.9193 -1.8850  0.4496
 9026SOL     OW38539   4.531   4.326  11.891  0.3052  0.3678  0.0515
 9026SOL    HW138540   4.586   4.267  11.944 -1.0450 -0.0714  0.9743
 9026SOL    HW238541   4.448   4.282  11.871  0.9354 -0.7567 -0.1277
 9027SOL     OW38542   1.799   3.363   3.478 -0.3911 -0.0685 -0.7056
 9027SOL    HW138543   1.819   3.440   3.532 -2.9139  0.3156 -0.3052
 9027SOL    HW238544   1.888   3.328   3.466  0.5117  2.2410 -0.7251
 9028SOL     OW38545   1.812   0.570   8.345 -0.1965  0.2824 -0.0554
 9028SOL    HW138546   1.856   0.555   8.261 -0.4632 -2.9721  0.3701
 9028SOL    HW238547   1.819   0.483   8.385 -2.5274  0.5321  0.8813
 9029SOL     OW38548   2.932   1.069  11.579  0.9513 -0.0185 -0.4002
 9029SOL    HW138549   2.944   1.013  11.503  2.4809  0.6429 -0.6631
 9029SOL    HW238550   2.929   1.153  11.532  1.2838 -0.4471 -1.1879
 9030SOL     OW38551   1.032   2.994  16.961 -0.5278  0.1322 -0.2703
 9030SOL    HW138552   1.026   3.034  16.875 -2.1810 -0.5478 -0.4668
 9030SOL    HW238553   0.995   2.907  16.946  1.0354 -1.0250  2.4337
 9031SOL     OW38554   4.181   1.677   5.282 -0.3637  0.1902  0.0254
 9031SOL    HW138555   4.256   1.732   5.306 -0.1590  0.9284 -2.3659
 9031SOL    HW238556   4.165   1.694   5.190 -2.0275  0.4583  0.3611
 9032SOL     OW38557   3.170   0.941   8.850  0.1410  0.4026  0.0198
 9032SOL    HW138558   3.180   0.906   8.939  0.6167  1.3934  0.3522
 9032SOL    HW238559   3.078   0.915   8.843  0.4166 -0.5249 -0.2208
 9033SOL     OW38560   2.386   3.710   4.953  0.0199  0.4550  0.4546
 9033SOL    HW138561   2.307   3.660   4.935 -0.2674  0.8290  0.6747
 9033SOL    HW238562   2.394   3.689   5.046 -0.6084  2.9477  1.0670
 9034SOL     OW38563   2.576   4.098   8.030 -0.1255  0.3778 -0.3397
 9034SOL    HW138564   2.661   4.073   8.066 -1.0135  1.0430  2.2092
 9034SOL    HW238565   2.521   4.034   8.076  1.7464 -0.5162  0.6845
 9035SOL     OW38566   3.486   1.809   5.114  0.3544 -0.3534  0.1792
 9035SOL    HW138567   3.423   1.870   5.075  1.3234 -0.9992 -2.3909
 9035SOL    HW238568   3.558   1.864   5.144  1.6267 -1.5617 -0.6817
 9036SOL     OW38569   3.594   2.841   1.548  0.0778  0.1979  0.6048
 9036SOL    HW138570   3.583   2.773   1.614 -0.1921 -0.0331  0.3230
 9036SOL    HW238571   3.575   2.927   1.586 -0.9385  0.0825  0.3507
 9037SOL     OW38572   2.339   1.842   5.763  0.2135  0.1313  0.0987
 9037SOL    HW138573   2.296   1.762   5.733 -1.3182  0.9833  0.0271
 9037SOL    HW238574   2.329   1.822   5.856  1.3692  1.2655  0.4593
 9038SOL     OW38575   1.722   4.393  17.693 -0.1581  0.0547  0.4623
 9038SOL    HW138576   1.656   4.396  17.624 -1.0114  1.0511  1.3097
 9038SOL    HW238577   1.800   4.410  17.640 -0.2552  2.2190  0.9966
 9039SOL     OW38578   4.405   0.058   3.891 -0.4368 -0.3134 -0.0857
 9039SOL    HW138579   4.410   0.137   3.945  1.7729 -2.2667  2.6321
 9039SOL    HW238580   4.401   0.090   3.801 -0.6691 -1.3583 -0.4494
 9040SOL     OW38581   3.628   0.145   4.069 -0.7743 -0.0732 -0.1705
 9040SOL    HW138582   3.704   0.103   4.028 -0.8549  2.1958 -2.5817
 9040SOL    HW238583   3.658   0.174   4.155  1.8015 -1.1664 -0.6767
 9041SOL     OW38584   2.551   2.443   6.916 -0.1690  0.0397 -0.0096
 9041SOL    HW138585   2.596   2.374   6.965 -0.9611 -0.5173 -0.0564
 9041SOL    HW238586   2.539   2.404   6.829 -1.1710 -0.4503  0.3565
 9042SOL     OW38587   3.675   1.908  11.778  0.0222 -0.3719  0.0444
 9042SOL    HW138588   3.706   1.947  11.697 -1.2847 -1.3790 -0.9481
 9042SOL    HW238589   3.597   1.858  11.755  1.3169 -1.8153 -1.1617
 9043SOL     OW38590   0.899   1.196   5.161 -0.3081 -0.4571 -0.4215
 9043SOL    HW138591   0.916   1.285   5.194 -0.3069 -0.3588 -0.6875
 9043SOL    HW238592   0.962   1.136   5.201 -0.3254  0.1318  0.4827
 9044SOL     OW38593   0.401   1.187   4.480 -0.2174 -0.8073 -0.5189
 9044SOL    HW138594   0.393   1.129   4.404  0.9610 -1.0354 -0.4710
 9044SOL    HW238595   0.449   1.127   4.538 -1.7367 -0.9390  0.6108
 9045SOL     OW38596   1.018   1.342  12.977 -0.3503 -0.4223  0.4250
 9045SOL    HW138597   0.989   1.331  13.068  1.2785 -1.4929  0.8098
 9045SOL    HW238598   1.043   1.256  12.943  0.2585 -0.2430  0.4264
 9046SOL     OW38599   0.422   1.444   0.524  0.1089 -0.1880  0.1620
 9046SOL    HW138600   0.509   1.428   0.561  1.0419  2.4623 -0.9288
 9046SOL    HW238601   0.366   1.451   0.602 -0.8087  2.2590 -0.7384
 9047SOL     OW38602   1.824   1.054   8.541 -0.4923 -0.6127 -0.5429
 9047SOL    HW138603   1.865   0.983   8.491  2.3867 -0.3274  1.4544
 9047SOL    HW238604   1.785   1.023   8.623 -1.4451  0.6379 -0.5136
 9048SOL     OW38605   0.778   2.560  17.138  0.0053 -0.3533  0.2950
 9048SOL    HW138606   0.704   2.621  17.136 -0.6323 -1.2659 -3.2677
 9048SOL    HW238607   0.789   2.546  17.232  3.7563 -0.5716 -0.1652
 9049SOL     OW38608   0.288   0.530   8.873 -0.1139  0.7211 -0.5787
 9049SOL    HW138609   0.210   0.566   8.915  0.3604  0.5650  0.4212
 9049SOL    HW238610   0.329   0.615   8.852  2.3957  0.0802  1.7011
 9050SOL     OW38611   0.350   3.504   2.688 -0.4717  0.1025  0.1545
 9050SOL    HW138612   0.351   3.409   2.706  2.3818 -0.4062 -2.7629
 9050SOL    HW238613   0.284   3.530   2.752 -1.0555  0.6927 -0.6947
 9051SOL     OW38614   1.167   3.368   5.627  0.7783 -0.0720  0.2031
 9051SOL    HW138615   1.099   3.318   5.582  1.1827  0.0228 -0.5169
 9051SOL    HW238616   1.117   3.387   5.706  1.3679  1.5843  0.1952
 9052SOL     OW38617   4.283   3.682  16.668  0.1025  0.4622  0.5330
 9052SOL    HW138618   4.336   3.742  16.720 -0.4245 -0.9361  2.6829
 9052SOL    HW238619   4.279   3.606  16.726 -0.3239 -1.6823 -2.2637
 9053SOL     OW38620   4.127   2.840  11.335  0.2346 -0.0381 -0.7759
 9053SOL    HW138621   4.217   2.842  11.303  0.5402  1.1874  0.1761
 9053SOL    HW238622   4.063   2.869  11.269  0.3222 -0.8421 -1.2156
 9054SOL     OW38623   0.240   4.425   1.839 -0.2737  0.2969 -0.3582
 9054SOL    HW138624   0.286   4.506   1.863 -0.4707  0.2017  0.3253
 9054SOL    HW238625   0.156   4.438   1.882 -0.0030  1.5575 -0.2030
 9055SOL     OW38626   3.922   1.812   0.556  0.5074  0.4610  0.8187
 9055SOL    HW138627   3.962   1.781   0.475  1.5347  0.3054  1.3828
 9055SOL    HW238628   3.968   1.767   0.627  0.3258  3.2233  2.6999
 9056SOL     OW38629   3.655   0.105  16.318 -0.2122 -0.2494 -0.4826
 9056SOL    HW138630   3.644   0.160  16.395 -0.8950 -1.5639  0.3529
 9056SOL    HW238631   3.569   0.064  16.306  0.7231 -1.7370 -2.1109
 9057SOL     OW38632   3.234   0.055   6.750 -0.3136 -0.0782  0.3286
 9057SOL    HW138633   3.251   0.142   6.714  1.5770 -1.1988 -1.4958
 9057SOL    HW238634   3.233   0.070   6.844  2.1812 -0.5124  0.4374
 9058SOL     OW38635   0.216   2.656   4.502 -0.3048 -0.0761  0.7507
 9058SOL    HW138636   0.279   2.622   4.439 -2.2144 -0.3389 -1.0287
 9058SOL    HW238637   0.258   2.628   4.583  1.9792 -0.0230 -0.4190
 9059SOL     OW38638   1.422   2.236   9.475 -0.0880  0.5371  0.5327
 9059SOL    HW138639   1.368   2.181   9.532  1.0106  0.2624  1.3144
 9059SOL    HW238640   1.358   2.252   9.405  0.0192  1.2481  0.5980
 9060SOL     OW38641   4.524   4.544   3.759  0.2043 -0.0353 -0.3824
 9060SOL    HW138642   4.600   4.596   3.733 -0.0647 -0.0851 -1.2397
 9060SOL    HW238643   4.464   4.609   3.798  0.3176  0.3686 -0.8856
 9061SOL     OW38644   1.418   3.379   7.074 -0.4277  0.1137 -0.3603
 9061SOL    HW138645   1.381   3.306   7.026  1.7153 -2.0587  1.3143
 9061SOL    HW238646   1.507   3.368   7.041 -1.0931 -0.6207 -1.9089
 9062SOL     OW38647   2.241   2.222   8.516  0.0282  0.2776  0.2294
 9062SOL    HW138648   2.260   2.312   8.492 -0.0526  0.3606  0.4809
 9062SOL    HW238649   2.146   2.226   8.511  0.0898  2.3315  0.9666
 9063SOL     OW38650   0.944   1.997   4.219 -0.2854 -0.4037  0.1445
 9063SOL    HW138651   0.898   2.050   4.284 -1.0808 -0.2346 -0.5713
 9063SOL    HW238652   1.036   2.025   4.223  0.3024 -2.3235 -0.0521
 9064SOL     OW38653   2.598   2.746   7.314  0.2853 -0.1005 -0.6377
 9064SOL    HW138654   2.694   2.754   7.319  0.0478  1.2895  1.7897
 9064SOL    HW238655   2.587   2.754   7.219 -0.4358  0.4577 -0.5048
 9065SOL     OW38656   2.704   4.555   1.256  0.4405  0.0298 -0.3081
 9065SOL    HW138657   2.785   4.579   1.210 -0.3662  0.3384 -1.5659
 9065SOL    HW238658   2.670   4.644   1.252  0.6093  0.0557 -1.2090
 9066SOL     OW38659   2.995   2.704   5.695 -0.3625 -0.3558 -0.3445
 9066SOL    HW138660   3.072   2.745   5.734 -0.6401 -0.5731  0.4228
 9066SOL    HW238661   2.924   2.728   5.755 -0.7208 -0.1484 -0.8479
 9067SOL     OW38662   0.980   1.226   9.473 -0.2767 -0.1720  0.0039
 9067SOL    HW138663   0.992   1.131   9.486 -2.4086 -0.5463 -0.8036
 9067SOL    HW238664   0.904   1.221   9.415  0.6726 -0.7851 -1.1906
 9068SOL     OW38665   1.869   2.993   7.044 -0.1930  0.7354 -0.5622
 9068SOL    HW138666   1.815   2.956   6.974  1.8276 -1.2036 -1.1041
 9068SOL    HW238667   1.932   3.048   6.997 -0.8184  2.4040  0.5459
 9069SOL     OW38668   1.622   3.355  13.534 -0.1191 -0.3587  0.0588
 9069SOL    HW138669   1.574   3.308  13.602  0.2535 -0.2043  0.4314
 9069SOL    HW238670   1.708   3.318  13.551 -0.5997 -2.1647 -1.5388
 9070SOL     OW38671   0.934   0.374  16.110  0.1728 -0.4930  0.3886
 9070SOL    HW138672   0.887   0.335  16.037  0.1472 -1.7052  1.0455
 9070SOL    HW238673   1.021   0.335  16.104 -0.9574 -3.2744  1.7635
 9071SOL     OW38674   0.289   0.783   3.421  0.1385 -0.0934 -0.1374
 9071SOL    HW138675   0.242   0.843   3.480  1.7549  0.1908  0.8818
 9071SOL    HW238676   0.332   0.839   3.357  0.3263  0.7613  0.7325
 9072SOL     OW38677   3.716   3.175   5.347 -0.0038  0.2826 -0.6212
 9072SOL    HW138678   3.633   3.132   5.368  0.2077  0.2975  0.2510
 9072SOL    HW238679   3.728   3.128   5.264 -3.2477 -0.9161 -0.4229
 9073SOL     OW38680   2.473   2.639   4.003  0.1445 -0.6915  0.0916
 9073SOL    HW138681   2.478   2.732   3.985 -0.7333 -0.7057 -0.2310
 9073SOL    HW238682   2.409   2.637   4.074  1.7559 -0.9622  1.5525
 9074SOL     OW38683   3.347   0.648   0.771  0.0488 -0.3175 -0.4795
 9074SOL    HW138684   3.409   0.640   0.698  0.7903  3.4177 -0.2484
 9074SOL    HW238685   3.269   0.684   0.729  0.1194  0.9589  0.5127
 9075SOL     OW38686   3.542   0.160   2.564  0.0836  0.1519 -0.1216
 9075SOL    HW138687   3.524   0.068   2.586  1.3122  0.4302  2.0518
 9075SOL    HW238688   3.603   0.187   2.633  2.4047 -0.0263 -2.1030
 9076SOL     OW38689   0.216   4.016   4.106  0.0829 -0.0143 -0.3956
 9076SOL    HW138690   0.280   4.060   4.051  0.4448  0.1713  0.1794
 9076SOL    HW238691   0.249   4.024   4.195  0.1304 -1.7919 -0.2354
 9077SOL     OW38692   0.603   2.090   8.062  0.4996  0.2241 -0.2111
 9077SOL    HW138693   0.579   2.169   8.110  0.9687  1.7742 -2.5256
 9077SOL    HW238694   0.574   2.123   7.977 -0.0480  3.3489  1.1870
 9078SOL     OW38695   1.451   1.499   1.230  0.8112  0.5208  0.1977
 9078SOL    HW138696   1.510   1.488   1.304 -0.8945  1.0930  1.6715
 9078SOL    HW238697   1.388   1.432   1.256 -0.3046  1.7886  0.7990
 9079SOL     OW38698   2.031   2.402   2.996 -0.0934 -0.8430 -0.6090
 9079SOL    HW138699   2.063   2.490   3.014 -1.2786 -0.5466  0.0117
 9079SOL    HW238700   2.110   2.349   3.008 -0.3208 -0.0600  4.1511
 9080SOL     OW38701   3.467   2.658   2.728  0.6925 -0.0856 -0.0695
 9080SOL    HW138702   3.481   2.669   2.634  0.7452 -4.1676 -0.5159
 9080SOL    HW238703   3.514   2.736   2.758 -0.0991  0.7243 -0.9643
 9081SOL     OW38704   4.313   2.397   3.443  0.2021 -0.1193  0.1823
 9081SOL    HW138705   4.378   2.360   3.384 -2.1495 -0.7770 -1.9746
 9081SOL    HW238706   4.347   2.484   3.467  0.1626 -1.0839  3.8476
 9082SOL     OW38707   4.037   2.369   1.768 -0.6726 -0.1177  0.1040
 9082SOL    HW138708   4.000   2.445   1.723 -0.6334  1.4116  2.7087
 9082SOL    HW238709   4.108   2.405   1.820 -1.6384 -2.2915  2.9241
 9083SOL     OW38710   0.007   3.904   6.199 -0.3610 -0.3463  0.6917
 9083SOL    HW138711   4.660   3.873   6.255 -1.8800 -1.1118 -1.6669
 9083SOL    HW238712   4.718   3.853   6.119 -1.3755 -1.4445  1.5509
 9084SOL     OW38713   2.570   0.754   1.488  0.0840 -0.2873  0.0340
 9084SOL    HW138714   2.499   0.818   1.498  0.8798  0.7069 -0.7364
 9084SOL    HW238715   2.529   0.689   1.431  0.2160  0.6144 -1.0837
 9085SOL     OW38716   0.369   2.983   4.352  0.6272  0.0758  0.1447
 9085SOL    HW138717   0.274   2.971   4.347  0.6689 -0.0029 -0.5559
 9085SOL    HW238718   0.391   3.005   4.261 -3.6413  0.3588 -0.8497
 9086SOL     OW38719   3.997   3.694   0.233 -0.5732  0.5995 -0.2285
 9086SOL    HW138720   3.943   3.622   0.202 -0.9041 -0.0099  1.7462
 9086SOL    HW238721   4.077   3.648   0.259 -2.6941 -3.5081 -1.1621
 9087SOL     OW38722   4.017   3.860  14.665 -0.4289 -1.0352 -0.5710
 9087SOL    HW138723   4.077   3.913  14.613  1.0961 -2.0002  0.2265
 9087SOL    HW238724   3.942   3.915  14.639  1.5463  2.5774  1.3777
 9088SOL     OW38725   2.180   3.350   0.606  0.0912  0.0177 -0.2593
 9088SOL    HW138726   2.127   3.394   0.539 -0.6758 -0.4325  0.0588
 9088SOL    HW238727   2.196   3.270   0.556 -0.3712 -0.6730  0.7124
 9089SOL     OW38728   2.832   3.420  16.539 -0.2783 -0.5005 -0.1349
 9089SOL    HW138729   2.900   3.478  16.574 -0.0168 -1.1609  0.4476
 9089SOL    HW238730   2.886   3.347  16.508  0.7559  0.5911 -0.9232
 9090SOL     OW38731   4.173   1.688  15.114 -0.4593 -0.5301 -0.2228
 9090SOL    HW138732   4.136   1.602  15.095 -0.4636 -0.7760  0.9017
 9090SOL    HW238733   4.224   1.712  15.036 -0.9269  0.3867 -0.2456
 9091SOL     OW38734   4.373   0.975   4.322 -0.5810 -0.4998  0.1979
 9091SOL    HW138735   4.410   0.895   4.284 -0.3757 -0.2731 -0.0801
 9091SOL    HW238736   4.282   0.947   4.331 -0.3605 -1.0309  0.7508
 9092SOL     OW38737   4.157   3.001   4.585 -0.0448  0.0626 -0.2200
 9092SOL    HW138738   4.136   2.929   4.526 -0.2368  0.1322 -0.2383
 9092SOL    HW238739   4.209   2.960   4.654  0.6185 -0.8205 -1.2462
 9093SOL     OW38740   2.730   0.997  14.839 -0.3660  0.4350 -0.1791
 9093SOL    HW138741   2.658   1.000  14.775 -2.0137  1.2526  1.6964
 9093SOL    HW238742   2.680   1.032  14.912  1.1369 -1.8365  1.9460
 9094SOL     OW38743   3.301   2.724   8.957 -0.3114 -0.3225 -0.3595
 9094SOL    HW138744   3.300   2.636   8.919  1.3991 -0.3550 -0.3024
 9094SOL    HW238745   3.210   2.720   8.987  0.4778 -0.6196  1.9392
 9095SOL     OW38746   2.285   0.339   6.490  0.1874 -0.2784  0.1006
 9095SOL    HW138747   2.305   0.430   6.467  2.2235 -0.4416  1.2529
 9095SOL    HW238748   2.339   0.293   6.426 -1.3126  1.0419 -2.1499
 9096SOL     OW38749   1.956   4.294   2.828  0.2578  0.8890 -0.0712
 9096SOL    HW138750   1.872   4.248   2.833  0.8069 -0.0736  0.2302
 9096SOL    HW238751   1.948   4.386   2.854 -1.6338  0.1676  1.8831
 9097SOL     OW38752   3.221   1.338  13.411 -0.1003 -0.4218 -0.1462
 9097SOL    HW138753   3.313   1.312  13.415  0.2421  0.8616  0.2081
 9097SOL    HW238754   3.200   1.314  13.321 -2.9277  2.5182 -0.2680
 9098SOL     OW38755   3.351   3.712   8.766  0.1616  0.0684  0.4767
 9098SOL    HW138756   3.436   3.742   8.797  0.3916  0.1742 -0.2450
 9098SOL    HW238757   3.289   3.723   8.838 -0.0353  0.9596  0.1729
 9099SOL     OW38758   0.169   3.411   6.595 -0.3291 -0.1227  0.3377
 9099SOL    HW138759   0.121   3.334   6.625 -0.7478 -0.2515 -0.6751
 9099SOL    HW238760   0.098   3.476   6.596 -0.6545 -0.4639 -1.0268
 9100SOL     OW38761   0.689   2.570   1.605 -0.0737 -0.0081  0.0136
 9100SOL    HW138762   0.756   2.507   1.632 -3.6575 -2.5171  3.0619
 9100SOL    HW238763   0.609   2.546   1.652 -1.0137  0.3847 -1.3921
 9101SOL     OW38764   3.470   2.880  15.842  0.3474 -0.1541  0.0379
 9101SOL    HW138765   3.534   2.943  15.876  1.6804 -1.6969  0.3760
 9101SOL    HW238766   3.427   2.935  15.776  1.3418 -0.4883 -0.8919
 9102SOL     OW38767   2.564   1.758  14.595 -0.5211 -0.1149 -0.8184
 9102SOL    HW138768   2.638   1.766  14.535 -0.5274 -0.6737 -0.9000
 9102SOL    HW238769   2.579   1.832  14.654  0.6109 -1.5250  0.6926
 9103SOL     OW38770   0.692   0.135  11.171  0.4814  0.2250  0.7394
 9103SOL    HW138771   0.683   0.048  11.208  1.5730  0.8098  2.3618
 9103SOL    HW238772   0.607   0.174  11.191  1.1998  1.6693  0.9980
 9104SOL     OW38773   2.495   1.475  10.663  0.1961 -0.7031  0.0956
 9104SOL    HW138774   2.431   1.405  10.651 -1.3116  0.4413  1.3886
 9104SOL    HW238775   2.440   1.548  10.690 -1.6348 -1.7298 -0.8908
 9105SOL     OW38776   3.314   2.457   8.128 -0.0455 -0.0882  0.3434
 9105SOL    HW138777   3.267   2.374   8.116 -2.4006  1.1899  0.8248
 9105SOL    HW238778   3.404   2.423   8.129  0.0345  0.1126  0.0033
 9106SOL     OW38779   0.737   3.001   6.065 -0.5320  0.5279  0.0526
 9106SOL    HW138780   0.744   2.949   6.146  0.6979  1.4076  0.5157
 9106SOL    HW238781   0.745   3.087   6.108  1.0392  0.7704 -0.7349
 9107SOL     OW38782   3.998   3.347   2.046  0.3330  0.1984  0.1504
 9107SOL    HW138783   4.042   3.282   1.992  0.9919  1.0052 -0.2804
 9107SOL    HW238784   3.908   3.337   2.014  0.5155  1.0445 -0.6393
 9108SOL     OW38785   1.138   1.626   3.447  0.5490  0.4489  0.4852
 9108SOL    HW138786   1.105   1.638   3.536 -1.0185  1.6960 -0.2670
 9108SOL    HW238787   1.074   1.567   3.407  1.4850 -0.3757  0.1996
 9109SOL     OW38788   1.379   2.025   6.475  0.0372 -0.0429  0.0536
 9109SOL    HW138789   1.416   1.938   6.460  1.3062  0.5546 -0.2985
 9109SOL    HW238790   1.335   2.041   6.392  0.1838 -3.4902 -0.7147
 9110SOL     OW38791   4.685   0.196  13.679  0.4244  0.0824  0.4885
 9110SOL    HW138792   4.656   0.275  13.633 -0.9131 -0.6693  0.0479
 9110SOL    HW238793   4.706   0.227  13.767  0.6009  2.1050 -0.2793
 9111SOL     OW38794   0.522   0.150  15.909  0.2314  0.6147 -0.3187
 9111SOL    HW138795   0.529   0.161  16.004 -0.6841  2.7609 -0.5078
 9111SOL    HW238796   0.443   0.200  15.889 -1.1099 -0.6026  1.8729
 9112SOL     OW38797   2.086   3.238   3.793 -0.2819 -0.1576  0.0076
 9112SOL    HW138798   2.178   3.212   3.792 -0.7811 -1.9676  1.0047
 9112SOL    HW238799   2.077   3.296   3.717 -1.9069 -2.7593 -1.7568
 9113SOL     OW38800   2.428   1.530  10.101 -0.3276 -0.0082 -0.2184
 9113SOL    HW138801   2.335   1.548  10.113 -0.3856  1.2546 -2.4598
 9113SOL    HW238802   2.443   1.497  10.189 -0.9803 -0.8505 -0.4199
 9114SOL     OW38803   4.073   2.160  16.428  0.0205 -0.1429 -0.1476
 9114SOL    HW138804   4.043   2.109  16.503 -2.2075  3.5881  1.5363
 9114SOL    HW238805   4.051   2.247  16.462  1.3337 -0.8286  2.4107
 9115SOL     OW38806   2.725   1.105   2.937 -0.4227  0.2143  0.3462
 9115SOL    HW138807   2.738   1.084   3.029  1.9469 -0.6825 -0.1819
 9115SOL    HW238808   2.716   1.016   2.902  1.0528  0.5010 -0.7702
 9116SOL     OW38809   4.090   2.713  12.472 -0.0797 -0.4060 -0.1516
 9116SOL    HW138810   3.996   2.724  12.462  0.0512  1.3290  0.5758
 9116SOL    HW238811   4.093   2.636  12.415  0.0825  0.0474 -0.7594
 9117SOL     OW38812   0.931   3.327   2.020 -0.0458 -0.7801  0.1964
 9117SOL    HW138813   0.965   3.361   1.937 -0.0694  1.2986  1.0440
 9117SOL    HW238814   0.915   3.410   2.063  1.4928 -0.5842  0.4100
 9118SOL     OW38815   4.585   0.930   2.951  0.0328 -0.1573 -0.5488
 9118SOL    HW138816   4.507   0.918   2.897 -0.9722  0.4390  0.7815
 9118SOL    HW238817   4.571   1.018   2.984  1.6987 -0.6855  1.5519
 9119SOL     OW38818   0.819   3.352   0.195 -0.1528 -0.2014 -0.1171
 9119SOL    HW138819   0.749   3.331   0.133  0.1005  2.4793 -1.3381
 9119SOL    HW238820   0.812   3.285   0.263  2.0786  3.4190  3.6730
 9120SOL     OW38821   3.354   4.194   3.386 -0.2499  0.4220 -0.3230
 9120SOL    HW138822   3.382   4.267   3.441 -1.3888  1.3796 -1.0297
 9120SOL    HW238823   3.338   4.125   3.451 -1.3847  2.1622  1.2725
 9121SOL     OW38824   0.437   0.321  12.987 -0.3476 -0.6127  0.2661
 9121SOL    HW138825   0.355   0.273  12.993 -1.2916  0.7118 -2.2019
 9121SOL    HW238826   0.499   0.266  13.036  0.6098  0.9802  0.8242
 9122SOL     OW38827   2.368   0.914   1.495  0.5957 -0.2154 -0.7039
 9122SOL    HW138828   2.273   0.910   1.508  0.6997  0.3027  0.2134
 9122SOL    HW238829   2.383   1.009   1.490  0.7786 -0.2626 -1.1069
 9123SOL     OW38830   1.453   2.012  11.813 -0.6049  0.3268  0.2205
 9123SOL    HW138831   1.451   2.064  11.893  0.9956  1.8931 -0.7577
 9123SOL    HW238832   1.370   2.022  11.768 -0.5160  1.9967  0.4401
 9124SOL     OW38833   3.095   3.870  13.787 -0.9512  0.1191 -0.5993
 9124SOL    HW138834   3.040   3.945  13.811  0.6736  1.6249 -1.6045
 9124SOL    HW238835   3.107   3.882  13.692  0.4653  0.2550 -0.4067
 9125SOL     OW38836   3.844   2.926  10.386 -0.7403 -0.2781  0.4145
 9125SOL    HW138837   3.763   2.940  10.434 -0.6041 -0.8629  0.8104
 9125SOL    HW238838   3.880   3.013  10.371 -1.6458 -0.0468 -0.4157
 9126SOL     OW38839   4.242   1.332   6.984  0.0864 -0.0180  0.5651
 9126SOL    HW138840   4.214   1.417   6.951 -0.1492 -0.4173 -0.2863
 9126SOL    HW238841   4.162   1.279   6.988 -1.9900  3.0821  0.0181
 9127SOL     OW38842   2.060   0.402  10.081 -0.8291 -0.7465 -0.1800
 9127SOL    HW138843   2.130   0.371  10.023  0.4471  2.8340 -0.5507
 9127SOL    HW238844   2.063   0.334  10.148 -0.3123  0.5941  1.1445
 9128SOL     OW38845   3.418   2.474   0.108  0.3739  0.4713  0.7416
 9128SOL    HW138846   3.466   2.442   0.032  0.9385  1.6677  0.6047
 9128SOL    HW238847   3.376   2.552   0.071 -1.0355 -0.7367 -0.2280
 9129SOL     OW38848   3.839   4.252   8.709  0.2414 -0.7693  0.0282
 9129SOL    HW138849   3.916   4.216   8.666 -0.2016  0.4827 -1.7672
 9129SOL    HW238850   3.859   4.235   8.802  2.0769  1.9318  0.1305
 9130SOL     OW38851   1.703   4.156   4.105 -0.0188 -0.1493  0.3052
 9130SOL    HW138852   1.643   4.216   4.061  0.0570  1.3559  2.2524
 9130SOL    HW238853   1.772   4.212   4.140 -0.2348 -0.1396  0.7066
 9131SOL     OW38854   3.529   3.625   0.284 -0.5591  0.3789  0.0524
 9131SOL    HW138855   3.612   3.597   0.245 -0.5371  0.2598  0.1847
 9131SOL    HW238856   3.560   3.672   0.361  1.2377  0.0928 -0.4947
 9132SOL     OW38857   4.346   2.226   8.272  0.0756 -0.1523 -0.2524
 9132SOL    HW138858   4.373   2.161   8.207 -0.0959  0.8620 -1.3570
 9132SOL    HW238859   4.407   2.295   8.247 -0.6008  0.2246 -0.9005
 9133SOL     OW38860   1.851   2.580  16.342 -0.0796 -0.0781 -0.3922
 9133SOL    HW138861   1.885   2.558  16.255 -1.1163 -0.9647 -0.5778
 9133SOL    HW238862   1.903   2.658  16.362  0.7728 -0.4013 -1.3441
 9134SOL     OW38863   3.158   0.487   7.902 -0.1018 -0.1247  0.0595
 9134SOL    HW138864   3.213   0.564   7.916  0.5077 -0.6171  0.3915
 9134SOL    HW238865   3.217   0.418   7.872  1.0092 -0.0323  2.0401
 9135SOL     OW38866   4.059   0.972  16.870  0.3999 -0.3429  0.7134
 9135SOL    HW138867   4.136   1.021  16.841  1.1293 -1.8281  0.1569
 9135SOL    HW238868   3.982   1.007  16.826 -0.7161 -3.5398  0.1304
 9136SOL     OW38869   1.990   1.696   7.710  0.2664 -0.4628  1.1684
 9136SOL    HW138870   2.083   1.711   7.695  0.0532 -1.9251 -1.5848
 9136SOL    HW238871   1.986   1.601   7.710 -0.6705 -0.4138  4.7409
 9137SOL     OW38872   1.590   3.085   4.823 -0.1721  0.0674 -0.0083
 9137SOL    HW138873   1.543   3.141   4.761 -0.8885  1.1238  1.4857
 9137SOL    HW238874   1.589   3.003   4.773 -1.8270  0.7525 -1.1102
 9138SOL     OW38875   0.110   2.609   5.249  0.2028  0.2125  0.8401
 9138SOL    HW138876   0.149   2.560   5.322 -1.9910 -0.6229  1.4640
 9138SOL    HW238877   0.138   2.698   5.270 -2.4850  1.4776 -0.9527
 9139SOL     OW38878   4.441   0.041   7.181 -0.4089 -0.0691 -0.1631
 9139SOL    HW138879   4.519   0.067   7.230 -1.0172 -0.8360  1.2192
 9139SOL    HW238880   4.389   0.089   7.245 -0.2737 -1.1997  0.8052
 9140SOL     OW38881   0.942   2.251   6.460  0.2871  0.0420  0.2351
 9140SOL    HW138882   0.864   2.202   6.433  0.2828  0.4218 -0.4465
 9140SOL    HW238883   0.977   2.187   6.522 -3.1149 -1.5788  0.5384
 9141SOL     OW38884   4.001   1.267   2.443  0.3728  0.4408  0.1707
 9141SOL    HW138885   4.067   1.292   2.378 -0.4377  0.8749 -0.5063
 9141SOL    HW238886   3.935   1.334   2.424  1.7590  2.6005  2.9963
 9142SOL     OW38887   0.835   2.915   7.280 -0.0300 -0.1171  0.6832
 9142SOL    HW138888   0.894   2.943   7.350 -1.0929  0.4843  1.3532
 9142SOL    HW238889   0.796   2.840   7.325  1.2300 -2.0325 -1.4817
 9143SOL     OW38890   1.308   3.121   5.927 -0.3634  0.1019 -0.0535
 9143SOL    HW138891   1.343   3.198   5.882 -0.9789  1.5840  2.0079
 9143SOL    HW238892   1.244   3.162   5.984  1.8279  1.2197  1.5972
 9144SOL     OW38893   1.742   3.365   6.452  0.5419 -0.5051 -0.1156
 9144SOL    HW138894   1.792   3.285   6.467  0.9467 -0.7445 -2.7874
 9144SOL    HW238895   1.785   3.414   6.382  0.4413 -0.7118 -0.3193
 9145SOL     OW38896   4.288   2.729  11.045  0.1355  0.1316 -0.3924
 9145SOL    HW138897   4.204   2.767  11.019  0.8891  1.8623 -0.3565
 9145SOL    HW238898   4.257   2.662  11.105  1.5816 -1.0145 -0.9219
 9146SOL     OW38899   0.723   1.595   9.566  0.8882 -0.1426 -0.2289
 9146SOL    HW138900   0.677   1.569   9.486 -0.4082  0.0115  0.4557
 9146SOL    HW238901   0.744   1.684   9.537 -1.8505  1.1698  1.7502
 9147SOL     OW38902   1.763   3.071  13.735 -0.4375 -0.3067  0.2793
 9147SOL    HW138903   1.828   3.089  13.803 -1.9522  0.2473  1.6055
 9147SOL    HW238904   1.793   3.132  13.668 -3.2291  0.8852  0.0932
 9148SOL     OW38905   0.812   1.018  10.794  0.4136 -0.3868  0.1887
 9148SOL    HW138906   0.799   0.991  10.703 -0.3172  1.3210 -0.2260
 9148SOL    HW238907   0.740   1.081  10.801  2.7401  1.9305  2.7317
 9149SOL     OW38908   0.012   3.003  12.727 -0.4350 -0.0079 -0.1225
 9149SOL    HW138909   0.091   2.962  12.692  0.2292  0.9793  0.2286
 9149SOL    HW238910   0.026   3.097  12.717 -0.7212 -0.0582 -1.0378
 9150SOL     OW38911   4.486   2.614   4.559  0.0984  0.0831 -0.1818
 9150SOL    HW138912   4.402   2.616   4.513 -0.5092  2.4740  1.0381
 9150SOL    HW238913   4.462   2.564   4.638  0.5757 -0.9747 -0.7085
 9151SOL     OW38914   4.701   0.607  10.518  0.2187 -0.5107 -0.1982
 9151SOL    HW138915   4.707   0.676  10.452  0.6850 -0.6151 -0.2632
 9151SOL    HW238916   4.677   0.664  10.590  0.6651  0.6748 -0.9844
 9152SOL     OW38917   0.795   1.139  17.249  0.6941  0.1065  0.6003
 9152SOL    HW138918   0.804   1.179  17.163  2.4287  1.3533  1.3708
 9152SOL    HW238919   0.871   1.156  17.305  0.0541  1.3648  1.0798
 9153SOL     OW38920   1.926   1.954   8.691  0.5310 -0.4129 -0.4679
 9153SOL    HW138921   1.948   1.921   8.779 -0.8466 -2.4577 -0.8986
 9153SOL    HW238922   2.004   1.934   8.639  0.9725 -2.7057  1.0823
 9154SOL     OW38923   4.426   0.500   3.899  0.0936 -0.8626  0.3835
 9154SOL    HW138924   4.442   0.588   3.865  1.6276 -0.5289  1.9700
 9154SOL    HW238925   4.457   0.445   3.827 -0.7760  0.0663 -0.7027
 9155SOL     OW38926   0.667   1.224  17.476  0.4787 -0.5200  0.0252
 9155SOL    HW138927   0.710   1.190  17.397 -0.8838 -1.9756 -0.0994
 9155SOL    HW238928   0.681   1.317  17.462 -1.8066 -0.5761 -2.6703
 9156SOL     OW38929   2.526   3.540  10.803  0.0493  0.4002  0.3688
 9156SOL    HW138930   2.580   3.477  10.851 -1.0148  0.0001  1.0251
 9156SOL    HW238931   2.585   3.542  10.727  0.3202  3.1813  0.6624
 9157SOL     OW38932   1.344   1.558   8.696 -0.2470 -0.4784 -0.2591
 9157SOL    HW138933   1.318   1.650   8.686  3.0124  0.4702  0.2149
 9157SOL    HW238934   1.396   1.535   8.619 -2.0863  0.0020 -1.6567
 9158SOL     OW38935   3.590   1.747   5.812  0.5335 -0.0682  0.1085
 9158SOL    HW138936   3.534   1.672   5.830  1.3167 -0.6182  0.2690
 9158SOL    HW238937   3.661   1.699   5.769  0.4435 -0.1025 -0.0013
 9159SOL     OW38938   4.643   2.579   8.809 -0.4284 -0.6191 -0.0245
 9159SOL    HW138939   4.627   2.658   8.860  0.9717  1.0128 -2.0689
 9159SOL    HW238940   0.012   2.591   8.790 -0.3741 -1.3040 -0.1937
 9160SOL     OW38941   3.232   2.096  10.626 -0.6175 -0.0666 -0.1452
 9160SOL    HW138942   3.206   2.161  10.691 -2.2990  0.0757 -0.9683
 9160SOL    HW238943   3.170   2.114  10.556 -2.0376  0.7234  1.3366
 9161SOL     OW38944   2.314   2.877   4.629 -0.4060 -0.5435  0.3546
 9161SOL    HW138945   2.283   2.885   4.539  0.4149 -2.0992 -0.0645
 9161SOL    HW238946   2.360   2.960   4.641  1.6272 -1.6400  0.1624
 9162SOL     OW38947   1.335   4.645   9.630  0.0766 -0.0299 -0.8028
 9162SOL    HW138948   1.372   4.631   9.717  1.8142 -0.1579 -1.5610
 9162SOL    HW238949   1.355   0.013   9.616  0.2372 -0.3281 -2.4459
 9163SOL     OW38950   0.450   3.980   6.014 -0.0855 -0.1030 -0.1688
 9163SOL    HW138951   0.454   3.946   5.925 -1.1685  1.2828 -0.7478
 9163SOL    HW238952   0.397   3.915   6.059  0.3911 -0.1747  0.2811
 9164SOL     OW38953   1.946   0.717   4.141 -0.2379  0.4031  0.3422
 9164SOL    HW138954   1.909   0.658   4.076  0.8033 -3.6874  3.5086
 9164SOL    HW238955   2.024   0.748   4.093  1.3875  0.7950  3.2334
 9165SOL     OW38956   0.901   2.990   0.209  0.3446 -0.4441  0.1885
 9165SOL    HW138957   0.834   3.038   0.257  2.0122  1.8641  0.2175
 9165SOL    HW238958   0.841   2.937   0.157  1.3893 -0.0416 -1.4126
 9166SOL     OW38959   3.403   1.390   5.651  0.0914  0.4646  0.3544
 9166SOL    HW138960   3.330   1.449   5.631 -0.5327 -0.7440 -0.8866
 9166SOL    HW238961   3.439   1.431   5.730 -1.3922  0.8298  0.8430
 9167SOL     OW38962   2.416   1.972   1.788 -0.3588  0.2717  0.3049
 9167SOL    HW138963   2.459   1.889   1.772  0.8779  0.8826  0.4197
 9167SOL    HW238964   2.481   2.029   1.746  0.7831 -2.4563 -1.6000
 9168SOL     OW38965   3.144   4.249  11.417 -0.2619  0.3694  0.3102
 9168SOL    HW138966   3.211   4.225  11.480 -2.2862 -0.9392  1.9690
 9168SOL    HW238967   3.167   4.339  11.392  1.8160 -0.6962 -1.6167
 9169SOL     OW38968   3.359   0.893  13.694 -0.2133  0.2245 -0.1787
 9169SOL    HW138969   3.326   0.954  13.627 -3.0460  0.0021  1.0242
 9169SOL    HW238970   3.404   0.824  13.644  1.9217  0.3225  1.5975
 9170SOL     OW38971   1.399   3.826  12.466  0.1338 -0.0581 -0.0217
 9170SOL    HW138972   1.485   3.797  12.495 -0.4745 -0.1083  1.7028
 9170SOL    HW238973   1.348   3.829  12.547 -0.8639 -0.9823 -0.6122
 9171SOL     OW38974   4.084   1.981   2.647  0.2116 -0.2652  0.6980
 9171SOL    HW138975   4.106   1.898   2.604 -2.5168  0.0726 -1.3999
 9171SOL    HW238976   4.112   2.038   2.575  0.5259  0.2120  1.1999
 9172SOL     OW38977   1.702   3.087   3.129 -0.6194 -0.3912 -0.0890
 9172SOL    HW138978   1.672   3.031   3.200  0.2978 -0.8084 -0.0283
 9172SOL    HW238979   1.697   3.171   3.175  1.4374 -0.2894 -0.0651
 9173SOL     OW38980   3.022   4.232   8.211  0.3595  0.1087 -0.1029
 9173SOL    HW138981   3.059   4.218   8.124 -0.4395  0.9695 -0.5741
 9173SOL    HW238982   3.092   4.206   8.272  0.4927  0.6239 -0.0366
 9174SOL     OW38983   2.715   2.621   4.272 -0.2342  0.2295 -0.0062
 9174SOL    HW138984   2.742   2.711   4.292 -0.1588  0.2183 -0.0554
 9174SOL    HW238985   2.703   2.614   4.177 -0.5887 -0.4492  0.0856
 9175SOL     OW38986   0.649   4.656   1.833 -0.0314 -0.2865  0.0251
 9175SOL    HW138987   0.734   4.679   1.794 -0.2344 -0.4096 -0.4772
 9175SOL    HW238988   0.612   4.597   1.768 -0.2055 -0.2511  0.0937
 9176SOL     OW38989   1.876   1.619   0.491  0.6673  0.2842 -0.1079
 9176SOL    HW138990   1.958   1.591   0.531 -0.2045 -3.4631 -0.9460
 9176SOL    HW238991   1.830   1.664   0.561 -0.7727  0.2929 -1.0675
 9177SOL     OW38992   3.458   3.731  13.105  0.2078  0.7485 -0.4594
 9177SOL    HW138993   3.376   3.775  13.082  0.1227  1.1004  0.5378
 9177SOL    HW238994   3.490   3.779  13.181 -2.7467 -0.5745  1.6321
 9178SOL     OW38995   1.612   0.549   5.740  0.2147  0.0279 -0.6211
 9178SOL    HW138996   1.588   0.499   5.663 -3.8953 -0.5518  1.0033
 9178SOL    HW238997   1.695   0.510   5.767  0.2467  2.7855  3.4196
 9179SOL     OW38998   3.826   3.237   4.040 -0.1695 -0.4613  0.0222
 9179SOL    HW138999   3.876   3.163   4.005  1.7028  1.3556 -1.1069
 9179SOL    HW239000   3.786   3.271   3.960 -3.4001 -0.4754  1.6501
 9180SOL     OW39001   0.885   3.250   9.762 -0.1062  0.1901 -0.2205
 9180SOL    HW139002   0.826   3.299   9.820 -0.4440 -0.2525 -0.1938
 9180SOL    HW239003   0.864   3.161   9.790 -0.0421 -0.0455 -0.9284
 9181SOL     OW39004   1.867   0.119   2.902  0.3981  0.3402 -0.0977
 9181SOL    HW139005   1.906   0.204   2.879 -0.0426  0.7668  0.7252
 9181SOL    HW239006   1.829   0.149   2.985 -2.2476 -1.9818 -0.4878
 9182SOL     OW39007   4.342   3.486   3.966 -0.0708  0.0054  0.4768
 9182SOL    HW139008   4.382   3.401   3.985  0.7771  0.4089  0.5104
 9182SOL    HW239009   4.424   3.536   3.970  1.2333 -2.0632 -0.3984
 9183SOL     OW39010   1.440   3.188   8.828  0.2650 -1.0448 -0.1349
 9183SOL    HW139011   1.379   3.234   8.885  0.6529 -2.6324  1.5649
 9183SOL    HW239012   1.517   3.197   8.885  1.6593  2.3965 -2.5225
 9184SOL     OW39013   2.168   4.450  14.857 -0.6219  0.1194 -0.7671
 9184SOL    HW139014   2.116   4.392  14.912  0.0947  1.0377  0.8823
 9184SOL    HW239015   2.118   4.532  14.864  1.2633  1.2156 -0.1879
 9185SOL     OW39016   0.271   4.106  10.070  0.1566  0.1100  0.1601
 9185SOL    HW139017   0.352   4.073  10.110  1.2351  0.0455 -2.0764
 9185SOL    HW239018   0.260   4.025  10.021  0.0172 -0.5223  1.2318
 9186SOL     OW39019   2.533   3.818  14.771  0.4418  0.4015  0.1038
 9186SOL    HW139020   2.575   3.734  14.788 -0.2142 -0.1044 -0.8181
 9186SOL    HW239021   2.484   3.801  14.690 -1.9381 -2.1294  2.0771
 9187SOL     OW39022   0.606   4.197   6.565  0.3132  0.2012  0.0804
 9187SOL    HW139023   0.638   4.206   6.475 -1.2458  1.0928 -0.3758
 9187SOL    HW239024   0.515   4.171   6.552  1.4557 -2.8806 -1.7837
 9188SOL     OW39025   0.909   3.426  13.993  0.2300 -0.6038 -0.1460
 9188SOL    HW139026   0.826   3.456  13.956  1.0313  0.7021 -0.8670
 9188SOL    HW239027   0.941   3.375  13.919  0.4575 -1.7779  0.7576
 9189SOL     OW39028   3.866   4.219   9.829 -0.2294 -0.2949 -0.4606
 9189SOL    HW139029   3.890   4.208   9.737 -0.7738  0.8986 -0.7514
 9189SOL    HW239030   3.944   4.178   9.866  0.3752  0.1653 -1.2508
 9190SOL     OW39031   3.102   0.801   9.471 -0.3477  0.8809 -0.1576
 9190SOL    HW139032   3.035   0.784   9.404 -0.2347  1.2183 -0.3548
 9190SOL    HW239033   3.047   0.833   9.542  0.3904  1.1214  0.3086
 9191SOL     OW39034   2.119   1.422   9.719 -0.0185  0.1052 -0.1222
 9191SOL    HW139035   2.199   1.472   9.736  0.3345 -0.0766 -1.1951
 9191SOL    HW239036   2.061   1.473   9.775  0.2385  0.2400  0.0231
 9192SOL     OW39037   2.873   1.460   6.292  0.5065  0.7885 -0.1542
 9192SOL    HW139038   2.909   1.514   6.222 -0.7646 -0.9528 -2.1397
 9192SOL    HW239039   2.795   1.508   6.321  0.4614 -0.1556  1.2785
 9193SOL     OW39040   1.442   3.862   3.562 -0.3016  0.0676 -0.2032
 9193SOL    HW139041   1.379   3.909   3.508 -0.4292 -1.3027 -1.2444
 9193SOL    HW239042   1.434   3.768   3.544  0.5827 -0.3826  1.8262
 9194SOL     OW39043   4.206   2.127   2.388  0.3224  0.0656 -0.0608
 9194SOL    HW139044   4.233   2.175   2.310 -0.0288  1.6230  0.7711
 9194SOL    HW239045   4.256   2.163   2.461  1.6163  1.1335 -1.4825
 9195SOL     OW39046   0.832   4.048  13.576  0.4259  0.6585 -0.0067
 9195SOL    HW139047   0.757   4.002  13.540 -0.5978  1.7235  0.7560
 9195SOL    HW239048   0.798   4.076  13.661  0.7532  1.1995 -0.0544
 9196SOL     OW39049   0.297   0.858   0.585 -0.0965 -0.3177 -0.2305
 9196SOL    HW139050   0.246   0.938   0.574 -2.0450 -1.5217  0.0172
 9196SOL    HW239051   0.373   0.888   0.635 -1.3730 -1.5388  2.4691
 9197SOL     OW39052   0.159   2.532   9.533 -0.0353  0.0480 -0.3489
 9197SOL    HW139053   0.183   2.511   9.623 -1.6868  2.8171  0.7341
 9197SOL    HW239054   0.097   2.605   9.537  0.6069  0.5271  0.7241
 9198SOL     OW39055   2.705   3.262   6.451  0.0489 -0.2336 -0.0943
 9198SOL    HW139056   2.681   3.172   6.429  1.4577 -1.0580  1.7860
 9198SOL    HW239057   2.724   3.294   6.362 -0.2196  1.2317  0.3719
 9199SOL     OW39058   4.355   3.715  13.486  0.4091 -0.3884 -0.2392
 9199SOL    HW139059   4.434   3.767  13.475 -0.8583  1.8964  1.3755
 9199SOL    HW239060   4.305   3.748  13.412  0.1844  0.7080  0.4071
 9200SOL     OW39061   3.157   0.531  13.903  0.9022 -0.3843  0.3760
 9200SOL    HW139062   3.173   0.440  13.927  1.0558 -0.4025  0.2046
 9200SOL    HW239063   3.184   0.524  13.811 -0.6077  1.3724 -0.1986
 9201SOL     OW39064   0.710   2.546   4.492  0.1460 -0.1459 -0.6303
 9201SOL    HW139065   0.738   2.580   4.577 -3.5707 -1.6429  1.1958
 9201SOL    HW239066   0.616   2.550   4.504 -0.3602 -0.9333 -4.4175
 9202SOL     OW39067   1.267   4.562  15.734  0.4595  0.6579 -0.0306
 9202SOL    HW139068   1.198   4.507  15.696  0.0157 -0.0416  1.7749
 9202SOL    HW239069   1.315   4.503  15.792  0.5145  2.3150  1.6272
 9203SOL     OW39070   2.400   0.923   4.377  0.0937  0.4228 -0.2237
 9203SOL    HW139071   2.318   0.972   4.371  0.1048  0.4979  0.2196
 9203SOL    HW239072   2.457   0.994   4.407 -1.3627  0.7299  1.8398
 9204SOL     OW39073   1.204   4.304  13.596  0.3366  0.9239  0.4779
 9204SOL    HW139074   1.226   4.239  13.664 -1.1583  0.7307  0.7697
 9204SOL    HW239075   1.284   4.296  13.543  1.2503 -0.6709  2.0912
 9205SOL     OW39076   4.258   1.098   5.060  0.2327  0.2475  0.4383
 9205SOL    HW139077   4.302   1.172   5.020 -1.3306  0.9701  0.0507
 9205SOL    HW239078   4.240   1.123   5.150 -2.5345 -0.2566  0.0374
 9206SOL     OW39079   1.063   4.461  14.196 -0.1159  0.5401  0.1035
 9206SOL    HW139080   1.084   4.441  14.287 -1.0530  1.7228  0.5871
 9206SOL    HW239081   1.137   4.512  14.162  0.7344 -1.2359 -0.7100
 9207SOL     OW39082   4.322   2.132   7.302 -0.0864 -0.4729  0.0131
 9207SOL    HW139083   4.280   2.199   7.247 -0.1597 -1.6425 -1.3701
 9207SOL    HW239084   4.272   2.141   7.383 -0.9527 -1.2533 -0.4384
 9208SOL     OW39085   2.989   4.667   5.392 -0.2724  0.2330  0.3236
 9208SOL    HW139086   3.077   4.694   5.418 -0.7249  1.8313  0.1972
 9208SOL    HW239087   3.003   4.574   5.374 -1.5615 -0.3390  2.2713
 9209SOL     OW39088   1.858   0.433   2.059 -0.3211  0.0033  0.0613
 9209SOL    HW139089   1.891   0.344   2.071  1.7433  1.0340  2.1350
 9209SOL    HW239090   1.913   0.484   2.119 -1.1910  0.2198  0.6787
 9210SOL     OW39091   2.154   1.353   6.191  0.0589  0.2003  0.6794
 9210SOL    HW139092   2.178   1.349   6.098 -1.1117  1.9834  0.2843
 9210SOL    HW239093   2.184   1.442   6.211 -1.1118  0.8839 -0.6093
 9211SOL     OW39094   0.604   2.995   2.151 -0.6857 -0.5885 -0.7605
 9211SOL    HW139095   0.536   3.036   2.098 -3.1015 -1.3292  1.7805
 9211SOL    HW239096   0.614   2.913   2.102 -0.6894 -0.4679 -0.9642
 9212SOL     OW39097   4.233   4.526  11.042 -0.0480 -0.4738 -0.2313
 9212SOL    HW139098   4.324   4.501  11.059 -0.1806  0.1461  1.3590
 9212SOL    HW239099   4.248   4.619  11.027 -0.4158 -0.2320  0.8575
 9213SOL     OW39100   1.108   0.888   0.876 -0.1283 -0.4226  0.2516
 9213SOL    HW139101   1.044   0.816   0.879 -2.2533  1.5190  0.8711
 9213SOL    HW239102   1.057   0.946   0.820 -0.1707 -0.3008  0.4172
 9214SOL     OW39103   3.553   4.125   3.937  0.5023 -0.3590  0.0626
 9214SOL    HW139104   3.521   4.155   4.022  0.3373  0.5871 -0.3352
 9214SOL    HW239105   3.545   4.207   3.887 -1.3895  0.0135  0.9976
 9215SOL     OW39106   2.821   3.040   9.022  0.0603  0.0133  0.3762
 9215SOL    HW139107   2.914   3.062   9.009 -0.1623 -1.7105 -4.1412
 9215SOL    HW239108   2.825   3.028   9.116 -2.6188  1.7774  0.6906
 9216SOL     OW39109   1.819   1.379  16.434  0.6937  0.5467  0.2116
 9216SOL    HW139110   1.843   1.431  16.511 -2.0456 -2.3636  2.9775
 9216SOL    HW239111   1.816   1.440  16.360 -1.8498  0.4398  0.2248
 9217SOL     OW39112   4.472   2.764  17.165 -0.3739 -0.2829  0.2879
 9217SOL    HW139113   4.380   2.781  17.184 -0.8453 -3.1092  0.4937
 9217SOL    HW239114   4.485   2.771  17.070 -1.4391 -1.1643  0.0853
 9218SOL     OW39115   0.913   4.312  13.518 -0.1755  0.0290  0.2247
 9218SOL    HW139116   0.988   4.313  13.578 -0.4925 -1.1871  0.6333
 9218SOL    HW239117   0.897   4.218  13.508 -0.8673  0.0579  1.0853
 9219SOL     OW39118   0.618   3.924   0.335 -0.2242  0.1191  0.0938
 9219SOL    HW139119   0.713   3.912   0.345 -0.1390  0.7586  0.0501
 9219SOL    HW239120   0.610   3.953   0.244 -2.8788  0.7442  0.5439
 9220SOL     OW39121   2.958   2.673  15.436  0.1913  0.4350 -0.6564
 9220SOL    HW139122   2.873   2.715  15.446  0.4742  0.8330  0.0626
 9220SOL    HW239123   3.020   2.729  15.481 -0.0183  2.3334 -2.7379
 9221SOL     OW39124   3.134   3.137  11.383 -0.3200 -0.2800 -0.5574
 9221SOL    HW139125   3.136   3.042  11.397  1.8089  0.0383  1.3241
 9221SOL    HW239126   3.150   3.137  11.289  1.3781  1.0720 -0.2690
 9222SOL     OW39127   2.493   1.806   0.072 -0.3106 -0.4490  0.1787
 9222SOL    HW139128   2.492   1.797   0.167  1.7338 -0.1937  0.2233
 9222SOL    HW239129   2.513   1.716   0.045 -1.1537 -0.7516  0.6007
 9223SOL     OW39130   1.655   2.065   6.961 -0.2748 -0.5036 -0.2261
 9223SOL    HW139131   1.655   2.161   6.966 -0.6974 -0.4552 -1.2301
 9223SOL    HW239132   1.581   2.047   6.903  1.5937 -1.1823 -2.4091
 9224SOL     OW39133   3.887   3.194   6.535 -0.0787 -0.9400  0.6183
 9224SOL    HW139134   3.914   3.239   6.616  2.0222 -0.5635 -0.2900
 9224SOL    HW239135   3.941   3.247   6.477 -0.2139 -0.3817  0.9988
 9225SOL     OW39136   0.642   3.875   4.735  0.5384  0.5988 -0.6786
 9225SOL    HW139137   0.699   3.938   4.690 -0.2848  0.3822 -2.0536
 9225SOL    HW239138   0.676   3.871   4.824 -1.5433 -1.3323  0.0008
 9226SOL     OW39139   2.888   0.337   3.506  0.1602 -1.0390  0.2093
 9226SOL    HW139140   2.947   0.283   3.453  1.4073  1.4410 -0.9633
 9226SOL    HW239141   2.824   0.349   3.436  0.7846  0.7642 -0.0831
 9227SOL     OW39142   4.297   0.823  16.980 -0.3614  0.2619  0.9955
 9227SOL    HW139143   4.327   0.906  16.944 -1.2218  0.1414 -0.0040
 9227SOL    HW239144   4.365   0.764  16.947 -0.9298  0.7432 -1.0071
 9228SOL     OW39145   1.083   3.690   5.815 -0.1001 -0.1321  0.1795
 9228SOL    HW139146   1.043   3.606   5.793 -0.4318  0.0050  0.2509
 9228SOL    HW239147   1.022   3.735   5.874 -0.0530 -0.0968  0.2010
 9229SOL     OW39148   2.889   4.315  11.842  0.2341  0.0586 -0.0835
 9229SOL    HW139149   2.954   4.379  11.813 -0.2609  0.1913 -0.8929
 9229SOL    HW239150   2.938   4.235  11.822 -0.0721 -0.1349 -0.0564
 9230SOL     OW39151   3.275   2.858   5.132 -0.0952 -0.8585 -0.3428
 9230SOL    HW139152   3.200   2.810   5.166 -0.0961 -1.7353 -1.5547
 9230SOL    HW239153   3.235   2.944   5.119  0.9466 -0.1894  0.8928
 9231SOL     OW39154   0.710   3.795  16.045  0.0019  0.5898  0.1539
 9231SOL    HW139155   0.757   3.832  15.969  0.2741 -1.7677 -0.8242
 9231SOL    HW239156   0.781   3.770  16.104  0.2630 -1.0493 -0.8439
 9232SOL     OW39157   3.400   0.523   5.130 -0.1004 -0.1403  0.2840
 9232SOL    HW139158   3.348   0.597   5.161 -0.8022 -1.0368  1.2790
 9232SOL    HW239159   3.387   0.532   5.035  0.5034  1.4082  0.3538
 9233SOL     OW39160   3.225   2.051  15.562  0.3015 -0.0562 -0.5879
 9233SOL    HW139161   3.292   2.007  15.510  2.9635  1.2265  1.7663
 9233SOL    HW239162   3.146   2.001  15.544  0.0298  0.5941 -1.1892
 9234SOL     OW39163   2.295   1.845  10.503  0.0477  0.3885 -0.1384
 9234SOL    HW139164   2.322   1.929  10.465 -0.3858  0.4932 -0.2154
 9234SOL    HW239165   2.380   1.805  10.488  0.4730  0.8452  1.1219
 9235SOL     OW39166   0.657   2.264   7.127 -0.7993  0.6008 -0.0064
 9235SOL    HW139167   0.572   2.220   7.130 -0.6369  0.4985  2.8193
 9235SOL    HW239168   0.626   2.339   7.077  0.3520 -0.5436 -2.4612
 9236SOL     OW39169   2.068   0.460   5.912  0.1055  0.2460  0.2505
 9236SOL    HW139170   2.132   0.392   5.892 -0.0710 -0.2937  1.5418
 9236SOL    HW239171   2.074   0.461   6.008 -3.5603  0.0202  0.4588
 9237SOL     OW39172   2.082   3.780   3.807  0.2210 -0.0751 -0.5123
 9237SOL    HW139173   2.113   3.765   3.897  0.4462  1.5098 -0.3332
 9237SOL    HW239174   2.158   3.760   3.752  0.6387 -1.5528  0.5690
 9238SOL     OW39175   1.406   4.051   7.327 -0.3796 -0.0356 -0.2337
 9238SOL    HW139176   1.438   4.068   7.239  0.5733  0.9631  0.3173
 9238SOL    HW239177   1.404   4.143   7.354 -2.0929  0.1761 -1.0544
 9239SOL     OW39178   3.444   2.941   7.498 -0.0961  0.3742  0.1836
 9239SOL    HW139179   3.377   2.929   7.565 -1.1707  1.1170 -0.7575
 9239SOL    HW239180   3.394   2.935   7.416  0.0131 -0.8610  0.1979
 9240SOL     OW39181   4.135   3.302  16.003 -0.4557 -0.7440  0.5027
 9240SOL    HW139182   4.103   3.363  16.070  0.1260  0.3948 -0.2589
 9240SOL    HW239183   4.219   3.269  16.036 -1.0783 -3.3539 -0.4904
 9241SOL     OW39184   3.271   3.842   2.121 -0.3539  0.5935  0.1344
 9241SOL    HW139185   3.301   3.910   2.181 -0.3119  1.3513 -0.7562
 9241SOL    HW239186   3.297   3.880   2.037 -0.9129 -3.3809 -1.8585
 9242SOL     OW39187   0.608   2.216  10.434  0.4237  0.0809 -0.2290
 9242SOL    HW139188   0.609   2.134  10.384  1.2643  0.2619 -0.5059
 9242SOL    HW239189   0.703   2.221  10.435  0.4067  0.4240 -0.3062
 9243SOL     OW39190   2.604   1.479  10.369  0.6971  0.2099  0.1021
 9243SOL    HW139191   2.512   1.460  10.390  0.0700  1.2639 -1.7114
 9243SOL    HW239192   2.617   1.570  10.397  2.1685 -0.1234  0.4791
 9244SOL     OW39193   4.204   4.192   7.873 -0.1226  0.2491  1.0045
 9244SOL    HW139194   4.234   4.197   7.963  1.9628  0.0037  0.3103
 9244SOL    HW239195   4.289   4.169   7.835 -1.1513 -1.7297 -0.1322
 9245SOL     OW39196   0.671   2.537   1.138  0.1433 -0.3943 -0.2069
 9245SOL    HW139197   0.759   2.514   1.109  0.0262 -0.8772 -0.1662
 9245SOL    HW239198   0.686   2.577   1.224  0.4421 -0.5927 -0.1682
 9246SOL     OW39199   0.894   2.020   5.833 -0.5327 -0.1664 -0.4478
 9246SOL    HW139200   0.909   1.926   5.820  2.1357  0.1237  0.4509
 9246SOL    HW239201   0.816   2.036   5.781  0.1615 -1.4040 -1.8703
 9247SOL     OW39202   4.702   3.591   6.681 -0.5078 -0.0975 -0.4131
 9247SOL    HW139203   4.666   3.675   6.654  2.1122  0.4770 -2.1303
 9247SOL    HW239204   4.639   3.571   6.750 -0.2596  1.9811  0.4110
 9248SOL     OW39205   2.163   1.856   1.137 -0.1577  0.4334  0.2824
 9248SOL    HW139206   2.236   1.914   1.117 -1.2265  1.1115 -1.6750
 9248SOL    HW239207   2.094   1.920   1.119 -1.2437 -1.2665 -1.5779
 9249SOL     OW39208   4.419   4.158   4.256 -0.4763 -1.0753 -0.1279
 9249SOL    HW139209   4.397   4.077   4.210  0.1318 -1.5517  0.4082
 9249SOL    HW239210   4.492   4.189   4.201 -1.5175 -0.0229 -0.9151
 9250SOL     OW39211   1.747   3.161  14.847  0.9045 -0.1844 -0.1949
 9250SOL    HW139212   1.818   3.165  14.782  0.3156  2.8247 -0.6379
 9250SOL    HW239213   1.670   3.177  14.792 -0.0263 -0.1050  1.1222
 9251SOL     OW39214   3.838   1.401  10.877  0.2207 -0.1417 -0.0337
 9251SOL    HW139215   3.787   1.465  10.926  1.9299 -1.2987  3.2764
 9251SOL    HW239216   3.766   1.363  10.825 -1.0838  0.9599  0.9703
 9252SOL     OW39217   4.309   2.721   7.887  0.3889  0.3185  0.7825
 9252SOL    HW139218   4.310   2.626   7.894 -0.6946  0.2028 -0.6159
 9252SOL    HW239219   4.214   2.730   7.893  0.1874 -1.9121  1.0586
 9253SOL     OW39220   3.142   3.295   4.941  0.0779  0.3150  0.0643
 9253SOL    HW139221   3.183   3.367   4.893  1.5998 -0.7900 -0.3006
 9253SOL    HW239222   3.128   3.343   5.023 -0.5514 -0.2014  0.2585
 9254SOL     OW39223   2.905   2.432   9.308  0.7792 -0.5403  0.5335
 9254SOL    HW139224   2.960   2.476   9.373 -0.0656  1.5456 -0.1784
 9254SOL    HW239225   2.823   2.480   9.308  0.8651 -0.4017 -1.6717
 9255SOL     OW39226   2.244   3.916   8.785 -0.8233 -0.2825 -0.2016
 9255SOL    HW139227   2.271   4.000   8.822 -1.3361 -0.0582 -0.3341
 9255SOL    HW239228   2.287   3.859   8.849  0.4728 -1.7786 -2.3865
 9256SOL     OW39229   3.532   3.200   8.867 -0.1862 -0.0905 -0.2191
 9256SOL    HW139230   3.453   3.212   8.919 -1.6907 -0.7941 -2.3375
 9256SOL    HW239231   3.538   3.107   8.844  0.0012  0.0225 -0.6403
 9257SOL     OW39232   3.516   4.352   3.798  0.1214 -0.1067  0.1893
 9257SOL    HW139233   3.427   4.386   3.809  0.3058 -0.0495  1.4455
 9257SOL    HW239234   3.530   4.384   3.709  1.8827 -0.4264  0.3565
 9258SOL     OW39235   1.414   1.762  17.150  0.0921 -0.1686 -0.1723
 9258SOL    HW139236   1.358   1.747  17.074  0.7092  0.5968 -0.7717
 9258SOL    HW239237   1.349   1.803  17.208 -1.4829 -1.3896 -1.0687
 9259SOL     OW39238   0.795   0.268   6.394 -0.4299  0.1764  0.6051
 9259SOL    HW139239   0.803   0.362   6.381 -1.9412  0.4834  1.9154
 9259SOL    HW239240   0.716   0.243   6.347 -0.2302  2.4278 -0.9452
 9260SOL     OW39241   3.467   1.348   8.249  0.3644 -0.3114  0.0347
 9260SOL    HW139242   3.546   1.304   8.217  0.2504 -0.0534 -0.5966
 9260SOL    HW239243   3.487   1.337   8.342  0.3562  0.6417  0.1454
 9261SOL     OW39244   4.100   4.558   1.586  0.2301  0.1533 -1.6769
 9261SOL    HW139245   4.170   4.507   1.547  1.0325  0.1485 -0.2050
 9261SOL    HW239246   4.128   4.646   1.559  0.7453  0.2767 -0.7143
 9262SOL     OW39247   2.362   0.096   8.468  0.1346  0.4393 -0.7932
 9262SOL    HW139248   2.329   0.007   8.459 -0.3054  0.7391 -2.1399
 9262SOL    HW239249   2.399   0.113   8.381  3.1640 -0.8618  0.2488
 9263SOL     OW39250   2.153   0.191  16.688 -0.2701 -0.2852 -0.1397
 9263SOL    HW139251   2.238   0.223  16.658 -0.0620  0.5676  1.3901
 9263SOL    HW239252   2.166   0.104  16.650  0.6161 -0.1324 -0.1795
 9264SOL     OW39253   3.244   3.724   0.734 -0.5120 -0.9641  0.3791
 9264SOL    HW139254   3.151   3.715   0.753 -0.1120 -0.5309  2.4941
 9264SOL    HW239255   3.262   3.645   0.683  0.5771  0.2543 -1.1412
 9265SOL     OW39256   0.173   2.729   3.378  0.0243  0.0523  0.2767
 9265SOL    HW139257   0.216   2.767   3.455 -0.7770 -0.4273  0.9573
 9265SOL    HW239258   0.246   2.683   3.337 -1.6212 -0.4686 -2.0666
 9266SOL     OW39259   0.458   0.279   0.120 -0.1973 -0.3504 -0.1060
 9266SOL    HW139260   0.391   0.332   0.161  0.6628 -0.0490  0.9100
 9266SOL    HW239261   0.499   0.239   0.196  2.1163 -0.3421 -1.3407
 9267SOL     OW39262   3.752   3.224   7.891 -0.2444 -0.1712  0.3206
 9267SOL    HW139263   3.672   3.171   7.887 -0.0467 -0.4091 -0.5819
 9267SOL    HW239264   3.821   3.158   7.904  0.0405  0.1349  0.3525
 9268SOL     OW39265   2.159   4.096   9.566 -0.2067 -0.1480  0.5178
 9268SOL    HW139266   2.184   4.004   9.575 -0.5313 -0.4954 -2.0567
 9268SOL    HW239267   2.064   4.082   9.568 -0.0470 -1.5578 -2.5982
 9269SOL     OW39268   1.179   1.882   6.163 -0.2064  0.3910 -0.1207
 9269SOL    HW139269   1.220   1.963   6.191 -2.0338  0.2215  3.0689
 9269SOL    HW239270   1.243   1.848   6.101 -0.0025 -0.1710  0.3984
 9270SOL     OW39271   3.847   0.466   1.259 -0.3233  0.3896  0.0118
 9270SOL    HW139272   3.897   0.528   1.205  1.9009 -2.2816 -0.9999
 9270SOL    HW239273   3.764   0.472   1.212 -1.1127 -0.1662  1.3383
 9271SOL     OW39274   0.991   1.707   4.262  0.3500  0.3403  0.1896
 9271SOL    HW139275   0.926   1.665   4.206  1.5336 -1.7949  0.4035
 9271SOL    HW239276   0.961   1.798   4.262 -1.2236 -0.1774  1.0452
 9272SOL     OW39277   2.059   3.512   8.056 -0.3318 -0.5013  0.4871
 9272SOL    HW139278   2.080   3.510   7.962 -2.9057 -1.3997 -0.0664
 9272SOL    HW239279   2.122   3.443   8.078  0.6112 -0.2362 -1.3425
 9273SOL     OW39280   3.544   2.776   5.228  0.5005  0.4865 -0.0999
 9273SOL    HW139281   3.505   2.781   5.316 -0.2208 -2.5266 -0.2535
 9273SOL    HW239282   3.465   2.791   5.176  1.0019 -1.4179 -1.4176
 9274SOL     OW39283   4.505   2.404   5.138 -0.0414  0.5605 -0.3234
 9274SOL    HW139284   4.447   2.355   5.080  0.4187  0.8157 -1.0016
 9274SOL    HW239285   4.585   2.410   5.086 -1.1115 -0.0397 -2.0605
 9275SOL     OW39286   2.350   3.906   8.090  0.4448 -0.1545 -0.4803
 9275SOL    HW139287   2.320   3.817   8.110 -0.7731  0.6135  1.1276
 9275SOL    HW239288   2.324   3.909   7.998 -1.3768  0.3796  0.0616
 9276SOL     OW39289   3.856   3.171   8.652 -0.2787  0.5210  0.3163
 9276SOL    HW139290   3.762   3.184   8.646 -0.4650 -0.7317  0.4411
 9276SOL    HW239291   3.874   3.204   8.740 -2.3320  0.8460  0.6040
 9277SOL     OW39292   4.258   1.906   4.705  0.1917 -0.1337 -0.3351
 9277SOL    HW139293   4.336   1.929   4.755 -0.1466  1.4902 -0.5796
 9277SOL    HW239294   4.281   1.842   4.638  1.2506 -0.1792  0.0822
 9278SOL     OW39295   3.887   1.316  16.090  0.4438 -0.2067  0.0539
 9278SOL    HW139296   3.912   1.388  16.148 -1.9031  2.0640 -1.7473
 9278SOL    HW239297   3.960   1.333  16.031  0.6124  1.2091  0.6780
 9279SOL     OW39298   1.209   2.379   8.843  0.5687 -0.2848 -0.3924
 9279SOL    HW139299   1.200   2.364   8.749  0.9646 -0.7833 -0.3527
 9279SOL    HW239300   1.290   2.429   8.837  0.2786  0.2593  0.2880
 9280SOL     OW39301   0.472   4.418  16.338  0.3038 -0.3843 -0.6759
 9280SOL    HW139302   0.489   4.352  16.271  0.2780 -0.2862 -0.7782
 9280SOL    HW239303   0.384   4.391  16.365  0.2498 -1.0804 -1.5600
 9281SOL     OW39304   1.382   4.427   8.102 -0.4564 -0.2322 -0.0014
 9281SOL    HW139305   1.291   4.398   8.114 -0.7275  0.6417  0.0783
 9281SOL    HW239306   1.374   4.505   8.047  0.3125 -0.5069 -0.4959
 9282SOL     OW39307   2.269   3.912  10.981 -0.3909  0.7244 -0.3482
 9282SOL    HW139308   2.175   3.902  10.995 -0.1139 -1.1951  0.1801
 9282SOL    HW239309   2.287   3.835  10.928 -1.1832 -0.0357  0.4946
 9283SOL     OW39310   2.337   4.471  10.242  0.1432 -0.6199  0.9136
 9283SOL    HW139311   2.287   4.392  10.219  0.0058 -0.0138 -0.8818
 9283SOL    HW239312   2.421   4.429  10.263  1.0485  0.6053 -0.2343
 9284SOL     OW39313   4.270   3.261   4.686  0.4503  0.2395 -0.4468
 9284SOL    HW139314   4.201   3.325   4.670 -0.7566 -1.0381 -0.4100
 9284SOL    HW239315   4.258   3.190   4.623 -3.4091 -0.1002  0.6476
 9285SOL     OW39316   3.869   2.435  14.384  0.9153 -0.0589  0.3002
 9285SOL    HW139317   3.932   2.409  14.452  0.3058 -0.6415  0.6441
 9285SOL    HW239318   3.833   2.353  14.351  1.5155 -0.8362  1.5636
 9286SOL     OW39319   3.366   4.710  15.773  0.0198 -0.0514 -0.0174
 9286SOL    HW139320   3.442   4.701  15.830  0.4639  1.1118 -0.4380
 9286SOL    HW239321   3.387   4.666  15.691 -0.9542 -0.5112 -0.0210
 9287SOL     OW39322   3.879   3.012   3.674 -0.5869 -0.5446 -0.1587
 9287SOL    HW139323   3.922   2.932   3.704 -0.4893 -0.1437  0.7767
 9287SOL    HW239324   3.913   3.013   3.585 -0.0474 -1.3545  0.0395
 9288SOL     OW39325   3.348   0.768   9.333 -0.0714 -0.3855 -0.3553
 9288SOL    HW139326   3.324   0.688   9.287 -0.7274  0.4438 -1.4402
 9288SOL    HW239327   3.288   0.765   9.407  0.0930  0.0083 -0.2031
 9289SOL     OW39328   3.578   0.724   4.460 -0.0399  0.3775  0.1874
 9289SOL    HW139329   3.609   0.641   4.495  0.5588  0.2150 -0.7379
 9289SOL    HW239330   3.648   0.786   4.479  0.3257 -0.1731  0.6180
 9290SOL     OW39331   2.240   0.282   8.826  0.4031 -0.0550  0.1514
 9290SOL    HW139332   2.269   0.354   8.770  1.6403 -1.1412 -0.5940
 9290SOL    HW239333   2.301   0.212   8.803 -0.2412  0.1003 -2.0678
 9291SOL     OW39334   4.173   2.280  10.184  0.3546  0.2765  0.7208
 9291SOL    HW139335   4.150   2.189  10.200 -1.4714  0.3912 -1.2111
 9291SOL    HW239336   4.197   2.273  10.091 -0.0524 -1.5264  0.7632
 9292SOL     OW39337   4.472   4.139   7.773  0.3810  0.0218 -0.3463
 9292SOL    HW139338   4.506   4.098   7.693 -2.0603 -2.2816 -0.1694
 9292SOL    HW239339   4.505   4.073   7.834  1.3476 -1.8327 -2.8467
 9293SOL     OW39340   1.431   2.696  17.033 -0.5694  0.3688 -0.7076
 9293SOL    HW139341   1.341   2.724  17.050 -0.2728  0.7513  0.2352
 9293SOL    HW239342   1.480   2.778  17.038  0.8891 -0.5474 -0.0600
 9294SOL     OW39343   3.259   0.662   8.485 -0.3402  0.5810 -0.2380
 9294SOL    HW139344   3.316   0.672   8.409 -1.3233  3.1348 -0.6412
 9294SOL    HW239345   3.275   0.746   8.527  0.2872 -0.4787  1.6705
 9295SOL     OW39346   3.056   1.607  15.236  0.0364  0.3134  0.0153
 9295SOL    HW139347   2.966   1.634  15.256 -0.1978  1.1244 -2.2128
 9295SOL    HW239348   3.070   1.662  15.160  1.7310  2.1431  1.6557
 9296SOL     OW39349   1.548   4.371   5.200 -0.3270 -0.2052  0.2376
 9296SOL    HW139350   1.592   4.289   5.222  2.7207  1.4273  0.1606
 9296SOL    HW239351   1.624   4.414   5.160  0.0245 -0.6863  0.3989
 9297SOL     OW39352   0.316   0.193  11.796  0.4304 -0.7225  0.0549
 9297SOL    HW139353   0.324   0.194  11.891  0.7520 -0.2699  0.0282
 9297SOL    HW239354   0.351   0.280  11.776  0.8246 -1.2707 -1.6667
 9298SOL     OW39355   4.293   1.732   7.922 -0.2466 -0.1943  0.2058
 9298SOL    HW139356   4.217   1.673   7.924 -0.3785 -0.1210 -2.0700
 9298SOL    HW239357   4.303   1.750   7.828  1.0896 -3.5573 -0.2970
 9299SOL     OW39358   2.774   1.884  16.536  0.1348  0.5645 -0.2568
 9299SOL    HW139359   2.756   1.790  16.547 -1.9339  1.2102  1.8679
 9299SOL    HW239360   2.720   1.924  16.605 -0.5032  0.4531 -0.6866
 9300SOL     OW39361   1.098   3.438   5.024 -0.1343  0.8809 -0.1547
 9300SOL    HW139362   1.035   3.378   5.065 -1.8160  1.2458 -2.2081
 9300SOL    HW239363   1.031   3.500   4.997  0.2706  1.9523  1.3418
 9301SOL     OW39364   0.470   3.602   8.392 -0.6265 -0.1121 -0.0207
 9301SOL    HW139365   0.395   3.558   8.433 -1.2865  0.7121 -0.3516
 9301SOL    HW239366   0.533   3.532   8.407 -0.1464  0.6007  1.3425
 9302SOL     OW39367   3.148   0.048   8.649  0.5052 -0.0728 -0.0169
 9302SOL    HW139368   3.193   4.717   8.585 -0.5714 -1.8893  0.7919
 9302SOL    HW239369   3.129   0.126   8.597  0.5191 -1.2935 -1.8347
 9303SOL     OW39370   4.435   3.231   4.036 -0.2467  0.7962 -0.1172
 9303SOL    HW139371   4.402   3.203   4.121 -0.9585  0.1984 -0.5888
 9303SOL    HW239372   4.527   3.203   4.035 -0.3747  0.3929 -0.4820
 9304SOL     OW39373   2.164   1.100   0.313  0.0654  0.1689  0.0789
 9304SOL    HW139374   2.127   1.027   0.264  1.8945 -0.3086 -0.5633
 9304SOL    HW239375   2.226   1.045   0.360 -0.8378 -0.3303  0.6748
 9305SOL     OW39376   3.960   1.990   3.256  0.5125  0.2030  0.5219
 9305SOL    HW139377   3.898   1.922   3.230  2.2483 -1.3411  0.3819
 9305SOL    HW239378   3.901   2.064   3.271 -1.1448 -0.8451 -0.8121
 9306SOL     OW39379   3.092   3.552  17.442  0.4884 -0.2085  0.2720
 9306SOL    HW139380   3.083   3.566  17.537  1.6807 -0.1107  0.3723
 9306SOL    HW239381   3.020   3.610  17.419  0.8304  0.0510 -0.1315
 9307SOL     OW39382   0.618   2.284   9.818 -0.6001 -0.0683  0.1153
 9307SOL    HW139383   0.592   2.285   9.910 -2.4108  1.1089 -0.4150
 9307SOL    HW239384   0.648   2.374   9.816 -0.1773 -0.2541 -1.9421
 9308SOL     OW39385   4.415   2.504   9.171 -0.5598  0.2485  0.2298
 9308SOL    HW139386   4.472   2.548   9.108 -0.1038 -1.3815 -0.4969
 9308SOL    HW239387   4.464   2.514   9.253 -1.8646 -1.2659  1.1860
 9309SOL     OW39388   4.243   3.934   4.257  0.2364  0.0538 -0.0521
 9309SOL    HW139389   4.161   3.975   4.230  0.7862  1.8100  0.9193
 9309SOL    HW239390   4.277   3.900   4.175  0.0137 -0.0033 -0.1211
 9310SOL     OW39391   1.620   0.054   2.331  0.4209 -0.0486  0.3885
 9310SOL    HW139392   1.529   0.047   2.360  0.2269  0.9913  0.0321
 9310SOL    HW239393   1.660   0.111   2.395 -0.6806 -0.4640  1.4509
 9311SOL     OW39394   2.091   1.390   9.403  0.7669 -0.5192  0.0322
 9311SOL    HW139395   2.082   1.414   9.495 -1.0783  1.2339 -0.5993
 9311SOL    HW239396   2.072   1.296   9.407 -1.0062 -0.2124 -1.0073
 9312SOL     OW39397   3.766   1.394   9.633  0.1239  0.5923 -0.1531
 9312SOL    HW139398   3.823   1.345   9.692 -1.3534 -1.5108 -0.4964
 9312SOL    HW239399   3.773   1.346   9.551  1.3777 -0.6892  0.7105
 9313SOL     OW39400   1.925   1.220  13.319 -0.4882  0.0223  0.6682
 9313SOL    HW139401   1.844   1.190  13.280 -0.3689  1.4534 -0.6717
 9313SOL    HW239402   1.893   1.237  13.408 -0.7643  1.5070  0.2971
 9314SOL     OW39403   3.771   1.688   3.655 -0.6743  0.1162 -0.5980
 9314SOL    HW139404   3.822   1.616   3.618 -0.0792 -0.9942  2.3463
 9314SOL    HW239405   3.740   1.735   3.577  0.0797  2.9993  0.8326
 9315SOL     OW39406   1.136   0.613   9.046 -0.1663 -0.2601 -0.0286
 9315SOL    HW139407   1.185   0.626   9.128 -0.5231  1.9400 -0.1716
 9315SOL    HW239408   1.188   0.650   8.976  0.9331  0.1978  1.0262
 9316SOL     OW39409   2.465   4.300   4.759  0.3456  0.3629 -0.4436
 9316SOL    HW139410   2.403   4.371   4.742 -2.7675 -2.4055 -0.7503
 9316SOL    HW239411   2.538   4.344   4.802  1.1944 -0.1024 -1.4243
 9317SOL     OW39412   3.793   4.675  11.803 -1.2251  0.0808 -0.3074
 9317SOL    HW139413   3.866   4.639  11.854 -0.0149  0.5903 -1.6695
 9317SOL    HW239414   3.712   4.635  11.833 -0.4148 -3.6799 -3.1801
 9318SOL     OW39415   1.405   4.461  11.250  0.0839  0.6637  0.3067
 9318SOL    HW139416   1.473   4.395  11.258 -0.7872 -0.4435 -1.3041
 9318SOL    HW239417   1.429   4.497  11.164 -0.9762 -1.8979 -1.0724
 9319SOL     OW39418   1.897   0.751   8.793  0.3070 -0.4275  0.0797
 9319SOL    HW139419   1.956   0.777   8.864 -0.6185  0.2477  0.6074
 9319SOL    HW239420   1.922   0.659   8.786 -0.6811 -0.8023  1.4060
 9320SOL     OW39421   4.535   1.763  15.076  0.2050  0.0302  0.2811
 9320SOL    HW139422   4.591   1.832  15.040  0.2484 -0.3384 -0.3602
 9320SOL    HW239423   4.464   1.757  15.012 -0.5750  0.5215  1.1048
 9321SOL     OW39424   1.937   4.138   3.959  0.1740 -0.7478  0.0031
 9321SOL    HW139425   1.854   4.149   4.006  1.5039  1.4749  1.8385
 9321SOL    HW239426   1.917   4.179   3.875  0.4453  0.1805  0.3960
 9322SOL     OW39427   1.568   1.140   1.254 -0.3277 -0.0876  0.0749
 9322SOL    HW139428   1.601   1.201   1.188 -1.6302  0.6122  0.0694
 9322SOL    HW239429   1.562   1.192   1.334  1.1305  0.3049 -0.0691
 9323SOL     OW39430   3.802   2.561  16.563 -0.4225  0.4836 -0.3028
 9323SOL    HW139431   3.830   2.626  16.628 -0.7712  2.7059 -2.3688
 9323SOL    HW239432   3.707   2.562  16.578 -0.4701 -0.5906 -0.5436
 9324SOL     OW39433   4.052   2.300  15.110  0.2611  0.3612  0.4293
 9324SOL    HW139434   4.086   2.271  15.194  0.0877 -0.2062  0.3009
 9324SOL    HW239435   4.121   2.356  15.075 -0.1494  1.3525  1.1701
 9325SOL     OW39436   3.249   2.403   1.847  0.5038  0.5990  0.1738
 9325SOL    HW139437   3.255   2.352   1.928 -1.8170  1.5268  0.9435
 9325SOL    HW239438   3.339   2.413   1.818 -0.3822  1.2309 -2.3791
 9326SOL     OW39439   2.932   3.427   0.631  0.3050  0.9374 -0.3629
 9326SOL    HW139440   2.947   3.520   0.617 -0.2919  0.8819 -1.4035
 9326SOL    HW239441   2.837   3.431   0.644  0.2628  0.5918 -0.5489
 9327SOL     OW39442   3.870   4.504   5.688  0.0517  0.8623  0.1621
 9327SOL    HW139443   3.953   4.507   5.640 -0.8521  1.3070 -1.3653
 9327SOL    HW239444   3.911   4.503   5.774  0.2542 -2.5788  0.0455
 9328SOL     OW39445   2.680   3.783  12.009 -0.0518 -0.4155  0.0386
 9328SOL    HW139446   2.659   3.788  11.916 -1.3284 -1.6284  0.2635
 9328SOL    HW239447   2.694   3.872  12.040  2.4229 -1.1540  1.0894
 9329SOL     OW39448   4.157   3.809   9.443 -0.1647  0.0446  0.0231
 9329SOL    HW139449   4.192   3.836   9.528  1.0515 -2.7846  0.4026
 9329SOL    HW239450   4.217   3.736   9.428  1.4356  1.5072 -0.6948
 9330SOL     OW39451   2.801   3.659  11.542  0.3055  0.4848 -0.1030
 9330SOL    HW139452   2.743   3.583  11.531  1.9620 -0.5417 -1.7410
 9330SOL    HW239453   2.755   3.731  11.500 -3.0375 -2.4891 -1.6035
 9331SOL     OW39454   2.425   0.871  14.898 -0.1134 -0.1242  0.0435
 9331SOL    HW139455   2.439   0.893  14.990  2.4691  0.5000 -0.5026
 9331SOL    HW239456   2.461   0.782  14.902 -0.3836 -0.1111  2.4747
 9332SOL     OW39457   3.369   1.877   7.412  0.2175 -0.1581 -0.7835
 9332SOL    HW139458   3.375   1.839   7.324 -1.8051 -1.5426 -0.3355
 9332SOL    HW239459   3.283   1.841   7.435 -0.1009  0.3023 -1.2600
 9333SOL     OW39460   3.437   4.397   6.376  0.0242 -0.3488 -0.8224
 9333SOL    HW139461   3.404   4.320   6.330  1.0107  0.1473 -2.3310
 9333SOL    HW239462   3.515   4.370   6.424  0.0328 -0.8885 -1.1460
 9334SOL     OW39463   2.971   0.632  16.476  0.2057  0.2043  0.5742
 9334SOL    HW139464   2.904   0.700  16.490 -0.1126 -0.1883  0.9718
 9334SOL    HW239465   2.938   0.580  16.549  0.4799 -0.3204  0.3224
 9335SOL     OW39466   0.231   4.352   4.961  0.0916  0.5020 -0.3546
 9335SOL    HW139467   0.265   4.355   4.872  0.3742  0.6747 -0.2425
 9335SOL    HW239468   0.298   4.400   5.011 -0.8341  0.1193  1.2402
 9336SOL     OW39469   2.982   2.518   7.947 -0.6982 -0.4294 -0.1740
 9336SOL    HW139470   3.025   2.455   8.005  0.7755 -0.0049 -0.8104
 9336SOL    HW239471   2.925   2.548   8.018 -2.0284 -1.6760 -0.7060
 9337SOL     OW39472   4.721   0.219   7.806  0.5028  0.3596 -0.4618
 9337SOL    HW139473   4.649   0.242   7.865 -0.2063  1.1866 -1.6711
 9337SOL    HW239474   4.711   0.124   7.817 -2.3666  0.4992 -1.9061
 9338SOL     OW39475   4.363   3.020   9.050 -0.2414 -0.3659 -0.3996
 9338SOL    HW139476   4.320   3.103   9.071  1.2115 -0.0434  1.3332
 9338SOL    HW239477   4.445   3.021   9.100 -0.7797 -0.9962  0.5137
 9339SOL     OW39478   1.944   3.186  12.629 -0.1303 -0.0856 -0.1796
 9339SOL    HW139479   2.036   3.202  12.651  0.8045 -0.9227 -3.4179
 9339SOL    HW239480   1.907   3.274  12.630  0.1322  0.0193  0.1958
 9340SOL     OW39481   0.215   2.328   1.607 -0.9534 -0.2090  0.0643
 9340SOL    HW139482   0.270   2.274   1.549  0.3591 -1.0820  2.1168
 9340SOL    HW239483   0.224   2.271   1.683 -1.1864 -1.9334 -1.1822
 9341SOL     OW39484   3.533   1.859  15.832 -0.2864 -0.6769  0.6307
 9341SOL    HW139485   3.625   1.836  15.846 -0.1402 -0.1154  0.5861
 9341SOL    HW239486   3.504   1.789  15.774 -1.1203  0.4790 -0.3610
 9342SOL     OW39487   3.602   3.533   7.348  0.0238 -0.0944  0.1239
 9342SOL    HW139488   3.544   3.585   7.404  0.2347 -1.0166  1.2013
 9342SOL    HW239489   3.678   3.534   7.406 -0.1433 -0.4584  0.3501
 9343SOL     OW39490   1.188   0.653   4.658 -0.0888  0.2913 -0.2006
 9343SOL    HW139491   1.096   0.679   4.660 -0.3834 -0.8518  1.0020
 9343SOL    HW239492   1.178   0.573   4.710  0.3664  0.6771  0.4701
 9344SOL     OW39493   2.122   2.867  16.036  0.6706 -0.3800 -0.3565
 9344SOL    HW139494   2.138   2.951  15.994  0.7918 -0.9892 -1.5457
 9344SOL    HW239495   2.029   2.854  16.017  0.5379 -0.3316  0.2705
 9345SOL     OW39496   0.928   0.075   8.559 -0.5284 -0.1821 -0.1541
 9345SOL    HW139497   0.858   0.127   8.519 -2.2996 -1.9060  0.6668
 9345SOL    HW239498   0.965   0.038   8.479 -0.8357 -1.2815  0.2053
 9346SOL     OW39499   4.707   4.121   8.248  0.6401  0.2220  0.4471
 9346SOL    HW139500   0.044   4.075   8.306  0.5752 -1.0860 -0.5258
 9346SOL    HW239501   0.042   4.156   8.181  1.9621  0.9266  2.0034
 9347SOL     OW39502   3.503   1.353   7.365  0.1359  0.4200 -0.3567
 9347SOL    HW139503   3.574   1.364   7.428  0.3472  2.9021 -1.0359
 9347SOL    HW239504   3.436   1.404   7.410 -1.5899 -3.3488  1.3114
 9348SOL     OW39505   1.663   0.783   7.547 -0.0809 -0.1157 -1.1725
 9348SOL    HW139506   1.662   0.843   7.621  0.2980 -0.6827 -0.7069
 9348SOL    HW239507   1.607   0.711   7.574 -1.2476 -0.0722 -3.4624
 9349SOL     OW39508   3.406   3.554   2.043  0.4656 -0.0864 -0.1832
 9349SOL    HW139509   3.440   3.643   2.051  0.2183  0.0864 -0.9643
 9349SOL    HW239510   3.486   3.509   2.015  0.7243 -0.3171  0.9441
 9350SOL     OW39511   0.997   3.065   5.035  1.0422 -0.2672  0.6395
 9350SOL    HW139512   0.949   2.983   5.032 -1.3021  1.1647 -1.4756
 9350SOL    HW239513   1.017   3.091   4.945 -0.4998  1.5494  0.8161
 9351SOL     OW39514   4.556   3.079   6.368 -0.4440 -0.5330  0.5380
 9351SOL    HW139515   4.469   3.106   6.397 -0.4931 -1.6554  1.3844
 9351SOL    HW239516   4.544   2.985   6.381 -0.9171 -0.2420  2.2116
 9352SOL     OW39517   2.478   4.088  17.583  0.4281  0.0031 -0.4573
 9352SOL    HW139518   2.384   4.069  17.580  0.4694 -0.5140  1.8131
 9352SOL    HW239519   2.499   4.031  17.508  2.3535 -0.6465  0.5765
 9353SOL     OW39520   2.803   2.831   3.522 -0.6045 -0.0542  0.3931
 9353SOL    HW139521   2.842   2.810   3.437 -1.1611 -3.5019  0.9979
 9353SOL    HW239522   2.875   2.822   3.585  0.0463 -3.6466 -0.8655
 9354SOL     OW39523   0.100   1.227   4.340 -0.2868 -0.3656 -0.2863
 9354SOL    HW139524   0.036   1.171   4.297  0.5916  0.5623 -2.8106
 9354SOL    HW239525   0.137   1.269   4.262 -0.7206  0.3444 -0.1135
 9355SOL     OW39526   2.781   0.325  16.080 -0.1061  0.3967  0.2298
 9355SOL    HW139527   2.862   0.326  16.030  0.4443  0.5135  1.1334
 9355SOL    HW239528   2.803   0.264  16.150 -2.1995 -1.7675 -0.9678
 9356SOL     OW39529   1.990   0.708   5.750 -0.8558  0.1992  0.0178
 9356SOL    HW139530   1.963   0.764   5.823 -0.5366 -0.4558  0.6413
 9356SOL    HW239531   2.002   0.624   5.793  2.1204  0.9210  0.6511
 9357SOL     OW39532   1.975   1.337   3.024 -0.7668 -0.1576  0.4925
 9357SOL    HW139533   2.009   1.265   3.078 -0.6485  0.8143  1.7108
 9357SOL    HW239534   1.923   1.274   2.975  0.6184 -0.1624 -0.9566
 9358SOL     OW39535   2.084   3.303   4.065  0.7715 -0.7596  0.2705
 9358SOL    HW139536   2.179   3.294   4.053  0.4887  1.0991 -3.1911
 9358SOL    HW239537   2.043   3.286   3.981 -0.0140  2.0426  0.1044
 9359SOL     OW39538   2.651   0.782   3.316 -0.6667 -0.2538  0.1907
 9359SOL    HW139539   2.566   0.759   3.276 -1.1530  0.6204  0.7309
 9359SOL    HW239540   2.694   0.696   3.310 -2.1194 -0.8682 -1.4680
 9360SOL     OW39541   1.695   4.438   9.467  0.1890 -0.0501  0.2190
 9360SOL    HW139542   1.627   4.372   9.478  2.1418 -2.2128 -0.6451
 9360SOL    HW239543   1.765   4.380   9.436  0.4566  0.2750  0.2169
 9361SOL     OW39544   0.656   4.521   8.153  0.4603  0.1183  0.0910
 9361SOL    HW139545   0.661   4.425   8.152  1.3151  0.1724 -1.8089
 9361SOL    HW239546   0.728   4.545   8.094  1.0850 -0.0401  0.7834
 9362SOL     OW39547   3.724   2.642   2.242  0.1378  0.1173  0.6325
 9362SOL    HW139548   3.818   2.622   2.242 -0.6264 -3.5811 -2.4516
 9362SOL    HW239549   3.697   2.611   2.156  2.4485  1.4546 -0.5847
 9363SOL     OW39550   3.690   0.497   3.140  0.0087 -0.2116  0.1722
 9363SOL    HW139551   3.734   0.582   3.144 -1.3255  0.5308 -0.7320
 9363SOL    HW239552   3.699   0.479   3.234  0.8571 -1.6328 -0.1822
 9364SOL     OW39553   3.960   0.203   7.579 -0.1967 -0.5655 -0.0880
 9364SOL    HW139554   4.036   0.258   7.599  0.7710 -1.9440 -0.0208
 9364SOL    HW239555   3.997   0.115   7.570  0.7896  0.0243 -1.9338
 9365SOL     OW39556   2.623   1.839  15.427 -0.1123  0.3284  0.6042
 9365SOL    HW139557   2.538   1.865  15.391  1.7555 -0.5734 -4.5011
 9365SOL    HW239558   2.594   1.764  15.478  0.3194 -1.6017 -1.9691
 9366SOL     OW39559   2.941   0.969   4.688 -0.2778  0.2212 -0.1778
 9366SOL    HW139560   2.968   0.930   4.771 -0.1033  0.1640 -0.2621
 9366SOL    HW239561   2.849   0.983   4.708 -0.5251 -0.1342 -1.0777
 9367SOL     OW39562   0.485   3.356   7.787  0.2578 -0.3218 -0.0654
 9367SOL    HW139563   0.568   3.321   7.819 -0.5756 -2.9213 -0.7143
 9367SOL    HW239564   0.455   3.288   7.726  3.1450 -1.9061  0.2342
 9368SOL     OW39565   4.412   3.125   0.522 -0.1247  0.5972 -0.4785
 9368SOL    HW139566   4.499   3.105   0.557 -0.3322  0.0257 -0.2899
 9368SOL    HW239567   4.419   3.089   0.434 -2.1096 -0.2643 -0.2732
 9369SOL     OW39568   1.040   0.377   3.122  0.0806  0.0848  0.2577
 9369SOL    HW139569   1.035   0.391   3.217 -0.4644 -0.8692  0.3676
 9369SOL    HW239570   1.012   0.465   3.097  0.3367  0.4820  1.3318
 9370SOL     OW39571   3.531   0.710   7.200 -1.1010  0.7513 -0.0562
 9370SOL    HW139572   3.494   0.623   7.195  2.2792 -0.6594 -0.8388
 9370SOL    HW239573   3.554   0.731   7.109  0.2613 -1.7120 -0.2747
 9371SOL     OW39574   1.715   1.058  11.934  0.5559 -0.7807 -0.1025
 9371SOL    HW139575   1.785   1.076  11.997  0.5216 -1.4903  0.1429
 9371SOL    HW239576   1.641   1.097  11.981  2.4564 -0.9036  3.0216
 9372SOL     OW39577   0.971   0.836   4.062 -0.0644 -0.1111 -0.1619
 9372SOL    HW139578   0.932   0.748   4.070  0.7410 -0.2534  2.1543
 9372SOL    HW239579   0.897   0.894   4.077  0.1021 -0.1307  0.7588
 9373SOL     OW39580   3.405   0.163   9.066 -0.1059  0.6917 -0.2225
 9373SOL    HW139581   3.466   0.209   9.123  1.2873 -1.9410  0.3686
 9373SOL    HW239582   3.409   0.194   8.975 -1.5235 -1.0851 -0.9020
 9374SOL     OW39583   4.678   0.841   9.378 -0.0174 -0.2619 -0.0151
 9374SOL    HW139584   0.037   0.884   9.397  0.1556 -1.2686  1.4439
 9374SOL    HW239585   4.621   0.909   9.413  0.6475  0.8103 -0.9688
 9375SOL     OW39586   0.009   1.453   5.249 -0.0362  0.1236 -0.3078
 9375SOL    HW139587   0.003   1.526   5.310 -1.7360  0.3459 -0.7340
 9375SOL    HW239588   0.048   1.505   5.179  1.4867 -1.1656 -0.4151
 9376SOL     OW39589   2.023   4.385   9.663 -0.0370 -0.4863 -0.2225
 9376SOL    HW139590   2.086   4.325   9.625  3.2605  2.5322  0.5174
 9376SOL    HW239591   2.072   4.403   9.743  0.7839 -1.0711 -0.6037
 9377SOL     OW39592   1.657   4.475   2.594  0.2612 -0.4975  0.3009
 9377SOL    HW139593   1.741   4.491   2.637  0.2187  4.9575 -1.5682
 9377SOL    HW239594   1.660   4.381   2.577 -0.9450 -0.1579 -1.7476
 9378SOL     OW39595   1.165   3.068   9.071 -0.4219 -0.1388 -0.7338
 9378SOL    HW139596   1.196   3.136   9.131 -0.2759  0.9918 -2.0839
 9378SOL    HW239597   1.085   3.043   9.117  0.4302 -3.7857 -1.2458
 9379SOL     OW39598   4.609   2.664  11.357  0.3302  0.2089 -0.0128
 9379SOL    HW139599   4.685   2.629  11.403 -0.6839 -1.1534  0.6283
 9379SOL    HW239600   4.554   2.587  11.343  0.5847  0.0531 -0.1365
 9380SOL     OW39601   4.186   1.909  14.314  0.3418 -0.2882 -0.9632
 9380SOL    HW139602   4.240   1.975  14.271 -0.4735  1.4717  0.6862
 9380SOL    HW239603   4.244   1.833  14.318 -2.3225 -2.2045  0.9831
 9381SOL     OW39604   0.853   3.670   9.798  0.2618 -0.6786  0.1176
 9381SOL    HW139605   0.869   3.612   9.723 -1.0775 -0.9407  0.0262
 9381SOL    HW239606   0.867   3.755   9.756 -2.1604 -0.0220  0.6591
 9382SOL     OW39607   1.645   3.988   6.555  0.1036  0.1081  0.2151
 9382SOL    HW139608   1.629   4.034   6.637  2.0823 -0.3004  0.8375
 9382SOL    HW239609   1.639   4.055   6.487 -3.5407 -1.7630 -1.2798
 9383SOL     OW39610   1.537   1.686   1.779 -0.4072  0.2254  0.7033
 9383SOL    HW139611   1.508   1.774   1.804 -0.2878  0.9804 -1.7811
 9383SOL    HW239612   1.531   1.696   1.684 -2.8349  0.3482  0.8666
 9384SOL     OW39613   2.917   3.960   7.066 -0.4579  0.5483  0.1340
 9384SOL    HW139614   2.940   3.976   7.157  1.4585  2.5760 -0.7117
 9384SOL    HW239615   2.993   3.990   7.016 -1.4048  1.3813 -0.8280
 9385SOL     OW39616   0.294   1.091   8.397 -0.2640  0.3671  0.1990
 9385SOL    HW139617   0.388   1.086   8.414 -0.0561 -0.5538 -1.1647
 9385SOL    HW239618   0.295   1.175   8.352 -0.4895  0.9045  1.1983
 9386SOL     OW39619   0.370   1.067   7.239 -0.6336 -0.4269  0.1943
 9386SOL    HW139620   0.320   0.991   7.270  1.4537 -1.0831  1.9176
 9386SOL    HW239621   0.448   1.048   7.290  0.6539  1.9599 -0.8873
 9387SOL     OW39622   0.204   4.678   4.635 -0.1224 -0.2504  0.3426
 9387SOL    HW139623   0.250   4.595   4.623 -0.5575 -0.3694 -0.5530
 9387SOL    HW239624   0.166   4.663   4.721  0.4287  1.0036  0.7933
 9388SOL     OW39625   4.106   2.506   0.433  0.2470  0.1240 -0.0761
 9388SOL    HW139626   4.035   2.456   0.474  1.9263 -0.9058  1.6031
 9388SOL    HW239627   4.161   2.436   0.399  2.0985  1.0686  0.9554
 9389SOL     OW39628   1.971   3.178   9.156 -0.8518  0.3260  0.0938
 9389SOL    HW139629   1.971   3.191   9.251 -2.2207 -0.0006  0.1482
 9389SOL    HW239630   2.046   3.120   9.151 -1.1942  0.0549 -1.8884
 9390SOL     OW39631   1.934   1.382   8.810  0.3231  0.4581 -0.3011
 9390SOL    HW139632   1.884   1.359   8.731  2.6090  1.0136 -1.9045
 9390SOL    HW239633   1.885   1.461   8.833 -1.2712 -0.0617 -1.8965
 9391SOL     OW39634   0.839   1.272   8.100 -0.2825 -0.0494  0.3954
 9391SOL    HW139635   0.795   1.197   8.141 -0.9066 -0.0439 -0.2520
 9391SOL    HW239636   0.761   1.326   8.090 -1.2597 -1.1679  1.9802
 9392SOL     OW39637   1.651   3.941   3.869 -0.1801 -0.1465 -0.5795
 9392SOL    HW139638   1.578   3.982   3.914  0.4962 -0.2767  0.6457
 9392SOL    HW239639   1.649   3.976   3.780  0.8976  0.4963 -0.3582
 9393SOL     OW39640   3.824   2.816   7.896 -0.0378  0.1320  0.1410
 9393SOL    HW139641   3.770   2.779   7.826 -0.3021 -1.4068  1.1725
 9393SOL    HW239642   3.770   2.872   7.952  1.7435  1.7366  0.2609
 9394SOL     OW39643   4.043   4.428   4.970 -0.0590 -0.0793  0.1733
 9394SOL    HW139644   4.060   4.521   4.955 -1.8857 -0.4033 -3.7892
 9394SOL    HW239645   3.974   4.404   4.908  0.7746 -0.4250 -0.6121
 9395SOL     OW39646   1.948   0.593   7.311 -0.1642  0.0001  0.8462
 9395SOL    HW139647   2.039   0.618   7.328 -0.3837  1.3251  0.0877
 9395SOL    HW239648   1.892   0.657   7.355  1.5913  1.7008  0.6078
 9396SOL     OW39649   2.904   3.298   2.870 -0.1216 -0.0902 -0.0904
 9396SOL    HW139650   2.882   3.329   2.783 -0.0890  1.6801  0.5352
 9396SOL    HW239651   2.994   3.266   2.858 -0.1367 -1.0526  2.1955
 9397SOL     OW39652   3.971   4.566   6.352 -0.9301 -0.0987  0.0536
 9397SOL    HW139653   4.009   4.629   6.413 -1.0216 -0.1464  0.1584
 9397SOL    HW239654   4.007   4.595   6.268 -1.7779  0.5154 -0.1006
 9398SOL     OW39655   3.716   0.287   2.778  0.0000 -0.3539 -0.2980
 9398SOL    HW139656   3.798   0.289   2.730 -0.6573 -2.6465 -1.5318
 9398SOL    HW239657   3.742   0.240   2.857 -0.5105 -1.7246 -0.9550
 9399SOL     OW39658   4.207   2.532   1.929 -0.7286  0.6030 -0.1596
 9399SOL    HW139659   4.299   2.514   1.950 -0.7321  1.0237  0.2289
 9399SOL    HW239660   4.228   2.600   1.866 -1.2060  0.5812 -0.3396
 9400SOL     OW39661   4.151   1.596  14.450 -0.5517  0.1482 -0.2965
 9400SOL    HW139662   4.063   1.578  14.482  0.0253 -0.6714  0.8385
 9400SOL    HW239663   4.144   1.581  14.356  0.2303  1.7361 -0.6051
 9401SOL     OW39664   0.209   2.642  14.148 -0.5799  0.0494 -0.2055
 9401SOL    HW139665   0.201   2.731  14.184 -0.4940 -0.3620  0.8349
 9401SOL    HW239666   0.299   2.650  14.115 -0.9898 -1.6455 -1.6873
 9402SOL     OW39667   1.208   0.142   0.366  0.4951  0.1244 -0.4646
 9402SOL    HW139668   1.224   0.062   0.314  0.1627 -0.8771  0.9786
 9402SOL    HW239669   1.113   0.148   0.371  0.3771 -0.9919 -1.3741
 9403SOL     OW39670   3.272   4.011   0.892 -0.2419  0.7731 -0.0658
 9403SOL    HW139671   3.286   3.917   0.908 -1.3791  1.0213  2.3310
 9403SOL    HW239672   3.288   4.011   0.797  0.3467 -0.5657  0.0282
 9404SOL     OW39673   3.008   4.395   4.161 -0.5139 -0.1219  0.1520
 9404SOL    HW139674   2.915   4.414   4.152 -0.4395 -0.1500 -0.6266
 9404SOL    HW239675   3.034   4.467   4.220  2.0747 -2.5541  1.9687
 9405SOL     OW39676   2.994   0.512  12.422  0.2341  0.4020  0.6850
 9405SOL    HW139677   2.994   0.607  12.435  1.0141  0.0437  3.2127
 9405SOL    HW239678   3.059   0.513  12.352 -0.0595 -0.9307  0.4018
 9406SOL     OW39679   1.158   1.870   2.543 -0.1817 -0.0009 -0.5863
 9406SOL    HW139680   1.151   1.944   2.482 -1.2248 -1.1835 -1.9088
 9406SOL    HW239681   1.125   1.796   2.491  1.1027 -1.9315  1.3735
 9407SOL     OW39682   4.230   4.536  16.940  0.6529 -0.0991 -0.2831
 9407SOL    HW139683   4.200   4.626  16.956 -0.1326 -0.3847 -0.1521
 9407SOL    HW239684   4.290   4.557  16.868  2.2741 -0.9984  0.8179
 9408SOL     OW39685   3.318   3.755  16.404 -0.2888 -0.0684 -0.2175
 9408SOL    HW139686   3.355   3.770  16.317  0.1485  1.6091  0.2546
 9408SOL    HW239687   3.254   3.826  16.412 -0.4986 -0.3761  0.8091
 9409SOL     OW39688   2.989   4.093   0.282  0.4731 -0.0528  0.0070
 9409SOL    HW139689   3.050   4.163   0.306  1.4002 -0.2907 -1.6459
 9409SOL    HW239690   2.916   4.143   0.246 -0.1753 -0.4637  0.7419
 9410SOL     OW39691   3.653   0.323   4.562  0.2874 -0.5897  0.0394
 9410SOL    HW139692   3.615   0.334   4.649  0.0679  1.5175 -0.3178
 9410SOL    HW239693   3.745   0.305   4.580  0.4474  0.7968  0.5898
 9411SOL     OW39694   3.964   3.410   4.865  0.1080 -0.1744  0.3847
 9411SOL    HW139695   3.894   3.397   4.928 -1.7885  1.4146 -1.3672
 9411SOL    HW239696   4.014   3.331   4.887  0.8848  0.7026  1.7380
 9412SOL     OW39697   0.191   4.068   4.642 -0.0942 -0.0466 -0.3354
 9412SOL    HW139698   0.171   4.007   4.571 -1.3114 -2.3060  1.9267
 9412SOL    HW239699   0.115   4.126   4.647 -1.9860 -2.4710 -0.7511
 9413SOL     OW39700   1.336   0.970   6.085  0.0234 -0.3567  0.3741
 9413SOL    HW139701   1.265   0.933   6.033  1.8750 -1.5091 -1.3486
 9413SOL    HW239702   1.392   0.893   6.076 -1.8418 -1.6296 -0.4593
 9414SOL     OW39703   4.562   0.888   7.910  0.2440  0.2447 -0.2043
 9414SOL    HW139704   4.523   0.808   7.944  0.9509 -0.6529 -1.4959
 9414SOL    HW239705   4.573   0.944   7.987 -1.9894 -0.0096  0.3002
 9415SOL     OW39706   2.386   3.465   4.439  0.1364  0.0125  0.4582
 9415SOL    HW139707   2.400   3.487   4.531 -0.1483  2.0651  0.0072
 9415SOL    HW239708   2.454   3.406   4.408  1.3906  1.2356  0.8710
 9416SOL     OW39709   4.591   3.986   7.991  0.0106  0.4038  0.6174
 9416SOL    HW139710   4.665   3.926   7.999  0.0471  0.8400  3.7428
 9416SOL    HW239711   4.591   4.020   8.081 -1.4808  0.2003  0.7016
 9417SOL     OW39712   1.523   3.457  12.839  0.4074 -0.1005 -0.1933
 9417SOL    HW139713   1.484   3.513  12.772 -1.8900 -0.4287  0.8673
 9417SOL    HW239714   1.457   3.388  12.840  0.0474  0.1945 -3.0127
 9418SOL     OW39715   0.046   4.677   3.730  0.3453  0.2341  0.0577
 9418SOL    HW139716   0.101   4.635   3.796 -1.9010 -1.4507  0.8924
 9418SOL    HW239717   0.104   4.702   3.659 -2.4181  1.1362 -1.9049
 9419SOL     OW39718   2.656   3.520   5.600 -0.3419 -0.2566 -0.4139
 9419SOL    HW139719   2.663   3.458   5.528 -2.3834 -0.7120 -0.2094
 9419SOL    HW239720   2.747   3.548   5.612 -0.3219 -0.1079 -0.9142
 9420SOL     OW39721   1.868   0.078   9.357 -0.6401  0.2738  0.3574
 9420SOL    HW139722   1.874   0.009   9.423  2.0125 -0.1476 -0.3128
 9420SOL    HW239723   1.956   0.081   9.319 -0.8737  0.0574 -0.2184
 9421SOL     OW39724   1.098   4.635   1.082  0.0188 -0.4432  0.6413
 9421SOL    HW139725   1.030   4.600   1.025  1.4969 -1.5999 -0.4156
 9421SOL    HW239726   1.097   0.002   1.051  0.5167 -0.0182  1.8796
 9422SOL     OW39727   4.667   1.358  12.598 -0.1258  0.0791 -0.1578
 9422SOL    HW139728   4.635   1.285  12.544  2.7879  0.4949 -2.4331
 9422SOL    HW239729   4.680   1.321  12.685  0.6554  1.7261  0.4121
 9423SOL     OW39730   3.725   1.079   2.075  0.4669  0.8379  0.7849
 9423SOL    HW139731   3.755   1.150   2.017 -2.1504  0.4993 -1.0000
 9423SOL    HW239732   3.807   1.059   2.119  0.1210 -0.0847  0.9964
 9424SOL     OW39733   1.771   0.465  10.066  0.0393  0.2599 -0.0876
 9424SOL    HW139734   1.760   0.373  10.043 -0.4684  0.8350 -2.0775
 9424SOL    HW239735   1.863   0.473  10.038 -0.3208 -0.6897 -1.5513
 9425SOL     OW39736   0.886   4.081   9.433  0.0997 -0.1883 -0.2185
 9425SOL    HW139737   0.949   4.114   9.498 -1.4444 -1.0565  1.7063
 9425SOL    HW239738   0.882   3.989   9.459  0.9651 -0.1065  0.2203
 9426SOL     OW39739   0.808   1.373   6.534 -0.0856  0.6354 -0.0032
 9426SOL    HW139740   0.788   1.465   6.517  2.7950  1.7499  2.6140
 9426SOL    HW239741   0.818   1.362   6.629  2.0481 -1.6533 -0.4712
 9427SOL     OW39742   3.409   2.492   8.839  0.7786 -0.2435  0.2522
 9427SOL    HW139743   3.436   2.431   8.907  1.8644 -0.5804 -0.4878
 9427SOL    HW239744   3.422   2.431   8.767 -0.3048 -0.2461  0.0613
 9428SOL     OW39745   0.218   3.186  12.863 -0.3831 -0.4979 -0.2988
 9428SOL    HW139746   0.281   3.141  12.806  1.1209 -1.2533  1.9326
 9428SOL    HW239747   0.272   3.177  12.941 -0.3344  1.1731 -0.1414
 9429SOL     OW39748   4.138   2.371   0.181  0.5876 -0.1924  0.2731
 9429SOL    HW139749   4.164   2.344   0.092 -0.7316 -0.1977 -0.1072
 9429SOL    HW239750   4.102   2.458   0.161  3.0322  0.1005 -3.0357
 9430SOL     OW39751   4.039   0.131   2.802  0.3373  0.3641 -0.5224
 9430SOL    HW139752   4.091   0.051   2.793 -0.0478  0.0004  0.5488
 9430SOL    HW239753   3.961   0.097   2.846  0.8842  0.1009  0.2437
 9431SOL     OW39754   3.363   1.142   2.799 -0.3777 -0.1329  0.0186
 9431SOL    HW139755   3.407   1.213   2.845  0.2656  1.5045 -3.1399
 9431SOL    HW239756   3.278   1.128   2.841  0.2277  2.2099  2.0588
 9432SOL     OW39757   4.718   0.540  13.807 -0.4841  0.7763  0.0633
 9432SOL    HW139758   4.652   0.475  13.833 -0.7182  0.7877 -0.5142
 9432SOL    HW239759   4.711   0.529  13.712  0.2065 -1.0620  0.2172
 9433SOL     OW39760   0.417   4.514   8.012 -0.1471 -0.4338  0.3384
 9433SOL    HW139761   0.430   4.459   7.935  1.7327  1.6462 -0.8559
 9433SOL    HW239762   0.493   4.498   8.068  0.1328 -1.6167 -0.3720
 9434SOL     OW39763   3.906   2.266  13.383  0.1087 -0.2613 -0.0998
 9434SOL    HW139764   3.961   2.278  13.306 -0.9945 -2.0018 -1.1722
 9434SOL    HW239765   3.960   2.287  13.459 -0.0852 -0.3335  0.0601
 9435SOL     OW39766   4.594   0.093   4.568  0.6470  0.6173  0.0047
 9435SOL    HW139767   4.613   0.016   4.621  1.7208  1.4459  0.8238
 9435SOL    HW239768   4.662   0.149   4.607  2.4548 -1.0004 -0.8481
 9436SOL     OW39769   4.297   1.683  13.217  0.7925  0.0944  0.2973
 9436SOL    HW139770   4.385   1.658  13.244  0.9134 -0.0101 -0.1878
 9436SOL    HW239771   4.304   1.729  13.133  0.2268  2.0802  1.3499
 9437SOL     OW39772   4.571   0.931  14.529 -0.1499 -0.0555  0.0614
 9437SOL    HW139773   4.486   0.913  14.569 -0.7748 -0.2465 -1.3661
 9437SOL    HW239774   4.624   0.854  14.550  2.1088  1.8806  1.5365
 9438SOL     OW39775   1.237   1.097   8.203 -0.1986 -0.1307  0.2057
 9438SOL    HW139776   1.143   1.101   8.188  0.1168 -0.0812 -1.7597
 9438SOL    HW239777   1.247   1.002   8.204  0.1344 -0.0984  0.1590
 9439SOL     OW39778   1.138   2.047   9.061  0.5173  0.0456  0.4830
 9439SOL    HW139779   1.055   2.005   9.039  0.4297  0.9918 -0.9965
 9439SOL    HW239780   1.174   2.056   8.973  1.5564  0.9066  0.9946
 9440SOL     OW39781   0.325   3.761   4.402 -0.0018  0.1786  0.2569
 9440SOL    HW139782   0.359   3.718   4.324 -2.2378  2.0234 -1.7366
 9440SOL    HW239783   0.234   3.788   4.386 -0.0165  0.5511  0.9338
 9441SOL     OW39784   0.697   1.946   3.257  0.0803  0.0969 -0.1959
 9441SOL    HW139785   0.732   1.939   3.346  0.5423 -1.9474 -0.5313
 9441SOL    HW239786   0.748   1.883   3.208  0.2071 -0.0493  0.1243
 9442SOL     OW39787   0.143   3.933  17.128  0.0977 -0.4206 -0.3734
 9442SOL    HW139788   0.153   3.905  17.219  0.5886 -0.8187 -0.5525
 9442SOL    HW239789   0.230   3.930  17.089  0.2384  1.9868 -0.2917
 9443SOL     OW39790   4.274   3.298   9.022 -0.2813 -0.0817  0.1034
 9443SOL    HW139791   4.250   3.388   8.998 -0.4544  0.4148  2.1347
 9443SOL    HW239792   4.244   3.258   8.941  0.3005 -1.7008  0.6882
 9444SOL     OW39793   3.572   2.189   0.277 -0.4313 -0.1679  0.2220
 9444SOL    HW139794   3.481   2.215   0.263 -0.5351 -1.0179 -0.7110
 9444SOL    HW239795   3.566   2.096   0.253 -0.9645 -0.3923  1.2139
 9445SOL     OW39796   2.556   3.431  15.284 -0.1907 -0.1390  0.0897
 9445SOL    HW139797   2.647   3.432  15.314 -0.6724 -0.1319  1.5668
 9445SOL    HW239798   2.495   3.388  15.344 -2.1673  0.5483 -1.4329
 9446SOL     OW39799   2.088   0.266  12.816 -0.1127 -0.0415  0.3555
 9446SOL    HW139800   2.025   0.225  12.757  0.5942  0.4263 -0.7127
 9446SOL    HW239801   2.169   0.260  12.766  0.5898  0.6111  1.4148
 9447SOL     OW39802   4.016   0.080   4.170 -0.1662 -0.0515 -0.0162
 9447SOL    HW139803   4.097   0.059   4.125 -0.7766  0.8949 -1.5448
 9447SOL    HW239804   3.958   0.043   4.103 -0.0661  1.2952 -0.8444
 9448SOL     OW39805   3.347   1.248   4.360 -0.5827 -0.0268  0.2705
 9448SOL    HW139806   3.263   1.294   4.354 -1.2024 -0.8991  2.3972
 9448SOL    HW239807   3.325   1.179   4.423 -0.8760 -0.8727 -0.7374
 9449SOL     OW39808   1.732   4.171   0.182 -0.0076 -0.0892 -0.3577
 9449SOL    HW139809   1.741   4.234   0.110  1.0638  1.3621  1.0465
 9449SOL    HW239810   1.673   4.218   0.241 -0.9628  0.1426 -1.4919
 9450SOL     OW39811   0.488   2.209   2.693 -0.9995 -0.3340 -0.3369
 9450SOL    HW139812   0.401   2.168   2.697 -0.3074 -2.0127 -2.5379
 9450SOL    HW239813   0.542   2.162   2.756  1.1475  1.1149 -1.0787
 9451SOL     OW39814   0.419   4.642   0.535 -0.0769 -0.1994 -0.0989
 9451SOL    HW139815   0.449   4.556   0.507  1.7086  0.6480 -0.7630
 9451SOL    HW239816   0.386   4.686   0.456 -2.0988  2.3082  2.1343
 9452SOL     OW39817   2.546   2.654  14.881 -0.3092  0.5626  0.2621
 9452SOL    HW139818   2.490   2.723  14.916  1.1699  1.5996  0.5500
 9452SOL    HW239819   2.570   2.681  14.793 -1.9361 -1.6812 -0.9020
 9453SOL     OW39820   0.522   2.000   9.528 -0.5834  0.3667 -0.1401
 9453SOL    HW139821   0.560   2.007   9.616 -0.6518 -0.7464 -0.0244
 9453SOL    HW239822   0.545   1.914   9.494 -2.3219  0.5626 -1.8083
 9454SOL     OW39823   0.808   1.181   9.274 -0.3650  0.1961  0.1109
 9454SOL    HW139824   0.854   1.186   9.190  0.4053  0.9272  0.5725
 9454SOL    HW239825   0.719   1.199   9.245 -0.1607  1.2007  0.1057
 9455SOL     OW39826   2.517   1.726   2.670 -0.8920  0.0195  0.2193
 9455SOL    HW139827   2.461   1.648   2.673 -1.1575  0.2137  0.3010
 9455SOL    HW239828   2.493   1.749   2.580  2.3680 -2.3943 -1.2929
 9456SOL     OW39829   4.081   4.609   4.641 -0.0271 -0.2896  0.2254
 9456SOL    HW139830   4.117   4.661   4.569 -1.3934  0.7834  0.3187
 9456SOL    HW239831   4.059   4.526   4.598  1.0723 -0.2171 -0.4726
 9457SOL     OW39832   4.451   0.136  11.201  0.0796  1.0512 -0.1329
 9457SOL    HW139833   4.472   0.205  11.263 -0.1820  0.1047  1.0173
 9457SOL    HW239834   4.517   0.157  11.134  1.8379  0.2273  1.3478
 9458SOL     OW39835   4.579   4.035  14.303 -1.1782 -0.1146 -0.0108
 9458SOL    HW139836   4.638   3.964  14.328 -0.8409 -0.1422 -0.8956
 9458SOL    HW239837   4.577   4.030  14.207 -0.7285  0.8563 -0.0708
 9459SOL     OW39838   0.292   3.370  17.218 -0.3422  0.3970 -0.6714
 9459SOL    HW139839   0.373   3.358  17.168  0.3473  1.1469  0.2534
 9459SOL    HW239840   0.284   3.460  17.250 -0.0679 -0.0758  0.7534
 9460SOL     OW39841   1.167   2.483   0.953 -0.0578 -0.1104  0.5471
 9460SOL    HW139842   1.093   2.430   0.922  0.5131 -0.8585  0.4444
 9460SOL    HW239843   1.199   2.499   0.865 -1.4447 -0.2952  0.0078
 9461SOL     OW39844   4.430   4.532   8.365 -0.2708  0.3761 -0.0105
 9461SOL    HW139845   4.479   4.515   8.285  0.1931  1.4304  0.0422
 9461SOL    HW239846   4.466   4.619   8.387  0.8432 -0.2276  0.5582
 9462SOL     OW39847   1.523   2.632   8.615 -0.0296  0.2896  0.1991
 9462SOL    HW139848   1.507   2.598   8.703  1.6683  2.4544  1.3622
 9462SOL    HW239849   1.451   2.695   8.613 -0.5834 -0.4226 -3.2947
 9463SOL     OW39850   2.122   3.600  14.216  0.1493  0.5704  0.5953
 9463SOL    HW139851   2.084   3.565  14.135 -0.2987 -0.5988  1.3100
 9463SOL    HW239852   2.168   3.673  14.174  0.9001 -0.6962 -0.7788
 9464SOL     OW39853   0.221   0.917   3.017 -0.3675  0.2156 -0.6905
 9464SOL    HW139854   0.273   0.860   2.961  0.7518  2.2819 -1.7487
 9464SOL    HW239855   0.172   0.968   2.952 -0.3931  0.8575 -0.1706
 9465SOL     OW39856   1.335   3.221   4.076  0.1147 -0.0906 -0.0031
 9465SOL    HW139857   1.413   3.272   4.052 -0.0680 -0.3145 -1.0774
 9465SOL    HW239858   1.329   3.250   4.167  2.3802  2.3039 -0.5924
 9466SOL     OW39859   2.276   4.700   7.520 -0.4499 -0.1958  0.1772
 9466SOL    HW139860   2.297   0.034   7.593  0.8655 -0.8056  0.2815
 9466SOL    HW239861   2.227   4.636   7.572 -1.9723  0.5144 -0.3924
 9467SOL     OW39862   2.228   1.932   3.311 -0.2651  0.7037  0.1589
 9467SOL    HW139863   2.258   2.001   3.370  1.3024  1.2591 -1.2736
 9467SOL    HW239864   2.308   1.919   3.259  0.3538 -2.8629  1.9877
 9468SOL     OW39865   1.957   2.809   5.430 -0.8078  1.0761  0.1123
 9468SOL    HW139866   2.024   2.851   5.376 -1.4247  1.0430 -0.6741
 9468SOL    HW239867   1.911   2.757   5.364  0.5851 -0.1501  0.1125
 9469SOL     OW39868   3.960   2.891   3.146  0.1992 -0.4832  0.5674
 9469SOL    HW139869   3.866   2.901   3.134  0.2527  2.5254  2.7371
 9469SOL    HW239870   3.983   2.937   3.066 -1.7694  1.9035  1.3764
 9470SOL     OW39871   0.288   1.976   7.312  0.0371 -0.1564 -0.5817
 9470SOL    HW139872   0.373   1.956   7.351 -1.1796 -1.1951  1.5334
 9470SOL    HW239873   0.325   2.008   7.230 -3.5084  2.5110 -1.1123
 9471SOL     OW39874   3.045   2.755   5.253 -0.0769 -0.0260  0.1861
 9471SOL    HW139875   2.995   2.836   5.265  0.1512  0.0578  0.5468
 9471SOL    HW239876   2.989   2.697   5.202 -0.0636 -0.8751  1.1486
 9472SOL     OW39877   2.057   2.821  12.098  0.1409  1.1226 -0.0765
 9472SOL    HW139878   2.036   2.785  12.012 -0.2302 -1.2319  0.9841
 9472SOL    HW239879   1.966   2.822  12.128  0.1481  1.4561 -0.0711
 9473SOL     OW39880   0.746   0.031   2.088  0.9438  0.3352 -0.3107
 9473SOL    HW139881   0.695   4.700   2.148  0.6184  0.5952 -0.3500
 9473SOL    HW239882   0.704   0.020   2.003  1.8587 -0.9608 -0.6041
 9474SOL     OW39883   0.175   0.497  16.994 -0.5513  0.5326 -0.7852
 9474SOL    HW139884   0.229   0.420  16.974  0.7536  1.3311 -0.3947
 9474SOL    HW239885   0.169   0.487  17.089  3.8822  3.0037 -0.2341
 9475SOL     OW39886   1.277   2.693  15.539 -0.2261 -0.0650  0.3042
 9475SOL    HW139887   1.312   2.644  15.465 -0.6640  1.3842 -0.8745
 9475SOL    HW239888   1.253   2.774  15.494  1.6573  0.1867 -0.2121
 9476SOL     OW39889   2.424   1.248   0.607  0.2199 -0.0015  0.0187
 9476SOL    HW139890   2.345   1.300   0.597 -0.6969 -1.6874 -1.5239
 9476SOL    HW239891   2.464   1.238   0.520  0.8979  1.2077  0.1894
 9477SOL     OW39892   0.034   3.633   4.783  0.2184 -0.3200 -0.0490
 9477SOL    HW139893   0.101   3.605   4.721  0.0082 -0.6063 -0.1501
 9477SOL    HW239894   0.083   3.661   4.860 -1.2413  0.5512  0.5756
 9478SOL     OW39895   2.438   1.952   3.918  0.5429  0.5482 -0.0949
 9478SOL    HW139896   2.461   1.865   3.885  2.4703  1.0829 -0.1718
 9478SOL    HW239897   2.344   1.951   3.904  0.4951 -1.5567  0.3857
 9479SOL     OW39898   0.027   1.216   5.367 -0.8434 -0.3007  0.2771
 9479SOL    HW139899   0.066   1.156   5.304  2.7656 -1.0130  3.1975
 9479SOL    HW239900   0.014   1.296   5.315 -1.1057 -0.7625 -0.3691
 9480SOL     OW39901   1.687   1.895  12.790  0.2622  0.2106  0.3950
 9480SOL    HW139902   1.598   1.860  12.787 -0.0122  0.8606  0.8185
 9480SOL    HW239903   1.733   1.830  12.737  0.3661  0.5916  0.0150
 9481SOL     OW39904   4.520   1.866   5.163 -0.5643 -0.0166 -0.4770
 9481SOL    HW139905   4.477   1.847   5.246  0.2171 -1.8620 -0.5027
 9481SOL    HW239906   4.590   1.924   5.191 -0.0523 -1.3647  0.9825
 9482SOL     OW39907   3.169   0.283   2.415  0.2284  0.2152 -0.2036
 9482SOL    HW139908   3.224   0.212   2.383  0.4360  0.3229 -0.0837
 9482SOL    HW239909   3.100   0.233   2.459  0.2285 -0.6351 -1.1547
 9483SOL     OW39910   0.219   3.126   7.273 -1.0776 -0.5830  0.2802
 9483SOL    HW139911   0.217   3.056   7.337  2.2291 -0.5139  0.4235
 9483SOL    HW239912   0.281   3.087   7.212  1.4073  0.8756  1.8733
 9484SOL     OW39913   4.307   0.824  15.440  0.8186 -0.2653  0.0291
 9484SOL    HW139914   4.310   0.918  15.459 -1.7408 -0.0626 -0.5666
 9484SOL    HW239915   4.353   0.831  15.356 -0.1068  1.4971 -0.3303
 9485SOL     OW39916   4.365   0.902   2.814 -0.1245 -0.0937 -0.1615
 9485SOL    HW139917   4.381   0.970   2.749  1.9870  1.2780  1.8017
 9485SOL    HW239918   4.315   0.840   2.761 -1.2927  1.2346 -0.6152
 9486SOL     OW39919   4.302   1.866   9.266 -0.3091 -0.3598 -0.0432
 9486SOL    HW139920   4.332   1.799   9.205  1.1825  2.1802 -2.1468
 9486SOL    HW239921   4.281   1.933   9.201  3.5855  1.1201  0.1879
 9487SOL     OW39922   0.593   1.414   8.979 -0.2354 -0.2680 -0.3089
 9487SOL    HW139923   0.618   1.400   8.888  0.2670 -0.1690 -0.1910
 9487SOL    HW239924   0.667   1.465   9.014  1.3988 -0.8634 -2.9039
 9488SOL     OW39925   3.106   2.792   9.220 -0.3520  0.1846  0.0763
 9488SOL    HW139926   3.085   2.880   9.252 -0.1997 -0.3573  1.6916
 9488SOL    HW239927   3.063   2.792   9.135 -0.5952  0.0528  0.1980
 9489SOL     OW39928   0.046   2.351   8.408  0.2503 -0.4496 -0.8079
 9489SOL    HW139929   0.024   2.312   8.493  1.3406  0.8366  0.0703
 9489SOL    HW239930   0.120   2.405   8.435 -1.4871  1.6679 -0.3689
 9490SOL     OW39931   0.361   2.955   2.943  0.1661 -0.4541 -0.2742
 9490SOL    HW139932   0.416   2.920   3.012 -0.5652 -3.4497 -1.2299
 9490SOL    HW239933   0.416   2.928   2.870  0.2005  0.3308 -0.5448
 9491SOL     OW39934   2.611   2.592   8.921  0.0436 -0.2603 -0.4092
 9491SOL    HW139935   2.690   2.620   8.874 -0.2694  0.2991 -0.6057
 9491SOL    HW239936   2.548   2.646   8.874 -1.2254 -3.1128 -1.9512
 9492SOL     OW39937   4.114   4.129   5.677 -0.8500 -0.3135 -0.3781
 9492SOL    HW139938   4.135   4.186   5.751 -1.3522  0.4425 -0.8174
 9492SOL    HW239939   4.046   4.184   5.638  1.7000  2.1837 -1.2361
 9493SOL     OW39940   1.058   3.930   6.362 -0.4436  0.3053 -0.4068
 9493SOL    HW139941   0.977   3.879   6.359 -0.6141  0.4653  1.1810
 9493SOL    HW239942   1.112   3.908   6.286  2.3113 -0.3477  1.7342
 9494SOL     OW39943   4.697   2.791   4.583  0.3040  0.5898 -0.1191
 9494SOL    HW139944   4.639   2.715   4.585 -0.6198  1.2915 -0.5155
 9494SOL    HW239945   0.042   2.743   4.537  0.2827 -1.4729  1.9460
 9495SOL     OW39946   3.554   2.439   4.673 -0.1910 -0.3096 -0.7674
 9495SOL    HW139947   3.583   2.479   4.756 -0.5605  1.3418 -1.4404
 9495SOL    HW239948   3.551   2.518   4.620  1.4407  0.0310 -0.3622
 9496SOL     OW39949   2.542   2.826   3.241 -0.3270 -0.5078 -0.0288
 9496SOL    HW139950   2.553   2.875   3.160  3.5117  1.9083  1.9309
 9496SOL    HW239951   2.606   2.757   3.223  0.4619  0.2793 -0.1825
 9497SOL     OW39952   1.584   1.629  16.976  0.5482  0.3571 -0.9857
 9497SOL    HW139953   1.664   1.610  17.025  0.7575 -0.0607 -1.4944
 9497SOL    HW239954   1.538   1.686  17.038 -0.4639  0.8692 -2.2369
 9498SOL     OW39955   3.253   1.949   3.125 -0.1155  0.3332 -0.0978
 9498SOL    HW139956   3.184   1.883   3.120  1.1873 -0.9279 -1.4618
 9498SOL    HW239957   3.314   1.901   3.180 -2.5372  1.2550  3.4385
 9499SOL     OW39958   3.980   3.949   2.664  0.3007 -0.0745  0.1775
 9499SOL    HW139959   3.886   3.943   2.647  0.1981 -0.5722  0.9695
 9499SOL    HW239960   4.011   3.943   2.574 -0.0811  0.7663 -0.0137
 9500SOL     OW39961   2.468   1.964   5.069  0.2070  0.1631 -0.1501
 9500SOL    HW139962   2.464   1.951   4.974 -2.1829  0.6481 -0.1152
 9500SOL    HW239963   2.557   1.940   5.096  0.8749 -1.6897 -3.8940
 9501SOL     OW39964   4.324   0.859   8.505 -0.0337  0.2129 -0.1999
 9501SOL    HW139965   4.406   0.853   8.458 -1.3743 -1.0000 -2.3869
 9501SOL    HW239966   4.337   0.950   8.532  2.1033 -0.5471  1.2953
 9502SOL     OW39967   0.422   2.174   1.489 -0.4777  0.3472  0.0882
 9502SOL    HW139968   0.466   2.093   1.464 -1.5986  0.1727 -1.3205
 9502SOL    HW239969   0.435   2.237   1.417 -0.9754 -0.0003 -0.3060
 9503SOL     OW39970   0.862   4.197  15.826  0.2699 -0.1498 -0.3543
 9503SOL    HW139971   0.863   4.291  15.848  0.8860 -0.7209  2.0248
 9503SOL    HW239972   0.791   4.202  15.762  1.3861  0.3339 -1.5409
 9504SOL     OW39973   0.895   4.006   3.147  0.0696 -0.4098 -0.1042
 9504SOL    HW139974   0.907   3.912   3.159  0.9142 -0.4768 -1.4972
 9504SOL    HW239975   0.800   4.015   3.159 -0.4555 -1.3190 -3.3767
 9505SOL     OW39976   4.117   0.707   5.468  0.1610  0.3657  0.4782
 9505SOL    HW139977   4.054   0.732   5.400  0.5961  1.1849  0.3784
 9505SOL    HW239978   4.138   0.617   5.442  2.2874  0.9441  0.1799
 9506SOL     OW39979   0.171   1.770   9.176  0.9898 -0.1676 -0.5391
 9506SOL    HW139980   0.157   1.766   9.271  1.7131 -1.0701 -0.4683
 9506SOL    HW239981   0.172   1.865   9.165 -1.6934 -0.0077  0.6358
 9507SOL     OW39982   1.498   0.102   9.213  0.2005  0.3070 -0.4516
 9507SOL    HW139983   1.473   0.189   9.246 -0.9465 -0.6071  1.1199
 9507SOL    HW239984   1.518   0.054   9.293 -0.1589  0.9291  0.0137
 9508SOL     OW39985   4.312   1.152   2.669 -0.0474  0.9056  0.0580
 9508SOL    HW139986   4.219   1.146   2.692 -0.3166  1.0653 -0.9528
 9508SOL    HW239987   4.324   1.246   2.664  0.9798  0.6831 -1.7425
 9509SOL     OW39988   0.324   4.025   3.019 -0.2680 -0.7492 -0.2062
 9509SOL    HW139989   0.249   3.976   2.985 -0.5509 -0.0723 -0.5507
 9509SOL    HW239990   0.284   4.090   3.077  1.7613 -0.6677  1.1350
 9510SOL     OW39991   0.833   4.593  16.803  0.3420 -0.2131 -0.2745
 9510SOL    HW139992   0.819   4.521  16.741 -0.0255  0.4118 -0.9237
 9510SOL    HW239993   0.779   4.660  16.761 -0.2689  0.0553  0.9359
 9511SOL     OW39994   0.094   3.290  12.629 -0.5347  0.2807  0.0166
 9511SOL    HW139995   0.186   3.272  12.606 -0.7097  0.3139 -0.6928
 9511SOL    HW239996   0.102   3.297  12.725 -2.4072  0.9402  0.1230
 9512SOL     OW39997   4.465   1.102   4.547  0.5548  0.6401 -0.1962
 9512SOL    HW139998   4.382   1.101   4.594  0.7892 -0.4295  0.1827
 9512SOL    HW239999   4.444   1.049   4.470 -1.5824  0.8515  0.2474
 9513SOL     OW40000   4.126   0.604   9.169  0.1668 -0.2340 -0.1112
 9513SOL    HW140001   4.077   0.588   9.250 -1.0825 -0.2559 -0.8723
 9513SOL    HW240002   4.104   0.697   9.158  2.2639  0.2648 -0.1665
 9514SOL     OW40003   0.047   3.692   6.016 -0.0702 -0.7106 -0.4907
 9514SOL    HW140004   0.014   3.604   6.003  0.3435 -0.5262 -2.8584
 9514SOL    HW240005   0.135   3.661   6.040 -0.3742 -0.7862  0.5370
 9515SOL     OW40006   0.509   1.089  15.185  0.4432 -0.6168  0.1779
 9515SOL    HW140007   0.421   1.110  15.154  2.3885  2.8422 -2.9482
 9515SOL    HW240008   0.511   0.995  15.172  3.0264 -0.4434 -0.5899
 9516SOL     OW40009   0.393   2.071   4.668  0.4690 -0.4784 -0.6201
 9516SOL    HW140010   0.456   2.076   4.740  0.7210 -0.6443 -0.8273
 9516SOL    HW240011   0.361   1.981   4.681 -1.5843  0.4132  0.4945
 9517SOL     OW40012   2.710   1.647   5.367  0.6003  0.3549 -0.0123
 9517SOL    HW140013   2.756   1.672   5.286  1.5795 -0.0038  0.4330
 9517SOL    HW240014   2.693   1.728   5.414 -0.5951  1.2813 -2.0304
 9518SOL     OW40015   3.254   4.391   7.583  0.1342  0.0010  0.3859
 9518SOL    HW140016   3.178   4.391   7.524 -0.2383  0.5376  0.8625
 9518SOL    HW240017   3.210   4.393   7.669 -1.7463  1.1953 -0.6020
 9519SOL     OW40018   2.522   1.713   1.776  0.2190  0.1462 -0.1240
 9519SOL    HW140019   2.434   1.676   1.786  1.5659 -2.4791  2.2626
 9519SOL    HW240020   2.538   1.731   1.869 -1.0801  0.6021  0.0153
 9520SOL     OW40021   1.446   0.075   4.068  0.1792  0.1908 -0.2999
 9520SOL    HW140022   1.405   0.153   4.031  0.6743  0.3689 -0.4702
 9520SOL    HW240023   1.420   0.077   4.161 -0.4106 -1.2380 -0.4272
 9521SOL     OW40024   2.696   2.630  14.278 -0.4419  0.1161 -0.2219
 9521SOL    HW140025   2.767   2.694  14.275 -0.9556  0.6605 -0.7011
 9521SOL    HW240026   2.617   2.683  14.269 -0.3314  0.5783  1.5178
 9522SOL     OW40027   0.439   2.107   6.320 -0.2867 -0.3752  0.2128
 9522SOL    HW140028   0.393   2.122   6.402  0.0740  1.1029  0.1399
 9522SOL    HW240029   0.393   2.030   6.287  1.5417 -0.6655 -1.6934
 9523SOL     OW40030   4.126   3.591  10.503 -0.0948  0.6223 -0.0031
 9523SOL    HW140031   4.181   3.597  10.581  0.5558 -2.2934 -0.2421
 9523SOL    HW240032   4.085   3.504  10.503  1.4273 -0.1038 -1.5243
 9524SOL     OW40033   3.125   4.597   1.450  0.1789 -0.7713 -0.0271
 9524SOL    HW140034   3.173   4.520   1.421  1.8414  1.1235 -2.3817
 9524SOL    HW240035   3.191   4.667   1.454 -0.6952  0.1205 -1.1175
 9525SOL     OW40036   3.101   3.448   5.454  0.3488 -0.6672  0.2463
 9525SOL    HW140037   3.062   3.360   5.455 -0.1815 -0.4415 -0.3994
 9525SOL    HW240038   3.128   3.455   5.362 -0.7663 -0.4837 -0.0703
 9526SOL     OW40039   3.407   0.561   3.761  0.1737  0.6393 -0.3489
 9526SOL    HW140040   3.320   0.597   3.743 -0.7236 -0.7879  1.2260
 9526SOL    HW240041   3.388   0.470   3.740  1.7398  0.1906  0.2319
 9527SOL     OW40042   2.138   1.428   8.117  0.7529 -0.3574 -0.1508
 9527SOL    HW140043   2.065   1.379   8.155  0.4534 -0.6206 -1.0639
 9527SOL    HW240044   2.146   1.390   8.029 -1.4103 -0.4356 -0.3188
 9528SOL     OW40045   4.093   2.116   3.493 -0.0937 -0.0388  0.2429
 9528SOL    HW140046   4.081   2.208   3.469  2.9235 -0.0915 -1.5301
 9528SOL    HW240047   4.055   2.079   3.414 -1.3586 -0.2381  0.9536
 9529SOL     OW40048   4.363   4.253   6.914  0.4417  0.9391 -0.2424
 9529SOL    HW140049   4.446   4.207   6.900  0.6657  0.9188  1.1436
 9529SOL    HW240050   4.339   4.281   6.826  0.1465 -0.8678 -0.7433
 9530SOL     OW40051   4.714   0.816  14.836 -0.6244  0.1794  0.4136
 9530SOL    HW140052   4.717   0.764  14.756 -2.6941 -1.0383  1.1282
 9530SOL    HW240053   0.083   0.836  14.834 -0.7893  0.9256  0.0435
 9531SOL     OW40054   1.166   0.593   2.678  0.2958  0.3632  0.2635
 9531SOL    HW140055   1.213   0.666   2.637  0.0759 -0.6261 -1.7484
 9531SOL    HW240056   1.085   0.637   2.703  0.0240  0.7671 -1.3383
 9532SOL     OW40057   2.132   4.161   5.623  0.2632 -0.5283  0.0840
 9532SOL    HW140058   2.065   4.228   5.637 -0.6791 -1.2947 -0.7899
 9532SOL    HW240059   2.153   4.159   5.529  0.1230 -1.3764  0.0662
 9533SOL     OW40060   1.829   0.030   4.057 -0.5495  0.4332  0.0314
 9533SOL    HW140061   1.871   0.061   3.977  1.0000  2.5530  1.6672
 9533SOL    HW240062   1.909   0.003   4.101 -0.3769 -0.9659 -1.1807
 9534SOL     OW40063   0.216   2.717  10.432  0.0490 -0.6795  0.1640
 9534SOL    HW140064   0.144   2.777  10.452  1.0499  0.0168  1.6643
 9534SOL    HW240065   0.265   2.775  10.374  0.3019  0.1919  1.2492
 9535SOL     OW40066   0.894   4.015   4.733 -0.0062  0.2906 -0.4338
 9535SOL    HW140067   0.853   4.086   4.784  0.7734  0.1915  0.3363
 9535SOL    HW240068   0.923   4.059   4.653 -0.3425  0.1232 -0.6462
 9536SOL     OW40069   1.578   0.908   2.035 -0.1458 -0.1732  0.4914
 9536SOL    HW140070   1.601   1.001   2.036 -1.5466  0.1658  0.8321
 9536SOL    HW240071   1.606   0.888   1.945  3.3353  0.5904  1.4116
 9537SOL     OW40072   3.366   1.863   2.269 -0.2949 -0.4512 -0.1002
 9537SOL    HW140073   3.323   1.847   2.185 -2.0855 -1.0177  0.9174
 9537SOL    HW240074   3.387   1.956   2.263 -0.2821 -0.3064  1.9788
 9538SOL     OW40075   2.732   4.003   8.382  0.3311 -0.2176  0.4849
 9538SOL    HW140076   2.685   4.081   8.353  0.9884 -0.8695 -2.3266
 9538SOL    HW240077   2.801   4.006   8.316  0.9290  1.8661  1.1963
 9539SOL     OW40078   0.497   4.330   7.843 -0.1956  0.0281  0.1124
 9539SOL    HW140079   0.517   4.285   7.760 -1.7210 -0.1139 -0.1896
 9539SOL    HW240080   0.496   4.261   7.909 -0.5191 -1.3252 -1.3050
 9540SOL     OW40081   2.082   3.599   6.920  0.3216 -0.3101  0.1301
 9540SOL    HW140082   2.100   3.693   6.911 -0.9753  0.0602  1.3753
 9540SOL    HW240083   1.987   3.596   6.930 -0.0243  0.9755 -2.6498
 9541SOL     OW40084   0.989   0.268   5.080 -0.5237  0.0727 -0.3737
 9541SOL    HW140085   1.020   0.323   5.152  1.1196 -3.3583  1.5148
 9541SOL    HW240086   1.060   0.205   5.066 -0.0854  0.0191  2.2338
 9542SOL     OW40087   3.047   3.570  16.009 -0.1004  0.4026  0.2735
 9542SOL    HW140088   3.138   3.571  16.036 -0.0753 -0.3507  0.2382
 9542SOL    HW240089   3.003   3.574  16.094  0.7262 -2.1917  0.8285
 9543SOL     OW40090   3.497   1.126  10.104  0.3113  0.1098  0.6276
 9543SOL    HW140091   3.503   1.188  10.176 -2.1887  1.6032 -0.4377
 9543SOL    HW240092   3.407   1.143  10.077  0.2559 -1.0908  0.0551
 9544SOL     OW40093   1.965   3.001   0.593  0.4901  0.0592  0.2656
 9544SOL    HW140094   1.906   2.928   0.574 -0.2871  0.5786  0.6415
 9544SOL    HW240095   2.040   2.960   0.552  2.6225  1.7664  2.4515
 9545SOL     OW40096   1.771   0.148   1.769 -0.0928  0.0517  0.4640
 9545SOL    HW140097   1.739   0.124   1.856  1.3704  1.1326  1.3141
 9545SOL    HW240098   1.726   0.085   1.715 -0.9562  0.1911  1.0229
 9546SOL     OW40099   4.127   2.665  14.274 -0.2343  0.0097  0.0613
 9546SOL    HW140100   4.132   2.587  14.219  0.1852 -0.0101  0.1246
 9546SOL    HW240101   4.120   2.626  14.361  2.0855  0.0920  0.3070
 9547SOL     OW40102   0.274   4.359   4.691  0.0113 -0.0828 -0.5701
 9547SOL    HW140103   0.342   4.384   4.628  1.0319 -1.7216 -0.1016
 9547SOL    HW240104   0.247   4.280   4.644 -0.4184 -0.0673 -0.3496
 9548SOL     OW40105   1.797   1.324  13.922 -0.2504  0.0561 -0.0040
 9548SOL    HW140106   1.870   1.386  13.916 -1.3020  1.4656  1.6070
 9548SOL    HW240107   1.846   1.244  13.937  0.3710  0.8321  2.1935
 9549SOL     OW40108   0.650   1.934   6.562  0.1447  0.3628  0.5506
 9549SOL    HW140109   0.568   1.896   6.594  1.8401 -1.4838  2.7620
 9549SOL    HW240110   0.661   1.901   6.473  0.2935 -0.4865  0.8896
 9550SOL     OW40111   1.306   1.088   3.213  0.0120 -0.1584 -0.0226
 9550SOL    HW140112   1.272   1.045   3.134  0.4470  0.6229 -0.6356
 9550SOL    HW240113   1.354   1.021   3.260  2.1780  1.6015  0.2490
 9551SOL     OW40114   0.360   0.774  16.398 -0.2705  0.1357  0.3384
 9551SOL    HW140115   0.437   0.822  16.367  0.4512 -0.7553  0.7503
 9551SOL    HW240116   0.409   0.713  16.453 -0.6770 -0.0141  0.5299
 9552SOL     OW40117   2.138   0.249  15.543 -0.3116 -0.2251 -0.4089
 9552SOL    HW140118   2.199   0.207  15.482 -1.0536 -2.1183  0.1610
 9552SOL    HW240119   2.080   0.175  15.560  0.3520 -0.3733  1.2426
 9553SOL     OW40120   1.236   4.172   2.795 -0.4357 -0.2578  0.9472
 9553SOL    HW140121   1.293   4.243   2.764 -2.8707  1.7871  1.2211
 9553SOL    HW240122   1.264   4.100   2.738 -0.6766  2.1357 -2.1666
 9554SOL     OW40123   4.395   2.993   4.204 -0.1771  0.7225 -0.3941
 9554SOL    HW140124   4.460   2.924   4.197 -1.2209 -0.5235  1.9694
 9554SOL    HW240125   4.403   3.026   4.294  1.3903  1.9770 -0.9960
 9555SOL     OW40126   0.427   4.006  11.704  0.3952 -0.1101  0.4757
 9555SOL    HW140127   0.465   3.976  11.787  1.8332 -0.5421 -0.3371
 9555SOL    HW240128   0.396   3.923  11.668  1.0844 -0.0321 -0.2809
 9556SOL     OW40129   4.454   0.042   6.067 -0.3114 -0.0644 -0.3911
 9556SOL    HW140130   4.422   0.081   5.986 -0.5170  3.7188  1.4931
 9556SOL    HW240131   4.470   0.121   6.119 -0.7242 -0.8030  0.8639
 9557SOL     OW40132   1.427   4.214   5.461 -0.2208  0.5490  0.7614
 9557SOL    HW140133   1.346   4.173   5.489  0.1525 -0.9957 -0.3931
 9557SOL    HW240134   1.479   4.142   5.423 -0.4828  0.8429 -0.1500
 9558SOL     OW40135   0.357   4.543   8.865  0.2651  0.0112  0.0191
 9558SOL    HW140136   0.313   4.548   8.950  1.2082  2.1367  0.3899
 9558SOL    HW240137   0.292   4.596   8.819 -0.1157  0.1010  0.6584
 9559SOL     OW40138   0.123   1.676   7.686 -0.4483  0.5730  0.3721
 9559SOL    HW140139   0.060   1.643   7.622  0.5693  1.2256 -0.9781
 9559SOL    HW240140   0.206   1.650   7.647 -0.8115 -1.0982  0.7274
 9560SOL     OW40141   1.534   0.430  16.721  0.1190 -0.4864 -0.5013
 9560SOL    HW140142   1.492   0.366  16.663 -1.3474  0.9172 -1.0018
 9560SOL    HW240143   1.536   0.504  16.660 -2.7475 -0.3594 -0.4727
 9561SOL     OW40144   2.598   1.361   2.597 -0.2146 -0.4476 -0.2581
 9561SOL    HW140145   2.603   1.354   2.692  1.1705 -0.7738 -0.3613
 9561SOL    HW240146   2.505   1.339   2.592 -0.2666 -0.0531 -1.2314
 9562SOL     OW40147   1.415   4.401   2.782  0.4325  0.1609 -0.6049
 9562SOL    HW140148   1.388   4.485   2.821 -0.2754 -1.4048  2.2698
 9562SOL    HW240149   1.469   4.423   2.706 -0.3214 -0.4721 -1.3260
 9563SOL     OW40150   1.696   0.584   7.927  0.2027 -0.1681  0.1346
 9563SOL    HW140151   1.779   0.584   7.974 -0.4848  3.0943  1.3195
 9563SOL    HW240152   1.664   0.672   7.944  0.0686 -0.0134 -0.9570
 9564SOL     OW40153   0.686   1.269   5.380 -0.2508 -0.2752  0.1767
 9564SOL    HW140154   0.736   1.347   5.403 -1.5434  0.0106  1.9700
 9564SOL    HW240155   0.678   1.234   5.469  1.2186 -0.6951  0.1516
 9565SOL     OW40156   1.879   2.736  10.441  0.4903 -0.1819  0.2471
 9565SOL    HW140157   1.891   2.775  10.527  2.5746 -1.4526  0.5233
 9565SOL    HW240158   1.964   2.758  10.404  0.4546 -0.6431 -0.1136
 9566SOL     OW40159   0.949   2.169   3.823 -0.1576 -0.3425  0.0052
 9566SOL    HW140160   0.856   2.151   3.805  0.1173 -0.8175 -0.9282
 9566SOL    HW240161   0.976   2.077   3.824  0.4496 -0.1453  0.8890
 9567SOL     OW40162   1.425   2.051   7.259  0.3441  0.2642 -0.0141
 9567SOL    HW140163   1.489   2.122   7.272  0.8907  0.0622 -1.6671
 9567SOL    HW240164   1.429   2.040   7.164 -1.7231  0.8928 -0.1689
 9568SOL     OW40165   1.372   4.081   9.560  0.5676 -0.4308  0.3161
 9568SOL    HW140166   1.386   4.059   9.652  0.1433  3.9032  1.4105
 9568SOL    HW240167   1.431   4.019   9.517 -0.0491 -0.1592 -0.9268
   4.72418   4.72418  17.69833
