Membrane in water
40167
    1TCq1    O1    1   3.022   0.249  11.339  0.2806 -0.1424  0.5809
    1TCq1    C1    2   2.965   0.142  11.288 -0.3696 -0.2407  0.5850
    1TCq1    O2    3   3.004   0.092  11.185  0.0420  0.4016  0.5092
    1TCq1    C2    4   2.831   0.125  11.355  0.3745 -0.5510 -0.3997
    1TCq1    C3    5   2.728   0.101  11.272 -0.4179 -0.0536  0.2841
    1TCq1    C4    6   2.606   0.088  11.336 -0.8859 -0.2059 -0.3351
    1TCq1    C5    7   2.596   0.099  11.475 -0.2560  0.4856 -0.6057
    1TCq1    C6    8   2.709   0.115  11.545  0.2042 -0.0368 -0.0813
    1TCq1    C7    9   2.830   0.122  11.491 -0.2065 -0.4273 -0.2252
    1TCq1    C8   10   2.699   0.100  11.688 -0.0657 -0.0106 -0.1990
    1TCq1    O4   11   2.787   0.150  11.757 -0.0318  0.1857 -0.2032
    1TCq1    C9   12   2.489   0.070  11.267 -0.0478  0.1671  0.2360
    1TCq1    O5   13   2.383   0.046  11.338  0.6399 -0.3467  0.0537
    1TCq1    O6   14   2.495   0.066  11.144 -0.0998 -0.0980  0.1769
    1TCq1    H1   15   2.991   0.282  11.427 -0.6539  0.5207  0.0028
    1TCq1    H2   16   2.742   0.109  11.165 -0.5576  0.8216  0.3306
    1TCq1    H3   17   2.499   0.086  11.522 -0.7612  0.8859 -1.5337
    1TCq1    H4   18   2.924   0.119  11.544 -0.8354  1.2844  0.9959
    2MPD2     C   19   2.551   4.546  12.091  0.1931  0.3499  0.4083
    2MPD2    C1   20   2.616   4.666  12.081 -0.4468 -0.1637  0.1688
    2MPD2    C2   21   2.657   4.714  11.960 -0.1402  0.2374 -0.5865
    2MPD2    C3   22   2.602   4.664  11.840  0.2498  0.2117  1.1145
    2MPD2    C4   23   2.530   4.539  11.859 -0.6761  0.1803 -0.3016
    2MPD2    C5   24   2.509   4.482  11.978 -0.4728 -0.1310 -0.3528
    2MPD2     H   25   2.719   0.080  11.955  0.9135 -0.4379  0.4711
    2MPD2    H1   26   2.486   4.484  11.778 -1.9836  0.8936 -0.0685
    2MPD2    H2   27   2.518   4.506  12.186 -1.3873 -0.4115 -0.4675
    2MPD2    H3   28   2.437   4.401  11.979 -1.0472  0.3843  0.5056
    2MPD2     N   29   2.607   0.002  11.713 -0.4737 -0.0146 -0.1673
    2MPD2    H5   30   2.558   4.680  11.636 -1.3919  0.5056  0.1233
    2MPD2    N1   31   2.633   0.031  12.194  0.7138 -0.1077 -0.5050
    2MPD2    H7   32   2.657   0.127  12.169 -0.9305  0.9431  1.9915
    3TCq1    O1   33   1.807   1.455  11.109 -0.3703 -0.0897  0.2997
    3TCq1    C1   34   1.928   1.503  11.081 -0.2605 -0.4336  0.8376
    3TCq1    O2   35   1.978   1.514  10.971 -0.1170 -0.2192  0.2099
    3TCq1    C2   36   1.948   1.616  11.171 -0.4693  0.0429  0.1635
    3TCq1    C3   37   1.914   1.597  11.306 -0.0195  0.8343  0.8534
    3TCq1    C4   38   1.872   1.711  11.368 -0.1156 -0.5883 -0.3033
    3TCq1    C5   39   1.884   1.838  11.313  0.0170  0.5498 -0.6563
    3TCq1    C6   40   1.935   1.851  11.184  0.2368 -0.5958 -0.1329
    3TCq1    C7   41   1.966   1.737  11.115  0.1656 -0.2752  0.1214
    3TCq1    C8   42   1.967   1.973  11.116  0.1991  0.5856 -1.0970
    3TCq1    O4   43   2.031   1.965  11.013  0.6206  0.6088  0.3980
    3TCq1    C9   44   1.826   1.699  11.502 -0.4063 -0.8487 -0.9961
    3TCq1    O5   45   1.880   1.611  11.571 -0.0984 -0.4984  0.0444
    3TCq1    O6   46   1.749   1.787  11.553  0.1757 -0.8245 -0.0769
    3TCq1    H1   47   1.787   1.474  11.203 -0.0901  1.3242  0.0747
    3TCq1    H2   48   1.911   1.498  11.350 -0.2620  0.8380  0.8482
    3TCq1    H3   49   1.858   1.924  11.373  0.6089  0.6011 -0.4776
    3TCq1    H4   50   1.989   1.739  11.009  1.5440 -1.2373  0.4012
    4MPD2     C   51   2.032   2.482  11.122 -0.4960  0.0405 -0.5174
    4MPD2    C1   52   1.923   2.448  11.197 -0.4233 -0.3500 -0.0709
    4MPD2    C2   53   1.886   2.316  11.214  0.0376 -0.4934  0.1927
    4MPD2    C3   54   1.960   2.214  11.160  0.7531 -0.2472 -0.1011
    4MPD2    C4   55   2.071   2.247  11.087  0.2360  0.5317 -0.1924
    4MPD2    C5   56   2.104   2.379  11.065 -0.2288 -0.4927  0.4652
    4MPD2     H   57   1.799   2.294  11.274 -1.2882 -0.1968 -1.6186
    4MPD2    H1   58   2.138   2.177  11.038 -0.4169  1.0242 -1.7893
    4MPD2    H2   59   2.066   2.582  11.098  0.1234 -0.7751 -3.0300
    4MPD2    H3   60   2.191   2.403  11.006  0.3707 -0.8710  1.1833
    4MPD2     N   61   1.915   2.076  11.185  0.6316  0.5104 -0.0175
    4MPD2    H5   62   1.846   2.053  11.256  0.2687  0.7067 -0.3096
    4MPD2    N1   63   1.836   2.549  11.257 -0.7053  0.1017 -0.0401
    4MPD2    H7   64   1.752   2.515  11.302  0.5335 -2.5351  0.3254
    5TCq1    O1   65   3.406   3.204  12.139  0.3295  0.0512  0.0887
    5TCq1    C1   66   3.363   3.081  12.144 -0.4123  0.6422  0.3458
    5TCq1    O2   67   3.422   2.982  12.092 -0.0650  0.0567  0.0450
    5TCq1    C2   68   3.217   3.093  12.123 -0.1442  0.2560  0.4629
    5TCq1    C3   69   3.134   3.104  12.227  0.7213 -0.1620  0.3472
    5TCq1    C4   70   2.999   3.105  12.209 -0.3455 -0.5792  0.0787
    5TCq1    C5   71   2.945   3.099  12.082 -0.0556 -0.6857  0.2450
    5TCq1    C6   72   3.033   3.089  11.977 -0.7063  0.1166 -0.6345
    5TCq1    C7   73   3.170   3.095  11.997 -0.4322 -1.3555  0.2603
    5TCq1    C8   74   2.987   3.053  11.844  0.5577  0.2552  0.8123
    5TCq1    O4   75   3.058   2.984  11.769  0.4693 -0.2732  0.1291
    5TCq1    C9   76   2.913   3.119  12.329 -0.3068 -0.7434 -0.4097
    5TCq1    O5   77   2.792   3.115  12.302  0.0771 -0.8460 -0.1904
    5TCq1    O6   78   2.969   3.130  12.442  0.0243 -0.1660  0.5139
    5TCq1    H1   79   3.338   3.267  12.171 -0.0202 -1.5376  2.4544
    5TCq1    H2   80   3.168   3.113  12.330  0.6468  2.7215  0.1212
    5TCq1    H3   81   2.838   3.100  12.065  0.1660  2.4348 -0.8141
    5TCq1    H4   82   3.234   3.074  11.912  1.5960 -1.5155  1.8223
    6MPD2     C   83   2.672   3.157  11.673 -0.0966  0.0642  0.3224
    6MPD2    C1   84   2.781   3.073  11.706  0.9811  0.1262  0.1069
    6MPD2    C2   85   2.802   2.962  11.631 -0.5660 -0.1041 -0.0069
    6MPD2    C3   86   2.722   2.931  11.519 -0.6526  0.6384 -0.2926
    6MPD2    C4   87   2.633   3.029  11.479  0.3130 -0.6273  0.4324
    6MPD2    C5   88   2.606   3.139  11.555  0.4830  0.5834  0.2408
    6MPD2     H   89   2.875   2.885  11.653  0.4363  0.0875 -2.7151
    6MPD2    H1   90   2.572   3.006  11.392 -0.1393  0.0714  0.5667
    6MPD2    H2   91   2.651   3.245  11.734  1.0084  0.5034  0.0671
    6MPD2    H3   92   2.524   3.206  11.531 -0.9143 -1.2082 -0.0430
    6MPD2     N   93   2.746   2.809  11.461 -0.5738  0.2908 -0.1018
    6MPD2    H5   94   2.824   2.752  11.494 -1.6169 -1.9062 -1.4103
    6MPD2    N1   95   2.864   3.112  11.814  1.3193  0.4429 -0.4592
    6MPD2    H7   96   2.834   3.183  11.881 -1.5307 -0.3064 -0.9441
    7TCq1    O1   97   4.211   2.309  12.774  0.2176 -0.7524 -0.0268
    7TCq1    C1   98   4.340   2.291  12.748  0.1992 -0.1319  0.1592
    7TCq1    O2   99   4.387   2.243  12.648  0.5269 -0.0349 -0.2607
    7TCq1    C2  100   4.413   2.291  12.879 -0.2428  0.7663 -0.1971
    7TCq1    C3  101   4.378   2.384  12.974 -0.0041 -0.2010  0.8128
    7TCq1    C4  102   4.446   2.380  13.095  0.6145  0.4884 -0.9078
    7TCq1    C5  103   4.554   2.295  13.114 -0.1562  0.1477 -0.4312
    7TCq1    C6  104   4.586   2.212  13.011 -0.4883 -0.1915  0.8281
    7TCq1    C7  105   4.518   2.204  12.893  0.5875  0.3501  0.0842
    7TCq1    C8  106   4.686   2.107  13.035  0.1643 -0.3751 -0.1087
    7TCq1    O4  107   4.672   2.001  12.978 -0.1351 -0.4196 -0.1038
    7TCq1    C9  108   4.447   2.489  13.185  0.8285 -0.3681 -0.6624
    7TCq1    O5  109   4.482   2.452  13.299 -0.1559 -0.3730 -0.4071
    7TCq1    O6  110   4.393   2.597  13.150 -0.0851  0.1748  0.7019
    7TCq1    H1  111   4.184   2.353  12.857  1.1965 -0.4505  0.1323
    7TCq1    H2  112   4.308   2.465  12.955 -0.9303 -0.9275  1.1549
    7TCq1    H3  113   4.614   2.299  13.204  0.9800 -1.0026 -1.1298
    7TCq1    H4  114   4.541   2.132  12.816  2.4045  1.0376 -0.0273
    8MPD2     C  115   0.374   1.907  13.272 -0.2189  0.7619  0.3314
    8MPD2    C1  116   0.250   1.849  13.247  0.4801 -0.3067  0.0641
    8MPD2    C2  117   0.153   1.937  13.200 -0.7293 -0.1007 -0.7714
    8MPD2    C3  118   0.172   2.073  13.174  0.5085  0.6519 -0.1392
    8MPD2    C4  119   0.294   2.127  13.204 -0.0235 -0.9806  0.2050
    8MPD2    C5  120   0.397   2.042  13.247  0.2605 -0.4571  0.3911
    8MPD2     H  121   0.056   1.891  13.186 -0.3092 -0.9611 -0.8358
    8MPD2    H1  122   0.313   2.232  13.185 -1.5143 -0.6602  0.4740
    8MPD2    H2  123   0.455   1.848  13.313  0.9874  0.5590 -2.3425
    8MPD2    H3  124   0.497   2.081  13.264 -0.1668  0.0231  1.8017
    8MPD2     N  125   0.074   2.157  13.109  0.3971 -0.3536 -0.3261
    8MPD2    H5  126   0.087   2.257  13.122 -2.2966 -0.1643  0.8434
    8MPD2    N1  127   0.237   1.712  13.267 -0.0997 -0.2334 -0.2920
    8MPD2    H7  128   0.317   1.668  13.311 -0.5744  0.2345  1.0281
    9TCq1    O1  129   2.057   0.650  10.997 -0.1822 -0.2951 -0.2355
    9TCq1    C1  130   2.177   0.658  11.062 -0.3048 -0.3713 -0.2057
    9TCq1    O2  131   2.186   0.643  11.186  0.3168 -0.2001 -0.6259
    9TCq1    C2  132   2.291   0.662  10.971 -0.4673 -0.1653  0.0962
    9TCq1    C3  133   2.272   0.651  10.835  0.4326 -0.4016  0.9018
    9TCq1    C4  134   2.384   0.678  10.753 -0.1331 -0.0866  0.0848
    9TCq1    C5  135   2.508   0.691  10.806  0.0146  0.6278 -0.3618
    9TCq1    C6  136   2.515   0.708  10.941 -0.3610  0.5382  0.3993
    9TCq1    C7  137   2.408   0.696  11.027  0.0940  0.6754 -0.8696
    9TCq1    C8  138   2.637   0.768  10.995  0.2565 -0.1931  0.8879
    9TCq1    O4  139   2.721   0.808  10.917 -0.8530 -0.3755 -0.1579
    9TCq1    C9  140   2.365   0.670  10.611  0.0753 -0.1822 -0.1011
    9TCq1    O5  141   2.249   0.627  10.580 -0.5572 -0.3615 -0.0469
    9TCq1    O6  142   2.460   0.695  10.532  0.1140  0.0516 -0.8487
    9TCq1    H1  143   2.044   0.673  10.902  0.5604 -0.9482 -0.4966
    9TCq1    H2  144   2.182   0.609  10.794 -0.5350  0.6356  1.9576
    9TCq1    H3  145   2.598   0.703  10.747  0.0518 -2.1600 -0.8694
    9TCq1    H4  146   2.413   0.702  11.135 -1.3080 -3.5995 -0.5720
   10MPD2     C  147   2.849   0.900  11.158  0.0151 -0.2581  0.3043
   10MPD2    C1  148   2.724   0.867  11.201  0.5160  0.0197  0.5973
   10MPD2    C2  149   2.688   0.882  11.327  0.8828 -0.2025 -0.0129
   10MPD2    C3  150   2.773   0.943  11.422  0.3622  0.4737  0.4927
   10MPD2    C4  151   2.900   0.974  11.378 -0.6802  0.4272 -0.5104
   10MPD2    C5  152   2.927   0.956  11.253  0.2772  0.3899 -0.2251
   10MPD2     H  153   2.588   0.860  11.364  1.0649  1.9245  1.7681
   10MPD2    H1  154   2.976   1.023  11.438 -1.6626  0.8540  0.3716
   10MPD2    H2  155   2.881   0.877  11.057 -1.5711  0.1982 -0.2957
   10MPD2    H3  156   3.024   0.996  11.227  2.3984 -2.5088  3.1691
   10MPD2     N  157   2.731   0.984  11.554 -0.3131 -0.4430 -0.3827
   10MPD2    H5  158   2.806   1.011  11.618 -1.5452 -0.4781  1.0738
   10MPD2    N1  159   2.628   0.801  11.124 -0.2600 -0.2642 -0.1079
   10MPD2    H7  160   2.546   0.776  11.178  0.9160  0.7692  2.1260
   11TCq1    O1  161   3.027   1.236  14.284 -0.4292  0.4021  0.7326
   11TCq1    C1  162   2.894   1.203  14.301  0.6596  0.2916 -0.6399
   11TCq1    O2  163   2.823   1.159  14.210 -0.7319  0.2270 -0.1619
   11TCq1    C2  164   2.885   1.172  14.438 -0.4585  0.3358  0.0245
   11TCq1    C3  165   2.945   1.253  14.533  0.5276 -0.2579  0.4186
   11TCq1    C4  166   2.979   1.207  14.658  0.0831 -0.8538  0.4132
   11TCq1    C5  167   2.966   1.077  14.686 -0.3191 -0.2414 -0.2186
   11TCq1    C6  168   2.905   0.994  14.589 -0.1165 -0.0034 -0.8017
   11TCq1    C7  169   2.869   1.039  14.461 -0.1194 -0.4438 -0.2805
   11TCq1    C8  170   2.897   0.856  14.622 -0.1394 -1.3692 -0.1290
   11TCq1    O4  171   2.891   0.823  14.738 -0.0094 -0.2381  0.0633
   11TCq1    C9  172   3.050   1.291  14.754  0.5206  0.6289  0.4247
   11TCq1    O5  173   3.029   1.413  14.747 -0.2163 -0.4536  0.4643
   11TCq1    O6  174   3.088   1.231  14.859 -0.0595  0.5295  0.2195
   11TCq1    H1  175   3.075   1.258  14.366 -0.0756  0.4700  0.5048
   11TCq1    H2  176   2.958   1.358  14.510  1.6201 -0.4463  0.1593
   11TCq1    H3  177   2.996   1.042  14.784  0.9010 -0.8880 -0.8147
   11TCq1    H4  178   2.821   0.975  14.387 -3.0592  2.0856 -0.5418
   12MPD2     C  179   2.829   0.565  14.645 -0.4150 -0.6534 -0.1247
   12MPD2    C1  180   2.858   0.631  14.529  0.4323  0.3504 -0.5577
   12MPD2    C2  181   2.843   0.562  14.407  0.4373  0.1043 -0.2180
   12MPD2    C3  182   2.804   0.429  14.409  0.6334 -0.3553 -0.2527
   12MPD2    C4  183   2.791   0.369  14.528 -0.1762  1.5538 -0.0712
   12MPD2    C5  184   2.800   0.433  14.639  0.3653 -0.2956  0.1390
   12MPD2     H  185   2.854   0.616  14.314 -2.1302  0.1075 -0.5216
   12MPD2    H1  186   2.770   0.263  14.528 -2.8329  2.0596 -1.3930
   12MPD2    H2  187   2.848   0.606  14.744  0.4900 -3.1403  0.7261
   12MPD2    H3  188   2.775   0.374  14.726 -1.2016 -2.2316 -1.6266
   12MPD2     N  189   2.785   0.363  14.283 -0.8351  0.4514  0.5014
   12MPD2    H5  190   2.807   0.426  14.206  0.3682  1.5154  1.7273
   12MPD2    N1  191   2.887   0.768  14.518  0.7300 -0.0589  0.3663
   12MPD2    H7  192   2.904   0.797  14.422 -1.5418 -1.7174 -0.5350
   13TCq1    O1  193   3.151   0.720  11.030 -0.4595  0.3011 -0.3397
   13TCq1    C1  194   3.252   0.768  11.100  0.1327 -0.2100  0.3167
   13TCq1    O2  195   3.336   0.845  11.058  0.3642  0.3130  0.4537
   13TCq1    C2  196   3.219   0.749  11.245  0.8330 -0.0310  0.4120
   13TCq1    C3  197   3.268   0.841  11.329  0.2152  0.1667 -0.1617
   13TCq1    C4  198   3.223   0.840  11.459  0.1312  0.0753 -0.4963
   13TCq1    C5  199   3.130   0.751  11.507 -0.8386 -0.1094 -0.3617
   13TCq1    C6  200   3.077   0.669  11.417 -0.6201  0.6208  0.9214
   13TCq1    C7  201   3.129   0.658  11.289  0.4135  0.0130  0.3611
   13TCq1    C8  202   2.951   0.603  11.444  0.8431  0.0545  0.2399
   13TCq1    O4  203   2.911   0.633  11.557 -0.0986  0.1350  0.2813
   13TCq1    C9  204   3.272   0.948  11.544 -0.3121 -0.2079  0.0447
   13TCq1    O5  205   3.243   0.941  11.667  0.0740 -0.2278 -0.3012
   13TCq1    O6  206   3.352   1.037  11.494 -0.0974  0.4450 -0.6300
   13TCq1    H1  207   3.077   0.666  11.068 -0.7205 -1.1213 -2.8768
   13TCq1    H2  208   3.338   0.913  11.290 -0.5588 -0.0644 -1.9687
   13TCq1    H3  209   3.084   0.783  11.600  1.8171  0.1880  0.8661
   13TCq1    H4  210   3.106   0.567  11.234  0.5378 -0.3056  0.8322
   14MPD2     C  211   2.701   0.466  11.203 -0.2249 -0.2909 -0.1954
   14MPD2    C1  212   2.748   0.531  11.314 -0.1072 -0.2259  0.4576
   14MPD2    C2  213   2.659   0.573  11.415 -0.1098  0.1080 -0.3547
   14MPD2    C3  214   2.525   0.556  11.404  0.2557 -0.4667  0.0568
   14MPD2    C4  215   2.479   0.501  11.286  0.2698 -0.6788 -0.0840
   14MPD2    C5  216   2.566   0.456  11.190  0.5942 -0.0425 -0.8486
   14MPD2     H  217   2.694   0.605  11.512 -2.1884  1.2136  0.0311
   14MPD2    H1  218   2.376   0.470  11.272 -1.1407  3.2072  1.7887
   14MPD2    H2  219   2.760   0.440  11.116 -0.1907 -1.6065  0.2249
   14MPD2    H3  220   2.535   0.411  11.097  0.3734 -0.5105 -0.5491
   14MPD2     N  221   2.436   0.595  11.505 -0.2992 -0.2047 -0.4117
   14MPD2    H5  222   2.463   0.668  11.570 -0.8972 -3.0673  3.0963
   14MPD2    N1  223   2.886   0.552  11.334  0.3353  0.3086  0.3584
   14MPD2    H7  224   2.946   0.524  11.258 -0.1868  0.3141 -0.0547
   15TCq1    O1  225   4.089   4.646   1.816 -0.5147 -0.1757 -0.5892
   15TCq1    C1  226   4.158   4.569   1.732 -0.8107 -1.0383  0.3278
   15TCq1    O2  227   4.169   4.580   1.612 -0.0318  0.6670  0.2449
   15TCq1    C2  228   4.214   4.451   1.798  0.7659  0.2232 -0.1671
   15TCq1    C3  229   4.279   4.463   1.920  0.0840 -0.1051  0.7815
   15TCq1    C4  230   4.340   4.350   1.971 -0.2694  0.8140 -0.7009
   15TCq1    C5  231   4.332   4.228   1.903 -0.2715  0.2382 -0.3895
   15TCq1    C6  232   4.253   4.222   1.792  0.2108 -0.2865 -0.0506
   15TCq1    C7  233   4.195   4.333   1.734 -0.7416 -0.1701  0.6184
   15TCq1    C8  234   4.243   4.096   1.724 -0.1300 -0.0730  0.0085
   15TCq1    O4  235   4.348   4.036   1.728  0.3324 -0.4431 -0.2340
   15TCq1    C9  236   4.424   4.359   2.091  0.3776 -0.6364  0.4179
   15TCq1    O5  237   4.475   4.466   2.127 -0.4192  0.2376  0.7435
   15TCq1    O6  238   4.449   4.246   2.152  0.4670 -0.5208  0.0396
   15TCq1    H1  239   4.103   4.616   1.908  1.2047  0.1491 -0.7365
   15TCq1    H2  240   4.306   4.557   1.968  0.9190  0.8720 -1.6072
   15TCq1    H3  241   4.373   4.135   1.940  1.8824  1.2431 -0.2359
   15TCq1    H4  242   4.143   4.324   1.639  1.7210 -0.2085 -0.7183
   16MPD2     C  243   3.975   3.991   1.487  0.3348 -0.0207  0.0717
   16MPD2    C1  244   4.097   3.981   1.558 -0.3647 -0.5714 -1.1006
   16MPD2    C2  245   4.183   3.872   1.531  0.2387 -0.2596  0.5201
   16MPD2    C3  246   4.138   3.773   1.446 -0.0159  0.1859 -0.7640
   16MPD2    C4  247   4.018   3.779   1.374  0.0186  0.0843 -0.3170
   16MPD2    C5  248   3.937   3.891   1.400  0.5411  0.0380  0.7192
   16MPD2     H  249   4.282   3.863   1.574  0.1983 -0.0497  0.6589
   16MPD2    H1  250   3.989   3.699   1.307  0.3189 -1.5175  1.4786
   16MPD2    H2  251   3.916   4.082   1.488  0.1226 -0.1416 -1.0201
   16MPD2    H3  252   3.842   3.895   1.349  1.7023  1.2205 -1.3597
   16MPD2     N  253   4.231   3.667   1.426 -0.1889 -0.0493  0.1371
   16MPD2    H5  254   4.317   3.673   1.481  0.2189 -0.2984 -0.4812
   16MPD2    N1  255   4.126   4.081   1.652 -0.1696  0.3459 -0.2080
   16MPD2    H7  256   4.054   4.149   1.674 -0.4149 -0.0597  0.2489
   17TCq1    O1  257   1.531   0.340  10.429  0.3113 -0.1419  0.4250
   17TCq1    C1  258   1.476   0.317  10.547 -0.1614 -0.0621  0.3670
   17TCq1    O2  259   1.398   0.227  10.569 -0.5485  0.4319  0.1878
   17TCq1    C2  260   1.540   0.392  10.645  0.3152 -0.0251  0.1946
   17TCq1    C3  261   1.532   0.534  10.636  0.1114 -0.1940 -0.4674
   17TCq1    C4  262   1.598   0.611  10.723 -0.0205 -0.6283 -0.5727
   17TCq1    C5  263   1.668   0.554  10.826  0.1208 -1.0756  0.1635
   17TCq1    C6  264   1.680   0.417  10.835 -0.2163  0.7267 -0.3026
   17TCq1    C7  265   1.618   0.336  10.747  0.2233 -0.1644  0.0382
   17TCq1    C8  266   1.767   0.363  10.937 -0.5617  0.1387  0.2313
   17TCq1    O4  267   1.760   0.415  11.045 -0.2770  0.0231 -0.2312
   17TCq1    C9  268   1.591   0.757  10.724  0.2145  0.6884  0.2981
   17TCq1    O5  269   1.485   0.807  10.676 -0.4728  0.7564 -0.3942
   17TCq1    O6  270   1.691   0.819  10.779 -0.2770  0.0853 -0.2621
   17TCq1    H1  271   1.613   0.394  10.430  0.3565 -0.2051  0.0041
   17TCq1    H2  272   1.477   0.582  10.557  1.2898 -0.1776 -1.2780
   17TCq1    H3  273   1.726   0.613  10.895  2.1644 -3.6015  0.6301
   17TCq1    H4  274   1.635   0.229  10.739  1.8623  0.0794  0.2963
   18MPD2     C  275   2.026   0.273  11.069 -0.1063 -0.5577 -0.3780
   18MPD2    C1  276   2.001   0.294  10.938 -0.8319  0.2765 -0.5451
   18MPD2    C2  277   2.105   0.296  10.849 -0.5324  0.2608 -0.1238
   18MPD2    C3  278   2.236   0.293  10.887  0.0696 -0.7081 -0.3185
   18MPD2    C4  279   2.258   0.281  11.028  0.0401 -0.1828  0.8928
   18MPD2    C5  280   2.156   0.269  11.117  0.5036 -0.4974 -0.3410
   18MPD2     H  281   2.083   0.302  10.743  0.9871 -1.0500 -0.5093
   18MPD2    H1  282   2.360   0.288  11.066  0.1369  1.1610  0.3574
   18MPD2    H2  283   1.949   0.260  11.144  0.8040  0.4115  0.7268
   18MPD2    H3  284   2.170   0.269  11.224 -1.1983  0.8087 -0.1135
   18MPD2     N  285   2.341   0.300  10.801  0.0431 -0.0154  0.2332
   18MPD2    H5  286   2.433   0.279  10.841 -0.7002  0.2408  2.0645
   18MPD2    N1  287   1.877   0.314  10.876 -0.0862 -0.0122  0.9004
   18MPD2    H7  288   1.872   0.328  10.776  2.7508  0.5757  0.8350
   19TMC2    C1  289   3.824   0.694  13.632 -0.4427  0.1580  0.5095
   19TMC2    C2  290   3.725   0.751  13.560 -0.0790  0.1865 -0.1445
   19TMC2    C3  291   3.613   0.677  13.529 -0.6879 -0.1215 -0.2016
   19TMC2    C4  292   3.835   0.554  13.652  0.1003 -0.3597  0.0049
   19TMC2    C5  293   3.726   0.483  13.614 -0.2797 -0.4217 -0.5832
   19TMC2    C6  294   3.613   0.537  13.553 -0.1463 -0.1684  0.1698
   19TMC2     C  295   3.931   0.777  13.678  0.1814 -0.4432 -0.1282
   19TMC2     O  296   3.936   0.887  13.624 -0.0123 -0.1576 -0.6900
   19TMC2     H  297   3.721   0.859  13.566  3.1133  0.2754  0.0993
   19TMC2    H1  298   3.913   0.511  13.713 -1.8701 -2.3098  1.1369
   19TMC2    H2  299   3.526   0.478  13.527  0.8749 -1.0128 -1.2937
   19TMC2    C7  300   3.753   0.337  13.602  0.0715  0.2560  0.1327
   19TMC2    C8  301   3.512   0.741  13.459 -0.7145  0.8788 -0.3443
   19TMC2    O1  302   3.660   0.256  13.620 -0.2212  0.2266 -0.7037
   19TMC2    O2  303   3.488   0.859  13.471  0.2678  0.4467 -0.0302
   19TMC2    O5  304   3.503   0.677  13.337  0.3815  0.0073  0.5649
   19TMC2    H5  305   3.566   0.602  13.330 -1.8448 -1.9492  1.5237
   20MPD2     C  306   4.200   0.837  13.775  0.9640  0.3104 -0.0782
   20MPD2    C1  307   4.111   0.765  13.851  0.8660 -0.2086 -0.2521
   20MPD2    C2  308   4.151   0.719  13.973  0.2529  0.9436  0.2239
   20MPD2    C3  309   4.282   0.727  14.013  0.0420  0.3023 -0.6091
   20MPD2    C4  310   4.373   0.788  13.931  0.5866 -0.8065  0.5250
   20MPD2    C5  311   4.332   0.840  13.813  0.1062 -0.1559  0.1207
   20MPD2     H  312   4.080   0.691  14.050  0.0942  1.5332  0.2977
   20MPD2    H1  313   4.478   0.794  13.956  0.9420 -2.0687 -0.6275
   20MPD2    H2  314   4.167   0.873  13.679 -0.4626 -1.1558 -0.1480
   20MPD2    H3  315   4.400   0.886  13.742 -0.7959 -0.0786 -0.6935
   20MPD2     N  316   4.322   0.692  14.146 -0.0012  0.2292  0.6919
   20MPD2    H5  317   4.415   0.717  14.178  0.1941  0.6251 -0.1836
   20MPD2    N1  318   3.983   0.739  13.797 -0.2881  0.4375 -0.0219
   20MPD2    H7  319   3.939   0.659  13.842  0.3487 -1.3183 -2.5381
   21MPD2     C  320   2.656   1.015  14.854 -0.9670 -0.5095 -0.6402
   21MPD2    C1  321   2.573   0.994  14.957  0.1916 -0.2796 -0.7829
   21MPD2    C2  322   2.439   0.982  14.936  0.1739  1.4004 -0.3865
   21MPD2    C3  323   2.391   0.994  14.809  0.0356 -0.4802 -0.0050
   21MPD2    C4  324   2.473   1.011  14.701  0.0054 -0.3808 -0.6023
   21MPD2    C5  325   2.610   1.021  14.723 -0.6566 -1.2895 -0.1927
   21MPD2     H  326   2.369   0.940  15.008  1.4585 -0.8872 -0.4686
   21MPD2    H1  327   2.435   1.026  14.600 -1.8722  0.6973  0.2728
   21MPD2    H2  328   2.764   1.013  14.865 -0.9871  0.5659 -0.2165
   21MPD2    H3  329   2.683   1.026  14.643 -1.6650  2.2712 -0.8841
   21MPD2     N  330   2.253   0.976  14.776  0.2520 -0.1985  0.1080
   21MPD2    H5  331   2.229   0.962  14.678  2.2361 -0.5839 -0.3333
   21MPD2    N1  332   2.629   0.968  15.087  0.3101 -0.4112  0.3601
   21MPD2    H7  333   2.560   0.964  15.161 -1.4998 -1.4189 -1.3876
   22TCq2    C1  334   2.148   0.991  14.875  0.6291 -0.1189  0.2484
   22TCq2    O2  335   2.163   1.032  14.990  0.4841  0.2118 -0.3399
   22TCq2    C2  336   2.012   0.969  14.829 -0.2177 -1.0544  0.0881
   22TCq2    C3  337   1.991   0.854  14.760  0.6050  0.4787 -0.1113
   22TCq2    C4  338   1.866   0.811  14.746  0.5876  0.0955  0.5109
   22TCq2    C5  339   1.754   0.886  14.790 -0.1751 -0.0028  0.1902
   22TCq2    C6  340   1.783   0.999  14.868  0.7183  0.3824 -0.7962
   22TCq2    C7  341   1.914   1.039  14.892  0.1921 -0.8940 -0.0211
   22TCq2    C8  342   1.683   1.054  14.954 -0.3842 -0.8488 -0.1337
   22TCq2    O4  343   1.714   1.106  15.061  0.5503 -0.2495  0.3841
   22TCq2    C9  344   1.846   0.681  14.689 -0.3643 -0.0871 -0.6128
   22TCq2    O5  345   1.733   0.631  14.702 -0.4682  0.2586  0.0335
   22TCq2    O6  346   1.944   0.611  14.652 -0.1914  0.2789 -0.0626
   22TCq2    H2  347   2.078   0.798  14.730  0.0426  0.7417 -2.2343
   22TCq2    H3  348   1.654   0.845  14.785 -0.7667  1.5873 -1.1755
   22TCq2    H4  349   1.934   1.136  14.937  1.1133 -1.7847  1.4855
   23MPD2     C  350   3.739   2.006  14.601  0.5487 -0.8917 -0.3948
   23MPD2    C1  351   3.686   2.033  14.729 -0.1236 -0.1652  0.0628
   23MPD2    C2  352   3.612   2.145  14.746  0.0898  1.0337  0.0635
   23MPD2    C3  353   3.609   2.240  14.648 -0.0097 -0.7317 -0.4380
   23MPD2    C4  354   3.687   2.230  14.533 -0.1400  0.1287  0.4497
   23MPD2    C5  355   3.742   2.108  14.504 -0.3583  0.0876 -0.4350
   23MPD2     H  356   3.563   2.152  14.842 -2.2614 -1.6199 -0.9405
   23MPD2    H1  357   3.702   2.306  14.457  3.1488 -0.4090  0.5773
   23MPD2    H2  358   3.780   1.907  14.580  1.2823 -1.0087  1.5569
   23MPD2    H3  359   3.799   2.092  14.413  3.6140 -1.7423  2.3997
   23MPD2     N  360   3.526   2.349  14.661  0.4010 -0.1674  0.3615
   23MPD2    H5  361   3.507   2.411  14.583  2.0846  2.3764  1.9605
   23MPD2    N1  362   3.695   1.939  14.840  0.4477  0.4194  0.0075
   23MPD2    H7  363   3.659   1.971  14.929  0.1564 -0.5861  0.2540
   24TCq2    C1  364   3.449   2.383  14.767 -0.0256  0.0054 -0.5659
   24TCq2    O2  365   3.421   2.326  14.870  0.1931  0.1347 -0.3902
   24TCq2    C2  366   3.361   2.492  14.730  0.2030  0.1707 -1.1156
   24TCq2    C3  367   3.415   2.583  14.646  0.0209 -0.7936 -0.8320
   24TCq2    C4  368   3.333   2.653  14.563 -0.3729  0.0199  0.3890
   24TCq2    C5  369   3.202   2.627  14.561  0.2603  0.3160  0.6981
   24TCq2    C6  370   3.151   2.533  14.648  0.6101  0.2494  0.2474
   24TCq2    C7  371   3.229   2.463  14.733  0.4353 -0.3214  0.5072
   24TCq2    C8  372   3.017   2.480  14.626 -0.0408  0.6994  0.4879
   24TCq2    O4  373   3.000   2.368  14.664  0.3642 -0.2691  0.2461
   24TCq2    C9  374   3.388   2.758  14.482  0.1030 -0.3576  0.2179
   24TCq2    O5  375   3.512   2.772  14.471  0.4037  0.3407 -0.1034
   24TCq2    O6  376   3.304   2.821  14.413  0.4555 -0.0594 -0.3318
   24TCq2    H2  377   3.521   2.602  14.655 -0.0599  0.4232 -2.5054
   24TCq2    H3  378   3.141   2.677  14.486  1.1491  1.7686  0.9548
   24TCq2    H4  379   3.187   2.391  14.802 -0.0536 -1.3840 -0.8959
   25TMC2    C1  380   1.350   4.431  11.372  0.4720 -0.8717  0.7438
   25TMC2    C2  381   1.289   4.489  11.266  0.2749  0.2064 -0.1364
   25TMC2    C3  382   1.204   4.589  11.290 -0.6405  0.8244  0.1659
   25TMC2    C4  383   1.356   4.496  11.492 -0.2558 -0.4139 -0.6831
   25TMC2    C5  384   1.274   4.607  11.504  0.0474  0.1659  0.0214
   25TMC2    C6  385   1.191   4.653  11.405  0.1615 -0.0591  0.2621
   25TMC2     C  386   1.437   4.306  11.353  0.6069  0.2065  0.7330
   25TMC2     O  387   1.498   4.261  11.448 -0.2652  0.0814 -0.7553
   25TMC2     H  388   1.278   4.428  11.177  0.6948  1.2978 -0.9379
   25TMC2    H1  389   1.407   4.450  11.576  1.1893  2.2788 -0.0695
   25TMC2    H2  390   1.122   0.013  11.416  0.4021 -0.0341  1.6089
   25TMC2    C7  391   1.254   4.656  11.642  0.2168 -0.1225 -0.2063
   25TMC2    C8  392   1.076   4.581  11.216 -0.1776  0.2508  0.1373
   25TMC2    O1  393   1.291   4.582  11.730 -0.5754  0.0839  0.3749
   25TMC2    O2  394   0.976   4.562  11.283 -0.1614 -0.7733  0.1096
   25TMC2    O5  395   1.098   4.585  11.084 -0.4494  0.0893  0.0716
   25TMC2    H5  396   1.189   4.615  11.064 -0.8619 -0.8128 -3.2369
   26MPD2     C  397   1.737   3.978  11.098 -0.6816  0.0657  0.4163
   26MPD2    C1  398   1.613   3.976  11.043  0.6289 -0.1273  0.6530
   26MPD2    C2  399   1.518   4.067  11.081 -0.2386 -0.0271  0.5447
   26MPD2    C3  400   1.540   4.154  11.183 -0.2183 -0.4254 -0.1670
   26MPD2    C4  401   1.669   4.168  11.230 -0.0237  0.8429 -0.4586
   26MPD2    C5  402   1.761   4.076  11.188  0.3650  0.1348 -0.5605
   26MPD2     H  403   1.428   4.075  11.021  0.8105 -1.5183 -1.1804
   26MPD2    H1  404   1.700   4.247  11.296  0.9719 -0.0116  0.0895
   26MPD2    H2  405   1.820   3.917  11.065  0.1347  2.3722 -1.7717
   26MPD2    H3  406   1.859   4.077  11.234  1.3322 -1.2310 -2.5981
   26MPD2     N  407   1.446   4.251  11.228 -0.1803  0.0601 -0.3772
   26MPD2    H5  408   1.367   4.266  11.165  0.9362  1.1822 -1.5160
   26MPD2    N1  409   1.593   3.880  10.941 -0.3585  0.1299 -0.3523
   26MPD2    H7  410   1.666   3.813  10.919 -0.0908  0.6610 -1.0830
   27TMC2    C1  411   1.274   1.940  12.143  0.2604 -0.5275 -0.7815
   27TMC2    C2  412   1.371   2.012  12.081 -0.1711  0.3257  1.1084
   27TMC2    C3  413   1.498   2.006  12.129 -0.6203  0.7235 -0.8452
   27TMC2    C4  414   1.309   1.844  12.234  0.4836  0.1968 -0.0450
   27TMC2    C5  415   1.433   1.837  12.287 -0.5810 -0.3071  0.7302
   27TMC2    C6  416   1.528   1.918  12.227  0.8727  0.0257 -0.5663
   27TMC2     C  417   1.129   1.964  12.119  0.1654 -0.1816  0.0700
   27TMC2     O  418   1.109   2.017  12.010  0.9934 -0.1481  0.2939
   27TMC2     H  419   1.331   2.098  12.028  1.1300 -0.3851 -1.0516
   27TMC2    H1  420   1.231   1.792  12.287  0.7401 -0.4073 -0.2550
   27TMC2    H2  421   1.629   1.930  12.265  0.1176  2.0570  0.8569
   27TMC2    C7  422   1.434   1.842  12.434 -0.0111 -0.1934  0.1098
   27TMC2    C8  423   1.584   2.122  12.139 -0.4833 -0.5578 -0.2577
   27TMC2    O1  424   1.347   1.771  12.486  0.3448  0.0360  0.0619
   27TMC2    O2  425   1.651   2.155  12.235 -0.3948 -0.3191 -0.6790
   27TMC2    O5  426   1.582   2.194  12.024  0.2435 -0.2945  0.2248
   27TMC2    H5  427   1.546   2.150  11.944 -1.1124  0.5393  0.3777
   28MPD2     C  428   0.646   2.005  12.306 -0.1235 -0.0580  0.1971
   28MPD2    C1  429   0.722   1.919  12.385  0.3562  0.9637 -0.1672
   28MPD2    C2  430   0.845   1.876  12.346  0.3178 -0.0904 -0.6496
   28MPD2    C3  431   0.903   1.928  12.231  0.3549  0.0419 -0.0521
   28MPD2    C4  432   0.825   2.009  12.147  0.1813  0.5056 -0.3513
   28MPD2    C5  433   0.698   2.052  12.183 -0.6222 -0.2278 -0.4435
   28MPD2     H  434   0.903   1.811  12.410 -0.3508 -0.5306 -0.4908
   28MPD2    H1  435   0.863   2.051  12.054  2.4212  2.4218  1.4206
   28MPD2    H2  436   0.548   2.033  12.342 -0.5292 -0.6608 -0.4312
   28MPD2    H3  437   0.630   2.111  12.123  0.6447  1.1142 -0.5715
   28MPD2     N  438   1.046   1.924  12.217 -0.5118 -0.2310  0.4105
   28MPD2    H5  439   1.086   1.894  12.306  1.8264  2.0598  0.1445
   28MPD2    N1  440   0.673   1.884  12.508  0.4646  0.5375 -0.0071
   28MPD2    H7  441   0.583   1.931  12.521 -0.2117 -0.5303 -0.8216
   29MPD2     C  442   0.525   3.674  13.815  0.1537  0.8165  0.4102
   29MPD2    C1  443   0.556   3.622  13.943  0.1607  0.3950 -1.0729
   29MPD2    C2  444   0.515   3.689  14.057  0.2982  0.4642 -0.5632
   29MPD2    C3  445   0.446   3.809  14.047  0.3165  0.2538  0.0279
   29MPD2    C4  446   0.410   3.856  13.920  0.1731  0.6997  0.3576
   29MPD2    C5  447   0.451   3.788  13.811  0.4446  0.5455 -0.9155
   29MPD2     H  448   0.549   3.640  14.147  0.7365  2.5876  0.4204
   29MPD2    H1  449   0.363   3.954  13.913  0.6958  0.8370 -1.1089
   29MPD2    H2  450   0.553   3.629  13.720 -1.7111 -0.4045  0.4467
   29MPD2    H3  451   0.429   3.841  13.719 -1.1521  0.7169 -0.4260
   29MPD2     N  452   0.406   3.891  14.159 -0.2083 -0.3071  0.5547
   29MPD2    H5  453   0.378   3.986  14.140  0.5386 -0.4479 -1.2010
   29MPD2    N1  454   0.617   3.495  13.968 -0.2468  0.1854 -0.2232
   29MPD2    H7  455   0.642   3.469  14.062 -1.3877 -0.6020 -0.1328
   30TCq2    C1  456   0.429   3.860  14.292 -0.2099  1.1148  0.0355
   30TCq2    O2  457   0.493   3.759  14.323 -0.4875  0.1013  0.0214
   30TCq2    C2  458   0.437   3.975  14.383  0.1414 -0.4328 -0.1587
   30TCq2    C3  459   0.480   3.947  14.511 -0.4543  0.3357 -0.7194
   30TCq2    C4  460   0.519   4.048  14.591 -0.6465 -0.0569 -0.3951
   30TCq2    C5  461   0.509   4.175  14.546  0.6354  0.3139  0.6184
   30TCq2    C6  462   0.483   4.198  14.410  0.9775 -0.1038  0.2528
   30TCq2    C7  463   0.434   4.103  14.335  0.3930 -0.0559  0.1446
   30TCq2    C8  464   0.521   4.329  14.347 -0.6468  0.4290  0.0089
   30TCq2    O4  465   0.479   4.362  14.239  0.0640 -0.0436 -0.6281
   30TCq2    C9  466   0.562   4.030  14.731 -0.1959  0.8626 -0.4111
   30TCq2    O5  467   0.592   4.134  14.793 -0.5957  0.1439  0.3776
   30TCq2    O6  468   0.558   3.914  14.782  0.8702  0.2440  0.1331
   30TCq2    H2  469   0.497   3.849  14.554  2.6620  0.6756 -1.2186
   30TCq2    H3  470   0.527   4.245  14.626 -0.0787 -0.6054  1.5795
   30TCq2    H4  471   0.432   4.127  14.229 -0.9648  0.4815  0.2942
   31MPD2     C  472   3.402   3.013  14.761  0.3997  0.1001 -0.3621
   31MPD2    C1  473   3.269   3.032  14.776 -0.0652  0.5076  1.0187
   31MPD2    C2  474   3.192   2.948  14.853 -0.0379  0.1021  0.6105
   31MPD2    C3  475   3.251   2.834  14.907  1.2002  0.5227  1.1388
   31MPD2    C4  476   3.386   2.825  14.907  0.2307 -0.5784 -0.1624
   31MPD2    C5  477   3.458   2.915  14.836 -0.1472 -0.1819 -0.1384
   31MPD2     H  478   3.087   2.970  14.869 -0.1464  2.0949 -2.8362
   31MPD2    H1  479   3.433   2.740  14.955  0.3588 -1.3368 -1.6555
   31MPD2    H2  480   3.462   3.077  14.696 -1.7790  2.1900 -0.3337
   31MPD2    H3  481   3.566   2.907  14.836 -0.1167  0.2704  0.9798
   31MPD2     N  482   3.182   2.725  14.963 -0.0024  0.6081  0.1380
   31MPD2    H5  483   3.231   2.643  14.998 -1.3629 -0.3304 -0.1624
   31MPD2    N1  484   3.207   3.133  14.691 -0.4926  0.0953 -0.6893
   31MPD2    H7  485   3.263   3.190  14.629 -0.8650 -0.9376 -1.9660
   32TCq2    C1  486   3.045   2.714  14.957 -0.6573  0.1507 -0.1888
   32TCq2    O2  487   2.967   2.758  14.877  0.0820 -0.1366  0.1789
   32TCq2    C2  488   2.998   2.595  15.029  1.2115  0.0721  0.5240
   32TCq2    C3  489   2.875   2.554  14.982 -0.4313 -0.5882  0.9987
   32TCq2    C4  490   2.796   2.474  15.065 -0.5720  0.4659 -0.4433
   32TCq2    C5  491   2.841   2.453  15.196  0.3100 -0.1058 -0.2560
   32TCq2    C6  492   2.957   2.512  15.239  0.2325 -0.7450  0.2449
   32TCq2    C7  493   3.034   2.590  15.159 -0.0521 -0.2804  0.4680
   32TCq2    C8  494   2.988   2.510  15.379 -0.1708  0.3878 -0.1261
   32TCq2    O4  495   3.102   2.546  15.421  0.7284  0.0982  0.1162
   32TCq2    C9  496   2.680   2.409  15.025 -0.5229  0.5315  0.4356
   32TCq2    O5  497   2.629   2.451  14.916 -0.5415 -0.4271  0.4296
   32TCq2    O6  498   2.614   2.334  15.106 -0.1720 -0.2164 -0.2012
   32TCq2    H2  499   2.847   2.560  14.877  2.6333 -0.0726  0.2125
   32TCq2    H3  500   2.792   2.378  15.257  1.1209 -0.6988 -0.3250
   32TCq2    H4  501   3.130   2.620  15.199 -0.6055  1.5313  0.4710
   33MPD2     C  502   2.906   0.289  10.055 -0.2833  0.1170  0.8411
   33MPD2    C1  503   2.780   0.248  10.095  0.0432  0.2504 -0.4681
   33MPD2    C2  504   2.705   0.170  10.002  0.1468  0.5141  0.6051
   33MPD2    C3  505   2.751   0.156   9.872 -0.0520 -0.7170  0.9246
   33MPD2    C4  506   2.878   0.202   9.837  0.3580 -0.2976 -0.2877
   33MPD2    C5  507   2.955   0.267   9.930  0.0054 -0.1389  0.6021
   33MPD2     H  508   2.617   0.126  10.047 -0.1670  0.5264 -0.0096
   33MPD2    H1  509   2.910   0.207   9.734  0.5732  0.6217 -0.1743
   33MPD2    H2  510   2.954   0.337  10.140 -1.8891  0.4636  1.5535
   33MPD2    H3  511   3.056   0.298   9.906 -0.1201  1.6336  2.3130
   33MPD2     N  512   2.685   0.094   9.767 -0.0121  0.0785  1.0067
   33MPD2    H5  513   2.712   0.112   9.670  1.4204 -0.6078  1.2743
   33MPD2    N1  514   2.735   0.290  10.223  0.7274  0.1739  0.5953
   33MPD2    H7  515   2.792   0.353  10.279 -1.8654  1.0811  2.2180
   34TCq2    C1  516   2.554   0.044   9.774 -0.5233 -0.3158 -0.6983
   34TCq2    O2  517   2.496   0.009   9.878  0.0373  0.7816 -0.0299
   34TCq2    C2  518   2.488   0.039   9.651 -0.5149  0.8266  0.1457
   34TCq2    C3  519   2.362   4.711   9.653  0.2316 -0.7802 -0.1492
   34TCq2    C4  520   2.290   4.705   9.540  0.6733  0.2186  0.2259
   34TCq2    C5  521   2.340   0.029   9.423 -0.3650  0.0281  0.3227
   34TCq2    C6  522   2.466   0.090   9.429 -0.6800 -0.2249  0.4237
   34TCq2    C7  523   2.535   0.096   9.543 -0.0272 -0.6160  0.0230
   34TCq2    C8  524   2.528   0.152   9.310 -0.1905  0.2252  0.0697
   34TCq2    O4  525   2.633   0.213   9.323 -0.0018  0.2346  0.5033
   34TCq2    C9  526   2.156   4.648   9.543 -0.5302  0.6884  0.2391
   34TCq2    O5  527   2.087   4.638   9.440  0.3386  0.6184 -0.7374
   34TCq2    O6  528   2.110   4.613   9.651 -0.1233 -0.0958 -0.2860
   34TCq2    H2  529   2.323   4.662   9.742 -1.7712  0.6602 -0.2409
   34TCq2    H3  530   2.264   0.031   9.346 -0.0295  1.7187  0.0402
   34TCq2    H4  531   2.633   0.142   9.535 -0.3227 -0.0215 -0.1302
   35MPD2     C  532   4.656   2.271  11.765 -0.6602 -0.0053 -0.5133
   35MPD2    C1  533   4.678   2.133  11.775 -0.5215  0.5020  0.3693
   35MPD2    C2  534   4.642   2.055  11.663 -0.0118 -0.2194  0.6407
   35MPD2    C3  535   4.584   2.116  11.554 -0.3345 -0.2127 -0.2011
   35MPD2    C4  536   4.554   2.253  11.554 -0.0886  0.0768 -0.1257
   35MPD2    C5  537   4.592   2.329  11.663  0.0256  0.7070  0.6376
   35MPD2     H  538   4.644   1.947  11.662 -0.6818 -0.2322  0.6359
   35MPD2    H1  539   4.517   2.310  11.469  2.0674 -2.7298 -2.9577
   35MPD2    H2  540   4.683   2.338  11.846  2.5173 -1.6947 -0.2169
   35MPD2    H3  541   4.577   2.437  11.658  0.4947  0.7736  0.6445
   35MPD2     N  542   4.542   2.031  11.451  0.7109  0.9245  0.0567
   35MPD2    H5  543   4.541   1.932  11.476  1.0843  0.5330 -1.4549
   35MPD2    N1  544   0.019   2.087  11.889 -0.2184 -0.2495  0.7221
   35MPD2    H7  545   0.019   2.138  11.977  0.6562 -0.1121  0.6386
   36TCq2    C1  546   4.500   2.076  11.325 -0.1418 -0.3018  0.3810
   36TCq2    O2  547   4.489   2.189  11.276  0.2780 -0.4800  0.0159
   36TCq2    C2  548   4.426   1.981  11.253  0.6014  0.0485 -0.7083
   36TCq2    C3  549   4.346   2.034  11.149  0.1860  0.0280 -0.0612
   36TCq2    C4  550   4.243   1.966  11.100 -0.2269  0.7011  0.1172
   36TCq2    C5  551   4.216   1.841  11.145  0.1476 -0.7842 -0.4937
   36TCq2    C6  552   4.289   1.792  11.246  0.9838  0.6414  0.2504
   36TCq2    C7  553   4.397   1.857  11.301 -0.4883 -0.0641 -0.0144
   36TCq2    C8  554   4.253   1.664  11.307 -0.8083  0.6422  0.9346
   36TCq2    O4  555   4.151   1.611  11.263  0.2622 -0.4817 -0.0502
   36TCq2    C9  556   4.157   2.017  10.995 -0.2240  0.4461  0.1204
   36TCq2    O5  557   4.063   1.947  10.952 -0.0341 -0.3892 -0.0125
   36TCq2    O6  558   4.169   2.137  10.963 -0.2620 -0.2487  0.1892
   36TCq2    H2  559   4.361   2.133  11.107  2.7468 -0.7281 -0.9353
   36TCq2    H3  560   4.128   1.789  11.110 -0.1489 -0.5941 -0.0339
   36TCq2    H4  561   4.423   1.822  11.401  0.3615 -0.7061 -0.4616
   37TMC2    C1  562   1.889   1.617  12.099  0.5168 -0.5273  0.0084
   37TMC2    C2  563   1.862   1.501  12.037 -0.1307  0.4337 -0.2373
   37TMC2    C3  564   1.900   1.478  11.911  0.4872  0.3791 -0.0337
   37TMC2    C4  565   1.975   1.708  12.033 -0.5511  0.3725 -0.0507
   37TMC2    C5  566   2.000   1.688  11.896 -0.2473 -0.5702 -0.0487
   37TMC2    C6  567   1.972   1.566  11.837 -0.8714  0.0011 -0.0319
   37TMC2     C  568   1.841   1.638  12.235 -0.0477 -0.0192  0.0702
   37TMC2     O  569   1.801   1.537  12.292 -0.3425 -0.4588 -0.2388
   37TMC2     H  570   1.794   1.433  12.088 -1.2548  1.0601 -0.8917
   37TMC2    H1  571   2.013   1.799  12.078  0.7198 -0.6191  0.8694
   37TMC2    H2  572   2.019   1.529  11.746 -0.7514  0.5649 -0.2006
   37TMC2    C7  573   2.084   1.785  11.835 -0.3424 -0.1293  0.3444
   37TMC2    C8  574   1.821   1.379  11.842 -0.1692  0.1841 -0.3751
   37TMC2    O1  575   2.107   1.887  11.900 -0.2451  0.4885 -0.5094
   37TMC2    O2  576   1.784   1.288  11.913  0.5779  0.0241 -0.1362
   37TMC2    O5  577   1.787   1.422  11.715  0.0182 -0.1587 -0.6546
   37TMC2    H5  578   1.819   1.510  11.685  0.3936 -0.3067 -0.6876
   38MPD2     C  579   1.805   1.904  12.676 -0.2344  0.5326 -0.0158
   38MPD2    C1  580   1.904   1.963  12.594  0.9233  0.0152 -0.7727
   38MPD2    C2  581   1.919   1.906  12.468 -0.0433 -0.0195 -0.4246
   38MPD2    C3  582   1.852   1.800  12.426  0.2001  0.2018  0.0108
   38MPD2    C4  583   1.762   1.743  12.511  0.5304 -0.1571 -0.3503
   38MPD2    C5  584   1.747   1.792  12.637  0.3982  0.7745 -0.0085
   38MPD2     H  585   1.993   1.954  12.404 -0.7529  0.6124 -0.7729
   38MPD2    H1  586   1.695   1.660  12.492 -0.6552  0.8826 -0.7151
   38MPD2    H2  587   1.780   1.939  12.775  1.5558  1.1052  0.2349
   38MPD2    H3  588   1.681   1.744  12.708  1.4361 -2.0586 -0.9660
   38MPD2     N  589   1.875   1.760  12.295  0.1184 -0.0734 -0.0869
   38MPD2    H5  590   1.935   1.827  12.249  2.7527 -2.7960 -0.5921
   38MPD2    N1  591   1.968   2.088  12.625 -0.6907  0.6340 -0.7875
   38MPD2    H7  592   2.038   2.121  12.558 -1.1723 -1.0727 -2.1475
   39MPD2     C  593   0.044   2.856   1.384 -0.0460  0.1001 -0.1576
   39MPD2    C1  594   4.700   2.937   1.472  0.4519  0.3527  0.0229
   39MPD2    C2  595   4.572   2.973   1.425 -0.3660  0.4933 -0.2404
   39MPD2    C3  596   4.514   2.914   1.316 -0.5883 -0.3677 -0.2677
   39MPD2    C4  597   4.590   2.832   1.237  0.2494 -0.4587 -0.0053
   39MPD2    C5  598   4.714   2.800   1.268 -0.0727  0.6288  0.7204
   39MPD2     H  599   4.507   3.037   1.484 -0.6912 -0.7656  0.7627
   39MPD2    H1  600   4.542   2.786   1.152  0.9363 -1.0684 -0.0700
   39MPD2    H2  601   0.142   2.824   1.417  0.8482  1.7291 -1.2393
   39MPD2    H3  602   0.054   2.744   1.198 -2.6515  0.1239 -1.1657
   39MPD2     N  603   4.383   2.941   1.279  0.1388  0.4613 -0.0795
   39MPD2    H5  604   4.353   2.913   1.186 -1.8642  0.1080  0.6569
   39MPD2    N1  605   0.031   2.976   1.597  0.0218 -0.6414  0.2651
   39MPD2    H7  606   0.119   2.930   1.620  1.1609  1.7621  0.6553
   40TCq2    C1  607   4.687   3.052   1.692  0.0341 -0.2885 -0.4128
   40TCq2    O2  608   4.579   3.103   1.690  0.6206 -0.6228 -0.1945
   40TCq2    C2  609   0.041   3.056   1.818  0.3697 -0.3770 -0.5091
   40TCq2    C3  610   4.689   3.104   1.922  0.8104  0.4814 -0.6907
   40TCq2    C4  611   0.031   3.153   2.033  0.1351 -0.8720  1.0495
   40TCq2    C5  612   0.168   3.154   2.035  0.3017  0.4793 -0.3891
   40TCq2    C6  613   0.236   3.109   1.929  0.1976  0.1154  0.2411
   40TCq2    C7  614   0.177   3.064   1.814 -0.0391 -0.5508  0.0993
   40TCq2    C8  615   0.384   3.128   1.916 -0.4713 -0.7624  0.1044
   40TCq2    O4  616   0.436   3.106   1.811 -0.9000  0.1055  0.3837
   40TCq2    C9  617   4.679   3.194   2.151 -0.1117  0.4505  0.9201
   40TCq2    O5  618   4.555   3.183   2.149  0.0712  0.2570  0.6753
   40TCq2    O6  619   0.022   3.258   2.236  0.4711  0.1965  0.0650
   40TCq2    H2  620   4.580   3.106   1.922  0.7736 -2.3817  1.4656
   40TCq2    H3  621   0.218   3.195   2.122 -0.3656  1.1075 -0.2997
   40TCq2    H4  622   0.229   3.045   1.720  3.7280  0.7763  1.9188
   41TMC2    C1  623   4.459   1.978  13.452  0.7205 -0.2324 -0.7190
   41TMC2    C2  624   4.439   2.096  13.532 -0.2592  0.3461 -0.0210
   41TMC2    C3  625   4.373   2.199  13.476 -0.8047  0.1425  0.4687
   41TMC2    C4  626   4.403   1.972  13.320 -0.0619 -0.3099  0.5675
   41TMC2    C5  627   4.338   2.082  13.271  0.2913  0.0303 -0.1725
   41TMC2    C6  628   4.329   2.195  13.344  0.5318  0.0952 -0.7172
   41TMC2     C  629   4.510   1.855  13.510  0.1132  0.4754 -0.7767
   41TMC2     O  630   4.566   1.770  13.440 -0.3432  0.3623 -0.2956
   41TMC2     H  631   4.463   2.104  13.637  0.9433 -0.9899 -0.1880
   41TMC2    H1  632   4.423   1.886  13.259 -1.0042 -1.6035  2.0740
   41TMC2    H2  633   4.267   2.278  13.313  2.1753  1.0578 -1.4328
   41TMC2    C7  634   4.246   2.080  13.160  0.4379  0.5390  0.0482
   41TMC2    C8  635   4.321   2.298  13.562 -0.0026  0.6675  0.3307
   41TMC2    O1  636   4.167   2.172  13.144  0.4547 -0.1225  0.0231
   41TMC2    O2  637   4.270   2.269  13.670  0.2883 -0.3205  0.2339
   41TMC2    O5  638   4.333   2.421  13.511  0.1407  0.0319 -0.4196
   41TMC2    H5  639   4.374   2.431  13.423  0.4745  2.6857  0.0375
   42MPD2     C  640   4.615   1.651  13.713 -0.1699  0.1263  0.1628
   42MPD2    C1  641   4.529   1.755  13.743 -0.7705  0.2212  0.5213
   42MPD2    C2  642   4.474   1.764  13.871  0.4261 -0.5228  0.3194
   42MPD2    C3  643   4.506   1.681  13.978 -0.0015  0.9189  0.1179
   42MPD2    C4  644   4.604   1.588  13.948 -0.1294  0.4349 -1.1119
   42MPD2    C5  645   4.655   1.574  13.819  0.1544 -0.2760  0.6485
   42MPD2     H  646   4.406   1.847  13.888  0.4790  0.0365 -2.2272
   42MPD2    H1  647   4.649   1.537  14.032  1.8466 -0.1082 -2.5099
   42MPD2    H2  648   4.651   1.639  13.611  0.5136 -1.3371  0.5866
   42MPD2    H3  649   0.017   1.507  13.804 -0.1314 -0.3206 -0.7376
   42MPD2     N  650   4.458   1.699  14.110 -0.0797  0.3340  0.6875
   42MPD2    H5  651   4.512   1.657  14.184  2.7793 -0.8992 -2.1121
   42MPD2    N1  652   4.485   1.854  13.645 -0.2945  0.0394 -0.1898
   42MPD2    H7  653   4.424   1.923  13.688  0.5538 -0.5604  1.9744
   43MPD2     C  654   0.071   4.263   0.368  0.0222  0.0110 -0.9795
   43MPD2    C1  655   0.162   4.249   0.474 -0.5318 -0.3160 -0.3800
   43MPD2    C2  656   0.144   4.320   0.595  0.2799 -0.1062 -0.0939
   43MPD2    C3  657   0.041   4.409   0.605 -0.1027  0.2875  0.6004
   43MPD2    C4  658   4.684   4.434   0.495 -0.6826 -0.3726 -0.6469
   43MPD2    C5  659   4.697   4.366   0.378 -0.4332  0.0668 -0.0415
   43MPD2     H  660   0.208   4.305   0.681 -0.8231 -0.1519  0.7212
   43MPD2    H1  661   4.595   4.493   0.513 -1.6596 -1.7902 -0.8121
   43MPD2    H2  662   0.074   4.201   0.279 -0.7472 -1.5571  0.0774
   43MPD2    H3  663   4.630   4.394   0.298 -1.0926  0.7344  0.7329
   43MPD2     N  664   0.003   4.472   0.723 -0.4094 -0.2095 -0.0537
   43MPD2    H5  665   4.663   4.551   0.715 -0.6995 -0.4522 -0.1847
   43MPD2    N1  666   0.260   4.148   0.472 -0.0626 -0.3775  0.2900
   43MPD2    H7  667   0.301   4.120   0.561 -2.6922  2.1113  2.3231
   44TCq2    C1  668   0.170   0.115   1.145  0.2903  0.2328  0.0630
   44TCq2    O2  669   0.115   0.225   1.170 -0.2129  0.7431  0.3469
   44TCq2    C2  670   0.080   0.033   1.064  0.2331  0.0219  0.3124
   44TCq2    C3  671   4.674   0.085   1.049 -0.0594  0.1572  0.8349
   44TCq2    C4  672   4.582   0.021   0.980 -0.0254 -0.1083 -0.6141
   44TCq2    C5  673   4.621   4.628   0.915 -0.3405  0.8872 -0.3534
   44TCq2    C6  674   0.024   4.571   0.935  0.1078  0.4262  0.2142
   44TCq2    C7  675   0.118   4.635   1.009 -0.0026 -0.1532  0.1242
   44TCq2    C8  676   0.068   4.467   0.845  0.4339  0.5281  0.2852
   44TCq2    O4  677   0.148   4.386   0.883  0.1810 -0.5095  0.0871
   44TCq2    C9  678   4.452   0.075   0.963  0.9758  0.3168  0.6666
   44TCq2    O5  679   4.427   0.179   1.026  0.0978  0.0083 -0.4562
   44TCq2    O6  680   4.381   0.023   0.874 -0.6955  0.1968  0.2947
   44TCq2    H2  681   4.637   0.180   1.086  0.6253  0.5817  0.4279
   44TCq2    H3  682   4.543   4.576   0.861 -1.1105 -0.4156  2.0473
   44TCq2    H4  683   0.214   4.591   1.030 -0.2844 -0.7975  0.0705
   45TMC2    C1  684   1.431   1.599   9.649 -0.7745 -0.5884 -0.3586
   45TMC2    C2  685   1.553   1.547   9.632  0.0551  0.0593  0.0571
   45TMC2    C3  686   1.651   1.642   9.625 -0.5995  0.7374  0.0367
   45TMC2    C4  687   1.400   1.731   9.666 -0.1622 -0.0157 -0.0748
   45TMC2    C5  688   1.508   1.817   9.659 -0.5148  0.5182 -0.6035
   45TMC2    C6  689   1.635   1.776   9.641 -0.7160  0.9430  0.2745
   45TMC2     C  690   1.322   1.510   9.605  0.1589  0.1053  0.3505
   45TMC2     O  691   1.340   1.385   9.609  0.4591  0.0445  0.2460
   45TMC2     H  692   1.582   1.443   9.624 -2.0355 -0.6662  1.6842
   45TMC2    H1  693   1.299   1.768   9.676 -0.7440 -1.4155 -0.7579
   45TMC2    H2  694   1.715   1.847   9.627  0.7468 -0.3097  2.2707
   45TMC2    C7  695   1.480   1.961   9.693 -0.6302  0.7846 -0.1158
   45TMC2    C8  696   1.769   1.611   9.550 -0.4590  0.1130 -0.2600
   45TMC2    O1  697   1.581   2.017   9.737 -0.1666  0.2692 -0.0421
   45TMC2    O2  698   1.840   1.690   9.493  0.3808 -0.1293 -0.0321
   45TMC2    O5  699   1.814   1.505   9.610 -0.1074  0.1413 -0.9545
   45TMC2    H5  700   1.742   1.455   9.655 -0.2567 -0.8178 -2.2681
   46MPD2     C  701   1.065   1.400   9.531  0.1930  0.4993  0.1505
   46MPD2    C1  702   1.104   1.528   9.500  0.3812 -0.6240  0.5045
   46MPD2    C2  703   1.021   1.611   9.424 -0.0947  0.2150 -0.1536
   46MPD2    C3  704   0.888   1.577   9.403 -0.1983  0.3561  0.0396
   46MPD2    C4  705   0.856   1.454   9.442  0.1939 -0.2449 -0.3905
   46MPD2    C5  706   0.939   1.371   9.498  0.5903  0.0906 -0.0933
   46MPD2     H  707   1.064   1.707   9.395 -3.4384  1.8721  0.4053
   46MPD2    H1  708   0.755   1.415   9.431 -0.6444  2.2455 -1.6737
   46MPD2    H2  709   1.125   1.340   9.598 -0.3792 -0.6105 -0.3320
   46MPD2    H3  710   0.902   1.276   9.535 -0.4931  0.3547 -0.5065
   46MPD2     N  711   0.798   1.671   9.351  0.5015  0.5022 -0.4775
   46MPD2    H5  712   0.825   1.768   9.346 -0.5554  0.8659  0.9099
   46MPD2    N1  713   1.222   1.581   9.542  0.0359 -0.2143 -0.0459
   46MPD2    H7  714   1.245   1.677   9.518 -1.0781  0.6585  2.4248
   47TMC2    C1  715   2.590   1.964   9.415 -0.9071  0.1414 -0.6585
   47TMC2    C2  716   2.558   1.876   9.316 -1.2710  0.0687  0.3096
   47TMC2    C3  717   2.427   1.880   9.263 -0.5758 -0.0701 -0.0452
   47TMC2    C4  718   2.495   2.033   9.476  0.3560 -0.6002  0.1503
   47TMC2    C5  719   2.365   2.039   9.424  0.7164 -0.3865  0.7848
   47TMC2    C6  720   2.335   1.968   9.310  0.5083 -0.4990 -0.3716
   47TMC2     C  721   2.730   1.969   9.462 -0.3167  0.3903 -0.9039
   47TMC2     O  722   2.763   2.035   9.559  0.6856 -0.0761  0.0706
   47TMC2     H  723   2.610   1.805   9.253  0.4299  1.3009  0.3294
   47TMC2    H1  724   2.526   2.092   9.561  0.3974 -1.1411  0.5073
   47TMC2    H2  725   2.234   1.971   9.271  1.0581  0.3347 -1.7127
   47TMC2    C7  726   2.269   2.147   9.466  0.2732 -0.0630  0.3488
   47TMC2    C8  727   2.398   1.776   9.165 -0.8765 -0.3622 -0.8803
   47TMC2    O1  728   2.182   2.186   9.389  0.3317  0.3939 -0.4554
   47TMC2    O2  729   2.480   1.689   9.133 -0.5636  0.6496  0.3025
   47TMC2    O5  730   2.275   1.796   9.110 -0.1533  0.0142  0.6514
   47TMC2    H5  731   2.244   1.889   9.119 -0.2522  0.0193  0.2462
   48MPD2     C  732   3.031   1.935   9.512 -0.8472 -0.3739  0.3317
   48MPD2    C1  733   2.959   1.862   9.424  0.4017 -0.3280 -0.0809
   48MPD2    C2  734   3.023   1.756   9.361  0.3563 -0.6304 -0.5485
   48MPD2    C3  735   3.157   1.731   9.376 -0.6323 -0.9195 -0.3002
   48MPD2    C4  736   3.226   1.800   9.467  0.3787 -0.0716 -0.5687
   48MPD2    C5  737   3.159   1.903   9.528 -0.5257 -1.0046  0.2518
   48MPD2     H  738   2.963   1.691   9.298  1.9000 -2.2882 -0.3304
   48MPD2    H1  739   3.332   1.780   9.479  0.1715 -1.0168 -0.3659
   48MPD2    H2  740   3.004   2.020   9.573 -1.3724  0.0271 -0.4681
   48MPD2    H3  741   3.216   1.955   9.605 -3.7133  1.1873  1.1517
   48MPD2     N  742   3.215   1.628   9.300  0.8587  0.4813  0.4772
   48MPD2    H5  743   3.153   1.571   9.243  2.0606 -0.3664  0.0401
   48MPD2    N1  744   2.817   1.885   9.393  1.1155 -0.0448 -0.3069
   48MPD2    H7  745   2.772   1.827   9.323  0.1311 -0.0240  0.3050
   49MPD2     C  746   1.946   4.721  10.533  0.0626  0.8120 -0.3866
   49MPD2    C1  747   1.807   4.700  10.553  0.5555 -0.0663 -0.1235
   49MPD2    C2  748   1.767   4.683  10.685  0.0425 -0.3166 -0.0882
   49MPD2    C3  749   1.854   4.703  10.793 -0.2955 -0.4208 -0.7214
   49MPD2    C4  750   1.985   4.720  10.764 -0.3693  1.1939  0.1937
   49MPD2    C5  751   2.036   0.002  10.637  0.2107  0.0309  0.1328
   49MPD2     H  752   1.670   4.643  10.710  0.1663 -0.1369  0.7053
   49MPD2    H1  753   2.054   0.028  10.842 -0.9581 -0.4329  1.3497
   49MPD2    H2  754   1.982   0.012  10.431 -1.2617  1.6743 -0.7442
   49MPD2    H3  755   2.143   0.011  10.622  0.3639 -3.1840 -0.7985
   49MPD2     N  756   1.820   4.700  10.935 -0.5126 -0.4044 -0.0094
   49MPD2    H5  757   1.887   4.697  11.011  0.4294 -1.4508 -0.9026
   49MPD2    N1  758   1.709   4.687  10.458  0.0876 -0.4521 -0.1403
   49MPD2    H7  759   1.617   4.650  10.482  1.0367 -1.6821  1.6338
   50TCq2    C1  760   1.731   4.719  10.325  0.4483 -0.4211  0.2426
   50TCq2    O2  761   1.823   0.051  10.270  0.1700  0.7163 -0.0783
   50TCq2    C2  762   1.618   4.673  10.245 -0.4689  0.0906 -0.4591
   50TCq2    C3  763   1.624   4.711  10.115 -0.4431  0.2065 -0.6094
   50TCq2    C4  764   1.542   4.641  10.023  0.5160  0.8283  0.5116
   50TCq2    C5  765   1.455   4.539  10.059 -1.3150 -0.0810  0.9647
   50TCq2    C6  766   1.465   4.500  10.188 -0.2257 -0.0472 -0.0306
   50TCq2    C7  767   1.552   4.558  10.280  0.8566  0.5572 -0.0865
   50TCq2    C8  768   1.454   4.358  10.215  0.1991 -0.3123 -0.5395
   50TCq2    O4  769   1.522   4.310  10.307  0.1118 -0.1937  0.7945
   50TCq2    C9  770   1.555   4.676   9.881  0.1883  0.1587 -0.6059
   50TCq2    O5  771   1.631   0.045   9.845 -0.5981  0.7202  0.1544
   50TCq2    O6  772   1.501   4.592   9.801  0.6505  0.2255  0.0098
   50TCq2    H2  773   1.695   0.067  10.091 -0.6421  0.7564  0.5920
   50TCq2    H3  774   1.400   4.480   9.987 -0.7387  1.2352 -0.5491
   50TCq2    H4  775   1.566   4.513  10.377 -0.1964  2.2194  0.8319
   51MPD2     C  776   3.352   2.105   1.823  0.5178  0.1734 -0.1563
   51MPD2    C1  777   3.289   2.217   1.762 -0.5413  0.0486  0.5181
   51MPD2    C2  778   3.231   2.307   1.845 -0.1758  0.0743 -0.3415
   51MPD2    C3  779   3.236   2.290   1.986 -0.7881 -0.2660  0.0850
   51MPD2    C4  780   3.304   2.192   2.045 -0.4421 -0.1261  0.2481
   51MPD2    C5  781   3.355   2.096   1.961 -0.6392  0.3306  0.7711
   51MPD2     H  782   3.175   2.389   1.801 -0.5940 -0.0622 -0.0712
   51MPD2    H1  783   3.319   2.185   2.152  1.5451 -1.2043 -0.0914
   51MPD2    H2  784   3.416   2.043   1.761 -0.1343  3.5478 -4.2240
   51MPD2    H3  785   3.409   2.007   1.991  2.4868  2.2740  0.8655
   51MPD2     N  786   3.174   2.377   2.081 -0.0350  0.3069 -0.3064
   51MPD2    H5  787   3.166   2.343   2.176 -0.0649 -0.9746 -0.7664
   51MPD2    N1  788   3.283   2.244   1.627 -0.1617  0.3204 -0.2232
   51MPD2    H7  789   3.252   2.336   1.597  0.8158  0.7438  0.0487
   52TCq2    C1  790   3.101   2.489   2.053 -0.0556  0.0235  0.5815
   52TCq2    O2  791   3.072   2.527   1.938 -0.4466 -0.3682  0.1045
   52TCq2    C2  792   3.047   2.563   2.164  0.1240 -0.3381  0.2456
   52TCq2    C3  793   3.090   2.543   2.294  1.2338  0.4201  0.4287
   52TCq2    C4  794   3.033   2.619   2.393  0.9765 -0.3021 -0.7027
   52TCq2    C5  795   2.939   2.709   2.363 -0.0855 -0.3555  0.3643
   52TCq2    C6  796   2.901   2.730   2.235  1.1144 -0.1808 -0.0131
   52TCq2    C7  797   2.960   2.663   2.136 -0.8184  0.4197 -0.5324
   52TCq2    C8  798   2.802   2.830   2.188 -0.1879 -0.3032 -0.1723
   52TCq2    O4  799   2.798   2.866   2.074  0.3389 -0.5451  0.3454
   52TCq2    C9  800   3.081   2.602   2.527  0.4578  0.0477  0.2926
   52TCq2    O5  801   3.038   2.682   2.613  0.1814 -0.2517  0.1855
   52TCq2    O6  802   3.175   2.523   2.549 -0.3312  0.0347  0.1077
   52TCq2    H2  803   3.177   2.484   2.322  0.4923 -0.8260  0.1010
   52TCq2    H3  804   2.905   2.781   2.436  0.5056  0.6861 -0.3981
   52TCq2    H4  805   2.923   2.662   2.034  1.8709  3.1068 -1.5407
   53TMC2    C1  806   2.595   2.281  11.646  0.3765  0.2237  0.5879
   53TMC2    C2  807   2.730   2.307  11.627  0.1398 -0.5161 -0.1143
   53TMC2    C3  808   2.790   2.383  11.720 -0.3790 -0.4026  0.1264
   53TMC2    C4  809   2.534   2.325  11.755  0.5019 -0.4597  0.2751
   53TMC2    C5  810   2.598   2.400  11.844 -0.5832  0.1174 -0.5857
   53TMC2    C6  811   2.726   2.437  11.829 -0.3963 -0.0563 -0.3327
   53TMC2     C  812   2.534   2.167  11.571 -0.0936 -0.7891 -0.0313
   53TMC2     O  813   2.596   2.125  11.476  0.6718  0.0272  0.8349
   53TMC2     H  814   2.775   2.279  11.533 -0.5081 -1.4124 -0.1585
   53TMC2    H1  815   2.431   2.298  11.776 -0.1291  1.1818 -0.7882
   53TMC2    H2  816   2.780   2.500  11.899  1.2926 -1.9845  0.1221
   53TMC2    C7  817   2.535   2.437  11.970  0.0992  0.7558  0.5164
   53TMC2    C8  818   2.915   2.447  11.685 -0.2149 -0.2329 -0.2689
   53TMC2    O1  819   2.414   2.429  11.977 -0.6844 -0.2865 -0.0953
   53TMC2    O2  820   2.907   2.571  11.676  0.2830 -0.5253 -0.1928
   53TMC2    O5  821   2.965   2.370  11.586  0.1607 -0.2871  0.5485
   53TMC2    H5  822   2.964   2.274  11.606  0.7474 -0.2214  0.9042
   54MPD2     C  823   2.356   1.957  11.450 -0.5256 -1.1648  0.3747
   54MPD2    C1  824   2.358   2.003  11.582  0.4849 -0.1069  0.0002
   54MPD2    C2  825   2.284   1.923  11.665  0.9995  0.1379 -0.2022
   54MPD2    C3  826   2.196   1.822  11.633 -0.3154 -0.8588 -0.2025
   54MPD2    C4  827   2.194   1.797  11.496  0.6841 -0.0691  0.1978
   54MPD2    C5  828   2.274   1.857  11.408 -0.0878 -0.3505  0.9459
   54MPD2     H  829   2.290   1.951  11.769 -1.8951  0.2658 -0.0593
   54MPD2    H1  830   2.130   1.715  11.463  1.1782  0.1565 -1.3117
   54MPD2    H2  831   2.408   2.002  11.366  1.5575 -2.1380  1.1451
   54MPD2    H3  832   2.264   1.829  11.304  1.1109 -1.2021  1.0595
   54MPD2     N  833   2.104   1.751  11.705 -0.1469  0.5587 -0.0779
   54MPD2    H5  834   2.042   1.686  11.658 -1.2607  1.3920  0.2368
   54MPD2    N1  835   2.426   2.112  11.636 -0.2082  0.0664  0.6677
   54MPD2    H7  836   2.411   2.146  11.730 -1.1752  0.6363  0.3002
   55MPD2     C  837   3.932   3.907  17.259  0.1751  0.1871  0.3628
   55MPD2    C1  838   3.890   3.861  17.377  0.3164  0.1287 -0.7956
   55MPD2    C2  839   3.817   3.944  17.464 -0.3634 -0.0571  1.0199
   55MPD2    C3  840   3.805   4.077  17.429  0.2831  0.6992 -0.1606
   55MPD2    C4  841   3.833   4.123  17.301  0.5046 -0.2755 -0.6028
   55MPD2    C5  842   3.890   4.027  17.218  0.2453 -0.2802  0.1946
   55MPD2     H  843   3.785   3.902  17.559 -0.3740 -2.0070  0.1618
   55MPD2    H1  844   3.820   4.229  17.282  3.7183  0.1664 -0.3935
   55MPD2    H2  845   3.988   3.847  17.189 -2.1070 -0.1842 -1.1169
   55MPD2    H3  846   3.921   4.064  17.121  0.0919  0.3088  0.3634
   55MPD2     N  847   3.747   4.162  17.529  0.0161 -0.5859  0.5277
   55MPD2    H5  848   3.737   4.116  17.619 -0.0135 -0.8798  0.3761
   55MPD2    N1  849   3.929   3.732  17.419  0.5302 -0.4640 -0.3338
   55MPD2    H7  850   3.968   3.678  17.343 -0.4308 -1.3522 -0.1911
   56TCq2    C1  851   3.915   3.674  17.543 -0.0377 -0.0273  0.1919
   56TCq2    O2  852   3.882   3.734  17.644  0.1320 -0.1252 -0.3062
   56TCq2    C2  853   3.948   3.538  17.549  0.8145  0.0871  0.0048
   56TCq2    C3  854   3.916   3.458  17.440 -0.4573 -0.1132 -0.4854
   56TCq2    C4  855   3.896   3.324  17.459  0.9963 -0.0222 -0.1572
   56TCq2    C5  856   3.897   3.272  17.584 -0.1356  0.5827  0.3523
   56TCq2    C6  857   3.918   3.358  17.686 -0.1822  0.1953  0.5215
   56TCq2    C7  858   3.944   3.491  17.676  0.0349  0.5877 -0.8832
   56TCq2    C8  859   3.887   3.305   0.127 -0.2671 -0.2110  0.6402
   56TCq2    O4  860   3.888   3.185   0.137  0.1955 -0.0893 -0.5823
   56TCq2    C9  861   3.844   3.249  17.347  0.5486  0.6506 -0.4230
   56TCq2    O5  862   3.789   3.142  17.370  0.4480  0.5919 -0.1320
   56TCq2    O6  863   3.898   3.279  17.235  0.2407  0.2579  0.0437
   56TCq2    H2  864   3.892   3.496  17.341  0.3630  2.2643  0.2489
   56TCq2    H3  865   3.858   3.172  17.601  2.7298 -0.6757 -0.5551
   56TCq2    H4  866   3.971   3.557   0.067 -1.1420 -0.3910  0.3018
   57TMC2    C1  867   2.567   1.016  14.061 -0.2261  0.2138 -0.1998
   57TMC2    C2  868   2.650   0.927  14.118  0.4825  0.3188  0.2494
   57TMC2    C3  869   2.764   0.897  14.044  0.4411 -1.2058  0.0283
   57TMC2    C4  870   2.594   1.086  13.944  0.1410  0.4002  0.3547
   57TMC2    C5  871   2.693   1.036  13.866 -0.4260  0.2879  0.2732
   57TMC2    C6  872   2.779   0.943  13.911 -0.0662  0.0723  0.1860
   57TMC2     C  873   2.432   1.032  14.116  0.3773 -0.4815  0.2943
   57TMC2     O  874   2.370   1.123  14.071 -0.3450  0.3034  0.4907
   57TMC2     H  875   2.622   0.882  14.213 -0.4250 -1.4067 -0.8369
   57TMC2    H1  876   2.522   1.154  13.901  0.0463  0.7698  1.1073
   57TMC2    H2  877   2.869   0.919  13.854  1.1684  0.6309  1.8959
   57TMC2    C7  878   2.675   1.053  13.726 -0.2183  0.5594 -0.2114
   57TMC2    C8  879   2.870   0.831  14.107  0.0309  0.4212 -0.4706
   57TMC2    O1  880   2.611   1.148  13.684 -0.0659 -0.5485  0.6777
   57TMC2    O2  881   2.880   0.827  14.226 -0.3500  0.4615 -0.1366
   57TMC2    O5  882   2.905   0.730  14.023  0.3232 -0.3060 -0.0196
   57TMC2    H5  883   2.868   0.743  13.933 -1.8957  0.9072  1.0619
   58MPD2     C  884   2.056   0.993  14.453  0.4632 -0.0367 -0.6972
   58MPD2    C1  885   2.109   1.104  14.387 -0.2647  0.4003 -0.7811
   58MPD2    C2  886   2.221   1.088  14.304  0.1116 -0.4574  0.1420
   58MPD2    C3  887   2.282   0.965  14.295  0.1502 -0.4002  0.0931
   58MPD2    C4  888   2.230   0.855  14.365 -0.5509 -0.5882 -0.3101
   58MPD2    C5  889   2.125   0.874  14.444  0.1945  0.0163  0.5942
   58MPD2     H  890   2.259   1.179  14.260  0.0230 -0.5497 -0.1316
   58MPD2    H1  891   2.286   0.763  14.364 -2.5985 -1.8786  2.0604
   58MPD2    H2  892   1.961   0.994  14.504  1.2438 -1.3283  0.7792
   58MPD2    H3  893   2.081   0.791  14.498  2.6050  0.1343  2.7484
   58MPD2     N  894   2.397   0.940  14.213  0.1119  0.0072 -0.3640
   58MPD2    H5  895   2.439   0.848  14.207  0.9737  0.3101  1.0031
   58MPD2    N1  896   2.045   1.231  14.383  0.5422 -0.6962 -0.3573
   58MPD2    H7  897   2.098   1.307  14.343  0.7292  0.1489  1.5177
   59MPD2     C  898   0.387   1.085  13.378  0.8409 -0.7015  1.1650
   59MPD2    C1  899   0.484   1.103  13.288  0.0769  0.1438  0.0281
   59MPD2    C2  900   0.610   1.138  13.332 -0.5811  0.2412  0.5710
   59MPD2    C3  901   0.639   1.156  13.465 -0.1393  0.6581 -0.5891
   59MPD2    C4  902   0.543   1.127  13.560  0.4948 -0.9791 -0.1182
   59MPD2    C5  903   0.418   1.088  13.511 -0.1187  0.4912  0.0193
   59MPD2     H  904   0.689   1.161  13.262  0.0513 -1.7905  0.6133
   59MPD2    H1  905   0.565   1.127  13.666  2.0665  1.4462 -0.4426
   59MPD2    H2  906   0.286   1.060  13.350  0.6377 -0.2488  1.4909
   59MPD2    H3  907   0.343   1.063  13.586  0.1933  1.4217  0.6473
   59MPD2     N  908   0.756   1.220  13.515  0.1953  0.0852  0.1203
   59MPD2    H5  909   0.755   1.258  13.609  0.4123 -1.6232  0.8073
   59MPD2    N1  910   0.464   1.102  13.149  0.3797 -0.4573  0.1753
   59MPD2    H7  911   0.550   1.102  13.095 -1.8553 -1.4609 -3.3923
   60TCq2    C1  912   0.343   1.100  13.083  0.1495  0.3484  0.0993
   60TCq2    O2  913   0.232   1.087  13.140  0.4147 -0.2307 -0.2490
   60TCq2    C2  914   0.356   1.077  12.940 -0.4484  1.2774 -0.0525
   60TCq2    C3  915   0.248   1.013  12.886  0.5019  0.7290  0.2987
   60TCq2    C4  916   0.217   1.027  12.755  0.1981 -0.7523  0.4341
   60TCq2    C5  917   0.284   1.121  12.681 -0.3452 -0.0033 -0.0076
   60TCq2    C6  918   0.394   1.187  12.742  0.2082  0.0673  0.1607
   60TCq2    C7  919   0.431   1.160  12.869 -0.7167 -0.8618 -0.1018
   60TCq2    C8  920   0.485   1.274  12.657 -0.6609 -0.9081  0.0832
   60TCq2    O4  921   0.605   1.285  12.683 -0.0475  0.0721 -0.7130
   60TCq2    C9  922   0.096   0.958  12.706 -0.1837  0.4178 -0.0683
   60TCq2    O5  923   0.073   0.843  12.756 -0.5056 -0.0448 -0.0339
   60TCq2    O6  924   0.035   1.006  12.613  0.2084  0.0159  0.2959
   60TCq2    H2  925   0.193   0.943  12.947  0.1235  1.1783  0.4706
   60TCq2    H3  926   0.245   1.150  12.584  0.9555 -0.0264 -0.5364
   60TCq2    H4  927   0.513   1.219  12.910 -0.8946  0.9594 -2.3859
   61MPD2     C  928   4.636   2.055  14.504 -0.1622  0.1759  0.6410
   61MPD2    C1  929   4.691   2.178  14.544 -0.1255  0.0949 -0.1783
   61MPD2    C2  930   0.046   2.255  14.461 -0.9419  0.4370  0.0984
   61MPD2    C3  931   0.085   2.195  14.341  0.1901  0.0988  0.4143
   61MPD2    C4  932   0.022   2.081  14.297 -0.8336 -0.3110 -0.4832
   61MPD2    C5  933   4.653   2.017  14.378 -0.0166  0.1124  0.3603
   61MPD2     H  934   0.068   2.356  14.493 -2.4555  0.2999  1.5453
   61MPD2    H1  935   0.045   2.033  14.202 -0.9038 -0.2512 -0.5299
   61MPD2    H2  936   4.576   1.998  14.574  0.5229 -0.9604  0.3014
   61MPD2    H3  937   4.611   1.921  14.349 -0.4217 -0.1386  1.8291
   61MPD2     N  938   0.179   2.256  14.253 -0.3407 -1.0922  0.2706
   61MPD2    H5  939   0.212   2.209  14.169 -0.4196  0.0059 -0.3746
   61MPD2    N1  940   4.655   2.233  14.670 -0.0096  0.0778 -0.3458
   61MPD2    H7  941   4.667   2.332  14.688  0.5759 -0.4045  1.8718
   62TCq2    C1  942   4.606   2.158  14.775 -0.0212 -0.2115 -0.0503
   62TCq2    O2  943   4.620   2.039  14.795 -0.2005 -0.6997 -0.2992
   62TCq2    C2  944   4.549   2.233  14.883 -0.0507  0.0079  0.3283
   62TCq2    C3  945   4.566   2.183  15.012 -0.0174  0.0926  1.4640
   62TCq2    C4  946   4.500   2.251  15.110  0.6960  0.1128 -0.4530
   62TCq2    C5  947   4.431   2.363  15.087  0.8218 -0.5585  0.1750
   62TCq2    C6  948   4.422   2.412  14.959 -0.2423 -0.6482  0.6763
   62TCq2    C7  949   4.486   2.351  14.856 -0.2624 -0.6400  0.4700
   62TCq2    C8  950   4.353   2.535  14.937  0.4611  0.2484 -0.0149
   62TCq2    O4  951   4.354   2.618  15.026  0.8444 -0.4275  0.0063
   62TCq2    C9  952   4.524   2.223  15.247 -0.1184  0.1218  0.4580
   62TCq2    O5  953   4.598   2.123  15.271  0.1118 -0.2298  0.0614
   62TCq2    O6  954   4.453   2.279  15.333 -0.6125  0.2073  0.1377
   62TCq2    H2  955   4.617   2.090  15.032 -0.6132 -0.3406  0.9933
   62TCq2    H3  956   4.399   2.428  15.168  0.9105 -1.6540  1.0871
   62TCq2    H4  957   4.481   2.373  14.751  0.6338 -0.1699  0.5241
   63TMC2    C1  958   3.247   2.468  10.012  0.5795 -0.0355  0.1034
   63TMC2    C2  959   3.233   2.343   9.957 -0.1192  0.4216  0.2079
   63TMC2    C3  960   3.182   2.335   9.831 -0.2043  1.1448 -0.3514
   63TMC2    C4  961   3.190   2.577   9.952 -0.3907 -0.0860  0.5490
   63TMC2    C5  962   3.140   2.561   9.824 -0.0626 -0.7436  0.2545
   63TMC2    C6  963   3.138   2.446   9.755 -0.1129  0.0428  0.5982
   63TMC2     C  964   3.284   2.480  10.154  0.4429  0.2961 -0.2806
   63TMC2     O  965   3.234   2.574  10.210 -0.6170  0.0628 -0.8519
   63TMC2     H  966   3.249   2.254  10.017  0.2967 -0.2363 -0.8726
   63TMC2    H1  967   3.190   2.671  10.007  0.6763 -0.5396  1.3185
   63TMC2    H2  968   3.099   2.430   9.655 -0.7052  1.2724  0.6236
   63TMC2    C7  969   3.041   2.655   9.792  0.0139 -0.4034 -0.6425
   63TMC2    C8  970   3.168   2.209   9.776  0.1659 -0.3221  0.1976
   63TMC2    O1  971   3.020   2.731   9.885 -0.0160  0.1050  0.1233
   63TMC2    O2  972   3.096   2.200   9.681  0.4998 -0.4923 -0.0921
   63TMC2    O5  973   3.252   2.117   9.829 -0.5807 -0.3537  0.3734
   63TMC2    H5  974   3.322   2.152   9.888  0.3097 -0.5121 -0.5936
   64MPD2     C  975   3.369   2.235  10.597  0.5932 -0.2267 -0.0331
   64MPD2    C1  976   3.426   2.163  10.492 -0.2377  0.0948 -0.8695
   64MPD2    C2  977   3.403   2.208  10.366 -0.3279  0.5556 -0.8073
   64MPD2    C3  978   3.342   2.330  10.341 -0.1628  0.3888  0.5252
   64MPD2    C4  979   3.310   2.416  10.443 -0.2692  0.8651 -0.5296
   64MPD2    C5  980   3.328   2.365  10.569 -0.9296  0.3972 -0.5683
   64MPD2     H  981   3.438   2.150  10.281  0.7777 -0.4415  0.3235
   64MPD2    H1  982   3.280   2.519  10.430 -0.6785  0.8491  0.3271
   64MPD2    H2  983   3.386   2.209  10.701  3.1929  3.0862  0.3825
   64MPD2    H3  984   3.322   2.438  10.649  2.8281  0.4538 -0.3310
   64MPD2     N  985   3.338   2.364  10.205 -0.4321  0.5426  0.4355
   64MPD2    H5  986   3.361   2.293  10.136  0.0348  0.8024  0.3235
   64MPD2    N1  987   3.492   2.037  10.505  1.2397  0.1480 -0.5397
   64MPD2    H7  988   3.534   1.999  10.421  0.5885 -2.1172  0.1714
   65MPD2     C  989   0.779   1.888  15.826 -0.0646 -0.2344 -0.0904
   65MPD2    C1  990   0.695   1.885  15.718 -0.2424 -0.2288  0.3248
   65MPD2    C2  991   0.610   1.781  15.706 -0.8558 -0.4257 -0.8509
   65MPD2    C3  992   0.610   1.671  15.789  0.3810 -0.7674 -0.0466
   65MPD2    C4  993   0.687   1.685  15.904  0.2800 -0.3030 -0.4683
   65MPD2    C5  994   0.778   1.779  15.912 -0.4546 -0.7707  0.2932
   65MPD2     H  995   0.555   1.775  15.612 -1.9212  0.6267 -0.2909
   65MPD2    H1  996   0.685   1.600  15.972  1.4252 -0.2130 -0.3110
   65MPD2    H2  997   0.856   1.964  15.838 -1.3242  1.3431 -2.1506
   65MPD2    H3  998   0.854   1.786  15.989  0.1330  0.3035 -0.3774
   65MPD2     N  999   0.514   1.569  15.786  0.4605 -0.9014  1.1311
   65MPD2    H5 1000   0.504   1.514  15.871 -0.2292 -0.9091  1.0472
   65MPD2    N1 1001   0.704   1.981  15.618 -0.0724 -0.7268 -0.1059
   65MPD2    H7 1002   0.665   1.979  15.524  1.1538  2.3117 -0.6912
   66TCq2    C1 1003   0.759   2.104  15.640  0.2995  0.2849 -0.0490
   66TCq2    O2 1004   0.773   2.170  15.741 -0.0444 -0.0987  0.1973
   66TCq2    C2 1005   0.758   2.178  15.520  0.1979 -0.5783  0.7232
   66TCq2    C3 1006   0.734   2.108  15.404 -0.5913 -0.4596  0.1602
   66TCq2    C4 1007   0.661   2.169  15.306 -0.7062  1.0293  0.2961
   66TCq2    C5 1008   0.615   2.298  15.327  0.2019  0.0384  0.2105
   66TCq2    C6 1009   0.648   2.369  15.439 -0.5437 -0.2852 -0.4336
   66TCq2    C7 1010   0.722   2.307  15.537 -0.1519 -0.2748  0.1407
   66TCq2    C8 1011   0.593   2.504  15.451 -1.0005 -0.7663  0.5717
   66TCq2    O4 1012   0.619   2.570  15.354 -0.5988  0.4521  0.0818
   66TCq2    C9 1013   0.634   2.104  15.181  0.5466 -0.4673  0.1698
   66TCq2    O5 1014   0.679   1.985  15.165 -0.5321  0.4252  0.3839
   66TCq2    O6 1015   0.575   2.172  15.090 -0.1529 -0.0084  0.1006
   66TCq2    H2 1016   0.772   2.009  15.380  1.0719  0.4936 -1.1212
   66TCq2    H3 1017   0.587   2.347  15.235 -1.6258 -0.0454  0.7314
   66TCq2    H4 1018   0.753   2.364  15.624 -0.3163 -0.3877  0.2731
   67MPD2     C 1019   0.164   1.026  14.086  0.2324  0.0677  0.3178
   67MPD2    C1 1020   0.124   1.126  14.176 -0.5326 -0.1789  0.1951
   67MPD2    C2 1021   0.003   1.188  14.159  0.4910 -0.3104  0.3226
   67MPD2    C3 1022   4.662   1.183  14.045 -0.7650 -0.4584 -0.1622
   67MPD2    C4 1023   4.714   1.091  13.957  1.0128  0.9185 -0.7180
   67MPD2    C5 1024   0.095   1.006  13.976 -0.5575  0.9040  0.4642
   67MPD2     H 1025   4.688   1.265  14.226 -1.1242 -0.3163 -0.5979
   67MPD2    H1 1026   4.675   1.081  13.856 -1.3687  0.5887  0.2212
   67MPD2    H2 1027   0.261   0.977  14.082  0.7251  1.1068 -0.7290
   67MPD2    H3 1028   0.134   0.938  13.902 -1.0292  0.5533  0.5350
   67MPD2     N 1029   4.532   1.234  14.014 -0.2793 -0.2574 -0.2444
   67MPD2    H5 1030   4.499   1.217  13.920  3.1663 -1.6573 -1.2087
   67MPD2    N1 1031   0.202   1.164  14.290  0.4728  0.2022 -0.7522
   67MPD2    H7 1032   0.163   1.229  14.358 -3.3044 -0.8823 -1.8968
   68TCq2    C1 1033   0.333   1.125  14.311  0.1322 -0.4892  0.1330
   68TCq2    O2 1034   0.396   1.051  14.241  0.9631  0.0862 -0.1464
   68TCq2    C2 1035   0.402   1.184  14.423  0.8212  0.2812 -0.3892
   68TCq2    C3 1036   0.357   1.303  14.469 -0.1598  0.3151  0.5082
   68TCq2    C4 1037   0.424   1.362  14.570 -0.3236 -0.0444  0.3478
   68TCq2    C5 1038   0.531   1.300  14.622 -0.3818  0.2001 -0.2239
   68TCq2    C6 1039   0.563   1.173  14.586 -0.5410  0.1868 -0.4387
   68TCq2    C7 1040   0.504   1.114  14.481 -0.6361 -0.5428  0.9591
   68TCq2    C8 1041   0.674   1.112  14.652  0.3111  0.4974  1.0451
   68TCq2    O4 1042   0.732   1.038  14.578 -0.4484 -0.0122  1.1277
   68TCq2    C9 1043   0.398   1.495  14.615  0.4549  0.5498 -0.6586
   68TCq2    O5 1044   0.424   1.524  14.733 -0.0742 -0.4039 -0.2230
   68TCq2    O6 1045   0.346   1.572  14.527  0.2405  0.0167  0.0585
   68TCq2    H2 1046   0.280   1.365  14.423 -0.4018  0.5309  1.2009
   68TCq2    H3 1047   0.586   1.344  14.705 -0.7575  0.0781  0.0900
   68TCq2    H4 1048   0.533   1.014  14.450  0.0782 -0.4872  1.4378
   69TMC2    C1 1049   2.689   2.703  12.742  0.1945  0.1270 -0.4621
   69TMC2    C2 1050   2.627   2.829  12.760  0.7439  0.0327 -0.1380
   69TMC2    C3 1051   2.644   2.917  12.661 -0.0014 -0.0553  0.2071
   69TMC2    C4 1052   2.786   2.690  12.651  0.5459  0.7007 -0.5625
   69TMC2    C5 1053   2.800   2.782  12.557  0.0141  0.6307 -0.3948
   69TMC2    C6 1054   2.727   2.891  12.557  0.0728 -0.0064 -0.8741
   69TMC2     C 1055   2.680   2.602  12.838 -0.9027  0.5776  0.3259
   69TMC2     O 1056   2.726   2.493  12.803  0.5131  0.1389  0.0546
   69TMC2     H 1057   2.556   2.843  12.841  0.7418 -2.7983  0.3656
   69TMC2    H1 1058   2.855   2.607  12.664 -0.8467 -0.4533 -0.4504
   69TMC2    H2 1059   2.748   2.971  12.486 -1.3173  0.2809 -0.9668
   69TMC2    C7 1060   2.872   2.745  12.435 -0.3538 -0.0780  0.4669
   69TMC2    C8 1061   2.555   3.027  12.670  0.0166 -0.6566  0.0851
   69TMC2    O1 1062   2.951   2.653  12.440  0.5465 -0.0648 -0.3868
   69TMC2    O2 1063   2.512   3.088  12.770 -0.5929  0.7227 -0.4303
   69TMC2    O5 1064   2.474   2.995  12.566 -0.6655  0.0435  0.4341
   69TMC2    H5 1065   2.499   2.921  12.508  1.0690 -0.4035  1.7495
   70MPD2     C 1066   2.468   2.585  13.141 -0.2797 -0.3894  0.3152
   70MPD2    C1 1067   2.544   2.533  13.039  0.3781  0.0605  0.2417
   70MPD2    C2 1068   2.576   2.400  13.042 -0.1297  0.9688 -0.1737
   70MPD2    C3 1069   2.527   2.316  13.141  0.3286 -0.2714 -0.0824
   70MPD2    C4 1070   2.447   2.370  13.243 -0.3722 -0.2044  0.1426
   70MPD2    C5 1071   2.418   2.501  13.238 -0.0906 -0.3806 -0.1944
   70MPD2     H 1072   2.624   2.356  12.955  0.1973  1.9686 -0.4939
   70MPD2    H1 1073   2.407   2.293  13.307  0.2089 -0.3992  0.2654
   70MPD2    H2 1074   2.441   2.689  13.153  0.0510 -0.2686 -0.0335
   70MPD2    H3 1075   2.345   2.555  13.298  0.0061 -1.5452  0.9690
   70MPD2     N 1076   2.553   2.178  13.145  0.5952 -0.4652  0.1874
   70MPD2    H5 1077   2.516   2.122  13.222 -1.0287  0.1407 -0.1500
   70MPD2    N1 1078   2.594   2.624  12.941  0.5995  0.7832 -0.4997
   70MPD2    H7 1079   2.576   2.720  12.967 -2.0255  0.2154 -0.2430
   71TMC2    C1 1080   4.160   1.508   0.853  0.1738 -0.1071 -0.2719
   71TMC2    C2 1081   4.194   1.434   0.744 -0.6713  0.8976 -0.0092
   71TMC2    C3 1082   4.153   1.302   0.746 -0.2884  0.4344  0.4305
   71TMC2    C4 1083   4.087   1.466   0.961 -0.4661 -0.5576  0.0403
   71TMC2    C5 1084   4.047   1.334   0.959  0.0948  0.5101 -0.1253
   71TMC2    C6 1085   4.073   1.259   0.851  0.1799 -0.3023 -0.2647
   71TMC2     C 1086   4.217   1.638   0.857  0.4273 -0.7264 -0.5644
   71TMC2     O 1087   4.236   1.701   0.755  0.1764  0.2089 -0.2185
   71TMC2     H 1088   4.237   1.486   0.660  1.3458 -1.4733 -0.4654
   71TMC2    H1 1089   4.064   1.526   1.049  0.3437  0.0684 -0.1652
   71TMC2    H2 1090   4.011   1.170   0.851 -0.4421  0.1350 -0.6818
   71TMC2    C7 1091   3.922   1.314   1.021 -0.8387 -0.1169  0.2484
   71TMC2    C8 1092   4.126   1.238   0.614  0.4105  0.4755  0.5377
   71TMC2    O1 1093   3.893   1.203   1.062 -0.1032  0.2262  0.3162
   71TMC2    O2 1094   4.101   1.120   0.603  0.3972 -0.4016  0.2165
   71TMC2    O5 1095   4.168   1.328   0.514 -0.0792 -0.3079 -0.6840
   71TMC2    H5 1096   4.179   1.283   0.427  0.3022  2.0373 -1.8573
   72MPD2     C 1097   4.349   2.042   1.148  0.7196 -0.4133  0.6389
   72MPD2    C1 1098   4.320   2.037   1.010 -0.0530 -0.0864  0.5653
   72MPD2    C2 1099   4.285   1.917   0.951  0.9222  0.5742 -0.4242
   72MPD2    C3 1100   4.275   1.804   1.031 -0.1115  0.2318 -0.4816
   72MPD2    C4 1101   4.299   1.816   1.162 -0.3927  0.5787 -0.3455
   72MPD2    C5 1102   4.334   1.931   1.222  0.2633 -1.0958 -0.1344
   72MPD2     H 1103   4.255   1.913   0.847 -0.4669 -0.6581  0.0137
   72MPD2    H1 1104   4.303   1.726   1.222  1.5546  1.4661  0.8741
   72MPD2    H2 1105   4.367   2.135   1.200 -0.2397  0.4159 -0.5301
   72MPD2    H3 1106   4.346   1.935   1.329 -0.4146 -2.1151 -0.0185
   72MPD2     N 1107   4.240   1.675   0.982 -0.2036  0.4421 -0.0278
   72MPD2    H5 1108   4.223   1.602   1.050 -2.0429 -0.1400 -1.1382
   72MPD2    N1 1109   4.330   2.150   0.926  0.1792  0.0984 -0.5855
   72MPD2    H7 1110   4.327   2.128   0.827 -1.1570  0.3823 -0.6057
   73TMC2    C1 1111   4.327   4.354  14.381  0.0184 -0.5830 -0.2884
   73TMC2    C2 1112   4.331   4.270  14.484  0.0136  0.1313  0.5741
   73TMC2    C3 1113   4.452   4.209  14.502  0.7977  0.4532 -0.0156
   73TMC2    C4 1114   4.420   4.349  14.276 -0.5854  0.0817 -0.7486
   73TMC2    C5 1115   4.542   4.283  14.300  0.0134 -0.7001 -0.5627
   73TMC2    C6 1116   4.559   4.224  14.417 -0.0902 -0.0549 -0.4022
   73TMC2     C 1117   4.219   4.451  14.364  0.2078  0.4446  0.1632
   73TMC2     O 1118   4.104   4.421  14.392 -0.1348 -1.0829  0.0331
   73TMC2     H 1119   4.252   4.282  14.557 -0.8639  1.7976 -0.6552
   73TMC2    H1 1120   4.398   4.415  14.193  0.2839 -0.2636 -1.2596
   73TMC2    H2 1121   4.652   4.174  14.442  0.4375  0.3321 -1.5809
   73TMC2    C7 1122   4.670   4.326  14.232  0.0044 -0.4041  0.0674
   73TMC2    C8 1123   4.468   4.130  14.617  0.4197 -0.3850  0.7753
   73TMC2    O1 1124   0.045   4.253  14.246  0.2386  0.1785 -0.0733
   73TMC2    O2 1125   4.584   4.115  14.661  0.1091 -0.0319  0.0160
   73TMC2    O5 1126   4.353   4.080  14.663 -0.1284  0.1962 -0.1394
   73TMC2    H5 1127   4.289   4.079  14.589 -0.9201 -0.4571  0.5507
   74MPD2     C 1128   4.106   0.195  14.179  0.1189 -0.1325  0.4661
   74MPD2    C1 1129   4.248   0.179  14.180  0.0885  0.3018  0.4333
   74MPD2    C2 1130   4.298   0.057  14.227 -0.6244  0.1138 -0.2314
   74MPD2    C3 1131   4.216   4.683  14.263 -0.1621 -0.3788  0.3976
   74MPD2    C4 1132   4.077   4.703  14.265  0.3775 -1.0318 -0.6105
   74MPD2    C5 1133   4.018   0.099  14.230 -0.1766 -0.0978  0.1329
   74MPD2     H 1134   4.404   0.035  14.221 -0.8952 -0.5475 -2.7396
   74MPD2    H1 1135   4.010   4.632  14.314 -0.1637 -0.2129 -0.1548
   74MPD2    H2 1136   4.058   0.280  14.131  0.6000  0.2642  0.6876
   74MPD2    H3 1137   3.911   0.118  14.237  0.0149  0.7912  0.7299
   74MPD2     N 1138   4.277   4.565  14.306  0.2325  0.2751  0.4569
   74MPD2    H5 1139   4.378   4.574  14.308  0.2314  0.3967 -0.0618
   74MPD2    N1 1140   4.328   0.277  14.129 -0.4453  0.4765  0.2401
   74MPD2    H7 1141   4.284   0.352  14.078  0.4359  1.6697  1.2473
   75TCq2    C1 1142   4.463   1.300  14.108  0.0167 -0.2915 -0.3987
   75TCq2    O2 1143   4.467   1.281  14.230  0.2270 -0.4322 -0.1938
   75TCq2    C2 1144   4.351   1.377  14.058 -0.0300 -0.3688  0.1683
   75TCq2    C3 1145   4.258   1.415  14.147  0.7919  0.0208 -0.7559
   75TCq2    C4 1146   4.139   1.473  14.115  0.5955  0.5011 -0.0772
   75TCq2    C5 1147   4.124   1.515  13.985 -0.8113 -0.2841 -0.8596
   75TCq2    C6 1148   4.215   1.477  13.887  0.5375 -0.6691  0.1314
   75TCq2    C7 1149   4.324   1.404  13.924 -0.1621  0.2773  0.2408
   75TCq2    C8 1150   4.222   1.556  13.765  0.1409  0.1271  0.0415
   75TCq2    O4 1151   4.259   1.500  13.663 -0.6560  0.3641  0.2503
   75TCq2    C9 1152   4.043   1.498  14.225 -0.1708  0.1313 -0.6894
   75TCq2    O5 1153   3.924   1.530  14.192  0.3887  0.3434  0.4294
   75TCq2    O6 1154   4.082   1.479  14.347 -0.0450  0.9503  0.0489
   75TCq2    H2 1155   4.272   1.378  14.248  1.9166 -0.2042 -0.9928
   75TCq2    H3 1156   4.038   1.576  13.961  0.2634  0.1430 -3.6540
   75TCq2    H4 1157   4.399   1.378  13.850  0.1783  0.0403  0.6643
   76MPD2     C 1158   3.867   2.161  12.098 -0.2740  0.3498 -0.5867
   76MPD2    C1 1159   3.771   2.129  12.009 -0.6778 -0.2446  0.7796
   76MPD2    C2 1160   3.780   2.015  11.926 -0.2823  0.1598 -0.7382
   76MPD2    C3 1161   3.891   1.937  11.928  0.3032  0.0232  0.0691
   76MPD2    C4 1162   3.979   1.958  12.032  0.4686  0.1141 -0.0340
   76MPD2    C5 1163   3.972   2.071  12.111  0.1561  1.0528  0.8241
   76MPD2     H 1164   3.707   2.004  11.847 -1.0310 -0.2520  0.0066
   76MPD2    H1 1165   4.061   1.888  12.036  0.0084 -0.4222  0.1247
   76MPD2    H2 1166   3.871   2.260  12.144  1.6128 -0.2155  0.4712
   76MPD2    H3 1167   4.049   2.094  12.184  0.8629  1.4209 -0.0308
   76MPD2     N 1168   3.901   1.811  11.853  0.1230  0.1044 -0.3083
   76MPD2    H5 1169   3.969   1.746  11.891 -0.6861 -0.6919 -0.2086
   76MPD2    N1 1170   3.666   2.213  11.981 -1.0057  0.0509 -0.0766
   76MPD2    H7 1171   3.614   2.176  11.902  0.8584 -0.1201 -1.2111
   77TCq2    C1 1172   3.817   1.777  11.755  0.0675 -0.2286 -0.4917
   77TCq2    O2 1173   3.729   1.839  11.694  0.3609  0.1629 -0.2718
   77TCq2    C2 1174   3.819   1.634  11.722 -0.5975 -0.0903 -0.1034
   77TCq2    C3 1175   3.714   1.579  11.650 -0.0756  0.0690  0.0730
   77TCq2    C4 1176   3.709   1.441  11.628 -0.4411 -0.0715  0.5189
   77TCq2    C5 1177   3.810   1.360  11.672 -0.2393  0.1625 -0.7153
   77TCq2    C6 1178   3.913   1.411  11.741  0.4566  0.2780 -0.4470
   77TCq2    C7 1179   3.923   1.547  11.770  0.0660 -0.2949 -0.4787
   77TCq2    C8 1180   4.028   1.316  11.770 -0.8874  0.4229 -0.2579
   77TCq2    O4 1181   4.017   1.206  11.720 -0.6421 -0.0154  0.6994
   77TCq2    C9 1182   3.602   1.391  11.551 -0.3619 -0.0569  0.1298
   77TCq2    O5 1183   3.542   1.478  11.484 -0.9828 -0.4043 -0.4813
   77TCq2    O6 1184   3.579   1.266  11.551  0.1753  0.0866 -0.0988
   77TCq2    H2 1185   3.635   1.645  11.614 -0.8350 -0.3444  0.9676
   77TCq2    H3 1186   3.802   1.254  11.651 -0.7197  0.0964 -0.2030
   77TCq2    H4 1187   4.009   1.595  11.814 -0.5560  0.1456  0.2549
   78MPD1     C 1188   2.168   0.804   2.142  0.0793 -0.2122 -1.2738
   78MPD1    C1 1189   2.160   0.909   2.055 -0.6311  0.0941  0.5527
   78MPD1    C2 1190   2.276   0.959   2.001 -0.0993 -0.1689  0.2939
   78MPD1    C3 1191   2.398   0.908   2.030 -0.0221 -0.4214  0.6215
   78MPD1    C4 1192   2.402   0.787   2.102 -0.3690 -0.8739  0.3984
   78MPD1    C5 1193   2.287   0.733   2.152  0.1098  0.4565  0.2318
   78MPD1     H 1194   2.266   1.033   1.923  2.9113  0.1362  0.2152
   78MPD1    H1 1195   2.500   0.747   2.122 -0.1459 -1.3979 -1.7323
   78MPD1    H2 1196   2.078   0.755   2.175  0.6847 -1.6256 -1.7191
   78MPD1    H3 1197   2.295   0.647   2.218 -1.1780 -0.3854 -0.7219
   78MPD1     N 1198   2.518   0.950   1.972 -0.0352  0.0366  0.4231
   78MPD1    H5 1199   2.603   0.914   2.015  0.3811  0.2853 -0.1923
   78MPD1    N1 1200   2.036   0.975   2.044 -0.1886 -0.6911  0.2141
   78MPD1    H6 1201   2.008   1.016   1.956  2.3559 -0.6517 -0.5593
   78MPD1    H7 1202   1.957   0.915   2.069 -1.6907  1.4843  0.7558
   79TCq2    C1 1203   2.532   1.040   1.869 -0.7693 -0.7515  1.0686
   79TCq2    O2 1204   2.443   1.109   1.815  0.1814  0.1853 -0.4446
   79TCq2    C2 1205   2.671   1.075   1.847  0.0223 -0.2194  0.1648
   79TCq2    C3 1206   2.775   0.998   1.903 -0.3090  0.0172  0.1025
   79TCq2    C4 1207   2.905   1.038   1.880 -0.3738 -0.4813 -0.0265
   79TCq2    C5 1208   2.936   1.139   1.793 -0.1385  0.6421 -0.3282
   79TCq2    C6 1209   2.832   1.215   1.744  0.3821 -0.2057 -0.3340
   79TCq2    C7 1210   2.702   1.181   1.767 -0.4429 -0.1660  0.6702
   79TCq2    C8 1211   2.860   1.340   1.668  0.5712 -0.4979 -0.1526
   79TCq2    O4 1212   2.971   1.392   1.677 -0.8704 -0.0545  0.1730
   79TCq2    C9 1213   3.016   0.955   1.943  0.3549  0.9045 -0.1095
   79TCq2    O5 1214   2.994   0.890   2.049 -0.5105 -0.2290 -0.1640
   79TCq2    O6 1215   3.135   0.978   1.897 -0.1188  0.1186  0.5085
   79TCq2    H2 1216   2.759   0.903   1.953 -0.2856 -0.5473 -0.9712
   79TCq2    H3 1217   3.040   1.168   1.782  0.6447 -1.5432  1.4855
   79TCq2    H4 1218   2.623   1.243   1.726  0.5101  0.3242 -0.4450
   80MPD2     C 1219   2.847   2.128  12.422 -0.1392 -0.0951 -1.0256
   80MPD2    C1 1220   2.724   2.108  12.369  0.0203  0.1307  1.0005
   80MPD2    C2 1221   2.613   2.129  12.452  0.2489  0.4479 -0.6426
   80MPD2    C3 1222   2.626   2.189  12.574 -0.1845  0.2331  0.4790
   80MPD2    C4 1223   2.749   2.211  12.626  0.2942 -0.0933  0.7825
   80MPD2    C5 1224   2.861   2.190  12.547  0.0621 -0.2963 -0.3500
   80MPD2     H 1225   2.518   2.092  12.415 -0.0357  0.1738  0.3819
   80MPD2    H1 1226   2.754   2.254  12.725  1.2454 -0.8533  1.0642
   80MPD2    H2 1227   2.939   2.103  12.370 -1.4581 -1.8683 -2.4908
   80MPD2    H3 1228   2.958   2.221  12.586  0.1375  0.1508 -0.8928
   80MPD2     N 1229   2.519   2.223  12.655  0.3129  0.6640 -0.6474
   80MPD2    H5 1230   2.544   2.281  12.735  0.0432 -0.3649  0.1818
   80MPD2    N1 1231   2.700   2.057  12.243  0.3614  0.2985 -0.0414
   80MPD2    H7 1232   2.608   2.023  12.215 -1.0153  2.1443  2.2452
   81TCq2    C1 1233   2.797   2.048  12.142  0.6868 -0.1323  0.2967
   81TCq2    O2 1234   2.904   2.108  12.138  0.5503  0.4828 -0.1709
   81TCq2    C2 1235   2.755   1.999  12.004  0.1359  0.1145  0.7377
   81TCq2    C3 1236   2.818   2.048  11.895  0.6339 -0.6006  0.0031
   81TCq2    C4 1237   2.771   2.013  11.773  0.1717  0.3887 -0.3057
   81TCq2    C5 1238   2.653   1.946  11.758  0.5248  0.8933  0.0821
   81TCq2    C6 1239   2.592   1.890  11.869 -0.1802 -0.5508 -0.1243
   81TCq2    C7 1240   2.634   1.925  11.997 -0.0667 -0.5335 -0.6676
   81TCq2    C8 1241   2.502   1.769  11.858  0.5282  1.1478  0.7779
   81TCq2    O4 1242   2.497   1.713  11.746  0.0922  0.5799 -0.0377
   81TCq2    C9 1243   2.858   2.019  11.654 -0.4673  0.2333  0.0372
   81TCq2    O5 1244   2.864   1.917  11.587  0.0134  0.7557 -0.1646
   81TCq2    O6 1245   2.948   2.108  11.653 -0.3725 -0.3882 -0.2940
   81TCq2    H2 1246   2.914   2.097  11.889  1.5806 -2.2390  1.5653
   81TCq2    H3 1247   2.631   1.904  11.660 -0.7539  2.7406 -0.4112
   81TCq2    H4 1248   2.593   1.873  12.082  1.9982 -1.9365 -0.5342
   82MPD2     C 1249   0.991   1.325  10.673 -0.0314 -0.3179 -0.1549
   82MPD2    C1 1250   0.877   1.268  10.728 -0.3617  0.0043 -0.1507
   82MPD2    C2 1251   0.892   1.147  10.796  0.8339  0.2059  0.2487
   82MPD2    C3 1252   1.011   1.086  10.803  0.9581 -0.0657  0.3053
   82MPD2    C4 1253   1.124   1.144  10.745 -0.9067 -0.3104  0.1272
   82MPD2    C5 1254   1.122   1.272  10.692  0.1252  0.7677  0.0998
   82MPD2     H 1255   0.803   1.112  10.848  1.6789 -1.0960  0.7991
   82MPD2    H1 1256   1.221   1.099  10.762  0.1022  2.5603  1.7799
   82MPD2    H2 1257   0.989   1.425  10.632  0.2768  0.1098  0.8583
   82MPD2    H3 1258   1.214   1.320  10.665  0.4909 -0.2711 -0.5223
   82MPD2     N 1259   1.031   0.961  10.873 -0.1634  0.0334 -0.1765
   82MPD2    H5 1260   1.124   0.920  10.880  0.9109  2.5779  0.6047
   82MPD2    N1 1261   0.755   1.338  10.701  0.1504 -0.8934 -0.2511
   82MPD2    H7 1262   0.762   1.418  10.638  1.5587 -0.2942  0.6726
   83TCq2    C1 1263   0.930   0.879  10.920  0.6051  0.0821  0.1911
   83TCq2    O2 1264   0.811   0.907  10.912  0.3108 -0.3568 -0.0221
   83TCq2    C2 1265   0.970   0.769  11.005 -0.0865 -0.4187 -0.7180
   83TCq2    C3 1266   1.074   0.790  11.090  0.4300  1.6273  0.0303
   83TCq2    C4 1267   1.090   0.694  11.192 -0.0927 -0.3653 -0.3235
   83TCq2    C5 1268   0.997   0.596  11.224 -0.2988 -0.4528 -0.4014
   83TCq2    C6 1269   0.890   0.587  11.137  0.2940 -0.5403  0.9021
   83TCq2    C7 1270   0.877   0.670  11.024 -0.1782 -0.4937 -0.0639
   83TCq2    C8 1271   0.791   0.484  11.166 -0.4602 -0.6299  1.0118
   83TCq2    O4 1272   0.777   0.448  11.284  0.6240 -0.1684  0.0355
   83TCq2    C9 1273   1.190   0.719  11.287  0.3301  0.5252  0.3143
   83TCq2    O5 1274   1.273   0.811  11.261  0.2383 -0.8889  0.3301
   83TCq2    O6 1275   1.174   0.669  11.401 -0.3724  0.7992 -0.1654
   83TCq2    H2 1276   1.134   0.880  11.092  2.3141  0.4076 -1.8869
   83TCq2    H3 1277   1.005   0.528  11.308 -0.2979 -0.6965 -0.5973
   83TCq2    H4 1278   0.785   0.672  10.966  0.2073  2.5739 -0.5378
   84TCq2    C1 1279   1.695   4.718  10.976  0.0860 -0.2749  0.0248
   84TCq2    O2 1280   1.590   0.003  10.918 -0.3152 -0.0113  0.6952
   84TCq2    C2 1281   1.688   0.002  11.121  0.2478  0.0539  0.3992
   84TCq2    C3 1282   1.774   4.653  11.192 -1.0778 -0.0847  0.7806
   84TCq2    C4 1283   1.756   4.649  11.326 -0.0942  0.1578 -0.6194
   84TCq2    C5 1284   1.660   0.009  11.390 -0.6378  0.2133 -0.3967
   84TCq2    C6 1285   1.581   0.085  11.304 -0.2210 -0.2778  0.3755
   84TCq2    C7 1286   1.589   0.078  11.172 -0.5196 -0.1036  0.6238
   84TCq2    C8 1287   1.531   0.208  11.364 -0.2251  0.3968  0.3368
   84TCq2    O4 1288   1.447   0.274  11.308 -0.5367  0.5110 -0.2111
   84TCq2    C9 1289   1.853   4.576  11.410 -0.3448  0.1345  0.3684
   84TCq2    O5 1290   1.961   4.547  11.353 -0.2478  0.1963 -0.0711
   84TCq2    O6 1291   1.829   4.571  11.537  0.1512  0.0744  0.0799
   84TCq2    H2 1292   1.847   4.582  11.156 -2.8500 -1.0252 -0.8842
   84TCq2    H3 1293   1.649   4.719  11.497  0.4402  0.3798 -0.2715
   84TCq2    H4 1294   1.516   0.137  11.118 -0.9236  0.7812  2.1320
   85MPD2     C 1295   2.548   2.827  16.490  0.0536  0.1311 -0.2508
   85MPD2    C1 1296   2.503   2.793  16.359 -0.5798  0.2387  0.6333
   85MPD2    C2 1297   2.535   2.886  16.261  0.2853  0.0396  0.8138
   85MPD2    C3 1298   2.615   2.998  16.277  0.5269 -0.3601 -0.5081
   85MPD2    C4 1299   2.655   3.020  16.401 -0.2455  1.1798  0.6352
   85MPD2    C5 1300   2.631   2.939  16.505 -0.2312 -0.4524  0.3187
   85MPD2     H 1301   2.497   2.869  16.160  1.1298 -1.3450  0.7354
   85MPD2    H1 1302   2.720   3.102  16.430  0.0555  0.8902  0.7690
   85MPD2    H2 1303   2.529   2.762  16.575 -0.5965 -0.4947 -0.8647
   85MPD2    H3 1304   2.672   2.972  16.600 -0.4481 -0.9207  0.5789
   85MPD2     N 1305   2.641   3.087  16.176  0.0628 -0.0261 -0.3551
   85MPD2    H5 1306   2.601   3.060  16.086 -0.3136 -0.8329  0.0556
   85MPD2    N1 1307   2.442   2.669  16.328  0.7397 -0.1177 -0.1524
   85MPD2    H7 1308   2.430   2.645  16.231  0.7325 -1.4803  0.1830
   86TCq2    C1 1309   2.720   3.206  16.188 -0.2742  0.1553 -0.0099
   86TCq2    O2 1310   2.798   3.241  16.272 -0.1602 -0.0220  0.1856
   86TCq2    C2 1311   2.696   3.295  16.075 -0.1750  0.9224 -0.5116
   86TCq2    C3 1312   2.702   3.430  16.097  0.0623  0.2648 -0.3442
   86TCq2    C4 1313   2.719   3.516  15.994  0.3880 -0.1863 -0.7538
   86TCq2    C5 1314   2.749   3.467  15.869  0.2969 -0.1611 -0.2955
   86TCq2    C6 1315   2.739   3.334  15.847  0.1313 -0.1194  0.1829
   86TCq2    C7 1316   2.716   3.246  15.956 -0.1487  0.0368 -0.0873
   86TCq2    C8 1317   2.782   3.270  15.714 -0.3774  0.5242  0.2067
   86TCq2    O4 1318   2.796   3.148  15.715 -0.2420 -0.0107  0.5840
   86TCq2    C9 1319   2.755   3.651  16.028  0.2823 -0.0935 -0.0926
   86TCq2    O5 1320   2.724   3.744  15.944 -0.6060 -0.1146  0.4084
   86TCq2    O6 1321   2.791   3.678  16.145  0.1387  0.6648 -0.3956
   86TCq2    H2 1322   2.687   3.456  16.202  0.2293  3.1364 -1.0281
   86TCq2    H3 1323   2.792   3.532  15.793 -1.2316 -0.9362 -1.8240
   86TCq2    H4 1324   2.710   3.139  15.936  1.8303 -0.0753 -0.0820
   87MPD2     C 1325   0.065   1.746   1.690 -0.1122  0.9937 -0.1711
   87MPD2    C1 1326   0.097   1.651   1.600  0.1240  0.0423  0.2802
   87MPD2    C2 1327   0.051   1.653   1.474 -0.0269 -1.0337  0.2723
   87MPD2    C3 1328   4.687   1.754   1.425  0.1072  0.0803 -0.4470
   87MPD2    C4 1329   4.651   1.856   1.515  0.6676  0.3001  0.3899
   87MPD2    C5 1330   4.702   1.849   1.646  0.8445  0.4391  0.3964
   87MPD2     H 1331   0.075   1.568   1.412  0.4821 -0.4843 -0.2833
   87MPD2    H1 1332   4.589   1.940   1.487  1.1724  1.8781  4.1034
   87MPD2    H2 1333   0.100   1.749   1.792  0.3182  0.3547 -0.2961
   87MPD2    H3 1334   4.700   1.928   1.721 -1.1340 -0.9289  1.7558
   87MPD2     N 1335   4.642   1.768   1.295 -0.4703 -0.0142 -0.4052
   87MPD2    H5 1336   4.596   1.855   1.273  1.3287  1.0565  0.0358
   87MPD2    N1 1337   0.167   1.540   1.653  0.2334 -0.6304 -0.4546
   87MPD2    H7 1338   0.190   1.555   1.751 -1.6293  1.0518 -0.2708
   88TCq2    C1 1339   0.210   1.429   1.588 -0.1920  0.0513 -0.2552
   88TCq2    O2 1340   0.196   1.395   1.469  0.5307  0.0179  0.7931
   88TCq2    C2 1341   0.294   1.346   1.673 -0.1767 -0.4523 -0.8569
   88TCq2    C3 1342   0.346   1.393   1.798 -0.1300  0.9615  0.6802
   88TCq2    C4 1343   0.412   1.300   1.880 -0.2265  0.7022  0.5654
   88TCq2    C5 1344   0.443   1.176   1.841 -0.0734 -0.4508  0.0598
   88TCq2    C6 1345   0.381   1.135   1.723 -0.2584  0.0180 -1.1401
   88TCq2    C7 1346   0.316   1.217   1.635  0.4278 -0.1300 -0.4438
   88TCq2    C8 1347   0.429   1.005   1.669  0.0307 -0.4931  0.1782
   88TCq2    O4 1348   0.479   0.921   1.743 -0.0336 -0.6797 -0.4581
   88TCq2    C9 1349   0.462   1.350   2.011 -0.4713  0.2133 -0.2715
   88TCq2    O5 1350   0.498   1.252   2.082  0.1309 -0.1538 -0.6459
   88TCq2    O6 1351   0.475   1.474   2.036 -0.2316  0.4165  0.2513
   88TCq2    H2 1352   0.333   1.494   1.836  2.4288  2.3131 -2.0576
   88TCq2    H3 1353   0.511   1.119   1.904  3.6706  2.3496 -1.4918
   88TCq2    H4 1354   0.249   1.171   1.563 -0.9785  1.3663 -0.0877
   89MPD2     C 1355   0.609   3.187   2.198 -0.0358 -0.0854 -0.3112
   89MPD2    C1 1356   0.567   3.197   2.072  0.2799  0.4669  0.2429
   89MPD2    C2 1357   0.641   3.262   1.975 -0.3508  0.5707  0.5585
   89MPD2    C3 1358   0.767   3.309   2.010 -0.5604 -0.6223  0.1168
   89MPD2    C4 1359   0.812   3.298   2.142  0.1439 -0.1524 -0.9709
   89MPD2    C5 1360   0.726   3.245   2.235  0.4383  0.9461 -0.1188
   89MPD2     H 1361   0.611   3.264   1.871  0.3807 -0.1298  0.3346
   89MPD2    H1 1362   0.906   3.341   2.172  0.3797 -0.7301 -0.8832
   89MPD2    H2 1363   0.547   3.143   2.275  0.2194  1.6025  0.8653
   89MPD2    H3 1364   0.757   3.250   2.339 -1.4977 -0.4850  0.5463
   89MPD2     N 1365   0.851   3.348   1.901  0.0447  0.6892  0.2222
   89MPD2    H5 1366   0.811   3.364   1.809  1.4573 -0.2122 -0.5418
   89MPD2    N1 1367   0.440   3.149   2.040  0.5661  0.5655  0.2648
   89MPD2    H7 1368   0.384   3.132   2.123 -0.4113  1.1340 -0.2755
   90TCq2    C1 1369   0.988   3.364   1.907  0.1357  0.0463  0.1076
   90TCq2    O2 1370   1.068   3.332   1.997  0.1228 -0.4219 -0.9787
   90TCq2    C2 1371   1.038   3.428   1.786 -0.1110  0.2642  0.0315
   90TCq2    C3 1372   1.162   3.391   1.738  0.3892 -0.0235 -0.8860
   90TCq2    C4 1373   1.220   3.465   1.640  0.9883 -1.0709  0.4863
   90TCq2    C5 1374   1.167   3.585   1.596  0.0911 -0.1228 -0.1081
   90TCq2    C6 1375   1.038   3.611   1.638 -0.4516  0.5608 -0.3856
   90TCq2    C7 1376   0.971   3.528   1.719 -0.2480 -0.0756 -0.3220
   90TCq2    C8 1377   0.958   3.730   1.581  0.0066 -0.5687 -0.3160
   90TCq2    O4 1378   0.842   3.740   1.625 -0.3252  0.4535 -0.5221
   90TCq2    C9 1379   1.357   3.433   1.597  0.2166 -0.4170 -0.4427
   90TCq2    O5 1380   1.426   3.378   1.684 -0.1031  0.1251 -0.1850
   90TCq2    O6 1381   1.400   3.482   1.489 -0.3186 -0.3990 -0.2715
   90TCq2    H2 1382   1.211   3.300   1.770  0.3041 -0.1220 -1.0391
   90TCq2    H3 1383   1.234   3.650   1.541 -0.7351  2.3903  1.8235
   90TCq2    H4 1384   0.892   3.581   1.770  1.5586  1.6758  0.6335
   91TMC2    C1 1385   2.466   3.740  16.346 -0.1891 -0.4979 -0.2264
   91TMC2    C2 1386   2.492   3.768  16.218  0.6768 -0.4907  0.8954
   91TMC2    C3 1387   2.391   3.749  16.130 -0.1933  0.5083 -0.4596
   91TMC2    C4 1388   2.333   3.721  16.394 -0.4754  0.0954 -0.0974
   91TMC2    C5 1389   2.232   3.698  16.304 -0.2015 -0.7806 -0.2203
   91TMC2    C6 1390   2.258   3.714  16.165 -0.0242  0.4451 -0.3705
   91TMC2     C 1391   2.570   3.754  16.444  0.3111 -0.2827 -0.4277
   91TMC2     O 1392   2.528   3.763  16.558  0.5782 -0.4195  0.5047
   91TMC2     H 1393   2.589   3.798  16.180 -0.0501 -1.3678 -1.6868
   91TMC2    H1 1394   2.314   3.707  16.499 -0.5681  0.2792 -0.0898
   91TMC2    H2 1395   2.190   3.667  16.094 -0.9980 -1.9381  2.1037
   91TMC2    C7 1396   2.102   3.658  16.352  0.4051  0.2576 -0.2317
   91TMC2    C8 1397   2.410   3.784  15.983  0.5400 -0.3055  0.3658
   91TMC2    O1 1398   2.105   3.604  16.465  0.6487 -0.2035 -0.4404
   91TMC2    O2 1399   2.297   3.795  15.929  0.1104  0.2840 -0.4689
   91TMC2    O5 1400   2.517   3.875  15.969 -0.0081  0.0821  0.5104
   91TMC2    H5 1401   2.602   3.826  15.966 -0.5010 -0.7283 -0.1404
   92MPD2     C 1402   2.793   3.872  16.596 -0.1555  0.2482 -0.2032
   92MPD2    C1 1403   2.811   3.805  16.469 -0.8042 -0.3012  0.4817
   92MPD2    C2 1404   2.934   3.800  16.409 -0.5136 -0.4018  0.2049
   92MPD2    C3 1405   3.040   3.870  16.470 -0.1038 -0.0981  0.1548
   92MPD2    C4 1406   3.029   3.915  16.595 -0.1425 -0.6194 -0.0017
   92MPD2    C5 1407   2.900   3.931  16.655  0.2222 -0.0557  0.6049
   92MPD2     H 1408   2.942   3.762  16.308 -0.0889 -2.0025  0.8447
   92MPD2    H1 1409   3.122   3.940  16.645 -0.5191  1.3953 -0.3149
   92MPD2    H2 1410   2.698   3.874  16.649  0.2277  2.7596  0.3943
   92MPD2    H3 1411   2.887   3.971  16.755 -5.3919  0.3775 -0.3081
   92MPD2     N 1412   3.156   3.898  16.402 -0.0065  0.7817  0.0485
   92MPD2    H5 1413   3.216   3.970  16.439  0.4734  1.4754 -2.1071
   92MPD2    N1 1414   2.699   3.744  16.402  0.2788  0.1833  0.1262
   92MPD2    H7 1415   2.702   3.718  16.304  0.4795  0.9820 -0.0829
   93MPD2     C 1416   3.807   3.782  13.738  0.3209 -0.4785  0.0649
   93MPD2    C1 1417   3.709   3.874  13.783  0.1015 -0.4171  0.4024
   93MPD2    C2 1418   3.573   3.849  13.770 -0.2740 -0.4839 -0.3792
   93MPD2    C3 1419   3.528   3.735  13.704 -0.4231  0.4833 -0.1370
   93MPD2    C4 1420   3.622   3.645  13.655  0.3724 -0.7508  0.0975
   93MPD2    C5 1421   3.763   3.666  13.681  1.1466 -0.4000 -0.2541
   93MPD2     H 1422   3.502   3.928  13.794 -1.2461 -1.8343  1.1565
   93MPD2    H1 1423   3.588   3.552  13.610  1.2652 -0.3856 -1.3167
   93MPD2    H2 1424   3.913   3.792  13.759  1.1086 -1.8626 -3.1246
   93MPD2    H3 1425   3.832   3.596  13.637  0.7710 -0.1622 -1.2207
   93MPD2     N 1426   3.394   3.703  13.676 -0.1530  0.5308 -0.1488
   93MPD2    H5 1427   3.368   3.638  13.602 -0.6567 -0.4084  0.8516
   93MPD2    N1 1428   3.748   4.002  13.832 -0.0812 -0.0355  0.0749
   93MPD2    H7 1429   3.680   4.067  13.871 -0.7636 -1.0093  0.5246
   94TCq2    C1 1430   3.879   4.047  13.838 -0.4429  0.2086 -0.3378
   94TCq2    O2 1431   3.983   3.992  13.809 -0.2364 -0.7544  0.1675
   94TCq2    C2 1432   3.893   4.187  13.894  0.3928 -0.0515 -0.2326
   94TCq2    C3 1433   3.790   4.244  13.954 -0.4712  0.6775  0.1768
   94TCq2    C4 1434   3.825   4.360  14.022 -0.1121  0.0162 -1.4307
   94TCq2    C5 1435   3.940   4.430  14.002  1.1193  0.2925  0.3287
   94TCq2    C6 1436   4.041   4.368  13.934  1.1063  0.7427  0.0169
   94TCq2    C7 1437   4.021   4.243  13.890  0.0601  0.5397  0.2093
   94TCq2    C8 1438   4.173   4.432  13.907 -0.0191 -0.1558  0.2008
   94TCq2    O4 1439   4.254   4.362  13.848  0.1546  0.2507  0.4416
   94TCq2    C9 1440   3.725   4.409  14.116  1.2123 -0.4468 -0.5432
   94TCq2    O5 1441   3.612   4.353  14.105  0.1753  0.4345 -0.7918
   94TCq2    O6 1442   3.746   4.513  14.186  0.2660  0.3432 -0.6650
   94TCq2    H2 1443   3.691   4.201  13.968  0.3589 -1.1073  0.5351
   94TCq2    H3 1444   3.952   4.528  14.047  2.8225  1.2904 -2.2687
   94TCq2    H4 1445   4.103   4.198  13.837 -0.4409 -1.2480  0.9518
   95TMC2    C1 1446   4.315   1.172  16.351 -0.4757  0.5491 -0.1370
   95TMC2    C2 1447   4.289   1.038  16.327 -0.0742  0.4429 -0.5118
   95TMC2    C3 1448   4.192   0.987  16.412  0.3160  0.8323 -0.9016
   95TMC2    C4 1449   4.238   1.246  16.437  0.2404 -0.4198  0.1180
   95TMC2    C5 1450   4.153   1.184  16.520  0.4873  0.0603 -0.2738
   95TMC2    C6 1451   4.116   1.054  16.500  0.3446 -0.0660  0.2871
   95TMC2     C 1452   4.414   1.234  16.260  0.2644  0.3035 -0.7667
   95TMC2     O 1453   4.462   1.155  16.173  0.9274 -0.2186 -0.2221
   95TMC2     H 1454   4.348   0.988  16.251 -0.5065 -0.7103 -0.0748
   95TMC2    H1 1455   4.280   1.343  16.461  0.7402 -0.3671 -0.9923
   95TMC2    H2 1456   4.059   1.008  16.580  1.9496  1.4790  2.3286
   95TMC2    C7 1457   4.076   1.278  16.607  0.0402 -0.4783  0.3504
   95TMC2    C8 1458   4.157   0.852  16.394 -0.1565 -0.3458  0.0951
   95TMC2    O1 1459   4.120   1.396  16.598 -0.2785  0.5002 -0.0934
   95TMC2    O2 1460   4.049   0.825  16.437 -0.1155  0.5485 -0.3169
   95TMC2    O5 1461   4.201   0.817  16.272  0.7673 -0.2925 -0.0602
   95TMC2    H5 1462   4.298   0.825  16.273  0.6180  1.6420 -1.3175
   96MPD2     C 1463   0.012   1.598  16.122 -0.0726  0.2529  0.3303
   96MPD2    C1 1464   4.711   1.480  16.065 -0.3875 -0.0502  0.2820
   96MPD2    C2 1465   4.622   1.395  16.126 -0.3824 -0.1927 -0.1518
   96MPD2    C3 1466   4.554   1.431  16.244 -0.0426 -0.0524  0.1610
   96MPD2    C4 1467   4.570   1.564  16.288  0.4005  0.1736  0.2792
   96MPD2    C5 1468   4.660   1.646  16.227 -0.4315  0.4762 -0.1544
   96MPD2     H 1469   4.611   1.296  16.081  1.6410 -0.1712 -0.6923
   96MPD2    H1 1470   4.510   1.602  16.369  0.1836  0.9406 -0.2399
   96MPD2    H2 1471   0.088   1.662  16.078  0.5409 -0.2896  0.5876
   96MPD2    H3 1472   4.673   1.748  16.261  0.2277  0.6551 -0.9558
   96MPD2     N 1473   4.452   1.354  16.304  0.3314  0.4380  0.6377
   96MPD2    H5 1474   4.410   1.395  16.387  1.0795 -0.4885  1.4674
   96MPD2    N1 1475   0.073   1.442  15.958 -0.0002  0.2982  0.1478
   96MPD2    H7 1476   0.145   1.511  15.937 -0.0666  0.3526  0.0972
   97MPD2     C 1477   1.557   3.130   0.657 -0.2094 -0.5246 -0.1141
   97MPD2    C1 1478   1.695   3.133   0.693  0.0818 -0.2357  0.6721
   97MPD2    C2 1479   1.789   3.110   0.591  0.1345 -0.3658 -0.2510
   97MPD2    C3 1480   1.758   3.092   0.460  0.3888  0.2695  0.2505
   97MPD2    C4 1481   1.622   3.082   0.430  0.8227 -0.2656  0.0487
   97MPD2    C5 1482   1.530   3.100   0.524 -0.0424  0.9851 -0.5179
   97MPD2     H 1483   1.892   3.126   0.620 -0.4448  0.8232  1.1745
   97MPD2    H1 1484   1.583   3.048   0.335  2.2711  3.2891 -1.8048
   97MPD2    H2 1485   1.476   3.146   0.727  0.7198  1.6362  0.4878
   97MPD2    H3 1486   1.427   3.096   0.491  0.2555  0.9485 -1.4504
   97MPD2     N 1487   1.848   3.081   0.357 -0.2429  1.2398  0.1279
   97MPD2    H5 1488   1.820   3.082   0.260  1.4893  1.2693 -0.3748
   97MPD2    N1 1489   1.736   3.159   0.826  0.0866  0.3699 -0.2450
   97MPD2    H7 1490   1.655   3.167   0.887 -0.1710 -0.6139 -0.4611
   98TCq2    C1 1491   1.983   3.088   0.373 -0.3275  0.0608  0.5644
   98TCq2    O2 1492   2.043   3.095   0.478  0.3293  0.2339  0.7972
   98TCq2    C2 1493   2.054   3.099   0.248 -0.1554  0.4865 -0.2027
   98TCq2    C3 1494   2.003   3.058   0.126  0.0761 -0.4993  0.6447
   98TCq2    C4 1495   2.064   3.102   0.018 -0.2622 -0.0264 -0.4508
   98TCq2    C5 1496   2.173   3.189   0.018  0.2971  0.1229  0.1450
   98TCq2    C6 1497   2.216   3.231   0.140  0.3979  0.4915  1.3960
   98TCq2    C7 1498   2.156   3.182   0.248  0.3644 -0.2023  0.0810
   98TCq2    C8 1499   2.299   3.354   0.155  0.2163 -0.3142  0.3583
   98TCq2    O4 1500   2.369   3.352   0.258  0.6918 -0.5566  0.7573
   98TCq2    C9 1501   2.000   3.064  17.584 -0.1048  0.0925  0.2794
   98TCq2    O5 1502   1.874   3.061  17.594 -0.1554 -0.1776 -0.4193
   98TCq2    O6 1503   2.064   3.052  17.480 -0.1414 -0.6113 -0.5955
   98TCq2    H2 1504   1.923   2.986   0.114 -0.9235  1.1160 -2.2724
   98TCq2    H3 1505   2.205   3.229  17.614  1.9267  3.1910  1.9883
   98TCq2    H4 1506   2.190   3.218   0.345 -0.1574  0.0245  0.1824
   99MPD2     C 1507   0.584   0.153   1.447 -0.3773 -0.6037  0.4348
   99MPD2    C1 1508   0.598   0.029   1.380 -0.2752 -0.2526  0.9481
   99MPD2    C2 1509   0.486   0.002   1.303 -0.2146  0.6846 -0.1705
   99MPD2    C3 1510   0.380   0.087   1.281  0.5109 -0.7278 -0.2959
   99MPD2    C4 1511   0.378   0.207   1.341  0.4050 -0.0128 -0.3768
   99MPD2    C5 1512   0.484   0.242   1.425  0.8262 -0.2707 -0.1302
   99MPD2     H 1513   0.485   4.635   1.241  1.2020 -0.7248  1.8209
   99MPD2    H1 1514   0.294   0.272   1.321  0.0551 -0.4354 -0.2918
   99MPD2    H2 1515   0.673   0.185   1.500 -1.0071  0.2718  0.9374
   99MPD2    H3 1516   0.491   0.336   1.478 -1.4401 -0.5114  0.6347
   99MPD2     N 1517   0.281   0.051   1.183 -0.3085 -0.2014  0.1155
   99MPD2    H5 1518   0.289   4.680   1.145  0.6573  0.4189 -1.1855
   99MPD2    N1 1519   0.709   4.660   1.391  0.0656  0.2546  0.7801
   99MPD2    H7 1520   0.692   4.576   1.337  2.2560  1.9699 -2.5631
  100TCq2    C1 1521   0.826   4.684   1.455 -0.1584 -0.3454  0.2299
  100TCq2    O2 1522   0.879   0.073   1.467  0.5222  0.0433 -0.0209
  100TCq2    C2 1523   0.909   4.572   1.448  0.3755 -1.2781  0.4011
  100TCq2    C3 1524   1.045   4.580   1.425  0.0202  0.3447 -0.2624
  100TCq2    C4 1525   1.121   4.469   1.454 -0.1744 -0.2529 -0.0999
  100TCq2    C5 1526   1.075   4.355   1.507 -0.0883 -0.5803 -0.2427
  100TCq2    C6 1527   0.941   4.356   1.531 -0.1325 -0.3943  0.1793
  100TCq2    C7 1528   0.855   4.458   1.490 -0.7327 -0.1204  0.1010
  100TCq2    C8 1529   0.893   4.238   1.596 -0.4776 -0.2722 -0.3249
  100TCq2    O4 1530   0.983   4.166   1.642 -0.2057 -0.2562 -0.7971
  100TCq2    C9 1531   1.258   4.478   1.414 -0.6103  0.3512 -0.7862
  100TCq2    O5 1532   1.291   4.589   1.365 -0.6423 -0.0719 -0.1823
  100TCq2    O6 1533   1.335   4.390   1.465 -0.0059  0.5338 -0.1384
  100TCq2    H2 1534   1.091   4.674   1.399  0.8680 -0.0064 -0.0442
  100TCq2    H3 1535   1.146   4.276   1.528 -1.3884 -1.1151  2.1046
  100TCq2    H4 1536   0.748   4.441   1.493 -0.5789 -0.5580  3.3140
  101MPD2     C 1537   1.545   1.857  13.192 -0.4896 -0.3047 -0.1165
  101MPD2    C1 1538   1.521   1.895  13.318 -0.0065  0.3299 -0.1571
  101MPD2    C2 1539   1.437   1.815  13.397  0.4763  0.1402  0.2318
  101MPD2    C3 1540   1.397   1.693  13.354  0.5955  0.5452  0.4605
  101MPD2    C4 1541   1.428   1.650  13.224 -0.6998  0.3083  0.3276
  101MPD2    C5 1542   1.506   1.734  13.146  0.3493 -0.3781 -0.2986
  101MPD2     H 1543   1.404   1.857  13.492 -0.2434 -1.1087  0.5364
  101MPD2    H1 1544   1.413   1.549  13.187  0.4177  1.5293 -3.3951
  101MPD2    H2 1545   1.599   1.924  13.126 -1.1691  1.9744  1.6432
  101MPD2    H3 1546   1.535   1.717  13.043 -1.4879 -0.6648 -0.7595
  101MPD2     N 1547   1.318   1.610  13.438 -0.1613 -0.4730  1.3885
  101MPD2    H5 1548   1.273   1.654  13.518  0.6837 -0.3286  1.7904
  101MPD2    N1 1549   1.544   2.032  13.348 -0.3909  0.6549 -0.2941
  101MPD2    H7 1550   1.587   2.084  13.272  0.2220  0.5529 -0.0231
  102TCq2    C1 1551   1.532   2.439  13.123 -0.3962 -0.0419 -0.0089
  102TCq2    O2 1552   1.648   2.417  13.099  0.1032 -0.0632 -0.0697
  102TCq2    C2 1553   1.461   2.379  13.240 -0.0209 -0.4195 -0.0286
  102TCq2    C3 1554   1.332   2.410  13.275  0.0892  0.4976 -0.5551
  102TCq2    C4 1555   1.271   2.340  13.378  1.0996 -0.7564  0.4177
  102TCq2    C5 1556   1.335   2.250  13.461  0.6581  0.6432  0.0215
  102TCq2    C6 1557   1.472   2.232  13.438 -0.4202  0.4324 -0.7849
  102TCq2    C7 1558   1.538   2.302  13.333  0.5678  0.5035  0.2512
  102TCq2    C8 1559   1.516   2.098  13.465 -0.3789 -0.3145  0.0814
  102TCq2    O4 1560   1.483   2.052  13.571  0.4249 -0.1529 -0.2228
  102TCq2    C9 1561   1.124   2.343  13.380  0.1021  0.2171 -0.1762
  102TCq2    O5 1562   1.073   2.241  13.434  0.2970  0.6785  0.1039
  102TCq2    O6 1563   1.069   2.423  13.305  0.2790  0.1666  0.0432
  102TCq2    H2 1564   1.274   2.490  13.230  0.7336  1.8745  1.0525
  102TCq2    H3 1565   1.276   2.190  13.529 -0.0224 -0.7679 -1.8170
  102TCq2    H4 1566   1.647   2.300  13.337  0.7186  0.2531 -4.3796
  103TMC2    C1 1567   4.462   1.474  12.404  0.1013 -0.6614 -0.0257
  103TMC2    C2 1568   4.589   1.428  12.431 -0.3909  1.3421 -1.0362
  103TMC2    C3 1569   4.665   1.492  12.521 -0.6027  0.0065 -0.4005
  103TMC2    C4 1570   4.411   1.584  12.467 -0.0728 -0.2920 -0.0004
  103TMC2    C5 1571   4.496   1.651  12.546  0.1412  0.0051  0.0955
  103TMC2    C6 1572   4.623   1.608  12.574  0.1788  0.1484 -0.1389
  103TMC2     C 1573   4.369   1.410  12.311 -0.2461 -0.8498  0.0109
  103TMC2     O 1574   4.248   1.423  12.328  0.3253 -0.0063 -0.2962
  103TMC2     H 1575   4.611   1.328  12.395 -0.3330 -0.1118  3.0240
  103TMC2    H1 1576   4.323   1.634  12.429  1.3710  1.5783 -0.8983
  103TMC2    H2 1577   4.698   1.666  12.626 -2.3849 -0.6031  4.3326
  103TMC2    C7 1578   4.453   1.765  12.624 -0.4696 -0.0836  0.0874
  103TMC2    C8 1579   0.087   1.486  12.527  0.1137 -0.0778  0.0659
  103TMC2    O1 1580   4.541   1.830  12.683 -0.4519 -0.3528  0.2228
  103TMC2    O2 1581   0.163   1.583  12.538 -0.3807  0.5342  0.2847
  103TMC2    O5 1582   0.114   1.352  12.508 -0.0161  0.1149  0.0505
  103TMC2    H5 1583   0.041   1.288  12.526  0.0552  0.4936  1.7582
  104MPD2     C 1584   4.448   1.184  12.032 -0.3200 -0.1855 -0.2945
  104MPD2    C1 1585   4.379   1.282  12.097 -0.6330  0.7046 -0.3455
  104MPD2    C2 1586   4.258   1.329  12.052 -0.5363 -0.5749  0.6478
  104MPD2    C3 1587   4.210   1.285  11.932 -0.9873 -0.2481  0.3406
  104MPD2    C4 1588   4.283   1.187  11.859 -0.2586 -0.5576 -0.4583
  104MPD2    C5 1589   4.402   1.145  11.908  0.8631 -0.0748  0.5163
  104MPD2     H 1590   4.194   1.392  12.111 -2.3096 -0.3429 -1.5095
  104MPD2    H1 1591   4.245   1.151  11.764 -2.6651  0.6001  0.0616
  104MPD2    H2 1592   4.543   1.142  12.062  0.3279  0.6121 -1.2069
  104MPD2    H3 1593   4.459   1.075  11.848  0.9459  0.3465  0.0997
  104MPD2     N 1594   4.102   1.357  11.872 -0.4196  0.3170 -0.2920
  104MPD2    H5 1595   4.071   1.443  11.916  1.1310 -0.1334  1.7069
  104MPD2    N1 1596   4.431   1.337  12.214  0.4942 -0.3324 -0.0393
  104MPD2    H7 1597   4.532   1.330  12.210  0.4418 -1.3438  0.5923
  105MPD2     C 1598   0.818   0.469   0.317 -0.4639  0.0652  0.3622
  105MPD2    C1 1599   0.739   0.568   0.259  0.0637 -0.0902 -0.3697
  105MPD2    C2 1600   0.649   0.631   0.343 -0.7791 -0.8318 -0.5640
  105MPD2    C3 1601   0.642   0.601   0.473 -0.3125  0.4080 -0.2790
  105MPD2    C4 1602   0.714   0.490   0.522  0.1608 -0.2409  0.3169
  105MPD2    C5 1603   0.784   0.409   0.433  0.1342  0.6344 -0.4994
  105MPD2     H 1604   0.585   0.705   0.299  0.4499  0.5721  0.0053
  105MPD2    H1 1605   0.717   0.470   0.628  0.0695 -0.8534  0.2073
  105MPD2    H2 1606   0.892   0.412   0.263 -0.5538  0.5837 -0.3064
  105MPD2    H3 1607   0.852   0.337   0.477 -0.3185 -0.2352 -1.2123
  105MPD2     N 1608   0.563   0.668   0.566 -0.6818 -0.3203 -0.3957
  105MPD2    H5 1609   0.578   0.626   0.656 -0.5292  0.7759  0.0888
  105MPD2    N1 1610   0.754   0.623   0.128  0.1648 -0.4317  0.0973
  105MPD2    H7 1611   0.708   0.710   0.101  0.9839  0.0626  0.2879
  106TCq2    C1 1612   0.486   0.780   0.540  0.8393  0.1859  0.2972
  106TCq2    O2 1613   0.485   0.843   0.434 -0.0195  0.2111 -0.4942
  106TCq2    C2 1614   0.395   0.825   0.649  0.3675 -0.4546 -0.5755
  106TCq2    C3 1615   0.360   0.953   0.650  0.7253 -0.6398 -0.0109
  106TCq2    C4 1616   0.309   1.015   0.758 -0.8519  0.6973  0.0900
  106TCq2    C5 1617   0.299   0.941   0.875  0.2589 -0.3015 -0.7924
  106TCq2    C6 1618   0.320   0.806   0.871  0.1323 -1.1548  0.3328
  106TCq2    C7 1619   0.376   0.746   0.763  0.0665 -0.2374  0.3385
  106TCq2    C8 1620   0.334   0.742   0.998  0.1789 -0.0712  0.6757
  106TCq2    O4 1621   0.372   0.626   0.994 -0.3000 -0.9827  0.8483
  106TCq2    C9 1622   0.272   1.159   0.751 -0.8444 -0.8747  0.2966
  106TCq2    O5 1623   0.205   1.201   0.850 -0.3592 -0.5186  0.7812
  106TCq2    O6 1624   0.304   1.232   0.658 -0.2919 -0.0161  0.0631
  106TCq2    H2 1625   0.370   1.010   0.559  0.7985  0.5546  0.7433
  106TCq2    H3 1626   0.249   0.981   0.962  1.8932  2.3294 -1.0855
  106TCq2    H4 1627   0.372   0.639   0.752 -1.9919 -0.1950  0.5304
  107TMC2    C1 1628   1.218   1.069  11.712 -0.0324  0.2332 -0.4503
  107TMC2    C2 1629   1.270   1.108  11.592 -0.0807 -0.1826 -0.6109
  107TMC2    C3 1630   1.317   1.016  11.501 -0.3381  0.0679 -0.7828
  107TMC2    C4 1631   1.221   0.935  11.750  0.1802 -0.2803 -0.1670
  107TMC2    C5 1632   1.285   0.850  11.665  0.1738 -0.4850 -0.0593
  107TMC2    C6 1633   1.324   0.886  11.538 -0.8001 -0.2054  0.4212
  107TMC2     C 1634   1.126   1.149  11.801 -0.5222  0.1233  0.7581
  107TMC2     O 1635   1.110   1.108  11.913 -0.0324 -0.3422  0.0716
  107TMC2     H 1636   1.277   1.214  11.574  3.3302 -0.2375  0.4591
  107TMC2    H1 1637   1.193   0.895  11.847 -0.2765  0.3426 -0.0418
  107TMC2    H2 1638   1.386   0.821  11.478  1.5350  0.1166  2.4539
  107TMC2    C7 1639   1.318   0.717  11.722 -0.1392 -1.0862  0.1176
  107TMC2    C8 1640   1.420   1.072  11.417  0.8263 -0.3331 -0.1101
  107TMC2    O1 1641   1.338   0.725  11.844  0.0703 -0.1904 -0.3359
  107TMC2    O2 1642   1.464   1.187  11.431 -0.7037 -0.4709 -0.2234
  107TMC2    O5 1643   1.432   0.997  11.305 -0.0615 -0.0968 -0.2205
  107TMC2    H5 1644   1.359   0.933  11.291  0.4017 -0.7607  0.3765
  108MPD2     C 1645   0.912   1.406  11.680 -0.1951  0.1042  0.3106
  108MPD2    C1 1646   0.954   1.319  11.776 -0.7571  0.3644  0.0669
  108MPD2    C2 1647   0.880   1.286  11.888 -0.3915 -0.0362  0.5145
  108MPD2    C3 1648   0.752   1.338  11.893 -0.3325 -0.2921  0.2840
  108MPD2    C4 1649   0.704   1.429  11.800 -0.0877 -0.6825 -0.6831
  108MPD2    C5 1650   0.788   1.462  11.701  0.1469  0.1545  0.1412
  108MPD2     H 1651   0.913   1.207  11.955 -3.1943  0.6925  2.7406
  108MPD2    H1 1652   0.604   1.471  11.796 -0.4411 -1.5577 -1.2346
  108MPD2    H2 1653   0.980   1.432  11.600 -2.0170  1.3262 -0.8426
  108MPD2    H3 1654   0.758   1.527  11.620  0.2622 -0.5359 -0.4508
  108MPD2     N 1655   0.661   1.304  11.996 -0.5537  0.0718 -0.0856
  108MPD2    H5 1656   0.565   1.331  11.977 -1.4520 -0.7663  3.2416
  108MPD2    N1 1657   1.067   1.252  11.737 -0.2176  0.4270 -0.5372
  108MPD2    H7 1658   1.104   1.278  11.647  0.0888  1.2898 -0.1528
  109MPD2     C 1659   2.710   2.349   2.188 -0.4013  0.4111  0.3049
  109MPD2    C1 1660   2.694   2.397   2.056 -0.3653  0.0762 -0.2279
  109MPD2    C2 1661   2.616   2.511   2.035  0.5859 -0.5102 -0.1525
  109MPD2    C3 1662   2.543   2.569   2.140  0.7330 -0.3864  0.5055
  109MPD2    C4 1663   2.559   2.512   2.260 -0.4364 -0.7285 -0.5075
  109MPD2    C5 1664   2.641   2.409   2.283  0.2493 -0.1775 -0.5904
  109MPD2     H 1665   2.590   2.540   1.933 -1.3480 -3.7101 -0.5749
  109MPD2    H1 1666   2.507   2.543   2.350  1.2719  2.5754 -0.6447
  109MPD2    H2 1667   2.781   2.271   2.209  1.7815  1.9121 -1.5346
  109MPD2    H3 1668   2.650   2.363   2.381  1.7601 -0.3198 -0.7939
  109MPD2     N 1669   2.460   2.682   2.115 -1.1048  0.4540  0.1236
  109MPD2    H5 1670   2.457   2.711   2.017  0.0884  0.6910  0.1657
  109MPD2    N1 1671   2.759   2.339   1.944 -0.6402  0.1469 -0.2335
  109MPD2    H7 1672   2.741   2.382   1.853 -1.0659  1.6238  0.5438
  110TCq2    C1 1673   2.372   2.744   2.205  0.2405  0.3046 -0.5974
  110TCq2    O2 1674   2.352   2.717   2.321 -0.4405 -0.1852  0.0313
  110TCq2    C2 1675   2.301   2.856   2.147  0.1710 -0.0316  0.8038
  110TCq2    C3 1676   2.255   2.946   2.239 -0.0901 -0.2892 -0.3462
  110TCq2    C4 1677   2.206   3.062   2.186  0.0275  0.0453  0.0545
  110TCq2    C5 1678   2.197   3.096   2.056  0.0873 -0.4305  0.0114
  110TCq2    C6 1679   2.245   3.003   1.967 -0.2411 -0.5569 -0.6712
  110TCq2    C7 1680   2.291   2.879   2.012  0.0393 -0.5561 -0.3454
  110TCq2    C8 1681   2.238   3.041   1.828 -0.0973  0.3981 -0.4230
  110TCq2    O4 1682   2.156   3.121   1.791  0.5142 -0.6361 -0.1295
  110TCq2    C9 1683   2.159   3.164   2.274 -0.3435  0.2095 -0.1399
  110TCq2    O5 1684   2.122   3.121   2.389 -0.2645  0.0908  0.4016
  110TCq2    O6 1685   2.134   3.280   2.226  0.3447 -0.4811  0.1140
  110TCq2    H2 1686   2.269   2.939   2.347 -0.6458  0.7201 -0.2050
  110TCq2    H3 1687   2.173   3.195   2.019  1.7758  0.3168  0.9700
  110TCq2    H4 1688   2.329   2.810   1.938 -1.3005  0.4954 -2.0293
  111TMC2    C1 1689   1.684   3.168  11.602 -0.4710  0.3656 -0.4081
  111TMC2    C2 1690   1.736   3.262  11.519  0.6085  0.2872 -0.4164
  111TMC2    C3 1691   1.836   3.336  11.565 -0.6911  0.0281 -0.1666
  111TMC2    C4 1692   1.714   3.157  11.732 -0.1509  0.1635 -0.8671
  111TMC2    C5 1693   1.819   3.231  11.771 -0.3477 -0.2928 -0.3005
  111TMC2    C6 1694   1.884   3.325  11.691 -0.2375 -0.2882 -0.9142
  111TMC2     C 1695   1.587   3.084  11.536  0.0468 -0.2189  0.1750
  111TMC2     O 1696   1.601   3.073  11.417 -0.0425 -0.3176 -0.0486
  111TMC2     H 1697   1.706   3.274  11.415 -1.1571  0.2073  0.0884
  111TMC2    H1 1698   1.678   3.069  11.785 -1.5376  1.3250  0.1118
  111TMC2    H2 1699   1.960   3.396  11.722 -1.7601  1.1667 -0.5083
  111TMC2    C7 1700   1.849   3.226  11.908  0.1456  0.2785  0.6017
  111TMC2    C8 1701   1.888   3.433  11.478  0.1324 -0.2026  0.0204
  111TMC2    O1 1702   1.778   3.155  11.978  0.2560 -0.0674  0.3167
  111TMC2    O2 1703   1.824   3.484  11.389 -0.2322 -0.4227 -0.6671
  111TMC2    O5 1704   2.021   3.406  11.471  0.0615 -0.2032  0.0139
  111TMC2    H5 1705   2.053   3.349  11.545  0.9722 -0.0719 -0.2858
  112MPD2     C 1706   1.126   2.889  11.485  0.8502 -0.4147 -0.1294
  112MPD2    C1 1707   1.230   2.892  11.395  0.1963 -0.3495 -0.0724
  112MPD2    C2 1708   1.355   2.940  11.433 -0.9009 -0.2353  0.3727
  112MPD2    C3 1709   1.365   2.989  11.558  0.2566  0.4218  0.6625
  112MPD2    C4 1710   1.263   2.981  11.651 -0.3968 -0.1261 -0.4283
  112MPD2    C5 1711   1.143   2.928  11.612  0.6494  0.3164  0.3414
  112MPD2     H 1712   1.432   2.942  11.357 -0.5196 -3.0737  0.6604
  112MPD2    H1 1713   1.273   3.017  11.753  2.6379  0.2953 -0.8749
  112MPD2    H2 1714   1.025   2.856  11.463  1.0618 -1.2505  0.1365
  112MPD2    H3 1715   1.055   2.927  11.676 -0.8710  0.8437 -1.7662
  112MPD2     N 1716   1.481   3.051  11.610 -0.2753  0.3584 -0.7219
  112MPD2    H5 1717   1.486   3.094  11.702  0.2258 -0.4527 -0.3684
  112MPD2    N1 1718   1.219   2.852  11.262 -0.1912 -0.8363  0.2032
  112MPD2    H7 1719   1.310   2.832  11.222 -0.1830  0.7713 -0.6172
  113MPD2     C 1720   0.019   4.374   1.260  0.5732 -0.1810 -0.7846
  113MPD2    C1 1721   4.664   4.489   1.279 -0.6160  0.3489  1.2308
  113MPD2    C2 1722   4.537   4.494   1.223  0.3736  0.0457  0.4426
  113MPD2    C3 1723   4.487   4.392   1.150 -0.5534  0.6978  0.2258
  113MPD2    C4 1724   4.567   4.279   1.129  0.3338  0.7248  0.9197
  113MPD2    C5 1725   4.689   4.275   1.179 -0.0163 -0.0048  0.1717
  113MPD2     H 1726   4.482   4.587   1.235  1.1527  0.1423  3.2003
  113MPD2    H1 1727   4.529   4.192   1.077 -0.2661 -0.3050  3.0747
  113MPD2    H2 1728   0.122   4.366   1.291 -0.0410 -0.8733  1.0872
  113MPD2    H3 1729   0.028   4.188   1.157 -2.6211 -1.9512  0.5660
  113MPD2     N 1730   4.361   4.384   1.082 -0.0076  0.1392 -0.9074
  113MPD2    H5 1731   4.350   4.309   1.015  1.8374  0.4480 -1.5715
  113MPD2    N1 1732   4.704   4.605   1.354  0.5521  0.4157  0.2249
  113MPD2    H7 1733   4.642   4.685   1.362  0.5221  0.3224  0.9386
  114TCq2    C1 1734   4.268   4.480   1.092  0.2342  0.0701 -1.0999
  114TCq2    O2 1735   4.260   4.583   1.153  0.3498  0.4196  0.3699
  114TCq2    C2 1736   4.157   4.456   0.998 -0.0462  1.1180 -0.2566
  114TCq2    C3 1737   4.100   4.562   0.938  0.2831 -0.4107  0.3342
  114TCq2    C4 1738   4.026   4.550   0.827  0.5472 -0.1712 -0.2406
  114TCq2    C5 1739   3.997   4.427   0.790 -0.6197 -0.1852 -0.3191
  114TCq2    C6 1740   4.040   4.320   0.863  0.2830  0.2727  0.3212
  114TCq2    C7 1741   4.127   4.328   0.967  0.2411 -0.1487 -0.3983
  114TCq2    C8 1742   3.989   4.191   0.835 -0.9913 -0.6871 -0.1182
  114TCq2    O4 1743   4.008   4.125   0.731  0.7064 -0.8656  0.1961
  114TCq2    C9 1744   3.995   4.667   0.753  0.0772 -0.1090 -0.6217
  114TCq2    O5 1745   4.065   0.050   0.770 -0.1321  0.5805  0.3152
  114TCq2    O6 1746   3.913   4.658   0.656  0.0857  0.1581  0.1047
  114TCq2    H2 1747   4.119   4.655   0.990  2.6452 -0.8149  0.1821
  114TCq2    H3 1748   3.928   4.408   0.708  0.4238 -1.2295 -0.9575
  114TCq2    H4 1749   4.164   4.238   1.016  1.4955  2.2724  3.1695
  115TMC2    C1 1750   0.564   2.908   0.310  0.7657 -0.1425  0.1472
  115TMC2    C2 1751   0.698   2.891   0.288  0.3546  0.5202 -0.3260
  115TMC2    C3 1752   0.773   2.995   0.244 -0.1028  0.8182 -0.3123
  115TMC2    C4 1753   0.505   3.033   0.306 -0.2804  0.3400  0.5355
  115TMC2    C5 1754   0.583   3.128   0.245 -0.1696  0.1971 -0.3612
  115TMC2    C6 1755   0.716   3.119   0.222 -0.1174 -0.2237  0.6029
  115TMC2     C 1756   0.472   2.794   0.292 -0.2098 -0.1386 -0.4650
  115TMC2     O 1757   0.519   2.694   0.234 -0.0649 -0.0851  0.3278
  115TMC2     H 1758   0.731   2.788   0.297  1.5470  0.9059 -0.2962
  115TMC2    H1 1759   0.401   3.049   0.333 -0.3336 -2.1187  1.7795
  115TMC2    H2 1760   0.777   3.196   0.176  0.1134 -1.6426 -1.4965
  115TMC2    C7 1761   0.513   3.261   0.221  0.5860 -0.4349  0.0787
  115TMC2    C8 1762   0.910   2.959   0.198 -0.5324  0.2936 -0.1454
  115TMC2    O1 1763   0.402   3.282   0.270  0.1865 -0.0620  0.0700
  115TMC2    O2 1764   0.960   2.847   0.178  0.5483  0.1767  0.0938
  115TMC2    O5 1765   0.988   3.070   0.174  0.0337 -0.1442 -0.3526
  115TMC2    H5 1766   0.970   3.159   0.210  1.3692  0.6951 -1.7439
  116MPD2     C 1767   4.711   2.655   0.192 -0.6045  0.8095  0.6551
  116MPD2    C1 1768   0.105   2.620   0.131 -0.4613 -0.3069  0.1928
  116MPD2    C2 1769   0.227   2.667   0.176  0.9413  0.2276 -0.3917
  116MPD2    C3 1770   0.226   2.752   0.288 -0.0293 -0.4947 -0.0700
  116MPD2    C4 1771   0.111   2.794   0.345  1.1007 -0.0024 -1.0281
  116MPD2    C5 1772   4.719   2.732   0.303  0.1246 -0.6726  0.3151
  116MPD2     H 1773   0.316   2.636   0.122 -1.0441 -1.5210 -2.7314
  116MPD2    H1 1774   0.099   2.859   0.431 -1.6103  0.3637 -1.6853
  116MPD2    H2 1775   4.617   2.606   0.170  0.7397 -0.9038 -1.3004
  116MPD2    H3 1776   4.629   2.757   0.358  0.1638 -0.9238  0.4966
  116MPD2     N 1777   0.342   2.818   0.331  0.6266  1.0431 -0.0377
  116MPD2    H5 1778   0.323   2.894   0.395 -0.1703  1.6451 -0.9946
  116MPD2    N1 1779   0.091   2.531   0.019  0.1014  0.2303  0.5648
  116MPD2    H7 1780   4.717   2.511  17.685 -0.2127  1.3315  0.9287
  117TMC2    C1 1781   3.525   4.270  13.617 -0.5687 -0.3855 -0.0721
  117TMC2    C2 1782   3.589   4.175  13.543  0.0129  0.3047 -0.1041
  117TMC2    C3 1783   3.715   4.201  13.495 -0.1764 -0.3895  0.6260
  117TMC2    C4 1784   3.584   4.386  13.657  0.3644 -0.0373  0.1840
  117TMC2    C5 1785   3.710   4.408  13.605 -0.5361 -0.0421  0.3486
  117TMC2    C6 1786   3.779   4.318  13.523 -0.2579  0.5324 -0.0553
  117TMC2     C 1787   3.381   4.263  13.620 -0.4567  0.3462 -0.6912
  117TMC2     O 1788   3.340   4.155  13.583 -0.1687  0.4273  0.2737
  117TMC2     H 1789   3.538   4.084  13.512 -2.7059  2.1854 -1.1259
  117TMC2    H1 1790   3.533   4.455  13.724  2.5479 -0.9043  2.7182
  117TMC2    H2 1791   3.882   4.333  13.495 -0.0651 -3.4327 -1.5422
  117TMC2    C7 1792   3.771   4.534  13.637  0.4306 -0.7096 -0.1340
  117TMC2    C8 1793   3.781   4.081  13.447 -0.3021  0.5215  0.3947
  117TMC2    O1 1794   3.709   4.609  13.714  0.9287  0.1011 -0.0029
  117TMC2    O2 1795   3.737   3.971  13.454  0.6702 -0.1753  0.0495
  117TMC2    O5 1796   3.912   4.107  13.437  0.3936  0.3107  0.1320
  117TMC2    H5 1797   3.917   4.194  13.392 -0.9276  0.4779  0.3215
  118MPD2     C 1798   4.098   4.679  13.556  0.6156  0.3477 -0.6189
  118MPD2    C1 1799   3.966   4.673  13.576  0.4891  0.4110  0.0652
  118MPD2    C2 1800   3.897   0.066  13.587  0.0971  0.2464  0.6044
  118MPD2    C3 1801   3.948   0.189  13.562  0.3002  0.7133  0.0150
  118MPD2    C4 1802   4.083   0.195  13.535 -0.2792 -0.1226 -0.1725
  118MPD2    C5 1803   4.156   0.075  13.531  0.4852  0.3817 -0.2398
  118MPD2     H 1804   3.795   0.077  13.624  0.3803  0.3280  1.3774
  118MPD2    H1 1805   4.132   0.289  13.511  0.5332 -1.4209 -3.6045
  118MPD2    H2 1806   4.160   4.593  13.533  0.5791 -0.0796  0.8432
  118MPD2    H3 1807   4.260   0.070  13.501  0.4148 -1.6970 -0.1684
  118MPD2     N 1808   3.886   0.313  13.569 -0.2184  0.3996  0.0361
  118MPD2    H5 1809   3.938   0.396  13.541 -0.7907  1.0122  0.7916
  118MPD2    N1 1810   3.899   4.551  13.577 -0.4536  0.3201  0.5361
  118MPD2    H7 1811   3.943   4.463  13.551  0.3581  0.7897  0.3633
  119MPD2     C 1812   2.402   1.591  14.264  0.2142  0.3632  0.9145
  119MPD2    C1 1813   2.268   1.602  14.280  0.4546  0.2635  0.1100
  119MPD2    C2 1814   2.177   1.555  14.185  0.2889  0.1698  0.4106
  119MPD2    C3 1815   2.225   1.482  14.080  0.2660 -0.0713 -0.4582
  119MPD2    C4 1816   2.358   1.470  14.066  0.5926 -0.0732 -0.1227
  119MPD2    C5 1817   2.447   1.534  14.150  0.7163 -0.1033  0.8016
  119MPD2     H 1818   2.072   1.582  14.186  0.1483 -0.3328 -0.3961
  119MPD2    H1 1819   2.405   1.427  13.978  0.8634  0.8425 -0.4341
  119MPD2    H2 1820   2.481   1.621  14.333  1.9947 -3.2076  0.4127
  119MPD2    H3 1821   2.554   1.522  14.137  0.6439  1.3409 -1.1051
  119MPD2     N 1822   2.141   1.430  13.990  1.1591 -0.0627 -0.3196
  119MPD2    H5 1823   2.191   1.401  13.906 -0.5904  1.4961 -1.9175
  119MPD2    N1 1824   2.240   1.679  14.386  0.1933 -0.0810 -0.2847
  119MPD2    H7 1825   2.325   1.713  14.430 -0.5894  2.9623 -1.1482
  120TCq2    C1 1826   2.003   1.405  13.998 -0.7645 -0.3117  0.1283
  120TCq2    O2 1827   1.930   1.446  14.087  0.2271 -0.3828 -0.3583
  120TCq2    C2 1828   1.948   1.373  13.870  0.0858  0.0619 -0.5034
  120TCq2    C3 1829   2.024   1.352  13.759 -0.4146  0.0476 -0.7377
  120TCq2    C4 1830   1.964   1.324  13.635  0.2883 -0.4227 -0.1762
  120TCq2    C5 1831   1.824   1.326  13.620  0.8923 -0.0423 -0.4464
  120TCq2    C6 1832   1.753   1.360  13.732 -0.3077  0.1696  0.5959
  120TCq2    C7 1833   1.810   1.379  13.855  0.8645  0.0745 -0.6235
  120TCq2    C8 1834   1.611   1.319  13.724  1.0095  1.3643  0.1365
  120TCq2    O4 1835   1.558   1.318  13.616 -0.3579  0.5079 -0.8097
  120TCq2    C9 1836   2.047   1.301  13.524 -0.0196  0.9637  0.4721
  120TCq2    O5 1837   1.987   1.298  13.414 -0.6451 -0.0909 -0.3365
  120TCq2    O6 1838   2.172   1.286  13.536 -0.3290  0.6844  0.5831
  120TCq2    H2 1839   2.132   1.343  13.762 -0.3347  1.4272  1.2476
  120TCq2    H3 1840   1.775   1.305  13.526 -2.5938 -2.4350  1.8997
  120TCq2    H4 1841   1.748   1.395  13.943  1.0189 -2.4404 -0.0427
  121TMC2    C1 1842   3.317   3.056  13.724  0.2532 -0.3290 -0.5801
  121TMC2    C2 1843   3.270   3.170  13.658 -0.0617 -1.0730  0.6543
  121TMC2    C3 1844   3.133   3.181  13.655  0.0175  0.9569 -0.1649
  121TMC2    C4 1845   3.221   2.960  13.770 -0.2699  0.2021  0.6617
  121TMC2    C5 1846   3.087   2.975  13.750 -0.2346 -0.3271 -0.1475
  121TMC2    C6 1847   3.043   3.087  13.687 -0.4239 -0.6484  0.3520
  121TMC2     C 1848   3.456   3.042  13.763 -0.2493 -0.0003 -0.5199
  121TMC2     O 1849   3.497   2.954  13.840 -0.4190 -0.2909 -0.2841
  121TMC2     H 1850   3.331   3.248  13.612 -0.0786 -2.0187 -0.9906
  121TMC2    H1 1851   3.264   2.872  13.815 -1.1298  0.5774  2.2257
  121TMC2    H2 1852   2.938   3.110  13.670 -0.2101  1.0318  1.3177
  121TMC2    C7 1853   2.984   2.882  13.802  0.4505 -0.4082  0.0042
  121TMC2    C8 1854   3.079   3.318  13.631 -0.6793 -0.7963 -0.2415
  121TMC2    O1 1855   3.011   2.777  13.850  0.0365  0.0364 -0.1444
  121TMC2    O2 1856   2.962   3.327  13.608 -0.9666  0.2315  0.1865
  121TMC2    O5 1857   3.159   3.416  13.674  0.4837 -0.3036  0.1913
  121TMC2    H5 1858   3.244   3.389  13.714  0.0986 -0.0860  1.1651
  122MPD2     C 1859   3.758   3.065  13.793  0.8467  0.0005 -0.4088
  122MPD2    C1 1860   3.680   3.120  13.690  0.3011 -0.7990 -0.0060
  122MPD2    C2 1861   3.751   3.172  13.588 -1.5055 -0.4074  0.1493
  122MPD2    C3 1862   3.890   3.177  13.594  0.2125 -0.5285  0.2794
  122MPD2    C4 1863   3.965   3.131  13.702  0.3041  0.4203 -0.9124
  122MPD2    C5 1864   3.897   3.072  13.807 -0.9058 -0.8076 -0.1450
  122MPD2     H 1865   3.688   3.203  13.506  0.2493 -0.3441 -1.1874
  122MPD2    H1 1866   4.073   3.129  13.702  0.2692 -1.0671 -0.2218
  122MPD2    H2 1867   3.703   3.023  13.877 -0.9750  1.5599 -0.8361
  122MPD2    H3 1868   3.956   3.014  13.878 -1.6496  1.2804  2.1727
  122MPD2     N 1869   3.974   3.227  13.488  0.2305  0.1241  0.3952
  122MPD2    H5 1870   4.074   3.214  13.500  0.5021  1.2252 -0.7172
  122MPD2    N1 1871   3.534   3.116  13.685  0.3222  0.3583  0.4061
  122MPD2    H7 1872   3.493   3.161  13.604  0.0720 -2.1346 -0.8353
  123MPD2     C 1873   0.733   0.947   9.231 -1.0486 -0.0687  0.2088
  123MPD2    C1 1874   0.824   0.969   9.335 -0.6328 -0.0616  0.3871
  123MPD2    C2 1875   0.920   1.058   9.327  0.4542 -0.8437 -0.2598
  123MPD2    C3 1876   0.938   1.140   9.219  0.6963 -0.3825  0.3779
  123MPD2    C4 1877   0.858   1.118   9.115  0.1629  0.0241  0.5548
  123MPD2    C5 1878   0.757   1.017   9.122  0.3393 -0.4966 -0.3154
  123MPD2     H 1879   0.988   1.070   9.411  1.4658  0.5200 -1.2645
  123MPD2    H1 1880   0.873   1.172   9.022  0.3878 -1.9805 -0.5805
  123MPD2    H2 1881   0.647   0.881   9.238  0.0816 -1.5326  0.3722
  123MPD2    H3 1882   0.685   1.001   9.042  1.7309 -0.0368 -1.6580
  123MPD2     N 1883   1.037   1.233   9.222  0.1887  0.5845  0.5226
  123MPD2    H5 1884   1.096   1.229   9.305  0.3976  1.2282  0.4093
  123MPD2    N1 1885   0.806   0.896   9.456 -0.4371  0.0695 -0.0494
  123MPD2    H7 1886   0.725   0.836   9.457 -0.6746  0.4336  1.7368
  124TCq2    C1 1887   1.045   1.346   9.142  0.4540 -0.0465  0.3602
  124TCq2    O2 1888   0.958   1.391   9.069 -0.5447  0.4297 -0.1277
  124TCq2    C2 1889   1.172   1.423   9.141 -0.2199  0.3749 -0.6479
  124TCq2    C3 1890   1.166   1.551   9.095  0.3013 -0.6937 -0.1379
  124TCq2    C4 1891   1.279   1.624   9.105  0.0303 -0.2271  0.2749
  124TCq2    C5 1892   1.382   1.577   9.168  0.1573  0.6575 -0.5556
  124TCq2    C6 1893   1.391   1.442   9.203 -0.4744  0.5170  0.1373
  124TCq2    C7 1894   1.279   1.371   9.202  0.3835  0.7983 -0.5327
  124TCq2    C8 1895   1.515   1.382   9.255  0.7934  0.2296  0.1047
  124TCq2    O4 1896   1.501   1.271   9.301 -0.4949 -0.7467 -0.8547
  124TCq2    C9 1897   1.275   1.763   9.068  0.5322  0.8890  0.5829
  124TCq2    O5 1898   1.172   1.801   9.004  0.4974 -0.3079  0.3174
  124TCq2    O6 1899   1.388   1.815   9.052  0.4854  0.5404 -0.0733
  124TCq2    H2 1900   1.073   1.597   9.065  1.8533  0.8970 -2.4644
  124TCq2    H3 1901   1.459   1.649   9.195  0.4923 -1.0215  2.8722
  124TCq2    H4 1902   1.281   1.266   9.231 -2.1122  0.8445 -0.1800
  125TMC2    C1 1903   1.813   2.836   9.351  0.0733 -0.2879  0.4226
  125TMC2    C2 1904   1.844   2.967   9.352  0.5196 -0.2750  0.1908
  125TMC2    C3 1905   1.921   3.015   9.453 -0.2363  1.0566 -0.0196
  125TMC2    C4 1906   1.863   2.755   9.443 -0.0864  0.3591 -0.3600
  125TMC2    C5 1907   1.946   2.807   9.548  0.2830  0.3980 -0.0638
  125TMC2    C6 1908   1.962   2.941   9.561  0.0395 -0.7123  0.1038
  125TMC2     C 1909   1.723   2.791   9.248  0.1885 -0.3507  0.3868
  125TMC2     O 1910   1.648   2.876   9.206  0.2116 -0.0692  0.7550
  125TMC2     H 1911   1.802   3.036   9.279 -0.3322 -0.3756  0.5925
  125TMC2    H1 1912   1.837   2.650   9.447  0.9881  0.0608 -1.4115
  125TMC2    H2 1913   2.029   2.996   9.626  0.1656 -1.4958  0.6357
  125TMC2    C7 1914   2.004   2.716   9.645  0.0571 -0.2420 -0.0463
  125TMC2    C8 1915   1.949   3.158   9.450 -0.2785 -0.0803  0.0917
  125TMC2    O1 1916   2.043   2.770   9.749  0.6307 -0.6871 -0.5940
  125TMC2    O2 1917   1.866   3.228   9.401 -0.2283  0.0158 -0.9634
  125TMC2    O5 1918   2.080   3.184   9.492 -0.5209 -0.1476 -0.5077
  125TMC2    H5 1919   2.138   3.105   9.486 -1.4605 -0.8372 -0.5347
  126MPD1     C 1920   1.459   2.406   9.036  0.0546 -0.1471  0.4187
  126MPD1    C1 1921   1.585   2.365   9.069  0.2501  0.7307 -1.0779
  126MPD1    C2 1922   1.674   2.450   9.126  0.5387 -0.2220  0.2789
  126MPD1    C3 1923   1.635   2.581   9.154 -0.1641 -0.1872  0.2320
  126MPD1    C4 1924   1.499   2.614   9.138 -0.3995  0.2709  0.7048
  126MPD1    C5 1925   1.418   2.527   9.079  0.2841 -0.0232  0.1036
  126MPD1     H 1926   1.773   2.412   9.148  0.2624 -1.5741 -0.7432
  126MPD1    H1 1927   1.459   2.712   9.163 -0.3847  0.7230 -1.0321
  126MPD1    H2 1928   1.384   2.358   8.975 -0.0741 -1.6195  1.7227
  126MPD1    H3 1929   1.322   2.554   9.037  0.2694  1.8056  1.3037
  126MPD1     N 1930   1.729   2.658   9.218 -0.0021 -0.4252 -0.6432
  126MPD1    H5 1931   1.815   2.609   9.243  0.7874  1.2714 -0.0004
  126MPD1    N1 1932   1.638   2.250   9.009  0.6962  0.7505  0.1388
  126MPD1    H6 1933   1.568   2.179   8.989 -0.4006  1.3837  1.6417
  126MPD1    H7 1934   1.713   2.216   9.068  1.0126  2.2584  0.6007
  127MPD2     C 1935   2.843   0.924   9.009 -0.1932 -0.1968  0.5030
  127MPD2    C1 1936   2.976   0.881   8.976 -1.0513  0.5701  0.1737
  127MPD2    C2 1937   3.085   0.968   8.989 -0.0041  0.7371 -0.3364
  127MPD2    C3 1938   3.060   1.087   9.057  0.3762 -0.7663 -0.6826
  127MPD2    C4 1939   2.928   1.127   9.079  0.0962 -0.4957  0.0505
  127MPD2    C5 1940   2.821   1.038   9.068 -0.3890  0.3628  0.3867
  127MPD2     H 1941   3.185   0.935   8.962 -0.9492 -0.1185 -2.8601
  127MPD2    H1 1942   2.909   1.222   9.129 -1.2428 -0.1010 -1.2322
  127MPD2    H2 1943   2.768   0.847   8.997 -1.4088  0.9245  0.7718
  127MPD2    H3 1944   2.721   1.069   9.097 -0.1288  0.7115  0.9138
  127MPD2     N 1945   3.162   1.182   9.097  0.7554 -0.2168  0.1410
  127MPD2    H5 1946   3.138   1.267   9.146 -2.8082 -2.0634  1.5093
  127MPD2    N1 1947   2.991   0.757   8.915 -0.2016 -0.6052  0.0089
  127MPD2    H7 1948   2.912   0.694   8.907 -0.4890 -0.4660  1.6972
  128TCq2    C1 1949   3.111   0.710   8.865  0.4466 -0.0739 -0.2310
  128TCq2    O2 1950   3.218   0.764   8.847 -0.5669  0.0649 -0.0313
  128TCq2    C2 1951   3.098   0.572   8.808 -0.5082 -0.0873 -0.4509
  128TCq2    C3 1952   3.180   0.544   8.701  0.6040 -0.0593  0.3746
  128TCq2    C4 1953   3.168   0.427   8.633  0.7042  0.5306 -0.0419
  128TCq2    C5 1954   3.062   0.346   8.663 -0.0139  0.7460  0.4395
  128TCq2    C6 1955   2.974   0.376   8.760  0.2331 -0.7595  0.4055
  128TCq2    C7 1956   2.990   0.490   8.838  0.6522 -0.0486  0.0464
  128TCq2    C8 1957   2.845   0.312   8.751  0.2086 -0.0162  0.5407
  128TCq2    O4 1958   2.822   0.276   8.636 -0.2632  0.8902 -0.6438
  128TCq2    C9 1959   3.262   0.404   8.526 -0.0538  0.4240  0.3032
  128TCq2    O5 1960   3.339   0.499   8.491  0.1946 -0.7987  0.0041
  128TCq2    O6 1961   3.274   0.289   8.476  0.0719 -0.3325  0.5367
  128TCq2    H2 1962   3.266   0.608   8.688 -0.7406  1.7677  0.4239
  128TCq2    H3 1963   3.050   0.257   8.603 -0.6824  1.9685 -1.2259
  128TCq2    H4 1964   2.918   0.525   8.911  0.3811 -0.0769 -0.2054
  129MPD2     C 1965   2.836   1.585   1.068 -0.0453  0.4773  0.0944
  129MPD2    C1 1966   2.943   1.566   1.149 -0.2941  0.4835  0.0715
  129MPD2    C2 1967   3.037   1.668   1.177 -0.0461  0.2040  0.5374
  129MPD2    C3 1968   3.020   1.795   1.127  0.3791  0.4754  0.1222
  129MPD2    C4 1969   2.903   1.821   1.060 -0.1632 -1.1456 -0.6250
  129MPD2    C5 1970   2.823   1.715   1.021  0.2419 -0.2327  0.3556
  129MPD2     H 1971   3.129   1.653   1.233  0.3497  0.4612 -0.0440
  129MPD2    H1 1972   2.881   1.917   1.015  0.3213 -0.9261 -0.4013
  129MPD2    H2 1973   2.777   1.499   1.040  0.3731 -0.3864  1.8161
  129MPD2    H3 1974   2.738   1.737   0.957  0.9860  0.2271 -0.4824
  129MPD2     N 1975   3.117   1.889   1.173 -0.0793  0.2540 -0.6511
  129MPD2    H5 1976   3.185   1.854   1.239 -0.9469 -0.3951 -0.0980
  129MPD2    N1 1977   2.970   1.440   1.210  0.2629  0.2872  0.2219
  129MPD2    H7 1978   3.041   1.437   1.282  0.1983  1.4142  0.3433
  130TCq2    C1 1979   2.885   1.334   1.206 -0.5876  0.3416  0.0278
  130TCq2    O2 1980   2.787   1.307   1.137 -0.4279  0.2633  0.9714
  130TCq2    C2 1981   2.920   1.225   1.294 -0.0108  0.0451  0.4922
  130TCq2    C3 1982   3.053   1.215   1.336  0.5816 -0.1129 -0.2857
  130TCq2    C4 1983   3.087   1.113   1.416  0.0936 -0.1530 -0.4012
  130TCq2    C5 1984   2.988   1.027   1.456 -0.6207 -0.4151  0.0814
  130TCq2    C6 1985   2.859   1.032   1.401  0.5355  0.0129 -0.1120
  130TCq2    C7 1986   2.825   1.130   1.313 -0.0556 -0.2581  0.4376
  130TCq2    C8 1987   2.751   0.952   1.460 -0.4148 -0.3655  0.5664
  130TCq2    O4 1988   2.635   0.970   1.419  0.3449 -0.6355  0.0741
  130TCq2    C9 1989   3.218   1.090   1.466 -0.2335 -0.0810  0.2128
  130TCq2    O5 1990   3.306   1.157   1.398 -0.5309 -0.1358 -0.6512
  130TCq2    O6 1991   3.238   1.019   1.563 -0.5688  0.2163  0.1629
  130TCq2    H2 1992   3.132   1.282   1.304  0.7785  0.0926  0.6159
  130TCq2    H3 1993   3.027   0.941   1.510  1.4700 -0.8162 -2.0923
  130TCq2    H4 1994   2.724   1.131   1.274 -0.1465 -0.4661  0.6703
  131MPD2     C 1995   1.245   0.496  10.279  0.4034  0.8186  0.1553
  131MPD2    C1 1996   1.293   0.588  10.195  0.3650  0.3215  0.4966
  131MPD2    C2 1997   1.193   0.635  10.107  0.5983  0.3743 -0.4498
  131MPD2    C3 1998   1.065   0.586  10.094  0.2122  0.7685  0.5509
  131MPD2    C4 1999   1.027   0.488  10.179 -0.2145  0.5007  0.5057
  131MPD2    C5 2000   1.116   0.443  10.269  0.8528 -0.0247 -0.2607
  131MPD2     H 2001   1.234   0.709  10.039  3.9870 -2.3632 -1.3860
  131MPD2    H1 2002   0.933   0.436  10.167  0.5043 -0.7207  0.1086
  131MPD2    H2 2003   1.309   0.455  10.355  0.2180 -1.3660 -0.8782
  131MPD2    H3 2004   1.089   0.358  10.330  3.0209 -0.6933 -0.2314
  131MPD2     N 2005   0.983   0.640   9.998 -0.0322 -0.5395 -0.0694
  131MPD2    H5 2006   1.028   0.702   9.931 -1.1640 -0.0040 -0.3457
  131MPD2    N1 2007   1.422   0.646  10.212 -0.9052  0.0955  0.0335
  131MPD2    H7 2008   1.484   0.593  10.273 -1.9829 -0.8038  0.3456
  132TCq2    C1 2009   1.761   1.049  10.438  0.0497  0.0392  0.2768
  132TCq2    O2 2010   1.820   1.055  10.545 -0.3174 -0.6591  0.7336
  132TCq2    C2 2011   1.712   0.921  10.390  0.5009  0.0240  0.4199
  132TCq2    C3 2012   1.781   0.812  10.440  0.0332  0.2991  0.0581
  132TCq2    C4 2013   1.757   0.688  10.379 -0.0516 -0.2973 -0.4522
  132TCq2    C5 2014   1.677   0.679  10.274 -0.1164 -0.0501 -0.0797
  132TCq2    C6 2015   1.604   0.785  10.235  0.1732  0.0875 -0.2295
  132TCq2    C7 2016   1.624   0.912  10.290  0.2132 -0.5056 -0.0281
  132TCq2    C8 2017   1.479   0.760  10.164 -0.5538  0.0451  0.3208
  132TCq2    O4 2018   1.428   0.853  10.100 -0.0140 -0.0643  0.4542
  132TCq2    C9 2019   1.815   0.579  10.440 -0.2746  0.5670 -1.0522
  132TCq2    O5 2020   1.747   0.467  10.435  0.3526 -0.6240  0.2565
  132TCq2    O6 2021   1.917   0.609  10.510 -0.4088 -0.1517 -0.2858
  132TCq2    H2 2022   1.845   0.821  10.527 -0.0707 -0.9491  0.2621
  132TCq2    H3 2023   1.655   0.578  10.243 -2.5550 -0.1406  1.8915
  132TCq2    H4 2024   1.571   0.998  10.251  2.0055  0.4865 -0.2849
  133MPD2     C 2025   0.719   2.572   9.528 -0.1033 -0.1816  0.6444
  133MPD2    C1 2026   0.803   2.480   9.469 -0.2095 -0.0008  1.1423
  133MPD2    C2 2027   0.755   2.357   9.436  0.2115 -0.4216  0.1489
  133MPD2    C3 2028   0.618   2.329   9.442 -0.6533 -0.6477  0.1142
  133MPD2    C4 2029   0.541   2.423   9.504 -0.7378 -0.1868 -0.1984
  133MPD2    C5 2030   0.585   2.544   9.543  0.1364 -0.2920 -0.3207
  133MPD2     H 2031   0.830   2.281   9.416 -0.0293 -0.6029 -0.0797
  133MPD2    H1 2032   0.433   2.418   9.497 -1.0105  3.4641  1.4251
  133MPD2    H2 2033   0.758   2.670   9.553  0.0261 -0.2109  0.5625
  133MPD2    H3 2034   0.512   2.612   9.587  2.3498  1.2901  0.8990
  133MPD2     N 2035   0.561   2.211   9.402  0.8635 -0.0919  0.0566
  133MPD2    H5 2036   0.461   2.197   9.394  0.7356  0.9534 -0.1658
  133MPD2    N1 2037   0.944   2.508   9.466 -0.2061 -0.3081  0.6839
  133MPD2    H7 2038   0.978   2.584   9.523 -1.2012 -0.4095  1.3945
  134TCq2    C1 2039   1.044   2.444   9.395  0.4997  0.6613 -0.0347
  134TCq2    O2 2040   1.048   2.336   9.338 -0.1821 -0.1220  0.1367
  134TCq2    C2 2041   1.165   2.524   9.412 -0.0637  0.0805  0.6567
  134TCq2    C3 2042   1.151   2.657   9.439  0.2099 -0.3613  1.1330
  134TCq2    C4 2043   1.261   2.722   9.481 -0.3473  0.2378  0.1624
  134TCq2    C5 2044   1.384   2.669   9.473 -0.5132  0.0073  0.0015
  134TCq2    C6 2045   1.397   2.540   9.447 -0.7464  0.0588  0.1675
  134TCq2    C7 2046   1.286   2.467   9.413 -0.1900 -0.1698  0.4205
  134TCq2    C8 2047   1.517   2.475   9.486 -0.2568  0.4773 -0.1587
  134TCq2    O4 2048   1.601   2.547   9.542 -0.2419  0.4917 -0.5507
  134TCq2    C9 2049   1.239   2.856   9.506 -1.2390  0.3265  0.1468
  134TCq2    O5 2050   1.341   2.929   9.500  0.4075  0.5175 -0.4834
  134TCq2    O6 2051   1.126   2.881   9.558 -0.2891 -0.6576 -0.1679
  134TCq2    H2 2052   1.064   2.718   9.418  1.6351  1.0178 -0.7469
  134TCq2    H3 2053   1.465   2.723   9.521 -0.7106 -0.4629  0.8561
  134TCq2    H4 2054   1.287   2.364   9.379  1.4827  1.4155 -4.4299
  135MPD2     C 2055   2.476   2.238   9.081 -1.2764 -0.4464 -0.1891
  135MPD2    C1 2056   2.573   2.298   9.163 -0.1059  0.2097  0.2215
  135MPD2    C2 2057   2.704   2.251   9.169  0.1192  0.2295  0.3745
  135MPD2    C3 2058   2.730   2.132   9.101 -0.0879  0.7296 -0.4639
  135MPD2    C4 2059   2.635   2.071   9.022 -0.0175  1.3420  0.4058
  135MPD2    C5 2060   2.515   2.130   9.004 -0.7530 -0.5113  0.4124
  135MPD2     H 2061   2.776   2.306   9.228 -0.5125  0.1679  1.2046
  135MPD2    H1 2062   2.661   1.974   8.981  0.1078  0.1282  3.3086
  135MPD2    H2 2063   2.372   2.266   9.073 -0.6513  1.3075 -2.1646
  135MPD2    H3 2064   2.449   2.086   8.930  2.5092  0.1401 -2.8848
  135MPD2     N 2065   2.855   2.067   9.104 -0.4160 -0.2531 -0.3414
  135MPD2    H5 2066   2.862   1.977   9.060  1.0588 -0.6643  0.7146
  135MPD2    N1 2067   2.547   2.409   9.246  0.0909  0.6901 -0.2469
  135MPD2    H7 2068   2.618   2.426   9.317  2.5492  0.2973 -2.5993
  136TCq2    C1 2069   2.441   2.495   9.231  0.0993 -0.7516  0.1902
  136TCq2    O2 2070   2.376   2.511   9.130 -0.0811  0.0995 -0.8451
  136TCq2    C2 2071   2.431   2.591   9.343  0.1597  0.5391 -0.4052
  136TCq2    C3 2072   2.382   2.717   9.314  0.3963 -0.0680  0.6505
  136TCq2    C4 2073   2.348   2.800   9.415 -0.1127 -0.1129  0.0046
  136TCq2    C5 2074   2.365   2.767   9.548  0.5048 -0.7231  0.1496
  136TCq2    C6 2075   2.421   2.641   9.575 -0.4144  0.9166 -0.6225
  136TCq2    C7 2076   2.454   2.555   9.468 -0.4834  0.1510 -0.3698
  136TCq2    C8 2077   2.505   2.625   9.691 -0.6337 -0.5492  0.2234
  136TCq2    O4 2078   2.608   2.556   9.690  0.4898 -0.7830 -0.1200
  136TCq2    C9 2079   2.286   2.930   9.380 -0.3246 -0.7063 -0.9052
  136TCq2    O5 2080   2.275   3.011   9.475 -0.1646 -0.5208  0.6363
  136TCq2    O6 2081   2.254   2.957   9.263 -0.4207  0.4081  0.7228
  136TCq2    H2 2082   2.363   2.757   9.215  2.0205  0.8671  0.7151
  136TCq2    H3 2083   2.326   2.836   9.622  0.9654 -0.8543  0.5144
  136TCq2    H4 2084   2.464   2.450   9.493 -2.6513  0.1841  0.6227
  137MPD2     C 2085   2.815   2.237   9.822 -0.9498 -0.0379 -0.1261
  137MPD2    C1 2086   2.866   2.125   9.889 -0.1487 -0.4701 -0.3707
  137MPD2    C2 2087   2.930   2.147  10.010  0.1674 -0.7172 -0.3340
  137MPD2    C3 2088   2.929   2.267  10.073  0.1533  0.3511  0.4671
  137MPD2    C4 2089   2.878   2.374  10.004  0.7924  0.1447  0.3161
  137MPD2    C5 2090   2.832   2.360   9.880  0.7422 -0.7814  0.3049
  137MPD2     H 2091   2.987   2.070  10.061  0.7915 -0.7813 -1.1085
  137MPD2    H1 2092   2.885   2.475  10.044 -1.4892  0.3083  0.3195
  137MPD2    H2 2093   2.765   2.232   9.726 -2.6896  2.4804  0.6826
  137MPD2    H3 2094   2.791   2.450   9.834 -1.8531 -1.8814  0.4420
  137MPD2     N 2095   2.970   2.273  10.209  0.3245  0.0220 -0.0959
  137MPD2    H5 2096   2.995   2.191  10.265  0.6075 -1.2225 -2.0523
  137MPD2    N1 2097   2.862   1.998   9.828 -0.0970  0.3356 -0.3215
  137MPD2    H7 2098   2.824   2.008   9.734 -1.0659  1.9302  0.2427
  138TCq2    C1 2099   2.906   1.884   9.889 -0.5284  0.5759  0.8630
  138TCq2    O2 2100   2.932   1.860  10.009 -0.3526  0.2378 -0.1208
  138TCq2    C2 2101   2.901   1.765   9.793  0.0434 -0.2414  0.6619
  138TCq2    C3 2102   2.975   1.653   9.841  0.3974 -0.3551 -0.2218
  138TCq2    C4 2103   2.947   1.528   9.783 -0.2180  0.6830 -0.3575
  138TCq2    C5 2104   2.849   1.509   9.694  0.3087 -0.0105 -0.5108
  138TCq2    C6 2105   2.770   1.617   9.662 -0.1845 -0.1939 -0.1499
  138TCq2    C7 2106   2.795   1.741   9.713  1.2048  0.5796  0.2425
  138TCq2    C8 2107   2.667   1.602   9.567 -0.0286  0.2764 -0.1479
  138TCq2    O4 2108   2.695   1.512   9.486  0.3945  0.3947 -0.2445
  138TCq2    C9 2109   3.023   1.416   9.819 -0.3201 -0.4105 -0.8679
  138TCq2    O5 2110   3.104   1.438   9.911 -0.1571 -0.8795  0.2272
  138TCq2    O6 2111   2.988   1.301   9.783  0.3567 -0.7459  0.3850
  138TCq2    H2 2112   3.046   1.663   9.922 -1.0492 -0.0641  1.0180
  138TCq2    H3 2113   2.833   1.413   9.647  1.3204 -1.0144  1.1960
  138TCq2    H4 2114   2.736   1.828   9.687 -0.2556  0.3334  2.7331
  139TMC2    C1 2115   3.117   0.709  13.299  0.7273  0.3993 -0.4350
  139TMC2    C2 2116   3.106   0.769  13.179  0.5369  0.3131  0.2302
  139TMC2    C3 2117   3.099   0.907  13.175  0.3932  0.4247 -1.5182
  139TMC2    C4 2118   3.103   0.775  13.418 -0.7933 -0.2829  0.0809
  139TMC2    C5 2119   3.094   0.909  13.410  0.5203  0.1101  0.0777
  139TMC2    C6 2120   3.094   0.982  13.294 -0.3046 -0.0652  0.1408
  139TMC2     C 2121   3.170   0.576  13.305 -0.1242  0.4729  0.2661
  139TMC2     O 2122   3.201   0.521  13.199 -0.0355  0.0011  0.0286
  139TMC2     H 2123   3.118   0.708  13.090  2.2602  0.9895  0.0075
  139TMC2    H1 2124   3.110   0.727  13.515 -0.6712  0.6417  0.5283
  139TMC2    H2 2125   3.080   1.089  13.293 -1.9850 -0.2867  0.0028
  139TMC2    C7 2126   3.086   0.997  13.524  0.2309 -0.0049  0.1574
  139TMC2    C8 2127   3.065   0.959  13.046  0.2445  0.0182 -0.7264
  139TMC2    O1 2128   3.033   1.104  13.510  0.4453 -0.1712  0.1828
  139TMC2    O2 2129   2.990   0.889  12.973  0.1026  0.3829 -0.0841
  139TMC2    O5 2130   3.091   1.093  13.040 -0.5325  0.6617 -0.3988
  139TMC2    H5 2131   3.160   1.105  13.108 -1.4885  0.0824  0.6640
  140MPD2     C 2132   3.159   0.326  13.563  0.2399  0.9042  0.0941
  140MPD2    C1 2133   3.224   0.389  13.462 -0.1036  0.7315  0.5678
  140MPD2    C2 2134   3.335   0.338  13.409 -0.7305 -0.4823 -0.1722
  140MPD2    C3 2135   3.377   0.211  13.438 -0.6069 -0.0137  0.2312
  140MPD2    C4 2136   3.310   0.140  13.532 -0.6047 -0.0077  0.6891
  140MPD2    C5 2137   3.200   0.194  13.590  0.1820 -0.3216  0.4281
  140MPD2     H 2138   3.388   0.393  13.332 -1.0642  2.3682  1.6538
  140MPD2    H1 2139   3.330   0.035  13.554  0.1295  0.0433  0.2617
  140MPD2    H2 2140   3.072   0.370  13.610 -1.5318 -1.2764 -1.1421
  140MPD2    H3 2141   3.136   0.140  13.659 -0.9223  3.0233  2.0149
  140MPD2     N 2142   3.483   0.155  13.365 -0.0094 -0.1553  0.1139
  140MPD2    H5 2143   3.528   0.214  13.296 -0.7093 -0.9674 -1.0359
  140MPD2    N1 2144   3.166   0.516  13.429 -0.6478  0.5663  0.1004
  140MPD2    H7 2145   3.099   0.549  13.498 -0.0381 -0.3231  1.1103
  141TCq2    C1 2146   4.347   1.779  14.133  0.3323  1.0109  0.2215
  141TCq2    O2 2147   4.261   1.819  14.057 -1.0173 -0.4452  0.2365
  141TCq2    C2 2148   4.343   1.834  14.271 -0.1926  0.3625 -0.3217
  141TCq2    C3 2149   4.363   1.754  14.388  0.2115 -0.8228  0.3925
  141TCq2    C4 2150   4.350   1.812  14.508 -0.5410 -0.0718 -0.1298
  141TCq2    C5 2151   4.305   1.943  14.528 -0.4753 -0.2720  0.4217
  141TCq2    C6 2152   4.288   2.016  14.416 -0.1669 -0.4650  0.5412
  141TCq2    C7 2153   4.300   1.962  14.288 -0.3522  0.0674  0.4854
  141TCq2    C8 2154   4.295   2.163  14.435  0.2149  0.2752 -0.1106
  141TCq2    O4 2155   4.265   2.208  14.542  0.1276  0.0600  0.1627
  141TCq2    C9 2156   4.364   1.727  14.625 -0.1675  0.1413  0.4247
  141TCq2    O5 2157   4.404   1.786  14.727 -0.3298  0.1527  0.5516
  141TCq2    O6 2158   4.355   1.605  14.620 -0.4406  0.3702 -0.6296
  141TCq2    H2 2159   4.402   1.655  14.369  1.5809 -0.0910 -0.5773
  141TCq2    H3 2160   4.310   1.982  14.629  0.6175  0.1125  0.2227
  141TCq2    H4 2161   4.282   2.030  14.206 -0.0430  0.7554  0.9862
  142MPD2     C 2162   1.659   0.327  10.094 -0.3026  0.0341 -0.3702
  142MPD2    C1 2163   1.589   0.387   9.990 -0.0943 -0.5586  0.1306
  142MPD2    C2 2164   1.657   0.468   9.906  0.4205  0.0181 -0.3253
  142MPD2    C3 2165   1.792   0.500   9.926  0.2911  0.8099  0.3216
  142MPD2    C4 2166   1.848   0.449  10.037 -0.1297 -0.4526  0.2607
  142MPD2    C5 2167   1.791   0.362  10.119  0.5510 -0.3362  0.2445
  142MPD2     H 2168   1.601   0.498   9.819  1.6752 -0.2308 -1.2193
  142MPD2    H1 2169   1.947   0.485  10.065  0.1142  0.5421 -1.8921
  142MPD2    H2 2170   1.605   0.258  10.156 -1.8477  0.2091 -1.5327
  142MPD2    H3 2171   1.846   0.333  10.208 -0.4439  1.3706  1.4080
  142MPD2     N 2172   1.863   0.594   9.851  0.7997 -0.6042  0.1472
  142MPD2    H5 2173   1.956   0.620   9.880  1.3337 -0.7085 -1.4549
  142MPD2    N1 2174   1.457   0.338   9.962 -0.0089  0.2047  0.0794
  142MPD2    H7 2175   1.425   0.265  10.024  0.0652  0.4337  0.3827
  143TCq2    C1 2176   1.810   0.658   9.739  0.3965 -0.1121 -0.0928
  143TCq2    O2 2177   1.693   0.639   9.701  0.0866  0.0465  0.8314
  143TCq2    C2 2178   1.909   0.747   9.671 -0.3146 -0.2266  0.5870
  143TCq2    C3 2179   2.043   0.731   9.676  0.3393 -0.9725  0.0292
  143TCq2    C4 2180   2.121   0.803   9.592 -0.1800 -0.3826  0.4444
  143TCq2    C5 2181   2.068   0.898   9.508 -0.0420  0.0638 -0.0913
  143TCq2    C6 2182   1.934   0.922   9.522 -0.6627  0.9500  0.1843
  143TCq2    C7 2183   1.849   0.845   9.598 -0.0734  0.2648  0.1628
  143TCq2    C8 2184   1.869   1.035   9.454 -0.1553  0.3552 -0.0815
  143TCq2    O4 2185   1.750   1.029   9.421 -0.0135 -0.3176 -0.0152
  143TCq2    C9 2186   2.260   0.764   9.581  0.2115  0.0424 -0.4351
  143TCq2    O5 2187   2.332   0.835   9.502 -0.0506  0.8633 -0.2617
  143TCq2    O6 2188   2.306   0.667   9.647  0.6362 -0.7569 -0.5575
  143TCq2    H2 2189   2.090   0.667   9.750  1.2263  2.3287  2.3489
  143TCq2    H3 2190   2.135   0.942   9.434 -1.1899  1.6483 -0.1894
  143TCq2    H4 2191   1.743   0.863   9.605  0.0496  1.8026 -1.8562
  144MPD2     C 2192   4.208   3.626   0.189  0.0413 -0.2944  0.2800
  144MPD2    C1 2193   4.329   3.569   0.176 -0.1443  0.9445 -0.1621
  144MPD2    C2 2194   4.399   3.514   0.285  0.5037  0.1298  0.5812
  144MPD2    C3 2195   4.342   3.508   0.409 -0.4186 -0.6132 -0.1959
  144MPD2    C4 2196   4.211   3.551   0.426  0.4294 -0.3360 -0.4764
  144MPD2    C5 2197   4.153   3.612   0.317 -0.0947 -0.4462  0.2604
  144MPD2     H 2198   4.489   3.458   0.263 -0.0564 -0.5795  0.1153
  144MPD2    H1 2199   4.158   3.533   0.519 -0.2096  0.4223 -0.7010
  144MPD2    H2 2200   4.143   3.663   0.111 -1.4304  0.2540  1.7715
  144MPD2    H3 2201   4.049   3.640   0.330 -0.0152 -0.2043  0.3730
  144MPD2     N 2202   4.409   3.459   0.521 -0.0092  0.0242  0.2952
  144MPD2    H5 2203   4.350   3.458   0.603 -0.5535  1.1599 -0.0846
  144MPD2    N1 2204   4.389   3.574   0.046  0.4668  0.2752  1.1303
  144MPD2    H7 2205   4.472   3.517   0.036  0.7481  0.7314  0.8447
  145TCq2    C1 2206   4.537   3.413   0.536 -0.5625 -0.5011  0.0311
  145TCq2    O2 2207   4.624   3.406   0.450 -0.6490  0.1044 -0.2802
  145TCq2    C2 2208   4.572   3.402   0.679  0.1835  0.8366  0.4281
  145TCq2    C3 2209   4.701   3.382   0.714  0.1304 -0.5321  0.0080
  145TCq2    C4 2210   0.021   3.427   0.836  0.6219  0.5604 -0.3382
  145TCq2    C5 2211   4.665   3.491   0.923  0.4143 -0.7009 -0.2918
  145TCq2    C6 2212   4.530   3.494   0.894  0.6650  0.0532  0.1384
  145TCq2    C7 2213   4.483   3.452   0.771 -0.1162 -0.3138  0.1765
  145TCq2    C8 2214   4.452   3.607   0.942  0.1251  0.0558  0.6669
  145TCq2    O4 2215   4.387   3.650   0.846  0.1046  0.0293 -0.3143
  145TCq2    C9 2216   0.160   3.418   0.863  0.1942 -0.5935  0.2685
  145TCq2    O5 2217   0.238   3.411   0.763  0.1328  0.6694 -0.0035
  145TCq2    O6 2218   0.186   3.439   0.980 -0.2162 -0.2541 -0.4741
  145TCq2    H2 2219   0.046   3.342   0.639 -1.0311 -2.2562 -0.1275
  145TCq2    H3 2220   4.707   3.550   1.003  1.2262 -1.3621 -0.2229
  145TCq2    H4 2221   4.378   3.442   0.747 -0.3060 -0.3097  0.9949
  146TMC2    C1 2222   0.801   3.690  12.974  0.3895 -0.1731  0.7448
  146TMC2    C2 2223   0.689   3.760  12.937  0.0479 -0.6287  0.2285
  146TMC2    C3 2224   0.624   3.709  12.830 -0.6028 -0.0413 -0.9452
  146TMC2    C4 2225   0.847   3.580  12.895  0.0339 -0.4719 -1.0863
  146TMC2    C5 2226   0.784   3.549  12.778 -0.3996  0.8726  0.7635
  146TMC2    C6 2227   0.674   3.620  12.741  0.3706  0.5922  0.3772
  146TMC2     C 2228   0.838   3.705  13.110 -0.0075 -0.3861 -0.4279
  146TMC2     O 2229   0.797   3.801  13.169 -0.6588 -0.5621  0.0875
  146TMC2     H 2230   0.653   3.847  12.991  1.9231  0.2406  0.0754
  146TMC2    H1 2231   0.948   3.540  12.900 -0.4501 -1.3046  1.9393
  146TMC2    H2 2232   0.613   3.596  12.655  0.2240  0.9330  0.3859
  146TMC2    C7 2233   0.840   3.451  12.683 -0.5388 -0.6887 -0.3018
  146TMC2    C8 2234   0.502   3.769  12.789  0.7895  0.1899 -0.1486
  146TMC2    O1 2235   0.799   3.470  12.570 -0.0904  0.3580  0.7703
  146TMC2    O2 2236   0.485   3.833  12.687  0.3566  0.8019 -0.1639
  146TMC2    O5 2237   0.430   3.796  12.900  0.3141 -0.1289 -0.4604
  146TMC2    H5 2238   0.466   3.750  12.978 -0.8886 -0.9496 -0.3838
  147MPD2     C 2239   1.243   3.176  12.524  0.1894  0.0151  0.7419
  147MPD2    C1 2240   1.237   3.157  12.663  0.4826  0.0043 -0.1892
  147MPD2    C2 2241   1.131   3.223  12.728 -0.9119 -0.3997 -0.2363
  147MPD2    C3 2242   1.050   3.311  12.660 -0.4990 -0.7581  0.1705
  147MPD2    C4 2243   1.056   3.317  12.524 -0.0956 -0.3934  0.1599
  147MPD2    C5 2244   1.156   3.250  12.459  0.0204  0.1850  0.5640
  147MPD2     H 2245   1.105   3.211  12.833 -1.7279 -0.0704 -0.3994
  147MPD2    H1 2246   0.987   3.371  12.460 -0.3225 -1.2779 -0.3454
  147MPD2    H2 2247   1.324   3.138  12.463 -1.6502  0.3133 -1.8897
  147MPD2    H3 2248   1.157   3.251  12.350 -1.2941  2.9424  0.5898
  147MPD2     N 2249   0.953   3.381  12.734 -0.4326 -0.5414 -0.4917
  147MPD2    H5 2250   0.956   3.378  12.835  2.1682  1.2657 -0.5233
  147MPD2    N1 2251   1.329   3.075  12.732 -0.2699 -0.4437  0.9766
  147MPD2    H7 2252   1.399   3.024  12.678 -0.5471  0.5973 -0.3752
  148MPD2     C 2253   1.023   1.973  10.517 -0.4586 -0.0740  0.7661
  148MPD2    C1 2254   1.066   1.928  10.394  0.1801  0.8220  0.2562
  148MPD2    C2 2255   0.968   1.873  10.305  0.0628  0.2061 -0.0472
  148MPD2    C3 2256   0.836   1.867  10.344  0.3582  0.3469  0.3610
  148MPD2    C4 2257   0.793   1.923  10.466  0.8594 -0.4270 -0.4602
  148MPD2    C5 2258   0.894   1.967  10.550  0.2802 -0.1523 -0.4870
  148MPD2     H 2259   1.002   1.818  10.219 -2.2329 -0.4395 -0.5408
  148MPD2    H1 2260   0.689   1.932  10.496  0.6450 -0.8980 -1.0463
  148MPD2    H2 2261   1.088   2.015  10.593 -2.7902  0.1780  2.6113
  148MPD2    H3 2262   0.871   2.013  10.646  1.8090  0.8590 -0.6058
  148MPD2     N 2263   0.734   1.802  10.267 -0.0803  0.5190 -0.3804
  148MPD2    H5 2264   0.644   1.784  10.311 -0.3774 -2.1238 -2.0894
  148MPD2    N1 2265   1.204   1.928  10.369 -0.1763  0.0419 -0.0053
  148MPD2    H7 2266   1.234   1.894  10.278 -0.5529 -1.4182  0.4040
  149TCq2    C1 2267   1.304   1.982  10.444  0.1432 -0.0138 -0.0159
  149TCq2    O2 2268   1.311   2.043  10.549  0.3957  0.2767  0.0312
  149TCq2    C2 2269   1.432   1.922  10.404  0.0463 -0.4527 -0.0755
  149TCq2    C3 2270   1.541   1.993  10.451  0.2601 -0.3634 -0.2555
  149TCq2    C4 2271   1.649   1.917  10.492 -0.1020 -0.4802 -0.2826
  149TCq2    C5 2272   1.631   1.785  10.516 -0.0621  0.0652 -0.9124
  149TCq2    C6 2273   1.527   1.718  10.457 -0.5031 -0.3013  0.5201
  149TCq2    C7 2274   1.424   1.784  10.408 -0.1445 -0.4421 -0.4803
  149TCq2    C8 2275   1.511   1.579  10.483 -0.1415 -0.6545 -0.9259
  149TCq2    O4 2276   1.431   1.518  10.415 -0.0659  0.9166 -0.1045
  149TCq2    C9 2277   1.751   1.975  10.565 -0.9431  0.3774 -0.0532
  149TCq2    O5 2278   1.791   2.088  10.537 -0.5087  0.1740 -0.0108
  149TCq2    O6 2279   1.800   1.907  10.653 -0.2956 -0.3089  0.3856
  149TCq2    H2 2280   1.555   2.101  10.455  0.4040 -0.3361 -1.4709
  149TCq2    H3 2281   1.713   1.722  10.548 -0.1059  0.3307 -0.2907
  149TCq2    H4 2282   1.334   1.731  10.379  0.9350 -0.8706 -3.0589
  150MPD2     C 2283   2.635   1.560  12.199 -0.2049 -0.2119  0.3792
  150MPD2    C1 2284   2.680   1.514  12.073 -0.4545  0.3248  0.1929
  150MPD2    C2 2285   2.796   1.576  12.023  0.2038 -0.3236 -0.5020
  150MPD2    C3 2286   2.853   1.677  12.097 -0.3509 -0.0979  0.5359
  150MPD2    C4 2287   2.810   1.718  12.223 -0.2109 -0.5485 -0.3007
  150MPD2    C5 2288   2.693   1.664  12.268  0.4776  0.0940  0.1173
  150MPD2     H 2289   2.837   1.544  11.928  0.1388  0.3550 -0.7589
  150MPD2    H1 2290   2.864   1.795  12.276 -0.8777 -0.1220 -0.2468
  150MPD2    H2 2291   2.546   1.516  12.243 -1.2270  1.0848 -0.3977
  150MPD2    H3 2292   2.649   1.693  12.363  1.7728  1.1070  0.4104
  150MPD2     N 2293   2.969   1.731  12.032 -0.3200  0.5128 -0.4982
  150MPD2    H5 2294   2.995   1.701  11.938 -0.9603 -1.6169  0.0029
  150MPD2    N1 2295   2.613   1.403  12.016 -0.0501 -0.1779  0.4817
  150MPD2    H7 2296   2.528   1.373  12.063 -1.8145  0.8023 -2.0697
  151TCq2    C1 2297   3.056   1.816  12.087  0.5043 -0.5474 -0.0439
  151TCq2    O2 2298   3.077   1.843  12.204 -0.9045 -0.2235 -0.1399
  151TCq2    C2 2299   3.167   1.836  11.996 -0.0008 -0.0432 -0.9563
  151TCq2    C3 2300   3.150   1.822  11.859  0.5193  0.2288  0.1087
  151TCq2    C4 2301   3.251   1.774  11.775  0.3971  0.3173  0.2066
  151TCq2    C5 2302   3.366   1.735  11.828  0.4744  0.3303  0.1295
  151TCq2    C6 2303   3.393   1.763  11.958 -0.0582  0.2622 -0.7869
  151TCq2    C7 2304   3.298   1.815  12.044  0.3216 -0.4521 -0.4467
  151TCq2    C8 2305   3.511   1.713  12.026 -0.6734 -0.2751 -0.1736
  151TCq2    O4 2306   3.546   1.780  12.121 -0.5135  0.2738  0.1037
  151TCq2    C9 2307   3.245   1.774  11.629  0.5868  0.1258 -0.4256
  151TCq2    O5 2308   3.332   1.718  11.560  0.4083 -0.4144 -0.0201
  151TCq2    O6 2309   3.141   1.823  11.577  0.2683  0.4141 -0.2650
  151TCq2    H2 2310   3.050   1.838  11.820  1.0223  0.5806 -1.0360
  151TCq2    H3 2311   3.445   1.697  11.763 -0.2450  0.1472 -0.6256
  151TCq2    H4 2312   3.321   1.826  12.149 -2.7970  0.8781  0.1173
  152MPD2     C 2313   2.690   0.963  12.870 -0.4964  0.0501 -0.8987
  152MPD2    C1 2314   2.714   1.061  12.775 -0.1593  0.2930 -0.5419
  152MPD2    C2 2315   2.609   1.119  12.700  0.4249 -0.5581  0.0827
  152MPD2    C3 2316   2.477   1.093  12.735  0.3817  0.2327 -0.6676
  152MPD2    C4 2317   2.456   0.996  12.830  0.0996  0.0068 -0.5269
  152MPD2    C5 2318   2.556   0.929  12.890  0.7684 -0.0203 -0.1057
  152MPD2     H 2319   2.633   1.197  12.627 -1.3766 -0.1645 -0.0899
  152MPD2    H1 2320   2.354   0.962  12.842 -0.2693  1.2049 -0.2847
  152MPD2    H2 2321   2.766   0.906  12.922 -0.6297  0.7301  0.0298
  152MPD2    H3 2322   2.529   0.853  12.963  2.4626 -1.8416 -1.3940
  152MPD2     N 2323   2.383   1.165  12.663  0.1047  0.2384  0.8022
  152MPD2    H5 2324   2.414   1.232  12.593 -1.2093 -0.1143 -0.1157
  152MPD2    N1 2325   2.848   1.081  12.756  0.3974  0.0074 -0.2049
  152MPD2    H7 2326   2.912   1.024  12.810 -0.0425  1.1562  1.5214
  153TCq2    C1 2327   2.896   1.178  12.669  0.2473 -0.4213  0.5253
  153TCq2    O2 2328   2.848   1.270  12.600 -0.5068 -0.0647 -0.4022
  153TCq2    C2 2329   3.037   1.175  12.666 -0.4739 -0.2090  0.2242
  153TCq2    C3 2330   3.093   1.057  12.711 -0.4245  0.2936  0.3131
  153TCq2    C4 2331   3.230   1.052  12.707 -0.2022 -0.0333 -0.0424
  153TCq2    C5 2332   3.311   1.156  12.669  0.0556 -0.0228 -0.5540
  153TCq2    C6 2333   3.246   1.270  12.636  0.7990 -1.0848  0.1374
  153TCq2    C7 2334   3.110   1.277  12.611 -0.3926 -0.4685  0.4371
  153TCq2    C8 2335   3.323   1.388  12.587 -1.4379 -0.6218 -0.9502
  153TCq2    O4 2336   3.276   1.452  12.494 -0.3810  0.1662  0.4091
  153TCq2    C9 2337   3.291   0.926  12.733  0.0402  0.4633  0.1065
  153TCq2    O5 2338   3.214   0.828  12.740 -0.0592 -0.4327  0.4230
  153TCq2    O6 2339   3.409   0.929  12.784  0.2862 -0.5081  0.8612
  153TCq2    H2 2340   3.044   0.969  12.751  0.8309 -0.3275  0.4818
  153TCq2    H3 2341   3.418   1.143  12.661  0.0566 -0.9196  0.9443
  153TCq2    H4 2342   3.071   1.366  12.563  0.7577 -0.1558  0.0685
  154MPD2     C 2343   0.153   0.010   0.321  0.4893  0.1396  0.2451
  154MPD2    C1 2344   0.245   0.030   0.421 -0.3888 -0.4793 -0.6627
  154MPD2    C2 2345   0.258   0.161   0.471  0.4164  0.8047 -0.6878
  154MPD2    C3 2346   0.184   0.266   0.422  0.4104 -0.1529  0.0228
  154MPD2    C4 2347   0.101   0.244   0.316  0.4870  0.6364 -1.1730
  154MPD2    C5 2348   0.081   0.116   0.266 -0.6118 -0.1353  0.0633
  154MPD2     H 2349   0.333   0.173   0.548  1.1138  1.9206 -1.5535
  154MPD2    H1 2350   0.040   0.324   0.276 -0.2894  0.7816  0.2999
  154MPD2    H2 2351   0.139   4.632   0.283 -0.7027 -0.0809  1.2680
  154MPD2    H3 2352   0.002   0.090   0.196 -1.5680  0.5215  0.8962
  154MPD2     N 2353   0.199   0.393   0.492  0.1810 -0.5434 -0.0666
  154MPD2    H5 2354   0.247   0.401   0.581  1.0677 -1.7352 -0.4370
  154MPD2    N1 2355   0.295   4.637   0.483 -0.4395 -0.8840 -0.3918
  154MPD2    H7 2356   0.276   4.550   0.434  2.5046 -2.9254  2.0939
  155TCq2    C1 2357   0.372   4.634   0.595  0.2578 -0.8393 -0.2216
  155TCq2    O2 2358   0.396   4.720   0.681  0.3029  0.0051  0.4619
  155TCq2    C2 2359   0.423   4.500   0.638  0.0664  0.0535 -0.3196
  155TCq2    C3 2360   0.477   4.405   0.553  1.1516  1.2516 -0.5968
  155TCq2    C4 2361   0.555   4.309   0.604 -0.2524 -0.0195  0.6576
  155TCq2    C5 2362   0.575   4.301   0.737 -0.4838  0.9809 -0.8628
  155TCq2    C6 2363   0.515   4.391   0.822  0.2296  0.3009 -0.3170
  155TCq2    C7 2364   0.444   4.497   0.774  0.1032 -0.2271 -0.5747
  155TCq2    C8 2365   0.478   4.355   0.963 -0.0240  0.5011 -0.4316
  155TCq2    O4 2366   0.422   4.441   1.032  0.4724 -0.7875  0.2546
  155TCq2    C9 2367   0.635   4.220   0.517 -0.7834 -0.7268 -0.2866
  155TCq2    O5 2368   0.699   4.128   0.577 -0.0631  0.1530  0.1567
  155TCq2    O6 2369   0.650   4.260   0.402  0.0164 -0.2643  0.3609
  155TCq2    H2 2370   0.481   4.437   0.449  1.9443  0.6397 -0.7558
  155TCq2    H3 2371   0.639   4.224   0.780 -1.5084 -0.1784 -1.4007
  155TCq2    H4 2372   0.384   4.559   0.840  0.9000 -0.8387  0.7126
  156MPD2     C 2373   2.963   3.465  11.840 -0.0199  0.1271 -0.5354
  156MPD2    C1 2374   2.865   3.465  11.931  0.7879 -0.3411  0.1044
  156MPD2    C2 2375   2.888   3.457  12.066 -0.2997 -0.0212 -0.3017
  156MPD2    C3 2376   3.015   3.434  12.105  0.3175  0.4722 -0.2818
  156MPD2    C4 2377   3.116   3.430  12.013  1.0030  0.0561  0.5327
  156MPD2    C5 2378   3.091   3.435  11.877 -0.8323  0.2111  0.2041
  156MPD2     H 2379   2.800   3.474  12.128 -1.2752  0.7107 -1.8989
  156MPD2    H1 2380   3.218   3.420  12.049  1.5351  1.9751 -0.4277
  156MPD2    H2 2381   2.937   3.464  11.735 -0.4506  2.0283 -0.4342
  156MPD2    H3 2382   3.172   3.438  11.804  0.9653  1.9630  2.2517
  156MPD2     N 2383   3.039   3.438  12.249  0.1317  0.3557  1.1623
  156MPD2    H5 2384   2.954   3.454  12.301 -1.3939 -0.9218 -0.9397
  156MPD2    N1 2385   2.728   3.478  11.883 -0.1707  0.1816  0.5629
  156MPD2    H7 2386   2.723   3.482  11.782  2.6826 -1.2122  0.3724
  157TCq2    C1 2387   2.615   3.465  11.959  0.2051  0.0274  0.0270
  157TCq2    O2 2388   2.601   3.407  12.065  0.1707  0.2164 -0.5335
  157TCq2    C2 2389   2.500   3.477  11.870 -0.1045 -0.0425  0.0244
  157TCq2    C3 2390   2.419   3.369  11.846 -0.3702 -0.6647 -0.9891
  157TCq2    C4 2391   2.330   3.366  11.745 -0.7022 -0.0705  0.0402
  157TCq2    C5 2392   2.317   3.474  11.664 -0.2779 -0.1367 -0.1717
  157TCq2    C6 2393   2.414   3.571  11.675 -0.0600 -0.2964 -0.1671
  157TCq2    C7 2394   2.502   3.573  11.779 -0.1288  0.6835 -0.0453
  157TCq2    C8 2395   2.397   3.699  11.597 -0.2032 -0.5438 -0.5259
  157TCq2    O4 2396   2.465   3.793  11.631 -0.3684 -0.4639 -0.3941
  157TCq2    C9 2397   2.242   3.250  11.727 -0.4826  0.4108 -0.1964
  157TCq2    O5 2398   2.155   3.263  11.637 -0.4456  0.4197  0.4700
  157TCq2    O6 2399   2.282   3.139  11.776 -0.2955 -0.4325  0.2479
  157TCq2    H2 2400   2.435   3.279  11.905 -0.1779  0.9980  1.5389
  157TCq2    H3 2401   2.235   3.480  11.594 -1.4729 -0.7996  1.1581
  157TCq2    H4 2402   2.566   3.660  11.794 -0.4392  1.0644 -0.9086
  158TMC2    C1 2403   3.329   2.090  13.302 -0.0409 -0.5343 -1.0588
  158TMC2    C2 2404   3.338   2.092  13.161  0.8149  0.1949  0.3153
  158TMC2    C3 2405   3.226   2.095  13.090  0.3672 -0.0763 -0.1367
  158TMC2    C4 2406   3.205   2.101  13.369 -0.6953  0.6328  0.2917
  158TMC2    C5 2407   3.093   2.112  13.287 -0.1942 -0.0184  0.0218
  158TMC2    C6 2408   3.102   2.114  13.148  0.0241 -0.0665 -0.0416
  158TMC2     C 2409   3.453   2.056  13.370 -1.0945  0.6272 -0.0843
  158TMC2     O 2410   3.546   2.023  13.301  0.0476 -0.1324  0.1570
  158TMC2     H 2411   3.429   2.074  13.104 -0.7057  1.3477 -2.4676
  158TMC2    H1 2412   3.200   2.111  13.477 -0.0560  3.8058  0.0211
  158TMC2    H2 2413   3.014   2.129  13.086 -1.1107 -0.7832  1.4147
  158TMC2    C7 2414   2.953   2.119  13.343 -0.1706  0.6943 -0.8304
  158TMC2    C8 2415   3.242   2.115  12.946  0.3349  0.2889 -0.4752
  158TMC2    O1 2416   2.874   2.169  13.263  0.0856 -1.0726  0.5221
  158TMC2    O2 2417   3.336   2.178  12.893 -0.6621 -0.0256  0.9652
  158TMC2    O5 2418   3.158   2.025  12.882 -0.3298  0.7054 -0.3796
  158TMC2    H5 2419   3.105   1.979  12.950 -0.6711 -0.0533 -1.1702
  159MPD2     C 2420   3.727   1.879  13.782 -0.6495  0.3954  0.1285
  159MPD2    C1 2421   3.619   1.951  13.823  0.8172  0.6578 -0.1151
  159MPD2    C2 2422   3.536   2.019  13.731  0.6098  0.1764  0.1793
  159MPD2    C3 2423   3.549   2.001  13.597 -0.0316  0.0603  0.0183
  159MPD2    C4 2424   3.656   1.919  13.555  0.2938 -0.4771 -0.8363
  159MPD2    C5 2425   3.728   1.858  13.650 -0.4733 -0.1928  0.0357
  159MPD2     H 2426   3.457   2.088  13.758  0.8335  1.7314 -3.1192
  159MPD2    H1 2427   3.683   1.896  13.453 -1.3052  1.3732 -1.6726
  159MPD2    H2 2428   3.786   1.816  13.847 -1.7741 -1.5586 -0.7575
  159MPD2    H3 2429   3.799   1.782  13.619 -0.0020  0.1825  0.2067
  159MPD2     N 2430   3.449   2.055  13.506  0.3937  0.6332 -0.7360
  159MPD2    H5 2431   3.378   2.107  13.556  0.6353  0.5847 -0.3374
  159MPD2    N1 2432   3.597   1.953  13.965 -1.4128  0.2899  0.8850
  159MPD2    H7 2433   3.661   1.898  14.021 -0.8313 -0.0007 -0.0716
  160TMC2    C1 2434   3.415   4.289   1.587 -0.3017  0.0407 -0.1776
  160TMC2    C2 2435   3.514   4.226   1.658 -0.6669  0.0417  1.0764
  160TMC2    C3 2436   3.647   4.273   1.643  0.8480  0.0475  0.3998
  160TMC2    C4 2437   3.444   4.375   1.490 -0.4578 -0.7735  0.7074
  160TMC2    C5 2438   3.574   4.411   1.473  0.2403  0.6318 -0.2962
  160TMC2    C6 2439   3.674   4.367   1.554  0.4661  0.5358 -0.5880
  160TMC2     C 2440   3.285   4.273   1.619  0.1525 -0.6008  0.4779
  160TMC2     O 2441   3.256   4.181   1.695 -0.0857  0.1857 -0.3970
  160TMC2     H 2442   3.488   4.160   1.740  1.1255 -0.6942  1.0497
  160TMC2    H1 2443   3.372   4.416   1.420  0.5914  1.4823  0.9520
  160TMC2    H2 2444   3.775   4.401   1.538 -0.2542  3.0144  0.1099
  160TMC2    C7 2445   3.599   4.479   1.345 -0.1514 -0.4916  0.0472
  160TMC2    C8 2446   3.761   4.230   1.722 -0.3303  0.4152  0.0814
  160TMC2    O1 2447   3.512   4.473   1.258  0.3771  0.1518  0.1151
  160TMC2    O2 2448   3.881   4.234   1.684 -0.4196  0.1755 -0.3713
  160TMC2    O5 2449   3.708   4.169   1.838  0.1195 -0.2312  0.0884
  160TMC2    H5 2450   3.620   4.202   1.867  0.1043 -1.4184  1.4143
  161MPD2     C 2451   2.993   4.275   1.652  0.2566 -0.3923 -0.3228
  161MPD2    C1 2452   3.063   4.387   1.616 -0.6367  0.4614 -0.8271
  161MPD2    C2 2453   3.001   4.508   1.601  0.3189  0.2449  0.3519
  161MPD2    C3 2454   2.861   4.519   1.614 -0.1362  0.0819 -0.4683
  161MPD2    C4 2455   2.792   4.401   1.644  0.5934 -0.2400 -0.4212
  161MPD2    C5 2456   2.856   4.282   1.669  0.0488  0.2204 -0.2956
  161MPD2     H 2457   3.073   4.586   1.579  2.3866 -1.3957  1.3008
  161MPD2    H1 2458   2.684   4.403   1.656  0.5984  1.5339 -0.5447
  161MPD2    H2 2459   3.040   4.178   1.657  0.1270 -0.3307  1.8753
  161MPD2    H3 2460   2.798   4.197   1.703 -1.9047  0.4110 -3.1240
  161MPD2     N 2461   2.781   4.641   1.595  0.3292  0.0432  1.2702
  161MPD2    H5 2462   2.680   4.643   1.609 -0.0324 -0.5727 -1.3032
  161MPD2    N1 2463   3.198   4.379   1.585  0.3485 -0.7739 -0.4275
  161MPD2    H7 2464   3.238   4.465   1.549 -2.1194  1.0088  1.0788
  162TMC2    C1 2465   2.151   1.709   1.335  0.3564 -0.5962 -0.6998
  162TMC2    C2 2466   2.256   1.766   1.399 -0.3327  0.0876 -0.7782
  162TMC2    C3 2467   2.290   1.718   1.522 -0.2402  0.3312  0.2435
  162TMC2    C4 2468   2.071   1.612   1.393 -0.3277 -0.0141 -0.5372
  162TMC2    C5 2469   2.099   1.575   1.524 -0.2730 -0.0451 -0.0649
  162TMC2    C6 2470   2.217   1.621   1.590 -0.3686 -0.0944 -0.3258
  162TMC2     C 2471   2.119   1.724   1.194 -0.1718  0.4364  0.8269
  162TMC2     O 2472   2.085   1.620   1.143 -0.3609 -0.0769  0.0351
  162TMC2     H 2473   2.320   1.839   1.350 -1.9240  1.2735 -1.0788
  162TMC2    H1 2474   1.986   1.570   1.341 -1.1152  0.0783  0.6711
  162TMC2    H2 2475   2.236   1.605   1.695 -0.2672  0.9633 -0.1830
  162TMC2    C7 2476   2.037   1.459   1.588  0.2584 -0.1673  0.0858
  162TMC2    C8 2477   2.406   1.775   1.582  0.2411  0.5139  0.9311
  162TMC2    O1 2478   2.109   1.383   1.654 -0.5801  0.1844  0.6255
  162TMC2    O2 2479   2.431   1.894   1.590  0.3892  0.2945  0.0188
  162TMC2    O5 2480   2.454   1.682   1.658  0.1504  0.0226  0.4389
  162TMC2    H5 2481   2.429   1.590   1.634 -0.9530  1.2209 -2.9278
  163MPD2     C 2482   1.869   1.978   0.822 -0.7789 -0.4131 -0.1848
  163MPD2    C1 2483   1.897   1.838   0.834  0.6136 -0.2273  0.1969
  163MPD2    C2 2484   1.986   1.805   0.930 -0.0769 -0.5979 -0.0507
  163MPD2    C3 2485   2.041   1.893   1.027 -1.0048 -0.2896  0.0604
  163MPD2    C4 2486   2.011   2.022   1.012 -0.4758  0.0278 -0.2031
  163MPD2    C5 2487   1.928   2.065   0.913 -0.3283 -0.0338 -0.8036
  163MPD2     H 2488   2.003   1.698   0.935  1.2231 -0.3454  1.1637
  163MPD2    H1 2489   2.059   2.104   1.064  1.6154 -1.1723 -0.2345
  163MPD2    H2 2490   1.789   2.010   0.756 -1.5191 -1.2744  0.2842
  163MPD2    H3 2491   1.906   2.172   0.911  3.1853  0.6804 -0.2329
  163MPD2     N 2492   2.116   1.853   1.144 -0.0815  0.4702 -0.9101
  163MPD2    H5 2493   2.135   1.925   1.212 -0.1630 -0.8174  0.4665
  163MPD2    N1 2494   1.832   1.742   0.746 -0.3593 -0.0389  0.2588
  163MPD2    H7 2495   1.855   1.645   0.768  0.6372  0.0583 -0.3664
  164TCq2    C1 2496   1.863   2.685  11.259 -0.1200  0.1096  0.4809
  164TCq2    O2 2497   1.954   2.744  11.206 -0.1711 -0.3972 -0.4491
  164TCq2    C2 2498   1.786   2.750  11.365 -1.1881  0.1006  0.1427
  164TCq2    C3 2499   1.858   2.782  11.482 -0.6194  0.3121  0.5471
  164TCq2    C4 2500   1.792   2.784  11.596  0.1223  0.2285  0.1966
  164TCq2    C5 2501   1.665   2.734  11.616  0.0641 -0.1746  0.8170
  164TCq2    C6 2502   1.606   2.677  11.506  0.0521 -0.3009 -0.2530
  164TCq2    C7 2503   1.660   2.687  11.379 -0.1251  0.3770  0.4277
  164TCq2    C8 2504   1.476   2.616  11.516 -0.2918 -0.3402  0.0759
  164TCq2    O4 2505   1.436   2.552  11.420  0.0567 -0.0622  0.1190
  164TCq2    C9 2506   1.874   2.823  11.708 -0.0112 -0.6537 -0.4853
  164TCq2    O5 2507   1.843   2.787  11.828  0.5732 -0.4861 -0.1030
  164TCq2    O6 2508   1.972   2.897  11.683  0.1321  0.3521 -0.0794
  164TCq2    H2 2509   1.961   2.813  11.479 -0.8468  1.2231  2.1369
  164TCq2    H3 2510   1.621   2.735  11.715  0.4414  0.5414  0.9814
  164TCq2    H4 2511   1.610   2.657  11.287 -0.2929 -0.7719  0.8951
  165MPD2     C 2512   2.626   3.053   2.430 -0.2338 -0.4071 -1.1881
  165MPD2    C1 2513   2.666   3.007   2.304 -0.0764 -0.1094  0.4987
  165MPD2    C2 2514   2.632   3.076   2.187  0.4226  0.8628 -0.4145
  165MPD2    C3 2515   2.551   3.194   2.198 -0.3103  0.0326 -0.0713
  165MPD2    C4 2516   2.517   3.233   2.328  0.7429  0.0928 -0.9195
  165MPD2    C5 2517   2.562   3.175   2.441  0.0349 -0.0583  0.3822
  165MPD2     H 2518   2.673   3.044   2.091  0.0095 -0.3666 -0.1830
  165MPD2    H1 2519   2.447   3.315   2.338 -0.6716 -1.2999  0.9913
  165MPD2    H2 2520   2.652   3.004   2.523  1.2620 -0.6331 -1.7281
  165MPD2    H3 2521   2.524   3.216   2.534 -0.9340  1.1428 -0.5460
  165MPD2     N 2522   2.526   3.280   2.088  0.0139  0.4592  0.0484
  165MPD2    H5 2523   2.465   3.359   2.106 -1.2032 -0.1506 -1.4037
  165MPD2    N1 2524   2.740   2.883   2.298 -0.1246  0.6405  0.3046
  165MPD2    H7 2525   2.752   2.823   2.379  1.2149  0.9158  0.3215
  166TCq2    C1 2526   2.581   3.267   1.966  0.5760 -0.2574 -0.7196
  166TCq2    O2 2527   2.683   3.205   1.932  0.2351  0.8861  0.1800
  166TCq2    C2 2528   2.517   3.359   1.872  0.0996  0.6998 -0.7148
  166TCq2    C3 2529   2.398   3.413   1.900  0.7730  0.2478  0.1401
  166TCq2    C4 2530   2.349   3.506   1.815  0.6356  0.8954 -0.1062
  166TCq2    C5 2531   2.405   3.543   1.697  0.0577  0.0216 -0.4172
  166TCq2    C6 2532   2.530   3.488   1.672 -0.3457  0.1090  0.0618
  166TCq2    C7 2533   2.587   3.400   1.759  0.2870 -1.0411  0.7029
  166TCq2    C8 2534   2.622   3.566   1.595 -0.7777  0.1814 -0.2843
  166TCq2    O4 2535   2.728   3.511   1.564 -0.2542 -0.1078  0.0020
  166TCq2    C9 2536   2.229   3.573   1.847  0.0564 -0.2970  0.0656
  166TCq2    O5 2537   2.173   3.549   1.959  0.1789 -0.6720 -0.3060
  166TCq2    O6 2538   2.182   3.652   1.756  0.2394 -0.3370 -0.3245
  166TCq2    H2 2539   2.331   3.372   1.974  4.1359 -2.0615  1.8865
  166TCq2    H3 2540   2.347   3.605   1.630  1.4873 -1.1163 -2.7044
  166TCq2    H4 2541   2.684   3.355   1.741  0.1046 -0.8510 -0.7842
  167TMC2    C1 2542   1.181   1.912  13.134  0.0426  0.1963  0.3621
  167TMC2    C2 2543   1.164   1.955  13.265 -0.0243 -0.6237 -0.0226
  167TMC2    C3 2544   1.077   1.884  13.347 -0.0794  0.0064  0.2713
  167TMC2    C4 2545   1.140   1.792  13.089  0.0368 -0.6464 -0.0291
  167TMC2    C5 2546   1.063   1.719  13.178  0.0568 -0.3045  0.2643
  167TMC2    C6 2547   1.029   1.766  13.303 -0.6640 -0.2175 -0.2586
  167TMC2     C 2548   1.261   2.008  13.054 -0.3380 -0.1141  0.5084
  167TMC2     O 2549   1.268   2.120  13.103  0.4050  0.1439 -0.5059
  167TMC2     H 2550   1.216   2.045  13.296  0.9753 -0.3798 -2.4294
  167TMC2    H1 2551   1.141   1.765  12.984  0.9910  0.3264 -0.2768
  167TMC2    H2 2552   0.974   1.705  13.374 -0.5854  1.5988  1.3684
  167TMC2    C7 2553   1.044   1.576  13.159 -0.4155 -0.1799 -0.3536
  167TMC2    C8 2554   1.077   1.892  13.491 -0.3522 -0.0216  0.0997
  167TMC2    O1 2555   0.968   1.517  13.239 -0.6619  0.3316 -0.2434
  167TMC2    O2 2556   1.075   1.794  13.562  0.5171  1.0954  0.1369
  167TMC2    O5 2557   1.152   2.000  13.518  0.0697  0.1864  0.5571
  167TMC2    H5 2558   1.126   2.073  13.458 -2.5029 -1.1161  0.1092
  168MPD2     C 2559   1.450   2.139  12.867  0.4104  0.2021 -0.1309
  168MPD2    C1 2560   1.403   2.008  12.852  0.3692  0.8698 -0.0636
  168MPD2    C2 2561   1.417   1.946  12.731 -0.0081 -0.0039 -0.0096
  168MPD2    C3 2562   1.482   2.001  12.622 -0.3230  0.3050  0.1222
  168MPD2    C4 2563   1.542   2.126  12.653  0.8576 -0.1626 -0.2834
  168MPD2    C5 2564   1.531   2.193  12.770 -0.2728  0.4929 -0.2061
  168MPD2     H 2565   1.356   1.856  12.728 -1.2028  0.9164 -3.6854
  168MPD2    H1 2566   1.604   2.169  12.576  1.2289 -1.4647 -0.7139
  168MPD2    H2 2567   1.428   2.195  12.957  0.0151 -2.1197  1.2253
  168MPD2    H3 2568   1.582   2.288  12.785 -0.4171  0.7084 -1.1025
  168MPD2     N 2569   1.497   1.948  12.493 -0.3145 -0.5510 -0.1918
  168MPD2    H5 2570   1.553   2.008  12.433 -1.6556 -1.4212 -2.3267
  168MPD2    N1 2571   1.318   1.943  12.942  0.6224  0.0650  0.0341
  168MPD2    H7 2572   1.293   1.847  12.925 -3.0324  1.5351 -2.8686
  169MPD1     C 2573   3.129   1.312   9.504 -0.2716 -0.4269  0.8414
  169MPD1    C1 2574   3.263   1.347   9.524  0.2771 -0.4341  0.6709
  169MPD1    C2 2575   3.363   1.255   9.498 -0.4331  0.2765 -0.5703
  169MPD1    C3 2576   3.329   1.127   9.457  0.0898 -0.3802  0.0984
  169MPD1    C4 2577   3.199   1.092   9.449  0.1528  0.3258  0.0151
  169MPD1    C5 2578   3.101   1.183   9.467  0.0719  0.3294  0.0704
  169MPD1     H 2579   3.466   1.266   9.529 -0.8584 -0.0429  0.9689
  169MPD1    H1 2580   3.166   1.000   9.402  0.7059 -0.6142  1.4853
  169MPD1    H2 2581   3.044   1.376   9.522 -0.9077 -0.3330 -2.4990
  169MPD1    H3 2582   2.995   1.163   9.469  0.0802  0.4126  2.0784
  169MPD1     N 2583   3.435   1.039   9.432  0.0494 -0.1693 -0.0834
  169MPD1    H5 2584   3.528   1.078   9.418  0.3837 -0.6577  0.7622
  169MPD1    N1 2585   3.287   1.469   9.578  0.7198  0.4708  0.7333
  169MPD1    H6 2586   3.222   1.542   9.548  1.0132  0.7943  0.8758
  169MPD1    H7 2587   3.381   1.494   9.548  0.8300  0.3627  0.9890
  170MPD1     C 2588   1.146   4.247  13.334 -0.0896 -0.1102  0.4304
  170MPD1    C1 2589   1.252   4.315  13.278 -0.3894  1.1836 -0.6345
  170MPD1    C2 2590   1.366   4.328  13.355  0.0977 -0.3511  0.2729
  170MPD1    C3 2591   1.368   4.297  13.489 -0.7818  0.8323  0.4381
  170MPD1    C4 2592   1.252   4.255  13.545 -0.1278 -0.2980 -0.9519
  170MPD1    C5 2593   1.142   4.229  13.471 -0.1457 -0.4639  0.3903
  170MPD1     H 2594   1.465   4.353  13.318 -0.4965  2.0048  0.2889
  170MPD1    H1 2595   1.239   4.234  13.651 -2.0841  2.6124 -0.6498
  170MPD1    H2 2596   1.060   4.218  13.276 -0.5458  1.6707  0.2086
  170MPD1    H3 2597   1.056   4.184  13.520  0.7509  1.0634  3.3641
  170MPD1     N 2598   1.480   4.323  13.572  0.1016 -0.0084  0.5874
  170MPD1    H5 2599   1.555   4.383  13.539 -1.6128  1.0387 -1.4441
  170MPD1    N1 2600   1.258   4.329  13.142 -0.3399  0.3066  0.7181
  170MPD1    H6 2601   1.169   4.349  13.097  0.5476  1.9226 -0.3456
  170MPD1    H7 2602   1.335   4.390  13.114 -0.0673 -1.0776 -1.5592
  171MPD1     C 2603   0.408   0.196  15.104  0.2797  0.3147  0.2810
  171MPD1    C1 2604   0.361   0.178  15.231  0.2274 -0.2341 -0.2317
  171MPD1    C2 2605   0.434   0.082  15.311 -0.0466 -0.7890 -0.3537
  171MPD1    C3 2606   0.530   4.720  15.257  0.2495  1.1729  0.1772
  171MPD1    C4 2607   0.558   0.017  15.125  0.4461 -1.0759 -0.1181
  171MPD1    C5 2608   0.498   0.110  15.044 -0.0171 -0.4939 -0.2005
  171MPD1     H 2609   0.426   0.081  15.420 -0.2831  1.0809 -0.3598
  171MPD1    H1 2610   0.628   4.674  15.074  3.5244  2.4096 -0.3438
  171MPD1    H2 2611   0.363   0.270  15.039 -1.4254 -0.1709  0.9211
  171MPD1    H3 2612   0.506   0.110  14.936  1.9504 -1.3667 -0.0454
  171MPD1     N 2613   0.595   4.618  15.328 -0.1234 -0.7308 -0.5253
  171MPD1    H5 2614   0.680   4.576  15.291  1.8537  0.5519  2.4867
  171MPD1    N1 2615   0.283   0.274  15.292  0.5287 -0.1531  0.7837
  171MPD1    H6 2616   0.241   0.227  15.372 -0.7422  1.5112  1.0949
  171MPD1    H7 2617   0.224   0.326  15.228  0.8780 -1.2860 -0.4721
  172MPD1     C 2618   0.187   3.839   1.084 -0.1306 -0.4167 -0.5028
  172MPD1    C1 2619   0.246   3.796   0.975  0.1202  0.2333  0.8054
  172MPD1    C2 2620   0.163   3.778   0.863  0.7055 -0.4642  0.2691
  172MPD1    C3 2621   0.037   3.819   0.857 -0.6063 -1.3700  0.4959
  172MPD1    C4 2622   4.703   3.872   0.969  0.3730  0.2615 -0.3435
  172MPD1    C5 2623   0.058   3.882   1.084  0.1919  0.7171 -0.0256
  172MPD1     H 2624   0.214   3.739   0.775  0.0312  0.0847 -0.3623
  172MPD1    H1 2625   4.599   3.897   0.984  0.0256 -1.0380 -0.5884
  172MPD1    H2 2626   0.235   3.834   1.181 -2.3368  1.4903  0.6891
  172MPD1    H3 2627   0.014   3.921   1.175  0.0966 -1.6416  0.9506
  172MPD1     N 2628   4.672   3.802   0.749  0.4677 -0.0562  0.0303
  172MPD1    H5 2629   4.578   3.832   0.772  0.3763 -1.1437  1.0703
  172MPD1    N1 2630   0.380   3.748   0.975  0.2991  0.0550  0.0156
  172MPD1    H6 2631   0.425   3.761   0.885  0.4049  4.3872  0.6885
  172MPD1    H7 2632   0.439   3.785   1.050  0.2412 -0.4764  0.3237
  173MPD1     C 2633   1.484   0.006  13.584  0.3502 -0.7288  0.0277
  173MPD1    C1 2634   1.458   4.706  13.719 -0.7652  0.3633 -0.4573
  173MPD1    C2 2635   1.352   4.628  13.753  0.0898 -0.2527 -0.5825
  173MPD1    C3 2636   1.255   4.591  13.663  0.1408 -0.6066  0.0756
  173MPD1    C4 2637   1.276   4.614  13.530  0.1047 -0.1545 -0.2041
  173MPD1    C5 2638   1.389   4.687  13.494  0.2170 -0.3698 -0.1825
  173MPD1     H 2639   1.328   4.604  13.857  0.8737 -1.2086 -0.6246
  173MPD1    H1 2640   1.205   4.582  13.454 -1.3881  1.9896  0.2815
  173MPD1    H2 2641   1.575   0.041  13.537 -0.7842 -0.2840 -1.8165
  173MPD1    H3 2642   1.419   4.690  13.390 -3.2390 -1.1611 -1.2062
  173MPD1     N 2643   1.141   4.534  13.722  0.1012 -0.9822  0.1272
  173MPD1    H5 2644   1.154   4.512  13.820  1.2379 -0.3627  0.1196
  173MPD1    N1 2645   1.561   0.015  13.813  0.3708 -0.0681 -0.2926
  173MPD1    H6 2646   1.606   0.103  13.787 -0.9900  0.5136 -0.6505
  173MPD1    H7 2647   1.537   0.028  13.911 -0.9303 -0.5603 -0.5534
  174MPD1     C 2648   0.432   4.041  13.224  0.0869  0.1346  0.3312
  174MPD1    C1 2649   0.462   4.170  13.204 -0.0773  0.0294  0.5463
  174MPD1    C2 2650   0.534   4.224  13.307 -0.0757  0.0297  0.3924
  174MPD1    C3 2651   0.559   4.163  13.432  0.4961  0.1663  0.3788
  174MPD1    C4 2652   0.529   4.028  13.446 -0.0568  0.3586  0.1705
  174MPD1    C5 2653   0.458   3.967  13.338 -0.0673 -0.1532  0.3282
  174MPD1     H 2654   0.558   4.328  13.286  0.7455 -0.6557 -2.0188
  174MPD1    H1 2655   0.552   3.967  13.532  0.5065 -0.3090 -0.4556
  174MPD1    H2 2656   0.372   3.993  13.148 -1.6056  0.2729  1.5684
  174MPD1    H3 2657   0.420   3.866  13.337  0.8109 -0.4939  1.4017
  174MPD1     N 2658   0.631   4.238  13.533 -0.2415  0.2066 -0.5708
  174MPD1    H5 2659   0.656   4.335  13.516 -2.0377  0.4133 -2.0455
  174MPD1    N1 2660   0.409   4.242  13.100 -0.1123  0.3013 -0.4014
  174MPD1    H6 2661   0.399   4.188  13.014  0.1308  1.8224 -1.3883
  174MPD1    H7 2662   0.473   4.321  13.089  0.6747 -0.0611  1.5666
  175MPD1     C 2663   4.576   0.069  15.412  0.0559  0.2301  0.0487
  175MPD1    C1 2664   4.682   0.017  15.483  0.3703  1.2183 -0.4410
  175MPD1    C2 2665   4.644   4.695  15.612 -0.8262 -0.1991  0.4559
  175MPD1    C3 2666   4.515   4.657  15.646  0.2916 -0.1988 -0.0309
  175MPD1    C4 2667   4.413   4.704  15.564  0.3316 -0.4700 -0.7392
  175MPD1    C5 2668   4.449   0.054  15.448  0.7399  0.8644  0.1779
  175MPD1     H 2669   0.007   4.676  15.675 -1.6112  2.1806  2.2494
  175MPD1    H1 2670   4.313   4.703  15.605  1.2145  0.4365  1.4367
  175MPD1    H2 2671   4.584   0.125  15.320  1.6960  0.8117  0.5345
  175MPD1    H3 2672   4.376   0.087  15.375 -2.3065  0.4149  2.9968
  175MPD1     N 2673   4.479   4.600  15.772 -0.2997 -0.6774 -0.1242
  175MPD1    H5 2674   4.379   4.588  15.783 -0.2594  2.4509  3.2831
  175MPD1    N1 2675   0.089   0.016  15.453  0.0562 -0.4748  0.2266
  175MPD1    H6 2676   0.116   4.644  15.483  0.0912 -1.2758 -2.3227
  175MPD1    H7 2677   0.122   0.021  15.357  1.3761 -5.3806  0.4108
  176MPD1     C 2678   1.594   1.792  16.354  0.5485 -0.3974 -0.3251
  176MPD1    C1 2679   1.593   1.924  16.392 -0.2197  0.3045 -0.1312
  176MPD1    C2 2680   1.524   1.959  16.504 -0.1098  0.3592 -0.3436
  176MPD1    C3 2681   1.485   1.857  16.591  0.5599  0.3333  0.2521
  176MPD1    C4 2682   1.500   1.722  16.559  0.5075 -0.8682 -0.0242
  176MPD1    C5 2683   1.548   1.692  16.432  0.1289  0.8593  0.0870
  176MPD1     H 2684   1.508   2.065  16.521 -0.3576 -0.2303  3.0232
  176MPD1    H1 2685   1.475   1.646  16.631  0.6620 -0.9699 -0.0788
  176MPD1    H2 2686   1.641   1.758  16.262  0.5997  0.3184 -0.5668
  176MPD1    H3 2687   1.546   1.595  16.384 -2.1441  0.0954  1.7216
  176MPD1     N 2688   1.415   1.905  16.699 -1.0927  0.0844 -0.1905
  176MPD1    H5 2689   1.411   2.006  16.706  0.9302 -0.0270  2.6126
  176MPD1    N1 2690   1.630   2.019  16.293  0.2076  0.3217 -0.4374
  176MPD1    H6 2691   1.710   1.983  16.242 -1.0526 -2.5095 -0.4630
  176MPD1    H7 2692   1.658   2.111  16.327 -1.0843 -0.0670  1.6907
  177MPD1     C 2693   4.069   1.260   8.669 -0.1700 -0.8854  0.6515
  177MPD1    C1 2694   3.988   1.151   8.710  0.0801  0.2805  0.3696
  177MPD1    C2 2695   3.883   1.171   8.800  0.9264  0.3396 -0.1685
  177MPD1    C3 2696   3.854   1.301   8.851 -0.7815  0.1192 -0.2238
  177MPD1    C4 2697   3.942   1.406   8.819  0.1507 -0.7093 -0.3290
  177MPD1    C5 2698   4.052   1.386   8.735  0.0472  0.8234 -0.5065
  177MPD1     H 2699   3.813   1.093   8.823  2.2874 -0.5649  0.8974
  177MPD1    H1 2700   3.927   1.507   8.856 -1.7225 -0.8906 -0.5780
  177MPD1    H2 2701   4.151   1.249   8.599  0.6033 -0.9068  1.5626
  177MPD1    H3 2702   4.108   1.474   8.707  0.0878  0.4823 -1.4853
  177MPD1     N 2703   3.739   1.320   8.934  0.1717  0.1787  0.6269
  177MPD1    H5 2704   3.679   1.238   8.941  2.5079 -1.3057  2.9854
  177MPD1    N1 2705   4.027   1.019   8.677 -0.0966 -0.2329 -0.1526
  177MPD1    H6 2706   3.946   0.959   8.669  0.5084 -0.9122 -1.2776
  177MPD1    H7 2707   4.091   1.018   8.597 -1.1761  0.6097 -1.0276
  178MPD1     C 2708   1.890   2.775   0.675 -0.1572  0.3485  0.0333
  178MPD1    C1 2709   2.028   2.785   0.653  0.8778 -0.3421  0.2778
  178MPD1    C2 2710   2.064   2.778   0.514 -0.4341  0.3545 -0.3035
  178MPD1    C3 2711   1.981   2.728   0.419 -0.0500  0.2823 -0.0787
  178MPD1    C4 2712   1.844   2.714   0.445 -0.2751  0.1299 -0.1858
  178MPD1    C5 2713   1.807   2.741   0.570  0.0714 -1.2024  0.3972
  178MPD1     H 2714   2.168   2.795   0.493 -0.3318  1.2075  0.8943
  178MPD1    H1 2715   1.771   2.686   0.369  0.3644 -0.5629 -0.5508
  178MPD1    H2 2716   1.856   2.801   0.774  0.1757  1.0524 -0.0337
  178MPD1    H3 2717   1.701   2.733   0.591  0.0737 -2.4087 -0.0613
  178MPD1     N 2718   2.038   2.687   0.291  0.5116 -0.4626 -0.1020
  178MPD1    H5 2719   1.981   2.634   0.226  1.1945  1.0816 -1.9794
  178MPD1    N1 2720   2.111   2.829   0.756 -0.1049 -0.1470  0.0654
  178MPD1    H6 2721   2.199   2.779   0.747  0.9583  1.7254 -0.1074
  178MPD1    H7 2722   2.073   2.808   0.848 -2.7781  2.7737 -0.3553
  179MPD1     C 2723   1.621   1.346  15.541 -0.0825  1.0786 -0.5256
  179MPD1    C1 2724   1.664   1.317  15.665 -0.3344 -0.6013 -0.2807
  179MPD1    C2 2725   1.605   1.207  15.729 -0.0510 -0.2531  0.7795
  179MPD1    C3 2726   1.502   1.143  15.676  0.0336 -0.0877 -0.4039
  179MPD1    C4 2727   1.469   1.168  15.549  0.0297 -0.3684 -0.3052
  179MPD1    C5 2728   1.516   1.281  15.487 -0.1997 -0.0782  0.5345
  179MPD1     H 2729   1.622   1.186  15.834 -0.0377  2.3894  1.3050
  179MPD1    H1 2730   1.389   1.115  15.498  0.1788 -0.9567  0.0733
  179MPD1    H2 2731   1.663   1.427  15.482  1.9665  0.9329  0.7276
  179MPD1    H3 2732   1.465   1.324  15.402  0.1652  3.3273  2.0424
  179MPD1     N 2733   1.421   1.051  15.747  0.1419  0.3006  0.3808
  179MPD1    H5 2734   1.339   1.009  15.705 -0.0942  0.5504  0.5908
  179MPD1    N1 2735   1.777   1.382  15.718  0.4447 -0.1015  0.4352
  179MPD1    H6 2736   1.783   1.409  15.816  1.4671 -0.2462  0.4183
  179MPD1    H7 2737   1.805   1.458  15.655 -1.8997 -0.6361 -1.2712
  180MPD1     C 2738   1.358   2.815  15.696  0.1279  0.1097  0.9234
  180MPD1    C1 2739   1.488   2.830  15.646  0.4511 -0.3198  0.7188
  180MPD1    C2 2740   1.530   2.780  15.524  0.4226 -0.2619  0.2223
  180MPD1    C3 2741   1.439   2.718  15.450 -0.2349  0.4674 -0.1335
  180MPD1    C4 2742   1.311   2.693  15.499  0.4283 -0.2796 -0.1753
  180MPD1    C5 2743   1.270   2.747  15.621 -0.4561 -0.4588  0.0007
  180MPD1     H 2744   1.630   2.795  15.485  0.4770  1.0064  0.8699
  180MPD1    H1 2745   1.239   2.637  15.440  1.6842 -2.0841  0.0300
  180MPD1    H2 2746   1.321   2.845  15.793 -0.4951  1.5027  0.2589
  180MPD1    H3 2747   1.173   2.731  15.668  0.1139 -1.8779  0.6974
  180MPD1     N 2748   1.480   2.679  15.323 -0.0402 -0.1386 -0.5894
  180MPD1    H5 2749   1.576   2.703  15.298  0.1988 -1.5871 -1.0315
  180MPD1    N1 2750   1.589   2.880  15.729  0.4622 -0.2619 -0.3767
  180MPD1    H6 2751   1.654   2.933  15.671 -1.1487  0.4634 -1.5274
  180MPD1    H7 2752   1.548   2.946  15.795 -0.3903 -1.6006  0.4312
  181MPD1     C 2753   2.697   4.182   9.048  0.2695  0.2340  0.1411
  181MPD1    C1 2754   2.676   4.062   9.115 -0.5408 -0.6396 -0.5669
  181MPD1    C2 2755   2.749   4.041   9.227  0.0616  0.8384  0.2471
  181MPD1    C3 2756   2.843   4.134   9.271 -0.4708  0.7273 -0.0951
  181MPD1    C4 2757   2.874   4.244   9.192 -0.2518  0.2869  0.4077
  181MPD1    C5 2758   2.796   4.269   9.086  0.0898 -0.1056  0.2983
  181MPD1     H 2759   2.720   3.952   9.283 -2.1886  0.9978 -0.6629
  181MPD1    H1 2760   2.945   4.323   9.212 -0.0070  0.0229  0.5860
  181MPD1    H2 2761   2.637   4.209   8.962  3.1284 -2.0431 -2.5513
  181MPD1    H3 2762   2.812   4.366   9.041  2.0177 -1.2147 -1.4124
  181MPD1     N 2763   2.904   4.124   9.395 -0.0624  0.3729 -0.1907
  181MPD1    H5 2764   2.961   4.199   9.434  1.4984 -0.1594 -1.4770
  181MPD1    N1 2765   2.567   3.982   9.071  0.3447 -0.2717 -0.0870
  181MPD1    H6 2766   2.563   3.884   9.097 -2.0673 -0.4957 -1.2373
  181MPD1    H7 2767   2.542   3.999   8.974  2.1274 -0.3036 -0.5388
  182MPD1     C 2768   3.922   1.863   1.105  0.1125  0.2710  0.3128
  182MPD1    C1 2769   3.960   1.951   1.204  0.0436 -0.1277 -0.5319
  182MPD1    C2 2770   3.970   2.087   1.175 -0.2988 -0.3591 -0.1671
  182MPD1    C3 2771   3.981   2.131   1.042  0.4565  0.1481 -0.1561
  182MPD1    C4 2772   3.970   2.036   0.944  0.3064 -0.1353  0.0023
  182MPD1    C5 2773   3.924   1.910   0.973  0.3536 -0.8642  0.1979
  182MPD1     H 2774   3.992   2.150   1.261 -1.6335 -3.3971  2.3982
  182MPD1    H1 2775   3.968   2.065   0.839 -2.9334 -0.4244 -0.0031
  182MPD1    H2 2776   3.903   1.758   1.120  1.1239  0.4519  2.8575
  182MPD1    H3 2777   3.881   1.844   0.899 -0.0967  1.0369 -1.2389
  182MPD1     N 2778   3.984   2.267   0.998  0.0471  0.3237  0.3749
  182MPD1    H5 2779   3.969   2.280   0.899  0.2892 -0.9688  0.1614
  182MPD1    N1 2780   3.972   1.906   1.337  0.0114 -0.0550 -0.3289
  182MPD1    H6 2781   4.013   1.813   1.348 -2.6709 -0.9598  1.8807
  182MPD1    H7 2782   4.012   1.979   1.397  0.2239  1.5130 -2.3675
  183MPD1     C 2783   3.390   3.892  10.412  0.5011  0.2113  0.1636
  183MPD1    C1 2784   3.413   4.022  10.368  0.2496 -0.6725 -0.5459
  183MPD1    C2 2785   3.528   4.056  10.303  0.5220  0.0959  0.0033
  183MPD1    C3 2786   3.632   3.965  10.285  0.6117 -0.2418  0.0439
  183MPD1    C4 2787   3.615   3.835  10.336  0.5787 -0.2757  0.1861
  183MPD1    C5 2788   3.497   3.803  10.396  0.2304 -0.6692 -0.1418
  183MPD1     H 2789   3.531   4.158  10.269 -0.9869  0.4133  0.7902
  183MPD1    H1 2790   3.695   3.762  10.346  1.2455  0.6735  1.8538
  183MPD1    H2 2791   3.299   3.857  10.458 -0.1977  1.5561 -0.2088
  183MPD1    H3 2792   3.482   3.699  10.425 -0.8720 -0.0424  1.5465
  183MPD1     N 2793   3.749   4.014  10.223  0.6063 -0.3398  0.2720
  183MPD1    H5 2794   3.745   4.107  10.182 -1.8181 -1.8371 -2.8935
  183MPD1    N1 2795   3.297   4.110  10.362 -0.2062 -0.4639  0.1126
  183MPD1    H6 2796   3.315   4.210  10.351  0.2352 -0.5813 -0.2200
  183MPD1    H7 2797   3.224   4.094  10.432  1.1947 -1.7243  1.2979
  184MPD1     C 2798   4.143   1.938   8.870 -0.2353  0.3053 -0.4502
  184MPD1    C1 2799   4.217   1.900   8.977  0.4632  0.2729  0.0410
  184MPD1    C2 2800   4.167   1.796   9.058 -0.5483  0.8538  0.5551
  184MPD1    C3 2801   4.044   1.731   9.031  0.4759 -0.7944 -0.4001
  184MPD1    C4 2802   3.973   1.774   8.921  0.5738  0.4285 -0.6386
  184MPD1    C5 2803   4.023   1.880   8.848 -0.3366 -0.1848 -0.3767
  184MPD1     H 2804   4.219   1.781   9.151  0.2014  2.3992  0.3751
  184MPD1    H1 2805   3.871   1.746   8.898  0.8834 -0.1612 -1.2925
  184MPD1    H2 2806   4.174   2.019   8.807  1.4843 -0.6163 -0.7966
  184MPD1    H3 2807   3.963   1.922   8.768  1.7758  0.8001 -1.4556
  184MPD1     N 2808   3.975   1.658   9.124  0.1583 -0.4167 -0.2990
  184MPD1    H5 2809   3.895   1.610   9.085 -0.9564  1.1647  0.0188
  184MPD1    N1 2810   4.326   1.981   9.015 -0.2152  0.4453 -0.5350
  184MPD1    H6 2811   4.389   1.929   9.075  2.6909  2.2952 -1.9783
  184MPD1    H7 2812   4.371   2.008   8.928  0.5407  1.3354  0.1313
  185MPD1     C 2813   3.724   0.805   8.991 -0.1054 -0.3964  0.3587
  185MPD1    C1 2814   3.618   0.881   9.046  0.2191  0.2375 -0.0367
  185MPD1    C2 2815   3.657   0.995   9.118 -0.1638 -0.0912  0.1085
  185MPD1    C3 2816   3.790   1.035   9.132  0.3352 -0.1025 -0.0525
  185MPD1    C4 2817   3.888   0.965   9.062 -0.3392  0.5223  0.0792
  185MPD1    C5 2818   3.848   0.858   8.989 -0.0384 -0.4445 -0.3838
  185MPD1     H 2819   3.581   1.045   9.176 -0.6193 -1.3178  0.5667
  185MPD1    H1 2820   3.993   0.992   9.061 -0.4824  1.0547 -0.6365
  185MPD1    H2 2821   3.716   0.714   8.934  0.6046  0.5185 -1.1842
  185MPD1    H3 2822   3.927   0.805   8.936 -0.7350 -1.2552 -0.6109
  185MPD1     N 2823   3.837   1.153   9.209  0.0675 -0.0139  0.4758
  185MPD1    H5 2824   3.934   1.182   9.198  0.6073 -1.4930  1.2580
  185MPD1    N1 2825   3.487   0.839   9.050 -0.5276  0.2112  0.2683
  185MPD1    H6 2826   3.472   0.785   8.965 -1.7365  1.0757 -0.0673
  185MPD1    H7 2827   3.421   0.916   9.039 -1.9379 -1.5902 -3.7354
  186MPD1     C 2828   1.778   2.098  15.707 -0.4079 -0.8774  0.1323
  186MPD1    C1 2829   1.744   2.129  15.839  0.2570 -0.5414 -0.5124
  186MPD1    C2 2830   1.825   2.074  15.938  1.2927 -0.1926 -0.2581
  186MPD1    C3 2831   1.934   2.005  15.914  0.0822 -0.0076  0.1656
  186MPD1    C4 2832   1.970   1.986  15.781 -0.6816 -0.2550 -0.7446
  186MPD1    C5 2833   1.891   2.026  15.680  0.1874  0.6804  0.4183
  186MPD1     H 2834   1.801   2.093  16.042 -0.2597 -0.4601 -0.5692
  186MPD1    H1 2835   2.054   1.922  15.755 -0.4166  1.0925 -3.2961
  186MPD1    H2 2836   1.715   2.138  15.628 -0.6589  2.5680  2.0487
  186MPD1    H3 2837   1.920   1.992  15.581  0.4596  3.4789 -0.4557
  186MPD1     N 2838   2.030   1.960  16.014 -0.7751 -0.2062 -0.3073
  186MPD1    H5 2839   2.109   1.918  15.967 -0.6313 -0.4111  0.1184
  186MPD1    N1 2840   1.615   2.186  15.869 -0.3485 -0.0284 -0.6243
  186MPD1    H6 2841   1.588   2.254  15.798 -0.2439 -0.5944 -1.2071
  186MPD1    H7 2842   1.618   2.237  15.957 -1.5320  1.4476 -1.4385
  187MPD1     C 2843   1.517   2.558   0.422  1.0752 -0.1029 -0.2256
  187MPD1    C1 2844   1.523   2.509   0.290 -0.1132  0.0132 -0.8924
  187MPD1    C2 2845   1.486   2.602   0.192 -0.0550  0.1608  0.3921
  187MPD1    C3 2846   1.423   2.727   0.217  0.2531 -0.3921  0.0457
  187MPD1    C4 2847   1.410   2.760   0.346 -0.3895 -0.2253  0.1779
  187MPD1    C5 2848   1.459   2.681   0.447  0.4895  0.5059  0.3926
  187MPD1     H 2849   1.507   2.576   0.089 -1.5023 -2.6911  0.7974
  187MPD1    H1 2850   1.373   2.857   0.377  0.0105  0.5309 -1.6978
  187MPD1    H2 2851   1.571   2.508   0.502  1.2704  1.3782  0.5662
  187MPD1    H3 2852   1.453   2.718   0.548  1.0036 -2.0515  1.3463
  187MPD1     N 2853   1.385   2.824   0.124  0.5623 -0.2796  0.4913
  187MPD1    H5 2854   1.359   2.912   0.167 -0.3286 -1.2368  1.9253
  187MPD1    N1 2855   1.600   2.398   0.252  0.9421 -0.1034  0.6851
  187MPD1    H6 2856   1.594   2.333   0.330 -1.5826 -1.2849 -0.4876
  187MPD1    H7 2857   1.553   2.360   0.171 -4.2759  0.3148  3.4882
  188MPD1     C 2858   1.104   3.207  10.580  0.2650 -0.0221  0.3228
  188MPD1    C1 2859   1.121   3.089  10.651 -0.2401 -0.0178  0.5434
  188MPD1    C2 2860   1.120   2.965  10.584  0.2743  0.0492  0.1825
  188MPD1    C3 2861   1.092   2.971  10.445  0.5651 -0.1489  0.3360
  188MPD1    C4 2862   1.078   3.091  10.376  0.1790 -0.3666 -0.5488
  188MPD1    C5 2863   1.100   3.208  10.441 -1.0532  0.5068  0.6418
  188MPD1     H 2864   1.126   2.871  10.637 -1.2265  0.2233  0.6569
  188MPD1    H1 2865   1.085   3.084  10.269 -1.4201 -1.4725 -0.5919
  188MPD1    H2 2866   1.086   3.305  10.623 -0.2936 -0.5030  1.1904
  188MPD1    H3 2867   1.109   3.302  10.388 -1.1627  1.4138  2.2304
  188MPD1     N 2868   1.094   2.852  10.367  0.8006  0.0347  0.1690
  188MPD1    H5 2869   1.061   2.861  10.272 -0.3917 -0.2013  0.5678
  188MPD1    N1 2870   1.117   3.096  10.796  0.7180  0.2234  0.2654
  188MPD1    H6 2871   1.126   3.193  10.825 -0.4942  0.0053  1.3953
  188MPD1    H7 2872   1.194   3.043  10.838 -0.7019  0.2188  2.8386
  189MPD1     C 2873   3.378   3.205   0.549 -0.0060 -0.7310  0.1808
  189MPD1    C1 2874   3.244   3.181   0.532 -0.3489  0.1024 -0.1765
  189MPD1    C2 2875   3.160   3.293   0.513 -0.6207 -0.5782  0.0772
  189MPD1    C3 2876   3.213   3.418   0.489  0.0047 -0.6430 -0.0845
  189MPD1    C4 2877   3.343   3.445   0.501  0.3598 -0.4561  0.5834
  189MPD1    C5 2878   3.424   3.337   0.533  0.2399  0.6706  0.2894
  189MPD1     H 2879   3.053   3.278   0.513 -0.9638  1.9622 -0.6694
  189MPD1    H1 2880   3.389   3.539   0.471 -0.6603  0.2062  1.0854
  189MPD1    H2 2881   3.457   3.135   0.575 -0.2167 -1.3985 -0.9748
  189MPD1    H3 2882   3.532   3.345   0.546  0.4065 -2.1224  0.6176
  189MPD1     N 2883   3.117   3.524   0.467 -0.3525  0.2384 -0.4643
  189MPD1    H5 2884   3.018   3.501   0.469 -0.3338  0.0553 -1.7020
  189MPD1    N1 2885   3.196   3.059   0.547  0.1915  0.2245 -0.3018
  189MPD1    H6 2886   3.271   2.998   0.515  0.7099  1.0872 -0.7508
  189MPD1    H7 2887   3.114   3.032   0.493  0.1676  0.1527 -0.2292
  190MPD1     C 2888   1.417   2.358  15.560  0.0448 -0.8690 -0.1551
  190MPD1    C1 2889   1.451   2.437  15.668 -0.0356 -0.4903  0.6357
  190MPD1    C2 2890   1.585   2.453  15.685  0.4888 -0.0292 -0.6078
  190MPD1    C3 2891   1.677   2.420  15.581  0.1542  0.0692  0.1523
  190MPD1    C4 2892   1.632   2.363  15.467  0.2266 -0.3005  0.2229
  190MPD1    C5 2893   1.499   2.332  15.456 -0.3069 -0.1896  0.1712
  190MPD1     H 2894   1.613   2.496  15.780 -1.2306  0.5232 -0.3606
  190MPD1    H1 2895   1.695   2.342  15.380 -0.2461 -2.3815  0.3897
  190MPD1    H2 2896   1.313   2.330  15.547  0.0310 -0.0734 -1.6422
  190MPD1    H3 2897   1.454   2.285  15.370  1.7833 -0.6072 -0.6916
  190MPD1     N 2898   1.813   2.426  15.615 -0.7610 -0.0509 -0.9504
  190MPD1    H5 2899   1.841   2.474  15.700  0.7725 -1.7728 -0.4879
  190MPD1    N1 2900   1.367   2.454  15.780  0.0508 -0.3556 -0.6834
  190MPD1    H6 2901   1.267   2.467  15.770 -0.1223  0.0913  1.7017
  190MPD1    H7 2902   1.413   2.518  15.844  1.2864 -2.7937  0.8945
  191MPD1     C 2903   0.974   4.217  12.197 -0.4880 -0.9531 -0.0347
  191MPD1    C1 2904   0.934   4.343  12.164 -0.2180 -0.0884 -0.2951
  191MPD1    C2 2905   0.902   4.433  12.267 -0.0227 -0.5469 -1.0912
  191MPD1    C3 2906   0.903   4.393  12.400 -0.3338 -0.5477 -0.0253
  191MPD1    C4 2907   0.931   4.261  12.425 -0.0036 -0.0078 -0.2584
  191MPD1    C5 2908   0.974   4.179  12.328  0.1301  0.7175  0.0214
  191MPD1     H 2909   0.878   4.532  12.232 -3.6837 -0.3102  2.1094
  191MPD1    H1 2910   0.933   4.217  12.524  0.8152  0.8288  0.0969
  191MPD1    H2 2911   0.988   4.138  12.124  0.6098 -0.3069 -0.5274
  191MPD1    H3 2912   1.004   4.079  12.358  1.0156  0.6521 -1.1139
  191MPD1     N 2913   0.865   4.483  12.505  0.3666 -0.2001  0.0305
  191MPD1    H5 2914   0.832   4.573  12.471  0.9220  0.1537  0.4446
  191MPD1    N1 2915   0.950   4.384  12.030  0.4001  0.0292 -1.3202
  191MPD1    H6 2916   0.894   4.465  12.003  0.5711  0.4519 -0.3850
  191MPD1    H7 2917   0.946   4.300  11.973 -2.2501  0.7521 -2.2016
  192MPD1     C 2918   0.150   4.634  13.325 -0.1846 -0.5097 -1.1854
  192MPD1    C1 2919   0.237   4.529  13.308 -0.4104 -0.4680 -0.5449
  192MPD1    C2 2920   0.354   4.539  13.234  1.1251  0.5785 -0.1830
  192MPD1    C3 2921   0.372   4.655  13.154 -0.0239 -0.3626 -0.0908
  192MPD1    C4 2922   0.270   0.026  13.150 -0.0915  0.8236 -0.0821
  192MPD1    C5 2923   0.169   0.019  13.239  0.7335 -0.4536 -0.5504
  192MPD1     H 2924   0.422   4.455  13.229  0.7397  0.2848 -0.4597
  192MPD1    H1 2925   0.270   0.116  13.089  0.8705  0.1923 -1.0144
  192MPD1    H2 2926   0.079   4.628  13.407  1.0256  0.8221 -0.0530
  192MPD1    H3 2927   0.101   0.103  13.247  1.5999  0.3298 -1.3084
  192MPD1     N 2928   0.480   4.663  13.063 -0.1875 -0.4074  0.9414
  192MPD1    H5 2929   0.494   0.032  13.021 -1.5780 -1.7865 -2.4442
  192MPD1    N1 2930   0.224   4.416  13.388 -0.2810  0.2930 -0.7055
  192MPD1    H6 2931   0.126   4.390  13.393 -0.0396 -0.1583  1.5984
  192MPD1    H7 2932   0.270   4.342  13.334  0.7513  0.5583 -0.1813
  193MPD1     C 2933   0.944   4.172  17.542  0.5028  0.1184 -0.3480
  193MPD1    C1 2934   0.818   4.215  17.550 -0.6152 -0.0770 -0.5328
  193MPD1    C2 2935   0.770   4.278  17.438 -0.0416 -0.4987  0.1695
  193MPD1    C3 2936   0.846   4.298  17.322 -0.3832 -0.2506 -0.6895
  193MPD1    C4 2937   0.975   4.257  17.325 -0.2383  0.5287  0.0477
  193MPD1    C5 2938   1.022   4.189  17.432 -0.1946  1.0572  0.5094
  193MPD1     H 2939   0.665   4.304  17.449 -0.2164 -0.8723 -0.6453
  193MPD1    H1 2940   1.039   4.266  17.238  1.9951  0.3026  1.6874
  193MPD1    H2 2941   0.978   4.115  17.628  1.5200 -0.3773 -1.0810
  193MPD1    H3 2942   1.124   4.155  17.437 -1.2574 -1.8724  2.1496
  193MPD1     N 2943   0.810   4.363  17.202  0.1051  0.0253 -0.5110
  193MPD1    H5 2944   0.879   4.382  17.130  0.9024 -0.5128  0.1236
  193MPD1    N1 2945   0.748   4.206  17.673 -0.3004 -0.5480 -0.0985
  193MPD1    H6 2946   0.774   4.127   0.041 -1.1248 -1.2255 -0.6476
  193MPD1    H7 2947   0.647   4.207  17.670 -0.3800 -1.3733  3.4162
  194MPD1     C 2948   3.977   2.078  16.665  0.2721 -0.2339  0.5789
  194MPD1    C1 2949   4.095   2.010  16.638 -0.1156 -0.1664 -0.1306
  194MPD1    C2 2950   4.142   1.916  16.725 -0.0950  0.7595  0.0188
  194MPD1    C3 2951   4.058   1.869  16.831 -0.2518  0.4667  1.0765
  194MPD1    C4 2952   3.939   1.928  16.842  0.3452 -0.2030 -0.2949
  194MPD1    C5 2953   3.896   2.032  16.767  0.0195  0.4092 -0.1231
  194MPD1     H 2954   4.241   1.875  16.707 -0.0949  0.1118  1.5114
  194MPD1    H1 2955   3.868   1.897  16.918 -0.1697 -0.6937 -0.9776
  194MPD1    H2 2956   3.941   2.163  16.608 -0.8040 -1.3096 -0.3515
  194MPD1    H3 2957   3.798   2.075  16.779 -0.0699  0.4316 -0.8874
  194MPD1     N 2958   4.089   1.754  16.905 -0.3573  0.2163 -0.7160
  194MPD1    H5 2959   4.033   1.729  16.986 -0.2358 -0.8619 -0.9653
  194MPD1    N1 2960   4.175   2.066  16.537  0.2241  0.8445 -0.1822
  194MPD1    H6 2961   4.120   2.098  16.458 -1.4173 -1.8559 -0.1201
  194MPD1    H7 2962   4.251   2.005  16.505 -0.6571 -0.7253  0.7220
  195MPD1     C 2963   1.701   1.566   1.111 -0.0624  0.0062  0.7713
  195MPD1    C1 2964   1.659   1.472   1.017  0.1615  0.4040 -0.0197
  195MPD1    C2 2965   1.563   1.519   0.922  0.4220 -0.3782  0.6040
  195MPD1    C3 2966   1.532   1.651   0.908  0.3966 -0.7955  0.3941
  195MPD1    C4 2967   1.595   1.743   0.993 -0.0716  0.0609  0.2259
  195MPD1    C5 2968   1.672   1.697   1.095  0.5027  0.1639 -0.1424
  195MPD1     H 2969   1.521   1.451   0.849 -2.2330  1.3907  0.4964
  195MPD1    H1 2970   1.598   1.851   0.981 -0.5437  0.1284  0.7448
  195MPD1    H2 2971   1.767   1.534   1.192  2.1946  0.2992 -0.9521
  195MPD1    H3 2972   1.707   1.769   1.167 -0.0281  0.7368 -0.4593
  195MPD1     N 2973   1.451   1.712   0.812 -0.4122 -0.1383 -0.7208
  195MPD1    H5 2974   1.458   1.813   0.818  0.2693 -0.0227 -3.6581
  195MPD1    N1 2975   1.695   1.340   1.036 -0.0109  0.5641  0.3341
  195MPD1    H6 2976   1.699   1.289   0.948 -1.7863  1.4551 -0.2682
  195MPD1    H7 2977   1.791   1.329   1.066  0.0721  1.3323  0.3533
  196MPD1     C 2978   4.393   2.223   0.063  0.0322 -0.0219 -0.9101
  196MPD1    C1 2979   4.423   2.351   0.091  0.5095 -0.0292  0.3043
  196MPD1    C2 2980   4.419   2.392   0.232  0.1343  0.2165 -0.8613
  196MPD1    C3 2981   4.362   2.308   0.328 -0.3792  0.6097 -0.8218
  196MPD1    C4 2982   4.322   2.184   0.293  0.4578  0.5943  0.1275
  196MPD1    C5 2983   4.339   2.140   0.168  0.6933 -0.3668 -0.2068
  196MPD1     H 2984   4.456   2.491   0.256 -0.6821  0.5875 -1.1279
  196MPD1    H1 2985   4.281   2.111   0.363 -1.3297  2.6389  1.1987
  196MPD1    H2 2986   4.392   2.195  17.649 -0.2493  0.0649 -0.9315
  196MPD1    H3 2987   4.301   2.043   0.138  1.5902 -0.6601 -0.3920
  196MPD1     N 2988   4.354   2.343   0.468 -0.0264 -0.0031 -0.0939
  196MPD1    H5 2989   4.301   2.286   0.533 -0.5976 -0.0354 -0.5812
  196MPD1    N1 2990   4.490   2.435  17.686  0.0617 -0.6622 -0.6609
  196MPD1    H6 2991   4.467   2.403  17.591 -0.8762 -1.9046 -0.0205
  196MPD1    H7 2992   4.465   2.533   0.004  1.8422 -0.1300 -1.6277
  197MPD1     C 2993   4.078   0.221  17.618 -0.1928  0.0975 -0.3793
  197MPD1    C1 2994   3.994   0.286  17.536  0.8026 -0.6827 -0.3330
  197MPD1    C2 2995   4.026   0.314  17.412  0.5156  0.6216  0.2863
  197MPD1    C3 2996   4.150   0.274  17.354  0.7711 -0.2812  0.5629
  197MPD1    C4 2997   4.233   0.207  17.431 -0.0644 -0.2527  0.3001
  197MPD1    C5 2998   4.196   0.173  17.564  0.3537  1.0347  0.0840
  197MPD1     H 2999   3.960   0.374  17.349  1.7370  0.2191 -1.3977
  197MPD1    H1 3000   4.326   0.168  17.391  0.6309  1.1596  0.5685
  197MPD1    H2 3001   4.054   0.195   0.030  0.9286 -1.7001 -0.5880
  197MPD1    H3 3002   4.277   0.132  17.623 -0.9651 -0.7240  0.6871
  197MPD1     N 3003   4.206   0.333  17.236  0.0858  0.9165  0.8453
  197MPD1    H5 3004   4.291   0.287  17.204 -0.9536 -0.0485 -0.5043
  197MPD1    N1 3005   3.875   0.332  17.595 -0.3509 -0.8221 -0.1478
  197MPD1    H6 3006   3.806   0.367  17.529  0.0802 -0.9836 -0.6735
  197MPD1    H7 3007   3.840   0.276  17.673  1.7382 -1.6411  0.1967
  198MPD1     C 3008   0.915   4.069  16.284 -0.1714 -0.0477 -0.0175
  198MPD1    C1 3009   0.964   3.958  16.339 -0.4139 -0.7548 -0.0027
  198MPD1    C2 3010   1.026   3.872  16.252  0.4774 -0.6637  0.6315
  198MPD1    C3 3011   1.024   3.894  16.115  0.3193  0.9050 -0.7775
  198MPD1    C4 3012   0.954   4.002  16.061  0.1724  0.1814 -0.5207
  198MPD1    C5 3013   0.907   4.098  16.153  0.1196 -0.6903 -0.2176
  198MPD1     H 3014   1.080   3.783  16.280 -2.3381 -2.2274  1.0614
  198MPD1    H1 3015   0.957   4.018  15.954 -0.4282 -1.9613 -0.8651
  198MPD1    H2 3016   0.858   4.138  16.344  1.9861  1.8757 -0.1608
  198MPD1    H3 3017   0.838   4.174  16.118 -1.0740 -1.8081 -0.2848
  198MPD1     N 3018   1.103   3.806  16.035 -0.1884  0.4140  0.2393
  198MPD1    H5 3019   1.160   3.736  16.081  0.3189  0.0353 -0.9462
  198MPD1    N1 3020   0.960   3.941  16.476 -0.2201 -0.1742  0.1140
  198MPD1    H6 3021   1.004   3.855  16.509  0.0580  0.6564  1.8579
  198MPD1    H7 3022   1.013   4.008  16.531  0.5223 -1.4740  0.9795
  199MPD1     C 3023   3.427   4.003   9.808 -0.1710  0.0355  0.4466
  199MPD1    C1 3024   3.469   4.117   9.879 -0.2433 -0.1566  0.0488
  199MPD1    C2 3025   3.411   4.232   9.835  0.6498  0.6059  0.4351
  199MPD1    C3 3026   3.328   4.247   9.724 -0.1822 -0.8810  0.1639
  199MPD1    C4 3027   3.307   4.129   9.652 -0.2902 -0.6397 -0.3371
  199MPD1    C5 3028   3.352   4.007   9.694 -0.1949 -0.7478  0.1058
  199MPD1     H 3029   3.446   4.326   9.877  2.4872 -0.5797  1.5823
  199MPD1    H1 3030   3.243   4.133   9.565  0.4468  1.4054 -0.7818
  199MPD1    H2 3031   3.459   3.908   9.849  0.2017 -0.4632 -1.0072
  199MPD1    H3 3032   3.317   3.917   9.646 -3.1621  0.4879 -0.0400
  199MPD1     N 3033   3.271   4.368   9.677  0.0199  0.4674  0.2091
  199MPD1    H5 3034   3.207   4.369   9.599 -1.2200  0.7196  1.2240
  199MPD1    N1 3035   3.531   4.107  10.007  0.5941 -0.3779 -0.1338
  199MPD1    H6 3036   3.574   4.196  10.031 -0.8182 -0.1543  1.5447
  199MPD1    H7 3037   3.599   4.033  10.020 -0.1752 -0.6942  2.0626
  200MPD1     C 3038   2.750   4.391  16.388  0.1662 -0.1485 -0.4838
  200MPD1    C1 3039   2.857   4.391  16.304 -0.5508 -0.3607  0.3826
  200MPD1    C2 3040   2.854   4.470  16.192 -0.2717 -0.0065 -0.4233
  200MPD1    C3 3041   2.742   4.551  16.165 -0.1852 -0.1602  0.9553
  200MPD1    C4 3042   2.644   4.563  16.260  0.7839  0.2193  0.6537
  200MPD1    C5 3043   2.651   4.482  16.370 -0.0825 -0.1674  0.1913
  200MPD1     H 3044   2.933   4.454  16.120 -0.5614  0.7551 -0.9129
  200MPD1    H1 3045   2.558   4.626  16.240 -0.8459 -2.1417  0.2286
  200MPD1    H2 3046   2.733   4.322  16.470  0.8989  1.0688  0.6860
  200MPD1    H3 3047   2.569   4.489  16.440 -0.2803 -1.9223  0.1469
  200MPD1     N 3048   2.733   4.599  16.030  0.2870  0.1806  0.1048
  200MPD1    H5 3049   2.811   4.569  15.972 -1.1293  0.8780 -2.1353
  200MPD1    N1 3050   2.958   4.300  16.316 -1.4000 -0.6475 -0.0728
  200MPD1    H6 3051   2.981   4.283  16.414 -1.5418  0.8030  0.2098
  200MPD1    H7 3052   3.041   4.318  16.261 -0.3225 -0.3470  1.6615
  201MPD1     C 3053   4.560   4.607  12.806 -0.3090  0.0924  0.6019
  201MPD1    C1 3054   4.634   4.579  12.918  0.4729 -0.1380 -0.2391
  201MPD1    C2 3055   4.669   4.446  12.943  0.2004  0.4164 -0.6352
  201MPD1    C3 3056   4.649   4.348  12.851  0.5580  0.0684 -0.0806
  201MPD1    C4 3057   4.585   4.383  12.732  0.2231 -0.0275 -0.0787
  201MPD1    C5 3058   4.529   4.509  12.718 -0.7953 -0.9181 -0.2296
  201MPD1     H 3059   0.008   4.426  13.030 -1.8498 -1.9260  0.2480
  201MPD1    H1 3060   4.564   4.317  12.649 -1.6791 -2.5209  2.3970
  201MPD1    H2 3061   4.523   4.708  12.795 -0.4078  0.2932  2.7391
  201MPD1    H3 3062   4.474   4.530  12.627 -1.5032  0.8737  0.6343
  201MPD1     N 3063   4.690   4.218  12.885 -0.1718  0.0045  0.1883
  201MPD1    H5 3064   0.001   4.202  12.980  0.7300  2.1091  0.2216
  201MPD1    N1 3065   4.641   4.672  13.023 -0.2082 -0.2164  0.1277
  201MPD1    H6 3066   4.649   0.043  12.983  0.5931 -0.3467 -0.0150
  201MPD1    H7 3067   4.717   4.641  13.083 -0.5986 -1.2571  0.0951
  202MPD1     C 3068   4.104   2.557   9.644 -0.2894 -0.2491 -0.4143
  202MPD1    C1 3069   4.040   2.653   9.714 -0.1225  0.3073 -0.1289
  202MPD1    C2 3070   4.125   2.748   9.766 -0.2800  0.7562  0.4932
  202MPD1    C3 3071   4.262   2.728   9.764 -0.0601 -0.2820  0.2405
  202MPD1    C4 3072   4.327   2.620   9.711  0.0734  0.1233  0.0897
  202MPD1    C5 3073   4.240   2.531   9.651  0.1695  0.3941 -0.1571
  202MPD1     H 3074   4.074   2.822   9.826 -1.2090 -0.1803  0.8498
  202MPD1    H1 3075   4.433   2.603   9.722  0.1245  0.1744 -0.3168
  202MPD1    H2 3076   4.053   2.478   9.591 -0.2847  1.1137 -2.4379
  202MPD1    H3 3077   4.284   2.443   9.606 -0.7457  0.7577 -1.7766
  202MPD1     N 3078   4.348   2.817   9.824  0.1578  0.6403 -0.0424
  202MPD1    H5 3079   4.441   2.799   9.789 -0.1713 -0.0045 -0.5873
  202MPD1    N1 3080   3.904   2.687   9.694  0.6801  0.2872 -0.6598
  202MPD1    H6 3081   3.848   2.606   9.666  1.6328 -0.2980 -0.8581
  202MPD1    H7 3082   3.864   2.729   9.778  0.0191  1.3528 -1.5167
  203MPD1     C 3083   3.347   4.512  12.217  0.3666  0.5272  0.7225
  203MPD1    C1 3084   3.317   4.383  12.176  0.2652  0.0614  0.2570
  203MPD1    C2 3085   3.415   4.285  12.185  0.5824 -0.4047  0.5387
  203MPD1    C3 3086   3.529   4.308  12.255  0.6835  0.9268  0.0404
  203MPD1    C4 3087   3.554   4.437  12.300 -0.1007  0.2888 -0.0783
  203MPD1    C5 3088   3.466   4.541  12.282  0.3172 -0.1737 -0.0126
  203MPD1     H 3089   3.390   4.181  12.167 -1.2509  0.5165 -2.1214
  203MPD1    H1 3090   3.646   4.465  12.350 -1.1406 -0.0332  1.9981
  203MPD1    H2 3091   3.281   4.597  12.202 -0.2614 -0.0547  0.1250
  203MPD1    H3 3092   3.487   4.638  12.325  0.1429 -0.3220  0.4075
  203MPD1     N 3093   3.622   4.206  12.278  0.4782  0.3912 -0.7205
  203MPD1    H5 3094   3.606   4.120  12.227 -1.5278  0.1575  0.2948
  203MPD1    N1 3095   3.197   4.360  12.100 -0.0217 -0.4434 -0.4822
  203MPD1    H6 3096   3.130   4.436  12.114 -1.6585 -1.7654 -1.2707
  203MPD1    H7 3097   3.147   4.278  12.132  2.4714 -1.7311  0.0780
  204MPD1     C 3098   2.580   0.399  17.367 -0.1595  0.4113 -0.2100
  204MPD1    C1 3099   2.602   0.266  17.399 -0.0527  0.5090 -0.5180
  204MPD1    C2 3100   2.727   0.208  17.379 -0.6411  0.6355 -0.3754
  204MPD1    C3 3101   2.834   0.281  17.342 -0.2668 -0.6906 -0.6848
  204MPD1    C4 3102   2.818   0.413  17.315 -0.2232 -0.0493 -0.6190
  204MPD1    C5 3103   2.696   0.472  17.330 -0.7006 -0.4985  0.5597
  204MPD1     H 3104   2.738   0.103  17.404 -0.4346  0.6156 -0.5530
  204MPD1    H1 3105   2.900   0.480  17.288 -0.6573 -0.6128 -3.2741
  204MPD1    H2 3106   2.483   0.444  17.386 -1.3071 -2.3578  0.5041
  204MPD1    H3 3107   2.678   0.576  17.308 -0.8117 -0.2395  1.8851
  204MPD1     N 3108   2.961   0.217  17.325  0.5218  0.1476 -0.6302
  204MPD1    H5 3109   2.976   0.122  17.358 -3.0040 -0.3702 -0.5065
  204MPD1    N1 3110   2.491   0.182  17.429  0.1566 -0.1177 -0.9696
  204MPD1    H6 3111   2.515   0.101  17.485 -0.7022  0.1364 -0.2401
  204MPD1    H7 3112   2.402   0.224  17.454  0.6439  1.2803 -1.5924
  205MPD1     C 3113   4.014   3.944  16.643 -0.1437  0.0853 -0.3371
  205MPD1    C1 3114   3.937   3.827  16.646 -0.2992  0.7088 -0.2633
  205MPD1    C2 3115   3.831   3.832  16.737 -0.4300 -0.7922  0.6204
  205MPD1    C3 3116   3.827   3.930  16.836 -0.5508 -0.0273  0.0118
  205MPD1    C4 3117   3.906   4.040  16.823 -0.2501 -0.1651 -0.0876
  205MPD1    C5 3118   3.995   4.047  16.721 -0.4561  0.2797  1.3057
  205MPD1     H 3119   3.754   3.756  16.737 -1.5975  0.3881  1.7362
  205MPD1    H1 3120   3.898   4.110  16.905 -0.5594  1.1022 -1.1972
  205MPD1    H2 3121   4.088   3.960  16.566  0.8088 -0.5969  0.4211
  205MPD1    H3 3122   4.067   4.128  16.708 -0.5648  0.0476 -0.7745
  205MPD1     N 3123   3.731   3.917  16.948 -1.0846 -0.4636 -1.1498
  205MPD1    H5 3124   3.724   3.985  17.023  0.5132 -0.9346 -0.5687
  205MPD1    N1 3125   3.924   3.741  16.539 -0.5067  0.3958 -0.6603
  205MPD1    H6 3126   3.897   3.650  16.576  2.2614 -1.1908 -2.5557
  205MPD1    H7 3127   3.996   3.733  16.467 -0.5683  0.4197 -0.7250
  206MPD1     C 3128   3.274   2.145  16.954 -0.1433 -0.2170 -0.3040
  206MPD1    C1 3129   3.159   2.180  16.890  0.5219  0.0271 -0.3905
  206MPD1    C2 3130   3.155   2.205  16.753  0.0850 -0.0895  0.0969
  206MPD1    C3 3131   3.278   2.214  16.681  0.3931  0.1777  0.1379
  206MPD1    C4 3132   3.400   2.186  16.753  0.4622 -0.8198  0.3550
  206MPD1    C5 3133   3.391   2.154  16.888 -0.1185 -0.0439 -0.0238
  206MPD1     H 3134   3.057   2.223  16.711  0.5298  0.0257 -0.8994
  206MPD1    H1 3135   3.496   2.173  16.705 -0.4923 -0.8917 -1.5456
  206MPD1    H2 3136   3.274   2.106  17.055 -0.4639 -2.5880 -1.2223
  206MPD1    H3 3137   3.483   2.114  16.929  0.5653 -0.3474 -1.8698
  206MPD1     N 3138   3.289   2.240  16.542 -1.1422  0.0317 -0.3635
  206MPD1    H5 3139   3.386   2.237  16.513 -1.1303  2.0074 -0.4678
  206MPD1    N1 3140   3.037   2.162  16.954 -0.0133  0.5155  0.5895
  206MPD1    H6 3141   3.044   2.201  17.048 -0.3130 -1.1145  1.2903
  206MPD1    H7 3142   2.967   2.215  16.902 -1.3668 -0.6608  1.2109
  207MPD1     C 3143   0.468   0.544   9.548  0.1783  0.1638  0.1392
  207MPD1    C1 3144   0.591   0.559   9.484  0.2612  0.6213  0.2792
  207MPD1    C2 3145   0.700   0.500   9.548 -0.3043  0.1486 -0.1322
  207MPD1    C3 3146   0.690   0.413   9.653 -0.6148 -0.1662 -0.4376
  207MPD1    C4 3147   0.561   0.391   9.706  0.1043 -0.2324  0.7121
  207MPD1    C5 3148   0.453   0.460   9.654 -0.1572  0.3256  0.1660
  207MPD1     H 3149   0.799   0.512   9.504 -1.2210 -0.6314 -2.3959
  207MPD1    H1 3150   0.553   0.331   9.796  0.8121 -1.9869 -0.4071
  207MPD1    H2 3151   0.378   0.596   9.518 -1.0048 -0.7200  2.1008
  207MPD1    H3 3152   0.357   0.447   9.701 -0.5517 -0.1413 -0.7692
  207MPD1     N 3153   0.810   0.353   9.707 -0.2752 -0.1211 -0.4193
  207MPD1    H5 3154   0.791   0.275   9.769 -1.3970 -0.9391 -1.7852
  207MPD1    N1 3155   0.626   0.658   9.394 -0.1919 -0.0866  0.4116
  207MPD1    H6 3156   0.550   0.687   9.332  1.2567  0.8496 -0.9360
  207MPD1    H7 3157   0.712   0.642   9.341 -2.4106  1.6538 -3.7125
  208MPD1     C 3158   4.381   3.241  17.457  0.2267 -0.3957  0.2583
  208MPD1    C1 3159   4.397   3.145  17.561 -0.4632  0.2214 -0.8224
  208MPD1    C2 3160   4.292   3.063  17.597  0.4958 -0.4752 -0.1668
  208MPD1    C3 3161   4.191   3.057  17.510 -0.0098 -0.0968 -0.3466
  208MPD1    C4 3162   4.184   3.130  17.390  0.1291 -0.0326 -0.6959
  208MPD1    C5 3163   4.272   3.233  17.373  0.2087  0.4182 -0.5138
  208MPD1     H 3164   4.294   2.993  17.680  1.2900 -0.5784 -0.2744
  208MPD1    H1 3165   4.092   3.131  17.332 -0.5784  1.2611  0.4494
  208MPD1    H2 3166   4.459   3.313  17.434 -0.7438  0.3835 -0.5508
  208MPD1    H3 3167   4.256   3.313  17.301  0.0347  1.3002  0.5194
  208MPD1     N 3168   4.089   2.960  17.545  0.4513  0.3451  0.3467
  208MPD1    H5 3169   4.097   2.929  17.641  1.5638  1.9384  0.7759
  208MPD1    N1 3170   4.526   3.130  17.621  0.1528  0.1735 -0.9037
  208MPD1    H6 3171   4.511   3.057  17.691 -0.1492 -0.0783 -1.2329
  208MPD1    H7 3172   4.587   3.098  17.546  1.6727  2.2617 -0.5455
  209MPD1     C 3173   0.943   3.470  10.843 -0.1548  0.6150  0.2076
  209MPD1    C1 3174   1.053   3.538  10.893 -0.0983 -0.6769 -0.2579
  209MPD1    C2 3175   1.105   3.649  10.828  0.1973  0.0264 -0.0374
  209MPD1    C3 3176   1.050   3.705  10.716 -1.2788  0.1167 -0.3751
  209MPD1    C4 3177   0.939   3.643  10.669  0.5756 -0.8619 -0.1515
  209MPD1    C5 3178   0.887   3.527  10.725 -0.6472 -0.4895  0.6211
  209MPD1     H 3179   1.196   3.692  10.870  0.8597 -1.6936  0.3092
  209MPD1    H1 3180   0.883   3.678  10.583  1.3222  0.0700 -0.2577
  209MPD1    H2 3181   0.896   3.379  10.881  0.2219  0.5585  0.5320
  209MPD1    H3 3182   0.792   3.490  10.689 -1.7914  0.1440  3.0213
  209MPD1     N 3183   1.099   3.828  10.672 -0.1268  0.3975 -0.6994
  209MPD1    H5 3184   1.161   3.873  10.739 -2.2600  1.8559  0.3061
  209MPD1    N1 3185   1.128   3.481  10.993  0.2389 -0.2372 -0.6086
  209MPD1    H6 3186   1.187   3.539  11.052  1.3191 -1.6137 -0.3346
  209MPD1    H7 3187   1.073   3.416  11.049 -0.8788 -0.2352 -1.6968
  210MPD1     C 3188   1.888   4.357  10.736 -0.6296  0.4367 -0.0381
  210MPD1    C1 3189   1.807   4.295  10.826  0.1256  0.0578 -0.0041
  210MPD1    C2 3190   1.678   4.268  10.783 -0.1121 -0.4054 -0.0467
  210MPD1    C3 3191   1.639   4.307  10.649 -0.3588 -0.0497 -0.4433
  210MPD1    C4 3192   1.727   4.371  10.561  0.2143 -0.0011 -0.0364
  210MPD1    C5 3193   1.852   4.391  10.613 -0.1361  0.3794 -0.1737
  210MPD1     H 3194   1.623   4.200  10.847 -5.5242  2.3888 -1.7152
  210MPD1    H1 3195   1.696   4.397  10.461  2.0797  0.1400 -0.5752
  210MPD1    H2 3196   1.990   4.371  10.768  0.0620 -1.0425 -1.6264
  210MPD1    H3 3197   1.926   4.441  10.552  1.6551 -3.0123 -0.7355
  210MPD1     N 3198   1.520   4.272  10.592  0.2148 -0.5066  0.1071
  210MPD1    H5 3199   1.502   4.289  10.493 -0.2145  0.2282  0.3102
  210MPD1    N1 3200   1.864   4.237  10.940 -0.4227 -0.7942 -0.7007
  210MPD1    H6 3201   1.945   4.288  10.975 -1.1356 -0.4493  0.4539
  210MPD1    H7 3202   1.799   4.216  11.016  0.1985 -1.1736 -0.2788
  211MPD1     C 3203   3.700   3.455  15.679 -1.3322  0.2616 -0.6688
  211MPD1    C1 3204   3.579   3.428  15.732  0.3990  0.5847 -0.1522
  211MPD1    C2 3205   3.523   3.523  15.819  0.3676  0.8294 -0.3148
  211MPD1    C3 3206   3.603   3.618  15.877  0.2134  0.3295 -0.0522
  211MPD1    C4 3207   3.742   3.621  15.842  0.4949  0.3981  0.0095
  211MPD1    C5 3208   3.787   3.534  15.748  0.4918 -0.4668  0.2953
  211MPD1     H 3209   3.421   3.505  15.851 -0.0703  1.2400 -1.4860
  211MPD1    H1 3210   3.810   3.695  15.883 -1.1751  1.5016  0.7614
  211MPD1    H2 3211   3.743   3.400  15.596  1.1942 -1.6195  1.8600
  211MPD1    H3 3212   3.891   3.528  15.717  0.5090 -0.6481  0.3884
  211MPD1     N 3213   3.549   3.715  15.966 -0.2538 -0.6452  0.0743
  211MPD1    H5 3214   3.454   3.702  16.001  0.2314 -1.3021  1.1567
  211MPD1    N1 3215   3.497   3.335  15.662 -0.4391 -0.0406  0.3011
  211MPD1    H6 3216   3.558   3.259  15.632 -1.7751 -0.2317 -1.9976
  211MPD1    H7 3217   3.405   3.313  15.700 -0.6032  0.2701  0.0863
  212MPD1     C 3218   2.100   2.644  16.958 -0.1938  0.5807 -0.0662
  212MPD1    C1 3219   2.168   2.605  16.844  0.4778  0.0272  0.2259
  212MPD1    C2 3220   2.244   2.486  16.848 -0.5225 -0.3928 -0.2904
  212MPD1    C3 3221   2.250   2.409  16.965 -0.0344  0.2335 -0.2925
  212MPD1    C4 3222   2.180   2.453  17.076  0.7576 -0.3013  0.5178
  212MPD1    C5 3223   2.104   2.568  17.068  0.3867  0.0981  0.4414
  212MPD1     H 3224   2.283   2.452  16.753 -0.7359  1.6011 -1.0969
  212MPD1    H1 3225   2.175   2.393  17.166  0.4470 -0.7286  0.2171
  212MPD1    H2 3226   2.044   2.736  16.964 -0.4330  0.5755 -2.2795
  212MPD1    H3 3227   2.050   2.607  17.153 -0.5073 -1.1711  0.4487
  212MPD1     N 3228   2.306   2.278  16.975 -0.7169  0.3158 -0.5014
  212MPD1    H5 3229   2.288   2.225  17.060 -0.0427 -0.9286 -1.1334
  212MPD1    N1 3230   2.161   2.672  16.724  0.5195  0.1626 -0.4480
  212MPD1    H6 3231   2.159   2.771  16.745  0.6095 -0.2081  1.3066
  212MPD1    H7 3232   2.244   2.653  16.669  1.3274  2.7365 -0.1049
  213MPD1     C 3233   1.054   3.735  15.496  0.0783 -0.3636  0.0799
  213MPD1    C1 3234   1.016   3.769  15.364 -0.1381 -0.1048 -0.1994
  213MPD1    C2 3235   1.033   3.669  15.268 -0.4031 -0.1952  0.1649
  213MPD1    C3 3236   1.045   3.535  15.303 -0.6810 -0.0687  0.0681
  213MPD1    C4 3237   1.063   3.506  15.435  1.4516  0.1991 -0.4393
  213MPD1    C5 3238   1.082   3.602  15.529 -0.8305  0.4021 -0.6582
  213MPD1     H 3239   1.036   3.699  15.164 -0.0703 -0.5801  0.0613
  213MPD1    H1 3240   1.078   3.406  15.473 -0.8260  0.4374  1.1073
  213MPD1    H2 3241   1.040   3.806  15.578 -1.6866 -0.0142 -0.5237
  213MPD1    H3 3242   1.092   3.575  15.634  1.4621 -1.5828 -1.4067
  213MPD1     N 3243   1.042   3.435  15.206  0.2030 -0.1240  0.8137
  213MPD1    H5 3244   1.024   3.465  15.110  2.0294 -0.9214  0.2107
  213MPD1    N1 3245   1.023   3.902  15.325 -0.2102 -0.6471  0.2337
  213MPD1    H6 3246   0.979   3.928  15.237  0.4537 -0.4035 -0.0286
  213MPD1    H7 3247   0.976   3.952  15.399  0.2583 -2.2442  1.6240
  214MPD1     C 3248   0.417   2.664  14.938 -0.6374  0.2839  0.1129
  214MPD1    C1 3249   0.514   2.639  15.037  0.4193 -0.9999 -0.3365
  214MPD1    C2 3250   0.625   2.713  15.032  0.6006  0.1667 -0.3842
  214MPD1    C3 3251   0.639   2.825  14.946 -0.7992 -0.1911 -0.2678
  214MPD1    C4 3252   0.535   2.847  14.858 -0.2656  0.3646 -0.0494
  214MPD1    C5 3253   0.431   2.767  14.849  0.5255  0.3339  0.0178
  214MPD1     H 3254   0.705   2.685  15.099  2.1592 -0.4525 -2.5191
  214MPD1    H1 3255   0.548   2.924  14.782  0.0990 -0.4509 -0.8040
  214MPD1    H2 3256   0.328   2.604  14.927 -0.3240 -0.3085  0.7894
  214MPD1    H3 3257   0.349   2.787  14.781  0.4220 -0.7829 -0.1947
  214MPD1     N 3258   0.743   2.920  14.946  0.7547  0.3479 -0.5449
  214MPD1    H5 3259   0.747   2.990  14.873  3.2594 -0.3576 -1.0805
  214MPD1    N1 3260   0.499   2.525  15.111  0.1261  0.1583  0.3735
  214MPD1    H6 3261   0.556   2.540  15.194  1.0689  0.3377 -0.2958
  214MPD1    H7 3262   0.403   2.514  15.140 -0.0954 -0.9259 -0.7758
  215MPD1     C 3263   0.364   3.610  10.910 -0.1949 -0.1149 -0.0752
  215MPD1    C1 3264   0.398   3.685  11.018 -0.1372 -0.4467  0.3151
  215MPD1    C2 3265   0.511   3.761  11.009 -0.5368 -0.8573  0.4789
  215MPD1    C3 3266   0.591   3.758  10.903 -0.4574  0.0901  0.6041
  215MPD1    C4 3267   0.557   3.682  10.791 -0.1578  0.2341 -0.7107
  215MPD1    C5 3268   0.437   3.610  10.798 -0.1805 -0.5513 -0.4526
  215MPD1     H 3269   0.531   3.810  11.103  1.5076  0.6216 -0.7513
  215MPD1    H1 3270   0.612   3.668  10.699 -0.2054 -2.1806 -0.3580
  215MPD1    H2 3271   0.268   3.561  10.900 -0.3445  0.6357 -2.3222
  215MPD1    H3 3272   0.403   3.544  10.719  0.3055 -1.2759 -0.0595
  215MPD1     N 3273   0.711   3.833  10.904  0.4424  0.1054  0.1738
  215MPD1    H5 3274   0.738   3.871  10.994  1.4454 -0.1992  0.0130
  215MPD1    N1 3275   0.307   3.723  11.117 -0.1295  0.3260 -0.3511
  215MPD1    H6 3276   0.350   3.766  11.199  1.7959  0.5870 -1.4914
  215MPD1    H7 3277   0.255   3.639  11.143  0.4677 -0.6437 -2.3053
  216MPD1     C 3278   2.865   0.840  16.959  0.6708  0.8437 -0.1736
  216MPD1    C1 3279   2.795   0.832  17.080  0.0148  0.5535  0.2490
  216MPD1    C2 3280   2.863   0.797  17.202 -0.3909 -0.4373 -0.5721
  216MPD1    C3 3281   2.994   0.759  17.195 -0.2077  0.5396  0.1437
  216MPD1    C4 3282   3.066   0.776  17.074  0.1638  0.2299 -0.3820
  216MPD1    C5 3283   3.003   0.807  16.960 -0.3895  0.1969 -0.0473
  216MPD1     H 3284   2.810   0.772  17.293 -1.0127 -0.2618 -0.8868
  216MPD1    H1 3285   3.173   0.758  17.075  0.2576  0.8117  2.8867
  216MPD1    H2 3286   2.819   0.842  16.861 -4.4666  1.9131  2.2487
  216MPD1    H3 3287   3.062   0.812  16.869  1.1298  1.7622  1.0102
  216MPD1     N 3288   3.060   0.706  17.307 -0.1417  0.4087 -0.1101
  216MPD1    H5 3289   2.996   0.683  17.383  1.5097 -0.5091  1.0000
  216MPD1    N1 3290   2.654   0.832  17.072 -0.1316 -0.2111  0.2088
  216MPD1    H6 3291   2.614   0.902  17.010 -0.7700 -0.1134  0.7377
  216MPD1    H7 3292   2.597   0.832  17.156  1.8107  0.2493  1.5158
  217MPD1     C 3293   3.318   1.343   8.669 -0.0088 -0.1243 -0.1309
  217MPD1    C1 3294   3.214   1.348   8.761 -0.3322  0.5601  0.0165
  217MPD1    C2 3295   3.197   1.470   8.827  0.1733 -0.2533  0.7324
  217MPD1    C3 3296   3.299   1.572   8.827 -0.0164  0.0113  0.5072
  217MPD1    C4 3297   3.412   1.547   8.753  0.3406 -0.1155 -0.5454
  217MPD1    C5 3298   3.418   1.435   8.671 -0.1170 -0.1822  0.0114
  217MPD1     H 3299   3.107   1.481   8.887  0.8722  1.2703  1.5005
  217MPD1    H1 3300   3.496   1.616   8.761 -0.3352  0.7576 -0.9640
  217MPD1    H2 3301   3.332   1.260   8.601  0.0879 -1.2710  1.3071
  217MPD1    H3 3302   3.507   1.414   8.612  0.0234 -0.0786  0.1855
  217MPD1     N 3303   3.292   1.687   8.896  0.0126 -0.3380 -0.7487
  217MPD1    H5 3304   3.371   1.749   8.891 -2.4378  2.7358 -1.0831
  217MPD1    N1 3305   3.107   1.258   8.737  0.2199 -0.1385 -0.6246
  217MPD1    H6 3306   3.142   1.165   8.717  0.1359 -0.6850  1.9004
  217MPD1    H7 3307   3.041   1.245   8.814 -0.0400  0.5555 -0.7313
  218MPD1     C 3308   0.304   0.028  12.714  1.0074  1.0831 -0.0422
  218MPD1    C1 3309   0.380   0.033  12.592 -0.3744 -0.8509  0.2542
  218MPD1    C2 3310   0.434   4.634  12.548  0.4974 -0.9126  0.2682
  218MPD1    C3 3311   0.424   4.519  12.625  0.4649  0.2139 -0.6250
  218MPD1    C4 3312   0.345   4.517  12.738  0.4783 -0.2117  0.5132
  218MPD1    C5 3313   0.284   4.629  12.770  0.1779 -0.9652 -0.5820
  218MPD1     H 3314   0.472   4.633  12.446  0.4975  1.2315  0.2344
  218MPD1    H1 3315   0.330   4.427  12.798 -0.8490 -0.8749 -0.8075
  218MPD1    H2 3316   0.254   0.109  12.766  0.8143 -1.6705  4.0207
  218MPD1    H3 3317   0.216   4.634  12.854  2.9010  0.0186  1.5471
  218MPD1     N 3318   0.500   4.416  12.575 -0.0715 -0.4274  0.3268
  218MPD1    H5 3319   0.552   4.432  12.489 -0.3472  1.8601  0.5835
  218MPD1    N1 3320   0.382   0.148  12.517 -0.0770  0.6746 -0.3022
  218MPD1    H6 3321   0.370   0.236  12.567  1.1013  1.6603 -1.7591
  218MPD1    H7 3322   0.456   0.149  12.447  0.6259 -1.3967  0.4129
  219MPD1     C 3323   0.763   4.024  11.697  0.0016 -0.5205  0.3121
  219MPD1    C1 3324   0.655   4.094  11.739 -0.3804 -0.9855  0.4343
  219MPD1    C2 3325   0.643   4.115  11.875 -0.7533  0.2812  0.4821
  219MPD1    C3 3326   0.727   4.047  11.967 -0.5182  0.6923 -0.1073
  219MPD1    C4 3327   0.827   3.964  11.923  0.6062 -0.3976  0.0472
  219MPD1    C5 3328   0.841   3.956  11.787  0.5144  0.1282 -0.2251
  219MPD1     H 3329   0.567   4.181  11.915 -0.3791 -1.0287  3.3331
  219MPD1    H1 3330   0.893   3.905  11.984  0.4782 -1.0689 -0.4668
  219MPD1    H2 3331   0.794   4.019  11.593 -0.1766  0.6243  0.1978
  219MPD1    H3 3332   0.908   3.879  11.752  1.3260  0.1937  1.1840
  219MPD1     N 3333   0.705   4.050  12.110 -0.6359  0.0428 -0.5100
  219MPD1    H5 3334   0.768   3.992  12.165 -1.5011  3.1286  3.7712
  219MPD1    N1 3335   0.577   4.171  11.653  0.1296  0.6407 -0.8166
  219MPD1    H6 3336   0.563   4.134  11.560  4.2933 -0.0038 -1.1914
  219MPD1    H7 3337   0.490   4.194  11.701  0.5312  0.7624 -0.1328
  220MPD1     C 3338   4.545   0.223   9.606 -0.2273  0.3725  0.1675
  220MPD1    C1 3339   4.534   0.085   9.595 -0.6653  0.3242 -0.1509
  220MPD1    C2 3340   4.634   0.003   9.651 -0.6082  0.5194  0.5991
  220MPD1    C3 3341   0.006   0.058   9.736  0.3524 -0.2357  0.4714
  220MPD1    C4 3342   0.006   0.196   9.759  0.0400  0.1749  0.2187
  220MPD1    C5 3343   4.636   0.279   9.697  0.0644 -0.1469  0.1659
  220MPD1     H 3344   4.632   4.619   9.629  0.3844  1.2277 -2.9846
  220MPD1    H1 3345   0.075   0.248   9.825  0.5697  0.5090 -0.5993
  220MPD1    H2 3346   4.479   0.292   9.555  0.3841  0.4796 -0.4691
  220MPD1    H3 3347   4.643   0.384   9.722 -3.0391  0.1214 -0.0767
  220MPD1     N 3348   0.092   4.696   9.801  0.1501 -0.3359  0.6096
  220MPD1    H5 3349   0.072   4.598   9.783  1.4654 -0.3495 -0.8383
  220MPD1    N1 3350   4.450   0.030   9.497  0.6631  0.0046  0.0085
  220MPD1    H6 3351   4.364   0.080   9.475  0.5984 -0.3311 -0.5090
  220MPD1    H7 3352   4.428   4.653   9.507 -1.2911  0.6794  2.2310
  221MPD1     C 3353   4.070   3.276  15.425  0.2030  0.2947  0.6248
  221MPD1    C1 3354   4.099   3.346  15.542  0.0478 -0.0419 -0.0464
  221MPD1    C2 3355   4.032   3.306  15.660  0.1784  0.0087  0.1273
  221MPD1    C3 3356   3.931   3.216  15.662  1.2093  0.7452  0.4435
  221MPD1    C4 3357   3.912   3.146  15.545  0.1942  0.0044  0.3040
  221MPD1    C5 3358   3.978   3.169  15.428 -0.5158 -0.6600 -0.2600
  221MPD1     H 3359   4.066   3.356  15.750 -2.1972  1.8474 -0.0241
  221MPD1    H1 3360   3.830   3.076  15.536  0.5904 -0.5089  0.6673
  221MPD1    H2 3361   4.122   3.285  15.331 -0.4349 -2.0590  0.0365
  221MPD1    H3 3362   3.953   3.114  15.338  0.6851 -1.4883 -0.0894
  221MPD1     N 3363   3.854   3.188  15.776 -0.0453  0.1007 -0.4826
  221MPD1    H5 3364   3.791   3.109  15.765  1.2775 -0.7102 -2.2177
  221MPD1    N1 3365   4.206   3.440  15.545  0.0860  0.6481  0.0305
  221MPD1    H6 3366   4.226   3.485  15.456 -1.4549 -1.4759 -1.3583
  221MPD1    H7 3367   4.203   3.511  15.619  2.2376 -0.3101  1.0454
  222MPD1     C 3368   1.655   1.997   0.145 -0.2434  0.5242  0.4605
  222MPD1    C1 3369   1.751   2.044   0.058 -0.1996  0.1116 -0.2854
  222MPD1    C2 3370   1.853   2.118   0.107  0.1072  0.1872  0.0255
  222MPD1    C3 3371   1.876   2.134   0.247 -0.1557 -0.7258  0.5583
  222MPD1    C4 3372   1.787   2.072   0.330 -0.6056 -0.5669 -0.1793
  222MPD1    C5 3373   1.674   2.004   0.283  0.3452  0.3391  0.2521
  222MPD1     H 3374   1.931   2.149   0.038 -1.3262  0.6579 -1.3711
  222MPD1    H1 3375   1.796   2.074   0.438  0.7972  2.0863 -0.3323
  222MPD1    H2 3376   1.560   1.953   0.116 -0.2371  0.5815  0.3548
  222MPD1    H3 3377   1.605   1.958   0.352  1.1871  0.3621  1.1096
  222MPD1     N 3378   1.990   2.197   0.297  0.3171 -0.4306  0.4145
  222MPD1    H5 3379   1.995   2.200   0.399 -0.6591 -0.4631  0.4633
  222MPD1    N1 3380   1.713   2.041  17.610 -0.2131  0.3023  0.8539
  222MPD1    H6 3381   1.659   1.955  17.611 -2.8579  1.9545  0.6764
  222MPD1    H7 3382   1.796   2.032  17.553  0.9948  1.1381  2.4758
  223MPD1     C 3383   2.026   2.443   1.118 -0.3571 -0.2340  0.5075
  223MPD1    C1 3384   1.934   2.426   1.025  0.1778  0.6319  0.5259
  223MPD1    C2 3385   1.975   2.432   0.890 -0.0015 -0.1090  0.6593
  223MPD1    C3 3386   2.107   2.445   0.856 -0.0082  0.2846  0.6742
  223MPD1    C4 3387   2.206   2.464   0.953 -0.7260 -0.0541  0.1291
  223MPD1    C5 3388   2.163   2.460   1.083 -0.4468  0.3854 -0.1846
  223MPD1     H 3389   1.904   2.416   0.809  0.6856  0.4494 -0.0575
  223MPD1    H1 3390   2.312   2.477   0.937 -0.5242 -1.1608  0.5540
  223MPD1    H2 3391   1.998   2.455   1.223  0.8863 -0.0562  0.8201
  223MPD1    H3 3392   2.229   2.473   1.167  0.4578 -1.5944 -0.5962
  223MPD1     N 3393   2.132   2.443   0.716 -0.4433 -0.4193 -0.0668
  223MPD1    H5 3394   2.050   2.431   0.658  0.3283 -2.8911 -0.6578
  223MPD1    N1 3395   1.794   2.437   1.056 -0.6261  0.5693 -0.0174
  223MPD1    H6 3396   1.770   2.401   1.148  1.1463  0.1521  0.2945
  223MPD1    H7 3397   1.740   2.399   0.979 -0.1739  1.9099 -0.9952
  224MPD1     C 3398   2.859   2.619   8.914  0.2159  0.2170  0.0564
  224MPD1    C1 3399   2.900   2.753   8.896 -0.4325 -0.2619 -0.0126
  224MPD1    C2 3400   2.932   2.830   9.007  0.0612  0.3022  0.0109
  224MPD1    C3 3401   2.956   2.758   9.127  0.1322 -0.2668 -0.2699
  224MPD1    C4 3402   2.930   2.628   9.143 -0.2126  1.0466  0.1047
  224MPD1    C5 3403   2.873   2.560   9.033  0.2249 -1.1091  0.7022
  224MPD1     H 3404   2.964   2.930   8.980  1.7759 -0.2096  0.1108
  224MPD1    H1 3405   2.961   2.574   9.232  1.7246  2.2659  0.1478
  224MPD1    H2 3406   2.810   2.567   8.833  0.7146  1.8952 -1.3208
  224MPD1    H3 3407   2.835   2.461   9.058  2.3789 -2.1754 -0.2362
  224MPD1     N 3408   3.023   2.816   9.235 -0.4023  0.4917 -0.1994
  224MPD1    H5 3409   3.049   2.750   9.308  0.2369 -0.9122 -1.7007
  224MPD1    N1 3410   2.859   2.819   8.781 -0.0713  0.8527 -0.3690
  224MPD1    H6 3411   2.861   2.750   8.706  0.0852 -0.0057  0.4385
  224MPD1    H7 3412   2.908   2.905   8.758  2.7911 -0.6957 -0.0449
  225MPD1     C 3413   0.812   0.341  12.304 -0.0113  0.1241  0.0365
  225MPD1    C1 3414   0.767   0.241  12.223 -0.6059  0.5213  0.0041
  225MPD1    C2 3415   0.629   0.237  12.188  0.0347 -0.7529  0.1425
  225MPD1    C3 3416   0.545   0.331  12.238 -0.3277  0.0504 -0.1535
  225MPD1    C4 3417   0.599   0.435  12.317 -0.8743  0.1116  0.1838
  225MPD1    C5 3418   0.732   0.442  12.343 -0.2750 -0.1376  0.5408
  225MPD1     H 3419   0.594   0.152  12.131 -1.0913 -0.4165  0.3453
  225MPD1    H1 3420   0.539   0.518  12.353 -1.2330  0.0478 -0.2604
  225MPD1    H2 3421   0.915   0.337  12.337  0.3284  0.4981 -1.0079
  225MPD1    H3 3422   0.761   0.528  12.403  5.2949  0.8125 -3.5165
  225MPD1     N 3423   0.411   0.334  12.211  0.1288  0.1424 -0.5703
  225MPD1    H5 3424   0.367   0.414  12.256  1.0334  1.0116 -1.2609
  225MPD1    N1 3425   0.848   0.140  12.187  0.2278 -0.0701  0.3206
  225MPD1    H6 3426   0.830   0.112  12.091  1.6735  1.4172 -0.3790
  225MPD1    H7 3427   0.943   0.178  12.185  0.7113 -1.4395 -2.4531
  226MPD1     C 3428   3.217   0.139  10.187  1.0913 -0.9203  0.6600
  226MPD1    C1 3429   3.315   0.086  10.107 -0.3789  0.0633 -0.3621
  226MPD1    C2 3430   3.445   0.128  10.121  0.1536 -0.6580 -0.3790
  226MPD1    C3 3431   3.476   0.208  10.228  0.1641 -0.9951 -0.4456
  226MPD1    C4 3432   3.371   0.267  10.304 -0.0958  0.0427 -0.2066
  226MPD1    C5 3433   3.239   0.230  10.284  0.0088 -0.0386 -0.4109
  226MPD1     H 3434   3.526   0.106  10.052 -0.5610 -0.8150 -1.1621
  226MPD1    H1 3435   3.385   0.347  10.375  3.2743 -0.5482 -0.1804
  226MPD1    H2 3436   3.112   0.128  10.162  1.0426 -0.8345  0.8280
  226MPD1    H3 3437   3.165   0.266  10.355  0.4755 -0.1939  0.1552
  226MPD1     N 3438   3.609   0.257  10.249 -0.1738  0.7211 -0.0588
  226MPD1    H5 3439   3.668   0.222  10.175  1.0027 -0.3216  1.3777
  226MPD1    N1 3440   3.272   0.007   9.999 -0.4062 -0.3298 -0.3241
  226MPD1    H6 3441   3.184   4.680  10.010 -0.0764 -0.3646  2.0522
  226MPD1    H7 3442   3.350   4.676   9.961  0.5603 -1.2827  2.9970
  227MPD1     C 3443   4.376   0.939  10.667 -0.3260 -0.2708  0.4078
  227MPD1    C1 3444   4.426   0.812  10.647  0.4295 -0.9569 -0.7895
  227MPD1    C2 3445   4.338   0.723  10.589  0.4078 -0.0205  0.1758
  227MPD1    C3 3446   4.204   0.748  10.557  0.1475 -0.1367  0.5825
  227MPD1    C4 3447   4.161   0.877  10.588 -0.0269  0.1602 -0.7628
  227MPD1    C5 3448   4.240   0.967  10.648 -0.2390  1.0862  0.4066
  227MPD1     H 3449   4.379   0.624  10.570 -0.3701 -0.3554  0.2209
  227MPD1    H1 3450   4.056   0.904  10.580  0.1692  1.0733 -0.1257
  227MPD1    H2 3451   4.437   1.022  10.700 -0.0516 -1.1892  2.2390
  227MPD1    H3 3452   4.206   1.069  10.663 -3.0889  0.1414  0.2778
  227MPD1     N 3453   4.132   0.646  10.494 -0.3239  0.1069  0.1600
  227MPD1    H5 3454   4.183   0.562  10.466 -1.3102 -0.3367 -0.2992
  227MPD1    N1 3455   4.563   0.788  10.665 -0.4533  0.1673  0.2389
  227MPD1    H6 3456   4.568   0.700  10.715  0.5065  0.3955  0.5331
  227MPD1    H7 3457   4.608   0.854  10.728 -2.8899  1.2599  0.8529
  228MPD1     C 3458   2.194   3.193  12.626 -0.3737 -0.2104 -0.8169
  228MPD1    C1 3459   2.084   3.275  12.641 -0.5071  0.5567  0.7501
  228MPD1    C2 3460   1.967   3.233  12.697 -0.1186 -0.5033  0.8160
  228MPD1    C3 3461   1.958   3.101  12.741  0.1192 -0.4426 -0.4028
  228MPD1    C4 3462   2.063   3.011  12.721 -0.4789 -0.7276  0.1063
  228MPD1    C5 3463   2.179   3.061  12.668 -0.6054 -0.2410 -0.3639
  228MPD1     H 3464   1.891   3.306  12.722  0.0980 -0.4426  1.3044
  228MPD1    H1 3465   2.059   2.908  12.754  0.5238 -0.5713  0.7230
  228MPD1    H2 3466   2.288   3.231  12.588 -0.9321  0.8613 -1.1212
  228MPD1    H3 3467   2.263   2.993  12.672 -0.2762  0.4009  3.6689
  228MPD1     N 3468   1.831   3.061  12.798 -0.5135  0.4715 -0.5094
  228MPD1    H5 3469   1.756   3.129  12.792 -1.9121 -1.0644 -0.4066
  228MPD1    N1 3470   2.107   3.411  12.604  0.0919 -0.1479 -0.1393
  228MPD1    H6 3471   2.025   3.459  12.569 -1.4793 -3.1320 -0.6108
  228MPD1    H7 3472   2.192   3.427  12.551  0.4347 -0.7252  0.2249
  229MPD1     C 3473   1.609   1.640  15.128 -0.2142 -0.6082  0.3533
  229MPD1    C1 3474   1.721   1.663  15.203  0.5972  0.3408 -0.8772
  229MPD1    C2 3475   1.808   1.555  15.224  0.4605  0.5278 -0.4624
  229MPD1    C3 3476   1.783   1.429  15.175  0.1031  0.2252  0.1993
  229MPD1    C4 3477   1.674   1.409  15.091  0.1263 -0.1463  1.1720
  229MPD1    C5 3478   1.586   1.511  15.069  0.3469 -0.7335 -0.1332
  229MPD1     H 3479   1.892   1.568  15.291  0.3036 -0.4918 -0.0642
  229MPD1    H1 3480   1.659   1.317  15.035 -2.7110  1.3254 -0.4881
  229MPD1    H2 3481   1.530   1.712  15.115  2.2076  2.0220  0.1844
  229MPD1    H3 3482   1.490   1.499  15.021  0.9580  2.0885 -2.0139
  229MPD1     N 3483   1.850   1.311  15.209 -0.4811 -0.2820 -0.5937
  229MPD1    H5 3484   1.798   1.228  15.184 -0.2017 -0.7492  0.3961
  229MPD1    N1 3485   1.754   1.787  15.255 -0.4221  0.2947  0.3150
  229MPD1    H6 3486   1.733   1.862  15.189 -0.2650  2.8408  3.1367
  229MPD1    H7 3487   1.844   1.802  15.300 -0.1092 -0.0863 -0.1739
  230MPD1     C 3488   2.004   1.225  16.232  0.3974 -0.0084  0.3210
  230MPD1    C1 3489   1.885   1.258  16.179 -0.5855  0.4911  0.2055
  230MPD1    C2 3490   1.867   1.220  16.048 -0.1909  0.5009 -0.0703
  230MPD1    C3 3491   1.976   1.179  15.966 -0.6905  0.7710  0.6608
  230MPD1    C4 3492   2.099   1.166  16.025 -0.4070  0.6257  0.3298
  230MPD1    C5 3493   2.110   1.186  16.161 -1.1388 -0.4690  0.1057
  230MPD1     H 3494   1.777   1.234  15.990 -0.1417 -0.0303 -0.2789
  230MPD1    H1 3495   2.184   1.125  15.972  0.5879  2.9495  0.1274
  230MPD1    H2 3496   2.010   1.230  16.340 -0.2166 -2.1998  0.4611
  230MPD1    H3 3497   2.200   1.172  16.220 -0.7639 -0.7443 -0.5331
  230MPD1     N 3498   1.955   1.162  15.825  0.8802  0.1802 -0.0449
  230MPD1    H5 3499   1.868   1.202  15.793  0.3891 -1.0614 -0.2754
  230MPD1    N1 3500   1.784   1.305  16.261  0.9878  0.0976 -0.6847
  230MPD1    H6 3501   1.719   1.357  16.202 -0.5088 -2.4426 -1.2577
  230MPD1    H7 3502   1.814   1.356  16.344  0.1064  0.4595 -0.5867
  231MPD1     C 3503   0.547   3.127  15.204 -0.1996 -0.5778 -0.5543
  231MPD1    C1 3504   0.468   3.101  15.095 -0.2285 -0.3316 -0.4364
  231MPD1    C2 3505   0.497   3.158  14.973  0.6932 -0.4230 -1.0680
  231MPD1    C3 3506   0.603   3.247  14.958 -0.2563  0.3178  0.2741
  231MPD1    C4 3507   0.671   3.273  15.072  0.1407  0.2877 -0.0727
  231MPD1    C5 3508   0.656   3.210  15.192 -0.3171 -0.0502  0.3029
  231MPD1     H 3509   0.447   3.112  14.888 -0.3581  0.2332 -0.7938
  231MPD1    H1 3510   0.763   3.330  15.073 -0.1482  0.7515  0.2346
  231MPD1    H2 3511   0.543   3.067  15.294 -0.7546 -0.9105 -0.7924
  231MPD1    H3 3512   0.726   3.232  15.271 -1.1424  0.7804  0.8031
  231MPD1     N 3513   0.635   3.303  14.836 -0.2450 -0.3943  0.0932
  231MPD1    H5 3514   0.591   3.277  14.748  0.1832  0.6318 -0.4214
  231MPD1    N1 3515   0.373   3.000  15.099 -0.1620  0.6451  0.6588
  231MPD1    H6 3516   0.343   2.974  15.193  1.0432 -3.9101 -0.2323
  231MPD1    H7 3517   0.409   2.916  15.056 -1.9131 -1.4550  3.3329
  232MPD1     C 3518   0.796   4.679  17.483 -0.9781  0.0714  0.0120
  232MPD1    C1 3519   0.735   0.073  17.532  0.6604 -0.4057  0.5458
  232MPD1    C2 3520   0.818   0.174  17.573 -0.2891 -0.8418  0.6321
  232MPD1    C3 3521   0.959   0.159  17.577  0.0115 -0.2765  0.0158
  232MPD1    C4 3522   1.014   0.048  17.532 -0.9402  0.7078  0.5281
  232MPD1    C5 3523   0.932   4.668  17.478 -0.8651 -0.6930 -0.5384
  232MPD1     H 3524   0.770   0.264  17.610  1.0518 -0.9270  2.5904
  232MPD1    H1 3525   1.121   0.040  17.518 -0.7882  0.0904  2.0753
  232MPD1    H2 3526   0.732   4.598  17.448 -1.5017  0.8011 -0.7097
  232MPD1    H3 3527   0.974   4.577  17.436 -0.2702 -0.9769  0.6764
  232MPD1     N 3528   1.042   0.262  17.614  0.1854 -0.3106  0.4984
  232MPD1    H5 3529   0.994   0.341  17.656  1.3786 -0.3030  1.8782
  232MPD1    N1 3530   0.596   0.094  17.521 -0.0173  0.6709 -0.4298
  232MPD1    H6 3531   0.550   0.134  17.603 -1.3312 -1.8188  0.0437
  232MPD1    H7 3532   0.543   0.009  17.502  0.7102 -0.1483  1.1627
  233MPD1     C 3533   3.045   3.260   2.193 -0.0593 -0.0087  0.2532
  233MPD1    C1 3534   3.087   3.151   2.272  0.6775  0.0004  0.4071
  233MPD1    C2 3535   3.177   3.053   2.213  0.4027  0.0456  0.5244
  233MPD1    C3 3536   3.213   3.076   2.081  0.1302 -1.0354 -0.8538
  233MPD1    C4 3537   3.172   3.184   2.010 -0.1046 -0.9309 -0.0755
  233MPD1    C5 3538   3.099   3.280   2.066  0.2171 -0.2609 -0.3323
  233MPD1     H 3539   3.223   2.966   2.258  0.4942 -0.0268  0.2944
  233MPD1    H1 3540   3.211   3.198   1.910  1.1049  1.2371  0.6861
  233MPD1    H2 3541   2.978   3.340   2.225  1.2085  0.8613  0.7472
  233MPD1    H3 3542   3.067   3.364   2.005  1.3901 -0.7170 -1.5543
  233MPD1     N 3543   3.291   2.989   1.996 -0.0305 -0.7519 -0.3002
  233MPD1    H5 3544   3.308   3.017   1.900 -1.4908 -0.5953 -0.5150
  233MPD1    N1 3545   3.049   3.143   2.408 -0.0950  0.7292 -0.9536
  233MPD1    H6 3546   3.046   3.054   2.457  1.4226  2.0550  1.5514
  233MPD1    H7 3547   2.961   3.186   2.436 -1.2720 -1.3385 -1.5003
  234MPD1     C 3548   4.625   2.129   9.616  0.1720 -0.4421  0.0743
  234MPD1    C1 3549   4.594   2.251   9.675 -1.1864  0.3616 -0.0577
  234MPD1    C2 3550   4.473   2.262   9.748  0.4671 -0.2203 -0.8897
  234MPD1    C3 3551   4.388   2.155   9.766 -0.3490  0.1788 -0.0493
  234MPD1    C4 3552   4.423   2.037   9.706 -0.0353  0.6220 -0.2085
  234MPD1    C5 3553   4.543   2.026   9.646  0.2627  0.0519 -0.2082
  234MPD1     H 3554   4.451   2.349   9.808  1.6060  0.5832 -1.6229
  234MPD1    H1 3555   4.360   1.949   9.711  2.5862 -1.1795  0.8392
  234MPD1    H2 3556   4.709   2.113   9.550 -0.5527 -1.9518 -0.4656
  234MPD1    H3 3557   4.563   1.935   9.590 -0.9637 -0.3580  0.0318
  234MPD1     N 3558   4.258   2.163   9.817  0.1194 -0.4571 -1.1639
  234MPD1    H5 3559   4.198   2.084   9.796 -0.4991 -0.3848  0.3075
  234MPD1    N1 3560   4.669   2.363   9.644 -0.1433 -0.0039  0.2870
  234MPD1    H6 3561   4.674   2.426   9.724 -1.1850  1.6795 -0.9675
  234MPD1    H7 3562   0.044   2.339   9.625  0.2865  0.9423  1.3176
  235MPD1     C 3563   4.716   1.024   9.765  0.4182  0.4158  0.7154
  235MPD1    C1 3564   0.079   1.124   9.737 -0.2097  0.0583  0.2112
  235MPD1    C2 3565   0.218   1.101   9.739  0.4845  0.0761  0.2767
  235MPD1    C3 3566   0.264   0.968   9.755  0.1789  0.1919  0.3609
  235MPD1    C4 3567   0.169   0.862   9.770  1.1093  0.0170 -0.0101
  235MPD1    C5 3568   0.030   0.896   9.780  0.3874 -0.2426 -0.3680
  235MPD1     H 3569   0.292   1.178   9.722  0.0235  0.0681 -1.7571
  235MPD1    H1 3570   0.193   0.757   9.784 -1.9261 -0.8761 -1.6591
  235MPD1    H2 3571   4.612   1.053   9.771  0.0802 -0.6674  0.1521
  235MPD1    H3 3572   4.675   0.820   9.790 -0.8322  1.3603  2.2553
  235MPD1     N 3573   0.396   0.935   9.751 -0.3101 -0.2266  0.8146
  235MPD1    H5 3574   0.465   1.000   9.717 -0.6675  0.1389  0.7925
  235MPD1    N1 3575   0.035   1.256   9.744  0.1606 -0.7999  0.6335
  235MPD1    H6 3576   0.082   1.326   9.687 -1.3542 -1.3290 -1.2641
  235MPD1    H7 3577   4.658   1.269   9.724  0.5164 -0.0963 -0.6206
  236MPD1     C 3578   0.128   1.515   9.504  0.6707  0.0206 -0.3058
  236MPD1    C1 3579   0.084   1.568   9.628  0.5125  0.0806 -0.6301
  236MPD1    C2 3580   0.162   1.569   9.741  0.3467  0.1281  0.0881
  236MPD1    C3 3581   0.285   1.508   9.744 -0.5886  0.4546 -0.3149
  236MPD1    C4 3582   0.328   1.456   9.623 -0.1346  0.3025  0.4156
  236MPD1    C5 3583   0.245   1.454   9.509 -0.4775 -0.1272 -0.3091
  236MPD1     H 3584   0.127   1.619   9.830 -1.6804  2.6534 -2.1148
  236MPD1    H1 3585   0.426   1.414   9.610 -1.0189 -1.5062 -0.3903
  236MPD1    H2 3586   0.072   1.521   9.412  2.5050  2.3764 -1.2802
  236MPD1    H3 3587   0.276   1.401   9.420  2.4974  1.4767 -0.2169
  236MPD1     N 3588   0.376   1.498   9.859  0.0843  0.1741 -0.2600
  236MPD1    H5 3589   0.470   1.463   9.847  0.5665  0.2945  3.2112
  236MPD1    N1 3590   4.684   1.633   9.638  0.2181  0.2933  0.3438
  236MPD1    H6 3591   4.607   1.594   9.584 -0.2597 -0.0689  1.2949
  236MPD1    H7 3592   4.656   1.653   9.734  2.0346  0.8759  0.7476
  237MPD1     C 3593   0.570   4.664  14.710  0.4837  0.7920  0.2149
  237MPD1    C1 3594   0.574   4.542  14.778 -0.4491  0.2325  0.0227
  237MPD1    C2 3595   0.455   4.484  14.811  0.8046 -0.1866  0.7957
  237MPD1    C3 3596   0.333   4.521  14.766  0.0980  0.2998  0.3782
  237MPD1    C4 3597   0.329   4.649  14.700  0.0611 -0.2038 -0.4202
  237MPD1    C5 3598   0.444   4.717  14.675 -0.2028  0.1949 -1.0191
  237MPD1     H 3599   0.466   4.406  14.886  1.4487 -0.5643  0.3175
  237MPD1    H1 3600   0.231   4.685  14.672  0.1817 -0.1756 -0.8069
  237MPD1    H2 3601   0.661   4.721  14.698  1.8799 -1.3790  0.3470
  237MPD1    H3 3602   0.451   0.093  14.631 -1.8878  0.9799  0.4534
  237MPD1     N 3603   0.206   4.459  14.797  0.1117 -0.4631  0.2043
  237MPD1    H5 3604   0.123   4.512  14.773  0.9709  0.4895 -0.6806
  237MPD1    N1 3605   0.695   4.503  14.839 -0.3275 -0.0687 -0.1720
  237MPD1    H6 3606   0.779   4.522  14.786  1.6800 -1.0393  2.6590
  237MPD1    H7 3607   0.696   4.406  14.870 -1.0350 -0.5507 -1.6435
  238MPD1     C 3608   1.772   3.394  15.802  1.0090 -0.4368 -0.2390
  238MPD1    C1 3609   1.865   3.448  15.713 -0.5856  0.4396 -0.2952
  238MPD1    C2 3610   1.853   3.426  15.573 -0.4554 -0.1303  0.4613
  238MPD1    C3 3611   1.741   3.359  15.527  0.0783  0.6514 -0.0989
  238MPD1    C4 3612   1.644   3.313  15.610  0.6035 -0.3374 -0.5573
  238MPD1    C5 3613   1.666   3.324  15.746  0.6028  0.3692  0.7113
  238MPD1     H 3614   1.922   3.474  15.504 -0.4135 -2.5305 -1.1695
  238MPD1    H1 3615   1.554   3.271  15.566 -0.2853  1.8507 -0.8653
  238MPD1    H2 3616   1.782   3.403  15.909  0.4061 -1.8292 -0.0823
  238MPD1    H3 3617   1.592   3.277  15.810  1.7807 -1.2622  0.8788
  238MPD1     N 3618   1.713   3.323  15.388 -0.2136 -0.1760  0.0676
  238MPD1    H5 3619   1.617   3.293  15.381 -0.2877 -0.5559  2.5863
  238MPD1    N1 3620   1.980   3.527  15.756 -0.3051  0.8728 -0.5693
  238MPD1    H6 3621   1.972   3.551  15.854 -1.9853  1.7742 -0.9318
  238MPD1    H7 3622   1.990   3.610  15.698 -2.1851  0.3375 -1.6761
  239MPD1     C 3623   2.443   4.492  14.946  0.9325 -0.3038 -0.2662
  239MPD1    C1 3624   2.429   4.380  14.870  0.0710  0.0999 -0.3645
  239MPD1    C2 3625   2.368   4.391  14.745  0.5968  0.8927  0.0016
  239MPD1    C3 3626   2.303   4.507  14.700 -0.8490 -0.1251 -0.3916
  239MPD1    C4 3627   2.304   4.614  14.792 -0.0562  0.2031  0.1447
  239MPD1    C5 3628   2.370   4.603  14.914  0.1434 -0.1711 -0.1028
  239MPD1     H 3629   2.356   4.298  14.691  0.7345  0.9083 -0.0558
  239MPD1    H1 3630   2.249   4.704  14.767 -2.2527 -0.4241  2.6876
  239MPD1    H2 3631   2.495   4.485  15.041 -0.3345  0.1199  0.4531
  239MPD1    H3 3632   2.344   4.676  14.989  0.2871  0.0598 -0.2767
  239MPD1     N 3633   2.249   4.520  14.576 -0.9612 -0.2112  0.0829
  239MPD1    H5 3634   2.198   4.605  14.550  0.6434  0.9112  0.6144
  239MPD1    N1 3635   2.500   4.258  14.901 -0.2495 -0.4881 -0.3008
  239MPD1    H6 3636   2.439   4.184  14.868 -0.6563  0.4750 -1.7539
  239MPD1    H7 3637   2.513   4.242  15.000 -1.4032 -0.7324 -0.1948
  240MPD1     C 3638   1.504   4.088  14.134  0.1638 -0.4959 -0.2530
  240MPD1    C1 3639   1.459   3.969  14.071  0.6575 -0.4548  0.1882
  240MPD1    C2 3640   1.451   3.846  14.138  1.0046 -0.4128  0.1557
  240MPD1    C3 3641   1.498   3.845  14.273 -0.1817 -0.0729  0.3275
  240MPD1    C4 3642   1.561   3.962  14.322 -0.5901 -0.3626 -0.7009
  240MPD1    C5 3643   1.558   4.086  14.254 -0.4421  0.1388  0.1317
  240MPD1     H 3644   1.396   3.761  14.099  0.5300 -0.2442  0.4550
  240MPD1    H1 3645   1.603   3.960  14.422  0.3787 -0.7968 -1.1161
  240MPD1    H2 3646   1.492   4.185  14.087  0.4711 -0.3565 -0.0468
  240MPD1    H3 3647   1.615   4.171  14.290 -0.1052  0.7880 -1.9314
  240MPD1     N 3648   1.479   3.725  14.349 -0.3078 -0.1394 -0.4870
  240MPD1    H5 3649   1.433   3.649  14.299 -1.9133  1.8750 -2.0495
  240MPD1    N1 3650   1.393   3.989  13.943  0.3985 -0.3286 -0.0968
  240MPD1    H6 3651   1.375   3.899  13.899 -0.5648 -0.9966  1.6507
  240MPD1    H7 3652   1.426   4.060  13.879  2.1012  1.5684  2.8902
  241MPD1     C 3653   1.425   3.519  15.344 -0.4488  0.1613 -0.3017
  241MPD1    C1 3654   1.403   3.402  15.278 -0.2509 -0.3469 -0.6820
  241MPD1    C2 3655   1.415   3.388  15.140 -0.0701 -1.1989  0.5816
  241MPD1    C3 3656   1.457   3.500  15.063  0.5415 -0.4105  0.5978
  241MPD1    C4 3657   1.481   3.622  15.132 -0.0698  0.0595  0.3631
  241MPD1    C5 3658   1.467   3.627  15.272  0.7396  0.2114 -0.0038
  241MPD1     H 3659   1.403   3.290  15.095 -0.3836 -0.5217 -0.8075
  241MPD1    H1 3660   1.511   3.707  15.074 -1.6747  0.7727  0.5695
  241MPD1    H2 3661   1.429   3.525  15.452 -0.2478 -1.7739 -0.2041
  241MPD1    H3 3662   1.500   3.723  15.311  0.2324 -0.9475  3.2843
  241MPD1     N 3663   1.477   3.493  14.925  0.2439 -0.0471  0.4059
  241MPD1    H5 3664   1.522   3.574  14.885  0.0641  0.9638  2.2368
  241MPD1    N1 3665   1.393   3.282  15.351 -0.0016 -0.0718 -0.3360
  241MPD1    H6 3666   1.355   3.206  15.295 -1.0227 -0.4897  0.9276
  241MPD1    H7 3667   1.336   3.298  15.434 -0.1084  0.2488 -0.4748
  242MPD1     C 3668   0.988   1.101  15.832 -0.6950  0.0668  0.1849
  242MPD1    C1 3669   1.068   1.155  15.932 -0.1364  0.0811  0.0162
  242MPD1    C2 3670   1.163   1.257  15.898  0.3706  0.7100 -0.1538
  242MPD1    C3 3671   1.183   1.286  15.768  0.0150  0.2775 -0.4074
  242MPD1    C4 3672   1.133   1.206  15.673  0.0576 -0.4418 -0.3767
  242MPD1    C5 3673   1.029   1.115  15.702  0.3144  0.2582  0.1991
  242MPD1     H 3674   1.214   1.309  15.978 -0.1404 -2.0611  1.9725
  242MPD1    H1 3675   1.166   1.219  15.571 -0.2519  0.8142 -0.3169
  242MPD1    H2 3676   0.899   1.041  15.848  0.0084 -1.1520 -0.4726
  242MPD1    H3 3677   0.967   1.067  15.627  1.1466  1.1401 -1.0403
  242MPD1     N 3678   1.258   1.394  15.712  0.5893 -0.8959 -0.2151
  242MPD1    H5 3679   1.269   1.384  15.612  0.4312  0.6975 -0.3774
  242MPD1    N1 3680   1.028   1.132  16.066 -0.7266  0.1173  0.2888
  242MPD1    H6 3681   0.982   1.041  16.073  1.2210 -0.8739  0.3807
  242MPD1    H7 3682   1.100   1.132  16.137 -0.8666  1.9470  0.4203
  243MPD1     C 3683   2.624   4.550   0.154 -0.3515 -0.3970 -0.6157
  243MPD1    C1 3684   2.674   4.414   0.141 -0.0724  0.4706 -0.4298
  243MPD1    C2 3685   2.763   4.391   0.034 -0.6082 -0.1130 -0.0825
  243MPD1    C3 3686   2.796   4.488  17.633 -0.7843  0.1463 -0.5654
  243MPD1    C4 3687   2.760   4.616  17.668  0.7565  0.1721 -0.1762
  243MPD1    C5 3688   2.679   4.653   0.076  0.7666  0.1171 -0.6203
  243MPD1     H 3689   2.797   4.291   0.009 -0.2703  0.5122 -2.1250
  243MPD1    H1 3690   2.780   4.692  17.593  0.9236 -1.1055 -1.4237
  243MPD1    H2 3691   2.545   4.561   0.227 -0.7946 -1.7462 -0.8836
  243MPD1    H3 3692   2.639   0.030   0.094 -0.0300 -0.7314  2.4001
  243MPD1     N 3693   2.866   4.455  17.515  0.3535  0.1237 -0.1787
  243MPD1    H5 3694   2.876   4.357  17.491 -1.7572  0.0705 -0.8361
  243MPD1    N1 3695   2.609   4.316   0.216 -0.8064 -0.3664  0.1119
  243MPD1    H6 3696   2.677   4.242   0.229  0.4000  0.6662 -0.4402
  243MPD1    H7 3697   2.592   4.351   0.310 -1.4931  2.0154 -0.9037
  244MPD1     C 3698   3.186   3.724  16.940  0.3109  0.2180  0.1083
  244MPD1    C1 3699   3.258   3.828  16.887  0.6027 -0.9925  0.1640
  244MPD1    C2 3700   3.242   3.951  16.952 -0.3982  0.1748  0.6754
  244MPD1    C3 3701   3.163   3.969  17.067  0.2381 -0.4909 -0.4073
  244MPD1    C4 3702   3.098   3.857  17.123 -0.0182  1.1217  0.3132
  244MPD1    C5 3703   3.110   3.739  17.048 -0.0120  0.5255  0.0104
  244MPD1     H 3704   3.292   4.040  16.916 -0.8713  0.2392  0.1928
  244MPD1    H1 3705   3.051   3.869  17.220 -4.2341 -0.2614 -1.5410
  244MPD1    H2 3706   3.183   3.625  16.895  1.7544  1.7261 -3.3265
  244MPD1    H3 3707   3.082   3.647  17.098 -1.7696  1.4639  0.7680
  244MPD1     N 3708   3.171   4.094  17.124  0.1189  0.8829 -0.1446
  244MPD1    H5 3709   3.233   4.164  17.085 -1.3231  0.6892 -2.8362
  244MPD1    N1 3710   3.356   3.813  16.793 -0.0936  0.1398  0.1833
  244MPD1    H6 3711   3.319   3.742  16.729 -0.0368 -0.6133  0.9927
  244MPD1    H7 3712   3.383   3.902  16.752  1.5736 -0.8339 -0.8506
  245MPD1     C 3713   4.182   1.056  13.127 -0.7806 -1.1845  0.1107
  245MPD1    C1 3714   4.179   1.190  13.142  1.0235  0.5048 -0.6379
  245MPD1    C2 3715   4.303   1.259  13.153  0.2129 -0.4912 -0.5240
  245MPD1    C3 3716   4.418   1.182  13.169  0.2880 -0.8135  0.1035
  245MPD1    C4 3717   4.419   1.048  13.162  0.3552 -0.4939 -0.5390
  245MPD1    C5 3718   4.299   0.992  13.134  0.5600 -0.1664 -0.4485
  245MPD1     H 3719   4.306   1.364  13.181 -1.9506 -0.2931 -1.0622
  245MPD1    H1 3720   4.507   0.984  13.166  0.7331 -0.0030 -1.1683
  245MPD1    H2 3721   4.095   0.992  13.122  0.9676 -3.4735 -1.0321
  245MPD1    H3 3722   4.300   0.884  13.127  0.2455 -0.2259  0.3368
  245MPD1     N 3723   4.538   1.251  13.208  0.1617 -0.1139 -0.2271
  245MPD1    H5 3724   4.531   1.352  13.216 -2.4873 -0.4246  1.4157
  245MPD1    N1 3725   4.053   1.253  13.159 -0.1633  0.5298 -0.1820
  245MPD1    H6 3726   4.054   1.354  13.146  0.6555  0.7766  1.9153
  245MPD1    H7 3727   3.980   1.220  13.096  0.3980 -1.5841  0.2783
  246MPD1     C 3728   1.847   2.092   9.442  0.2784 -0.0591 -0.2671
  246MPD1    C1 3729   1.729   2.051   9.392  0.9507 -0.1918  0.2143
  246MPD1    C2 3730   1.632   2.143   9.391 -0.1775 -0.2107  0.4237
  246MPD1    C3 3731   1.637   2.262   9.457 -0.6419 -0.3238  0.6536
  246MPD1    C4 3732   1.749   2.302   9.513 -0.0434  0.4340 -0.2779
  246MPD1    C5 3733   1.856   2.210   9.509 -0.3344 -0.0435 -0.0472
  246MPD1     H 3734   1.549   2.133   9.321  0.0301  0.6092  0.0579
  246MPD1    H1 3735   1.761   2.395   9.569 -0.3976 -0.3069  1.0259
  246MPD1    H2 3736   1.936   2.030   9.435 -2.1596 -3.7617  1.4131
  246MPD1    H3 3737   1.955   2.241   9.539 -0.9173  2.1311 -0.3166
  246MPD1     N 3738   1.529   2.348   9.445 -0.1272  0.0221 -0.1106
  246MPD1    H5 3739   1.448   2.309   9.397 -1.7670  1.8341  1.1978
  246MPD1    N1 3740   1.719   1.929   9.318 -0.2729 -0.7585  0.2712
  246MPD1    H6 3741   1.786   1.858   9.346 -1.2253 -1.6115  0.4188
  246MPD1    H7 3742   1.623   1.896   9.308 -0.7391  0.4672  0.6520
  247MPD1     C 3743   3.792   1.389  16.995  0.0061  0.5745  0.4318
  247MPD1    C1 3744   3.824   1.464  16.887 -0.4670  0.3479 -0.4245
  247MPD1    C2 3745   3.913   1.412  16.789 -0.8806 -0.0634  0.2400
  247MPD1    C3 3746   3.933   1.273  16.793 -1.3343 -0.1103 -0.7588
  247MPD1    C4 3747   3.876   1.193  16.889 -0.1164  0.0391 -0.2487
  247MPD1    C5 3748   3.820   1.253  16.997 -0.6527 -0.2263  0.0850
  247MPD1     H 3749   3.934   1.469  16.699 -2.0147  2.2645  1.4236
  247MPD1    H1 3750   3.888   1.085  16.894 -0.8502  0.0521  1.8971
  247MPD1    H2 3751   3.735   1.433  17.076  2.6529  1.4360  1.8376
  247MPD1    H3 3752   3.792   1.183  17.075 -3.2058  0.1061 -0.5294
  247MPD1     N 3753   4.011   1.212  16.695 -0.0573  0.0305 -0.2447
  247MPD1    H5 3754   4.006   1.110  16.693  3.5649 -0.1543  0.8393
  247MPD1    N1 3755   3.791   1.605  16.874 -0.7177 -0.3327 -0.5164
  247MPD1    H6 3756   3.830   1.645  16.789 -1.2110  1.5526  0.1348
  247MPD1    H7 3757   3.694   1.622  16.897 -0.4678  1.3504 -0.7168
  248MPD1     C 3758   0.417   4.010   1.327 -0.0821 -0.3408  0.3750
  248MPD1    C1 3759   0.497   3.956   1.232  0.1745  0.1860  0.1069
  248MPD1    C2 3760   0.503   4.028   1.112 -0.4027 -0.5441 -0.1529
  248MPD1    C3 3761   0.446   4.154   1.092  0.4218  0.7317 -0.5526
  248MPD1    C4 3762   0.357   4.194   1.185 -0.7482  0.5402  0.4458
  248MPD1    C5 3763   0.350   4.125   1.304  0.9310  0.1619  0.3576
  248MPD1     H 3764   0.560   3.984   1.031  1.3101 -1.7216  1.7061
  248MPD1    H1 3765   0.292   4.281   1.185 -2.6188 -0.8577  0.2975
  248MPD1    H2 3766   0.396   3.960   1.420  0.2608  1.0970  1.2183
  248MPD1    H3 3767   0.294   4.177   1.380 -1.2576 -0.0697 -1.0888
  248MPD1     N 3768   0.482   4.220   0.975  0.5827  0.6610  0.0959
  248MPD1    H5 3769   0.536   4.172   0.904 -0.9780 -2.3625  0.9274
  248MPD1    N1 3770   0.551   3.825   1.247 -0.3541 -0.3380  0.0798
  248MPD1    H6 3771   0.634   3.807   1.191  1.3553  3.0551  1.5627
  248MPD1    H7 3772   0.572   3.791   1.341 -2.8640  0.2175  0.8427
  249MPD1     C 3773   1.201   3.922  10.195  0.0267  0.2429 -0.4962
  249MPD1    C1 3774   1.142   4.003  10.101 -0.5789 -0.7847 -0.0651
  249MPD1    C2 3775   1.213   4.122  10.084 -0.2107  0.3695 -0.0259
  249MPD1    C3 3776   1.314   4.161  10.167  0.5297  0.4221  0.2537
  249MPD1    C4 3777   1.377   4.072  10.246 -0.2838 -0.0629 -0.0912
  249MPD1    C5 3778   1.321   3.950  10.257  0.2928 -0.1905  0.4376
  249MPD1     H 3779   1.167   4.186  10.010 -1.0030 -1.0558 -0.7625
  249MPD1    H1 3780   1.466   4.091  10.306  0.6092 -0.4647 -1.2804
  249MPD1    H2 3781   1.157   3.823  10.205 -2.4927  1.6041  1.6768
  249MPD1    H3 3782   1.357   3.877  10.328  3.1492  0.5454 -0.2381
  249MPD1     N 3783   1.353   4.297  10.147  0.1792 -0.0782 -0.1827
  249MPD1    H5 3784   1.305   4.352  10.076 -0.7822  0.1139  0.6207
  249MPD1    N1 3785   1.033   3.954  10.025  0.2887  0.0236 -1.1567
  249MPD1    H6 3786   0.975   4.032   9.995  1.0584  1.2228  0.5228
  249MPD1    H7 3787   0.979   3.878  10.066  1.7835 -0.1839  0.4253
  250MPD2     C 3788   3.038   4.510  13.247  0.1673  0.2410 -0.5266
  250MPD2    C1 3789   2.916   4.575  13.250 -0.0027  0.5042 -0.1864
  250MPD2    C2 3790   2.799   4.499  13.251 -0.0815 -0.6377  0.3158
  250MPD2    C3 3791   2.814   4.364  13.220  0.7737 -0.1112  0.4747
  250MPD2    C4 3792   2.936   4.306  13.224  0.0726  0.4017  0.4200
  250MPD2    C5 3793   3.045   4.374  13.240 -0.0562 -0.6154 -0.1422
  250MPD2     H 3794   2.704   4.550  13.247  0.1324 -0.4431 -2.3950
  250MPD2    H1 3795   2.950   4.200  13.204 -1.5639  0.4698 -1.1049
  250MPD2    H2 3796   3.131   4.566  13.255  0.3480 -0.4621  2.1139
  250MPD2    H3 3797   3.133   4.314  13.220  0.3745 -0.5464  1.4842
  250MPD2     N 3798   2.705   4.274  13.203 -0.3563  0.0782 -0.0832
  250MPD2    H5 3799   2.729   4.175  13.197  0.1587  0.1869  0.1518
  250MPD2    N1 3800   2.920   4.712  13.267 -0.2138  0.0270 -0.3798
  250MPD2    H7 3801   3.008   0.031  13.239  0.2846 -1.1713 -0.5930
  251TMC3    C1 3802   2.845   0.199  13.234 -0.3463  0.4367 -0.2655
  251TMC3    C2 3803   2.820   0.307  13.309 -0.5630  0.3378 -0.0467
  251TMC3    C3 3804   2.838   0.433  13.256  0.0896  0.4748  0.5190
  251TMC3    C4 3805   2.894   0.219  13.107 -0.0109  0.6521  0.1730
  251TMC3    C5 3806   2.911   0.345  13.054  0.6661 -1.1112  0.0037
  251TMC3    C6 3807   2.875   0.460  13.128  0.1611 -0.1114  0.1914
  251TMC3     C 3808   2.818   0.071  13.285  0.6167 -0.0580  0.1157
  251TMC3     O 3809   2.722   0.054  13.358  0.1291 -0.4890 -0.3026
  251TMC3     H 3810   2.798   0.299  13.415  1.0625  0.3785  0.2928
  251TMC3    H1 3811   2.912   0.128  13.051  2.4176  2.0206 -1.2715
  251TMC3    H2 3812   2.890   0.558  13.083  0.1057  0.3337  1.1594
  251TMC3    C7 3813   3.006   0.359  12.942  0.0499  0.1450  0.3970
  251TMC3    C8 3814   2.805   0.542  13.343 -0.2547  0.4897  0.4441
  251TMC3    O1 3815   2.998   0.460  12.874  0.0291  0.4863 -0.3780
  251TMC3    O2 3816   2.814   0.528  13.470 -0.9692  0.1362  0.5883
  252TMC3    C1 3817   3.558   0.834   9.432  0.2843  0.4045 -0.0905
  252TMC3    C2 3818   3.660   0.911   9.478  0.3818  0.6068 -0.2326
  252TMC3    C3 3819   3.786   0.872   9.439 -0.6836  0.7907  0.0696
  252TMC3    C4 3820   3.568   0.730   9.345 -0.5505 -0.1651 -0.8401
  252TMC3    C5 3821   3.692   0.701   9.315 -0.0059  0.4603 -0.3157
  252TMC3    C6 3822   3.807   0.767   9.360 -0.1620  0.2502  0.2040
  252TMC3     C 3823   3.431   0.901   9.412 -0.0222  0.2174 -0.3085
  252TMC3     O 3824   3.330   0.826   9.404 -0.4343 -0.2425  0.0072
  252TMC3     H 3825   3.643   1.001   9.536  1.6609 -0.0150  1.1088
  252TMC3    H1 3826   3.486   0.672   9.305 -1.0535  2.4474 -3.5865
  252TMC3    H2 3827   3.911   0.744   9.342 -0.3619  2.0241 -3.1317
  252TMC3    C7 3828   3.719   0.583   9.251  0.0459  0.2122 -0.3000
  252TMC3    C8 3829   3.895   0.964   9.459 -0.1402 -0.4395  0.1149
  252TMC3    O1 3830   3.822   0.565   9.184 -0.2956 -0.3784 -0.3929
  252TMC3    O2 3831   3.989   0.955   9.383  0.3473 -0.3326  0.2414
  253MPD2     C 3832   0.019   0.077  15.031  0.3193 -0.3559  0.0140
  253MPD2    C1 3833   4.612   0.033  15.047  0.5116  0.1748 -0.0807
  253MPD2    C2 3834   4.585   4.638  15.121 -0.3589 -0.2927 -0.3479
  253MPD2    C3 3835   4.693   4.562  15.182 -0.4580 -0.2510  0.0803
  253MPD2    C4 3836   0.103   4.606  15.159  1.1103 -0.0039 -0.8783
  253MPD2    C5 3837   0.122   4.721  15.086 -0.0413 -0.1459  0.1938
  253MPD2     H 3838   4.482   4.610  15.137 -0.5997  0.4293 -0.6099
  253MPD2    H1 3839   0.188   4.550  15.195 -0.6798 -0.4095  2.6977
  253MPD2    H2 3840   0.043   0.163  14.969 -1.9110 -2.1095 -3.2267
  253MPD2    H3 3841   0.223   0.035  15.076  0.5118 -1.7593 -0.1058
  253MPD2     N 3842   4.666   4.460  15.278  0.2766 -0.3734  0.5325
  253MPD2    H5 3843   0.025   4.429  15.332 -1.2436 -2.1864  1.7695
  253MPD2    N1 3844   4.497   0.101  15.006 -0.5365  0.6919  0.2445
  253MPD2    H7 3845   4.404   0.063  15.021 -0.7365  1.6897  1.5816
  254TMC3    C1 3846   4.546   4.333  15.437 -0.2162  0.2112 -0.3119
  254TMC3    C2 3847   4.418   4.311  15.482  0.1181 -0.7415  0.0500
  254TMC3    C3 3848   4.408   4.253  15.608 -1.1520  0.3531  0.4099
  254TMC3    C4 3849   4.663   4.306  15.508  0.1010 -0.3619 -0.6911
  254TMC3    C5 3850   4.641   4.258  15.638  0.3780 -0.0654 -0.1562
  254TMC3    C6 3851   4.516   4.235  15.689 -1.3053  0.1062 -0.0424
  254TMC3     C 3852   4.544   4.413  15.316  0.0398 -0.3919 -0.3422
  254TMC3     O 3853   4.430   4.439  15.278 -0.0258 -0.3777  0.2295
  254TMC3     H 3854   4.328   4.322  15.423  1.4007  0.8485 -1.6008
  254TMC3    H1 3855   0.037   4.328  15.464  1.5345 -2.2565  1.4781
  254TMC3    H2 3856   4.506   4.194  15.789  0.7114 -0.8999 -0.2560
  254TMC3    C7 3857   0.026   4.220  15.726 -0.2053  0.2564  0.2936
  254TMC3    C8 3858   4.286   4.289  15.682 -0.2621 -0.7862  0.3862
  254TMC3    O1 3859   0.004   4.113  15.779  0.6485  0.2423 -0.0381
  254TMC3    O2 3860   4.306   4.309  15.800 -0.0046  0.2520 -0.0069
  255MPD2     C 3861   2.261   2.139  10.720 -0.2032 -0.8805 -0.0373
  255MPD2    C1 3862   2.299   2.269  10.709  0.0690  0.4392  0.4707
  255MPD2    C2 3863   2.430   2.306  10.702 -0.7114 -0.3430  0.6939
  255MPD2    C3 3864   2.527   2.204  10.701 -0.1846  0.1686  1.2982
  255MPD2    C4 3865   2.490   2.073  10.690  0.4129 -1.0085  0.2696
  255MPD2    C5 3866   2.354   2.040  10.704  0.0934 -0.4868 -0.4470
  255MPD2     H 3867   2.459   2.410  10.694 -1.0343 -0.2960  0.1183
  255MPD2    H1 3868   2.564   1.995  10.670  0.4843 -0.5075 -1.3889
  255MPD2    H2 3869   2.157   2.111  10.715 -0.6654  0.9120 -0.5083
  255MPD2    H3 3870   2.320   1.937  10.703  0.5068 -0.6216 -0.6668
  255MPD2     N 3871   2.663   2.242  10.693 -0.3812  0.2764 -0.2522
  255MPD2    H5 3872   2.685   2.340  10.709  0.3876 -0.0016  0.3543
  255MPD2    N1 3873   2.199   2.370  10.699  0.3075  0.1148 -0.8728
  255MPD2    H7 3874   2.106   2.335  10.678  0.4139  0.4428 -1.8525
  256TMC3    C1 3875   2.150   2.585  10.616 -0.1311 -0.1225  0.6351
  256TMC3    C2 3876   2.218   2.692  10.572 -0.5354 -0.3855  0.2439
  256TMC3    C3 3877   2.200   2.737  10.447 -0.3575 -0.3605  0.4170
  256TMC3    C4 3878   2.057   2.529  10.535 -1.0580 -0.4863  0.1637
  256TMC3    C5 3879   2.027   2.590  10.418 -0.1594 -0.1794  0.4868
  256TMC3    C6 3880   2.101   2.692  10.368  0.1205 -0.0624 -0.2144
  256TMC3     C 3881   2.226   2.504  10.709 -0.7448  0.0370  0.5145
  256TMC3     O 3882   2.307   2.549  10.791 -0.4109  0.3939 -0.8401
  256TMC3     H 3883   2.280   2.752  10.638  0.3885  0.3844 -1.3267
  256TMC3    H1 3884   2.013   2.431  10.553 -0.6391 -0.6401  0.3382
  256TMC3    H2 3885   2.081   2.740  10.273  0.7926  1.4566  0.4143
  256TMC3    C7 3886   1.962   2.502  10.316 -0.0804 -0.3806  0.8159
  256TMC3    C8 3887   2.325   2.745  10.389 -0.4228 -0.4888 -0.3601
  256TMC3    O1 3888   1.938   2.384  10.349  0.3735  0.0252 -0.2428
  256TMC3    O2 3889   2.424   2.721  10.465 -0.1682  0.0734 -0.3401
  257MPD2     C 3890   2.002   0.237  13.382 -0.7473  0.2538 -0.7506
  257MPD2    C1 3891   1.881   0.185  13.339  0.8677 -0.6295 -0.0263
  257MPD2    C2 3892   1.834   0.074  13.411  0.2802  0.4400  0.3010
  257MPD2    C3 3893   1.901   0.037  13.531 -0.0125 -0.7262  0.1848
  257MPD2    C4 3894   2.007   0.109  13.579  0.9019  0.5120 -0.1976
  257MPD2    C5 3895   2.065   0.197  13.496 -0.2814  0.0741 -0.3295
  257MPD2     H 3896   1.741   0.027  13.381 -0.0259  1.7262 -0.7666
  257MPD2    H1 3897   2.062   0.081  13.668  0.1597 -2.4297 -0.6422
  257MPD2    H2 3898   2.051   0.309  13.317  1.9720  0.2774  1.2898
  257MPD2    H3 3899   2.156   0.247  13.527 -0.1295 -1.7468  2.1819
  257MPD2     N 3900   1.832   4.657  13.603 -0.0777 -0.4992  0.4189
  257MPD2    H5 3901   1.762   4.606  13.550  0.9832 -1.3689 -0.1437
  257MPD2    N1 3902   1.822   0.251  13.228  0.3069  0.5709  0.5116
  257MPD2    H7 3903   1.881   0.327  13.195  1.1478 -0.6725 -0.8170
  258TMC3    C1 3904   1.788   4.492  13.786 -0.5220 -0.1359 -1.0978
  258TMC3    C2 3905   1.691   4.441  13.706 -0.1581 -0.5836 -0.4740
  258TMC3    C3 3906   1.635   4.323  13.750  0.1545  0.1603 -0.3478
  258TMC3    C4 3907   1.832   4.438  13.902  0.5081  0.4552  0.1168
  258TMC3    C5 3908   1.776   4.318  13.934 -0.0074  1.7861 -0.0931
  258TMC3    C6 3909   1.677   4.254  13.862  0.4944 -0.3159 -0.3040
  258TMC3     C 3910   1.862   4.610  13.729 -0.6136  0.0515  0.5182
  258TMC3     O 3911   1.948   4.654  13.807  0.2994 -0.0491 -0.2052
  258TMC3     H 3912   1.633   4.506  13.641  0.1157  1.9409  1.8179
  258TMC3    H1 3913   1.902   4.497  13.959  3.1434 -1.0758 -1.5797
  258TMC3    H2 3914   1.646   4.154  13.889  1.1779 -0.5954 -0.5553
  258TMC3    C7 3915   1.831   4.262  14.056  0.1269  0.0677  0.6209
  258TMC3    C8 3916   1.509   4.270  13.696 -0.7077  0.0253 -0.2952
  258TMC3    O1 3917   1.902   4.336  14.122  0.0417  0.2627  0.2917
  258TMC3    O2 3918   1.448   4.188  13.770 -0.2027 -0.0147 -0.5528
  259MPD2     C 3919   0.670   1.251   1.589  0.1074 -0.4673  0.4802
  259MPD2    C1 3920   0.741   1.133   1.571 -0.2935  0.4786  0.4269
  259MPD2    C2 3921   0.748   1.085   1.445  0.0716 -0.4665  0.1540
  259MPD2    C3 3922   0.680   1.140   1.338 -0.6576  0.3544  0.1592
  259MPD2    C4 3923   0.615   1.263   1.364  0.0383  0.0207  0.3228
  259MPD2    C5 3924   0.612   1.319   1.490  0.8272 -0.3158 -0.1234
  259MPD2     H 3925   0.783   0.986   1.420  0.9666  0.2017 -1.2047
  259MPD2    H1 3926   0.556   1.318   1.292 -1.2208  0.0881  1.4101
  259MPD2    H2 3927   0.650   1.281   1.691  0.8869 -0.8997  0.7698
  259MPD2    H3 3928   0.553   1.409   1.505  0.3674 -0.4540 -1.1056
  259MPD2     N 3929   0.690   1.078   1.212 -0.8226 -0.5176 -0.6595
  259MPD2    H5 3930   0.724   0.982   1.216  2.0488  0.4721 -1.1595
  259MPD2    N1 3931   0.799   1.058   1.674  0.0795 -0.2901  0.7876
  259MPD2    H7 3932   0.784   1.085   1.771  0.7131  0.0241  0.8002
  260TMC3    C1 3933   0.649   1.050   0.985 -0.3283  1.0314  0.1013
  260TMC3    C2 3934   0.672   1.101   0.861 -0.1499 -0.0475 -0.5851
  260TMC3    C3 3935   0.716   1.009   0.768  0.2086  0.0282  0.5351
  260TMC3    C4 3936   0.657   0.913   1.015 -0.4091  0.3861 -0.3338
  260TMC3    C5 3937   0.707   0.835   0.919 -0.6043  0.8391 -0.6041
  260TMC3    C6 3938   0.740   0.876   0.797 -0.1824 -0.5642  0.3557
  260TMC3     C 3939   0.654   1.141   1.100 -1.2898 -0.5022 -0.6470
  260TMC3     O 3940   0.639   1.257   1.067 -0.5116  0.6573  0.3041
  260TMC3     H 3941   0.667   1.205   0.832 -2.2654 -0.3586 -1.3947
  260TMC3    H1 3942   0.624   0.872   1.110  1.1608 -1.1575 -0.4667
  260TMC3    H2 3943   0.769   0.794   0.732 -0.0492  0.8704 -1.4225
  260TMC3    C7 3944   0.682   0.691   0.927 -0.1410 -0.2783 -0.4311
  260TMC3    C8 3945   0.766   1.068   0.641 -0.2421 -0.9490  0.1347
  260TMC3    O1 3946   0.659   0.636   0.821 -0.3362 -0.2853 -0.3762
  260TMC3    O2 3947   0.725   1.181   0.608  0.3027 -0.4732 -0.1410
  261MPD2     C 3948   2.049   4.393  12.830  0.2005  0.5902 -0.0071
  261MPD2    C1 3949   2.185   4.385  12.832  0.6892  0.1785  0.0597
  261MPD2    C2 3950   2.263   4.486  12.782 -0.3187 -1.1877  0.2426
  261MPD2    C3 3951   2.203   4.596  12.723  0.0148 -0.0773 -0.7218
  261MPD2    C4 3952   2.067   4.601  12.704 -0.2041 -0.1369  0.3340
  261MPD2    C5 3953   1.993   4.501  12.764  0.5977 -0.5841 -0.4482
  261MPD2     H 3954   2.371   4.478  12.783 -0.2056  0.2669 -1.1332
  261MPD2    H1 3955   2.021   4.675  12.639 -3.1558 -1.7690  0.5775
  261MPD2    H2 3956   1.985   4.321  12.880  0.7317 -0.0039 -0.1819
  261MPD2    H3 3957   1.886   4.493  12.747  0.4666 -0.1999  0.1984
  261MPD2     N 3958   2.295   4.694  12.683  0.1466 -0.6239 -0.2600
  261MPD2    H5 3959   2.390   4.664  12.698  0.3802 -0.0878 -0.6724
  261MPD2    N1 3960   2.245   4.276  12.888  0.2090  0.1795 -0.6514
  261MPD2    H7 3961   2.343   4.266  12.864 -0.0957 -1.1176 -1.3844
  262TMC3    C1 3962   2.393   0.153  12.569 -0.2285  0.1153  0.3644
  262TMC3    C2 3963   2.370   0.271  12.505 -0.5922 -0.2324  0.3211
  262TMC3    C3 3964   2.460   0.306  12.405 -0.2099  1.1268  0.3536
  262TMC3    C4 3965   2.499   0.068  12.529 -0.1132  0.5015  0.6691
  262TMC3    C5 3966   2.575   0.104  12.419 -0.0968  0.8448  0.2236
  262TMC3    C6 3967   2.573   0.234  12.372  0.7085  0.1160 -0.3007
  262TMC3     C 3968   2.272   0.088  12.618  0.4775  0.1095 -0.3912
  262TMC3     O 3969   2.167   0.140  12.592  0.7042 -0.5997 -0.3926
  262TMC3     H 3970   2.288   0.336  12.535  0.4585  1.0399  0.4577
  262TMC3    H1 3971   2.516   4.696  12.579 -0.5012 -0.4051 -0.8805
  262TMC3    H2 3972   2.637   0.263  12.290  1.4222 -4.4438 -1.3591
  262TMC3    C7 3973   2.595   4.721  12.318 -0.0361  0.3944 -0.1833
  262TMC3    C8 3974   2.441   0.426  12.332 -0.1892 -0.2692 -0.3209
  262TMC3    O1 3975   2.548   4.623  12.368  0.0456  0.1535 -0.9918
  262TMC3    O2 3976   2.530   0.465  12.260 -0.0348  0.3937 -0.0668
  263MPD2     C 3977   3.398   3.797  11.556  0.0751  0.0028  0.1263
  263MPD2    C1 3978   3.458   3.721  11.463  0.5256  0.9722  0.1030
  263MPD2    C2 3979   3.469   3.771  11.332  0.4759  0.2953 -0.4410
  263MPD2    C3 3980   3.414   3.887  11.295  0.6495 -0.1817  0.1137
  263MPD2    C4 3981   3.339   3.958  11.391 -0.4546 -0.6993 -0.3971
  263MPD2    C5 3982   3.337   3.911  11.516 -0.2105 -0.2802 -0.2338
  263MPD2     H 3983   3.527   3.724  11.253 -0.8338 -1.5010 -0.3046
  263MPD2    H1 3984   3.279   4.045  11.368 -0.2122 -1.5781 -4.3701
  263MPD2    H2 3985   3.384   3.755  11.655 -0.6621  1.0934  0.4796
  263MPD2    H3 3986   3.263   3.952  11.584  0.3411  2.0360 -1.0257
  263MPD2     N 3987   3.418   3.925  11.160 -0.0764  0.1699  0.3928
  263MPD2    H5 3988   3.460   3.857  11.097 -1.4406 -0.6838  0.3961
  263MPD2    N1 3989   3.505   3.596  11.505 -0.4255  0.1082 -0.1077
  263MPD2    H7 3990   3.518   3.590  11.606  0.5774 -0.5155 -0.2837
  264TMC3    C1 3991   3.363   4.057  10.958  0.2636 -0.1434 -0.4884
  264TMC3    C2 3992   3.303   4.168  10.921 -0.0140 -0.2532 -0.2396
  264TMC3    C3 3993   3.323   4.209  10.793  0.1022  0.1381 -0.0870
  264TMC3    C4 3994   3.438   3.975  10.879  0.2708  0.3810  0.0063
  264TMC3    C5 3995   3.461   4.021  10.753  0.5400 -0.5364  0.6967
  264TMC3    C6 3996   3.398   4.138  10.703 -0.1720 -0.0495 -0.5244
  264TMC3     C 3997   3.374   4.044  11.107 -0.3786  0.6273  0.2280
  264TMC3     O 3998   3.331   4.141  11.169 -0.1757 -0.6219  0.1570
  264TMC3     H 3999   3.247   4.234  10.985 -0.4332  0.8385 -1.7269
  264TMC3    H1 4000   3.496   3.891  10.917  0.1466  0.9480  1.4674
  264TMC3    H2 4001   3.399   4.162  10.597  2.8636 -0.5285 -0.5997
  264TMC3    C7 4002   3.604   4.016  10.718  0.7395  0.4312  0.2010
  264TMC3    C8 4003   3.393   4.337  10.797  0.3694  0.7042 -0.4505
  264TMC3    O1 4004   3.666   3.916  10.751 -0.4519 -0.2753  0.2893
  264TMC3    O2 4005   3.480   4.351  10.710 -0.2997  0.3095 -0.5467
  265MPD2     C 4006   1.252   4.315  15.324  0.0266  0.2420 -0.1395
  265MPD2    C1 4007   1.126   4.289  15.266 -0.8446  0.2929 -0.3452
  265MPD2    C2 4008   1.132   4.240  15.134 -0.3586  0.4368  0.3589
  265MPD2    C3 4009   1.253   4.220  15.066  0.3991 -0.2209 -0.1240
  265MPD2    C4 4010   1.368   4.262  15.125 -0.5216  0.0981  0.0571
  265MPD2    C5 4011   1.371   4.307  15.252  0.0726  0.1434 -0.4292
  265MPD2     H 4012   1.036   4.236  15.083  1.4901 -3.4891 -2.8174
  265MPD2    H1 4013   1.463   4.252  15.074 -0.9653 -0.6365 -0.6211
  265MPD2    H2 4014   1.259   4.354  15.425  3.2500 -1.4479  0.2864
  265MPD2    H3 4015   1.461   4.331  15.307  0.8238  1.3746 -2.2295
  265MPD2     N 4016   1.268   4.177  14.934 -0.5787  0.5455  0.3384
  265MPD2    H5 4017   1.357   4.179  14.886 -0.3443  1.3188  0.8135
  265MPD2    N1 4018   1.001   4.315  15.333 -0.0555  0.2121 -0.5290
  265MPD2    H7 4019   0.914   4.324  15.282 -1.1154 -1.0568  1.0604
  266TMC3    C1 4020   0.864   4.360  15.520  0.2425 -0.7559  0.2734
  266TMC3    C2 4021   0.852   4.350  15.656 -0.6636  0.3695  0.2552
  266TMC3    C3 4022   0.746   4.415  15.726 -0.2620 -0.5249 -0.1534
  266TMC3    C4 4023   0.772   4.431  15.442  0.0121  0.5738 -0.0372
  266TMC3    C5 4024   0.671   4.493  15.517 -0.3576  0.2675  1.1253
  266TMC3    C6 4025   0.653   4.490  15.654  0.0543 -0.1453 -0.5262
  266TMC3     C 4026   0.992   4.328  15.470 -0.6538  0.4632  0.1210
  266TMC3     O 4027   1.083   4.315  15.549 -0.9953 -0.1757 -0.0167
  266TMC3     H 4028   0.931   4.312  15.720 -1.2324 -1.9048 -0.3847
  266TMC3    H1 4029   0.800   4.463  15.343 -0.5930  1.9354  0.2411
  266TMC3    H2 4030   0.566   4.531  15.704 -2.7459 -1.6447 -4.1928
  266TMC3    C7 4031   0.561   4.563  15.448 -0.3129  0.2454  0.4975
  266TMC3    C8 4032   0.747   4.401  15.872 -0.6297  0.6380  0.9329
  266TMC3    O1 4033   0.464   4.595  15.519 -0.3017 -0.3500  0.2694
  266TMC3    O2 4034   0.815   4.308  15.906 -0.0292 -0.1742 -0.1078
  267MPD2     C 4035   3.859   0.316   0.236 -0.1028  0.2117 -0.1117
  267MPD2    C1 4036   3.848   0.450   0.208 -0.3638 -0.8592 -0.1800
  267MPD2    C2 4037   3.721   0.485   0.156 -1.0460  0.0053  0.8742
  267MPD2    C3 4038   3.627   0.390   0.126  0.6863  0.3286 -0.8829
  267MPD2    C4 4039   3.643   0.259   0.160  0.4256 -0.1687  0.4888
  267MPD2    C5 4040   3.756   0.222   0.219 -0.5546 -0.4105 -0.5889
  267MPD2     H 4041   3.699   0.589   0.135 -4.0936 -1.4459 -2.8892
  267MPD2    H1 4042   3.563   0.189   0.136  1.2018 -1.7488  2.4749
  267MPD2    H2 4043   3.949   0.275   0.282 -0.7735 -0.4032  0.6588
  267MPD2    H3 4044   3.770   0.117   0.242  0.5546 -0.0518  0.3572
  267MPD2     N 4045   3.505   0.417   0.055 -0.2371  0.6429 -0.1199
  267MPD2    H5 4046   3.444   0.337   0.049  0.5395 -0.0918  1.7284
  267MPD2    N1 4047   3.949   0.547   0.246 -0.3539  0.6554 -0.0141
  267MPD2    H7 4048   4.040   0.509   0.272 -1.7968 -1.4923  1.8874
  268TMC3    C1 4049   4.068   0.746   0.260 -0.3732 -0.1042 -0.0816
  268TMC3    C2 4050   4.088   0.867   0.204 -0.0224  0.0645 -0.5166
  268TMC3    C3 4051   4.183   0.942   0.265 -0.3205  0.1050  0.4794
  268TMC3    C4 4052   4.150   0.699   0.365  0.2029 -0.6386 -0.1078
  268TMC3    C5 4053   4.246   0.777   0.419 -0.3787 -0.0028 -0.0759
  268TMC3    C6 4054   4.267   0.907   0.368  0.0100  0.0838  0.1449
  268TMC3     C 4055   3.945   0.682   0.226  0.2158 -0.3727 -0.3533
  268TMC3     O 4056   3.855   0.747   0.173  0.3870 -0.0916 -0.3842
  268TMC3     H 4057   4.016   0.906   0.132  0.8119  2.0041 -0.3103
  268TMC3    H1 4058   4.146   0.598   0.405  0.5313 -0.7724 -0.4224
  268TMC3    H2 4059   4.342   0.981   0.393 -0.1903 -0.1347  1.3935
  268TMC3    C7 4060   4.285   0.753   0.557  0.0320  0.4152 -0.0352
  268TMC3    C8 4061   4.177   1.078   0.233 -0.3179 -0.4435  0.3074
  268TMC3    O1 4062   4.275   0.636   0.601  0.4060  0.8316  0.0512
  268TMC3    O2 4063   4.214   1.150   0.320 -0.2623  0.1959 -0.0417
  269MPD2     C 4064   3.762   0.089  15.779 -0.0498  0.1078  0.3515
  269MPD2    C1 4065   3.622   0.107  15.766 -0.1304 -0.1673 -0.3974
  269MPD2    C2 4066   3.579   0.230  15.715 -0.1235 -0.2657 -0.4074
  269MPD2    C3 4067   3.668   0.325  15.677 -0.5476  0.1636  0.2902
  269MPD2    C4 4068   3.804   0.304  15.696  0.1188  0.2076 -0.3577
  269MPD2    C5 4069   3.851   0.187  15.747 -0.1437 -0.6049  0.6628
  269MPD2     H 4070   3.473   0.250  15.714  0.0872  0.7142 -1.7569
  269MPD2    H1 4071   3.874   0.385  15.676 -0.6042  0.2091 -2.8838
  269MPD2    H2 4072   3.811   4.719  15.807 -1.8351 -0.9018  0.1546
  269MPD2    H3 4073   3.955   0.166  15.767  0.3490  2.8268  1.8274
  269MPD2     N 4074   3.617   0.450  15.630  0.3652 -0.5048  0.4861
  269MPD2    H5 4075   3.516   0.458  15.626  0.1572 -2.4746  1.5260
  269MPD2    N1 4076   3.534   0.010  15.827  0.0638  0.7017  0.3058
  269MPD2    H7 4077   3.581   4.655  15.874 -1.8610 -0.0330  1.0284
  270TMC3    C1 4078   3.344   4.593  15.873 -0.6072 -0.2463 -0.2220
  270TMC3    C2 4079   3.210   4.590  15.884  0.2178 -0.1045  0.4208
  270TMC3    C3 4080   3.142   4.472  15.887 -0.2100  0.9631 -0.1283
  270TMC3    C4 4081   3.418   4.475  15.874  0.2244  0.0072 -0.7019
  270TMC3    C5 4082   3.349   4.355  15.882  1.0978 -0.3934  0.4187
  270TMC3    C6 4083   3.209   4.356  15.898  0.1656 -0.9000 -0.4495
  270TMC3     C 4084   3.397   0.002  15.823  0.0888  0.1692  0.9351
  270TMC3     O 4085   3.320   0.082  15.776 -0.5114 -0.2624 -0.2478
  270TMC3     H 4086   3.157   4.683  15.873 -0.3585 -0.2396  1.9590
  270TMC3    H1 4087   3.525   4.467  15.856  0.0087 -4.5077  0.1487
  270TMC3    H2 4088   3.154   4.262  15.893 -2.9307  0.8605  0.0302
  270TMC3    C7 4089   3.417   4.236  15.827 -0.0082  0.0112 -0.0388
  270TMC3    C8 4090   3.023   4.460  15.806 -0.2577 -0.1277 -0.0014
  270TMC3    O1 4091   3.517   4.250  15.757 -0.7126 -0.0583  0.5584
  270TMC3    O2 4092   2.914   4.486  15.855 -0.0685 -0.7724  0.8092
  271MPD2     C 4093   2.450   4.653  13.992  0.2364  0.2334 -0.2422
  271MPD2    C1 4094   2.458   0.013  14.101 -0.4092 -0.6146  0.0449
  271MPD2    C2 4095   2.412   0.147  14.088  0.2215  0.4158  0.4668
  271MPD2    C3 4096   2.358   0.186  13.969  0.5956 -0.4833 -0.2343
  271MPD2    C4 4097   2.362   0.103  13.853  0.0993  0.7459 -0.1872
  271MPD2    C5 4098   2.405   4.696  13.870  0.4631  0.1730  0.1976
  271MPD2     H 4099   2.424   0.214  14.172 -0.5834  1.1879 -0.0241
  271MPD2    H1 4100   2.307   0.123  13.761  1.6870 -0.1555 -1.3275
  271MPD2    H2 4101   2.492   4.553  13.988  0.0409  0.1073  0.7850
  271MPD2    H3 4102   2.416   4.632  13.783  2.4765 -1.5810  1.7502
  271MPD2     N 4103   2.315   0.316  13.940  0.0194 -0.0500  0.5584
  271MPD2    H5 4104   2.257   0.313  13.857  0.3710 -1.1000  0.3518
  271MPD2    N1 4105   2.517   4.693  14.223 -0.3642 -0.6466  0.3749
  271MPD2    H7 4106   2.516   0.046  14.291 -1.2815  1.2463 -1.7373
  272TMC3    C1 4107   2.654   4.579  14.365 -0.5588  0.6127 -0.0041
  272TMC3    C2 4108   2.766   4.499  14.367  0.0757 -0.9675 -0.1678
  272TMC3    C3 4109   2.825   4.468  14.487 -0.4193  0.1943 -0.0480
  272TMC3    C4 4110   2.610   4.656  14.473  0.0822 -0.4158  0.1760
  272TMC3    C5 4111   2.684   4.629  14.588 -0.0459  0.2501  0.3223
  272TMC3    C6 4112   2.778   4.528  14.601 -0.0528  0.2957  0.3299
  272TMC3     C 4113   2.582   4.575  14.239  0.4740  0.3553 -0.1621
  272TMC3     O 4114   2.593   4.471  14.176 -0.1479 -0.6096 -0.2362
  272TMC3     H 4115   2.806   4.478  14.268  0.3888 -0.4673 -0.1496
  272TMC3    H1 4116   2.537   0.013  14.460 -0.6732 -0.9442  1.2055
  272TMC3    H2 4117   2.837   4.520  14.692  0.3090 -0.3279  0.0408
  272TMC3    C7 4118   2.648   4.720  14.702  0.0978  0.5679  0.5279
  272TMC3    C8 4119   2.958   4.418  14.483 -0.0789  0.0231 -0.5578
  272TMC3    O1 4120   2.547   0.062  14.694  0.7560 -0.2256  0.1300
  272TMC3    O2 4121   3.018   4.433  14.377  0.0197  0.0412  0.0613
  273MPD2     C 4122   3.478   2.955  11.722  0.5966  0.3170  0.5123
  273MPD2    C1 4123   3.604   2.897  11.711 -0.7766  0.4501 -0.3192
  273MPD2    C2 4124   3.631   2.819  11.599 -0.4995  0.3048 -0.4118
  273MPD2    C3 4125   3.538   2.788  11.501  0.0008  0.4332 -0.1088
  273MPD2    C4 4126   3.414   2.836  11.522  0.5064 -0.6646  0.4254
  273MPD2    C5 4127   3.392   2.919  11.627 -0.1480  0.5564 -0.2697
  273MPD2     H 4128   3.733   2.790  11.575 -0.7690  1.4472 -2.8526
  273MPD2    H1 4129   3.334   2.830  11.449  1.2443  0.4630 -0.4680
  273MPD2    H2 4130   3.443   3.012  11.807  1.0625  1.2538  0.0742
  273MPD2    H3 4131   3.289   2.948  11.644 -0.3895 -0.4671 -0.0004
  273MPD2     N 4132   3.578   2.719  11.385 -0.7122  0.3291  0.0449
  273MPD2    H5 4133   3.517   2.727  11.304 -1.1019  1.2260  0.4163
  273MPD2    N1 4134   3.707   2.946  11.797 -0.3931 -0.1961 -0.4039
  273MPD2    H7 4135   3.666   3.004  11.870 -0.4219  1.4603 -1.7225
  274TMC3    C1 4136   3.724   2.617  11.232  0.5098  0.1367  0.2213
  274TMC3    C2 4137   3.621   2.625  11.138  0.0665 -0.3750  0.4119
  274TMC3    C3 4138   3.648   2.646  11.006 -0.0864 -0.0664 -0.7170
  274TMC3    C4 4139   3.849   2.658  11.202  0.3293  0.4348  0.3448
  274TMC3    C5 4140   3.871   2.690  11.073  0.2558 -0.2050  0.2920
  274TMC3    C6 4141   3.777   2.683  10.971 -0.3553  0.5481  0.1068
  274TMC3     C 4142   3.693   2.649  11.374 -0.4557 -0.1386 -0.2565
  274TMC3     O 4143   3.781   2.606  11.447  0.1486  0.4618 -0.0532
  274TMC3     H 4144   3.523   2.590  11.168 -0.5469 -0.1844 -1.4048
  274TMC3    H1 4145   3.925   2.654  11.279  1.3211 -0.2947 -0.6638
  274TMC3    H2 4146   3.789   2.727  10.873  0.7263  0.0538  0.0174
  274TMC3    C7 4147   3.999   2.749  11.030  0.5123 -0.4195 -0.4088
  274TMC3    C8 4148   3.542   2.646  10.910 -0.2213  0.0874  0.5624
  274TMC3    O1 4149   4.022   2.733  10.912 -0.5247  0.4203  0.1209
  274TMC3    O2 4150   3.425   2.642  10.962  0.5594 -0.0310 -0.4154
  275MPD2     C 4151   3.929   1.158  14.479 -0.0794 -0.6507  0.3549
  275MPD2    C1 4152   3.907   1.102  14.608 -0.2051  0.1215  0.3280
  275MPD2    C2 4153   3.799   1.018  14.614  0.4026 -0.6368  0.0072
  275MPD2    C3 4154   3.715   0.992  14.511 -0.7001 -1.0185  0.1997
  275MPD2    C4 4155   3.730   1.060  14.394  0.2047  0.1317  0.4022
  275MPD2    C5 4156   3.838   1.137  14.377 -0.1066  0.1470 -0.4838
  275MPD2     H 4157   3.778   0.973  14.711 -0.7673 -1.2984 -0.5453
  275MPD2    H1 4158   3.659   1.069  14.314  1.3306  1.9988 -0.3809
  275MPD2    H2 4159   4.019   1.217  14.471 -2.1202  2.2402 -1.3542
  275MPD2    H3 4160   3.855   1.192  14.285 -0.2164 -0.8625 -1.1068
  275MPD2     N 4161   3.591   0.916  14.533  0.4269  0.3628  0.2012
  275MPD2    H5 4162   3.522   0.917  14.458  0.2587 -2.9904  0.3139
  275MPD2    N1 4163   3.975   1.144  14.721  0.2270  0.5294  0.3169
  275MPD2    H7 4164   3.958   1.095  14.809 -0.8352 -0.4962 -0.4607
  276TMC3    C1 4165   4.123   1.252  14.875 -0.2849 -0.1053 -0.8258
  276TMC3    C2 4166   4.039   1.227  14.982 -0.2566 -0.1290 -0.4970
  276TMC3    C3 4167   4.056   1.278  15.108 -0.1177  0.3776  0.7933
  276TMC3    C4 4168   4.226   1.343  14.900  0.4151  0.7280  0.3180
  276TMC3    C5 4169   4.241   1.390  15.029  0.7028 -0.5375 -0.4482
  276TMC3    C6 4170   4.158   1.361  15.134  0.1367  0.2712  0.0780
  276TMC3     C 4171   4.083   1.228  14.733  0.8012  0.2163 -0.9856
  276TMC3     O 4172   4.135   1.299  14.644  0.2025  0.1590  0.2949
  276TMC3     H 4173   3.951   1.167  14.963 -1.4678  1.4972  0.0342
  276TMC3    H1 4174   4.306   1.367  14.831 -0.3921  0.9858 -0.5273
  276TMC3    H2 4175   4.187   1.389  15.235 -1.4869  4.7506 -0.7104
  276TMC3    C7 4176   4.369   1.377  15.086 -0.7466 -0.1975  0.1868
  276TMC3    C8 4177   4.049   1.174  15.212  0.2795 -0.2948  0.2527
  276TMC3    O1 4178   4.405   1.460  15.169 -0.9507 -0.0544  0.7009
  276TMC3    O2 4179   4.048   1.221  15.328  0.5325 -0.8825 -0.2856
  277MPD2     C 4180   0.758   0.197  13.268 -0.4804 -0.0581 -0.7435
  277MPD2    C1 4181   0.672   0.279  13.340 -0.3314  0.4827  0.2103
  277MPD2    C2 4182   0.595   0.223  13.434  0.0600 -0.3594 -0.3405
  277MPD2    C3 4183   0.590   0.088  13.445  0.8478 -0.7081  0.0384
  277MPD2    C4 4184   0.665   0.006  13.364 -0.0667 -0.5578  0.2849
  277MPD2    C5 4185   0.756   0.062  13.283 -0.2175  0.0913  0.4402
  277MPD2     H 4186   0.525   0.280  13.495  1.9184  1.1843  0.3274
  277MPD2    H1 4187   0.672   4.620  13.372  0.6623 -0.5742 -0.6277
  277MPD2    H2 4188   0.832   0.230  13.196  1.2829 -2.1409  0.1288
  277MPD2    H3 4189   0.829   0.001  13.231  0.9165 -0.0483  2.2160
  277MPD2     N 4190   0.499   0.028  13.542  0.2443 -0.3891 -0.3075
  277MPD2    H5 4191   0.438   0.097  13.585 -0.2249 -1.6109  0.9916
  277MPD2    N1 4192   0.686   0.414  13.318 -0.3647  0.3272  0.4685
  277MPD2    H7 4193   0.744   0.437  13.238 -0.3587  0.0904  0.4053
  278TMC3    C1 4194   0.377   4.581  13.661  0.4215 -0.1786  0.5056
  278TMC3    C2 4195   0.370   4.449  13.701  0.3316 -0.7919 -0.1869
  278TMC3    C3 4196   0.255   4.412  13.766 -0.2717 -0.0386  0.2734
  278TMC3    C4 4197   0.267   4.667  13.672  0.0549 -0.4792  0.0355
  278TMC3    C5 4198   0.151   4.611  13.729 -0.8325 -0.1651  0.2724
  278TMC3    C6 4199   0.140   4.483  13.778  0.1831  0.2295 -0.6527
  278TMC3     C 4200   0.494   4.620  13.581 -0.2210 -0.1023 -0.6690
  278TMC3     O 4201   0.571   4.525  13.552  0.0310  0.3207  0.2382
  278TMC3     H 4202   0.457   4.385  13.713  0.7279 -0.0573  0.8057
  278TMC3    H1 4203   0.261   0.046  13.633  0.6200 -0.5039 -0.1161
  278TMC3    H2 4204   0.059   4.439  13.835  0.8580 -1.7274 -1.1968
  278TMC3    C7 4205   0.025   4.688  13.716 -0.3420  0.9556  0.0920
  278TMC3    C8 4206   0.222   4.270  13.760 -0.0770 -0.1676 -0.3471
  278TMC3    O1 4207   0.027   0.072  13.656 -0.1191  0.3779 -0.4934
  278TMC3    O2 4208   0.201   4.216  13.870  0.3260 -0.9104  0.5481
  279MPD2     C 4209   0.182   3.749  17.652  0.1705 -0.0207 -0.1105
  279MPD2    C1 4210   0.114   3.845   0.040  0.4211 -0.8000  0.0407
  279MPD2    C2 4211   0.126   3.977   0.010 -0.5738 -0.4539  0.1731
  279MPD2    C3 4212   0.191   4.023  17.586 -0.5243  0.6798  0.4437
  279MPD2    C4 4213   0.241   3.926  17.499  0.2035  0.9051  0.5391
  279MPD2    C5 4214   0.245   3.792  17.538  0.0452 -0.4737 -0.7663
  279MPD2     H 4215   0.085   4.051   0.078  1.1247 -0.6873  1.4346
  279MPD2    H1 4216   0.289   3.953  17.406  0.3108  0.4189  0.4550
  279MPD2    H2 4217   0.178   3.646  17.687 -1.8713  0.3981  0.9142
  279MPD2    H3 4218   0.298   3.724  17.473 -0.5710 -0.6597 -1.0736
  279MPD2     N 4219   0.197   4.155  17.541 -0.2746 -0.1879  0.3016
  279MPD2    H5 4220   0.243   4.180  17.453 -2.3424 -0.7610 -0.9395
  279MPD2    N1 4221   0.030   3.801   0.145 -0.1729  0.1980  0.7542
  279MPD2    H7 4222   0.030   3.703   0.170  3.3463  0.3887  1.4080
  280TMC3    C1 4223   4.584   3.809   0.299  0.0426  0.5764  0.1622
  280TMC3    C2 4224   4.658   3.749   0.401  0.4295  0.5718 -0.1571
  280TMC3    C3 4225   4.601   3.748   0.523 -0.2183  0.2789 -0.0053
  280TMC3    C4 4226   4.468   3.876   0.333 -0.2452  0.2639  0.3068
  280TMC3    C5 4227   4.418   3.873   0.463 -0.5346  0.6503 -0.0847
  280TMC3    C6 4228   4.483   3.811   0.563 -0.4164  0.6512  0.5032
  280TMC3     C 4229   4.649   3.876   0.195 -0.3655  0.0581  0.3633
  280TMC3     O 4230   4.616   3.990   0.171 -0.0639  0.3906  0.2595
  280TMC3     H 4231   0.028   3.700   0.371  0.4936 -0.5741  1.9469
  280TMC3    H1 4232   4.419   3.926   0.251 -2.1859 -0.8129  0.8017
  280TMC3    H2 4233   4.440   3.795   0.661 -1.7656  0.9205 -0.0368
  280TMC3    C7 4234   4.370   3.997   0.511  0.4575 -0.4034 -0.0315
  280TMC3    C8 4235   4.705   3.756   0.625  0.3988  0.5431  0.7310
  280TMC3    O1 4236   4.400   4.023   0.627 -0.7360 -0.8394  0.2396
  280TMC3    O2 4237   0.101   3.754   0.587 -0.2688  0.8505 -0.1875
  281TMC3    C1 4238   3.662   0.019  13.301  0.1978 -0.6769 -0.4514
  281TMC3    C2 4239   3.678   0.126  13.218  0.2234 -0.4383  0.1198
  281TMC3    C3 4240   3.697   0.105  13.087  0.7297 -0.3770  0.8275
  281TMC3    C4 4241   3.673   4.608  13.258 -0.0630  0.0661  0.1883
  281TMC3    C5 4242   3.681   4.597  13.121 -0.1871 -0.2859  0.7948
  281TMC3    C6 4243   3.701   4.701  13.033 -0.1651 -0.7093 -0.2744
  281TMC3     C 4244   3.547   0.034  13.395 -0.8246 -0.1594 -0.3759
  281TMC3     O 4245   3.521   4.664  13.466 -0.2003 -0.1505  0.1749
  281TMC3     H 4246   3.701   0.220  13.266  2.1998  0.4270 -2.4846
  281TMC3    H1 4247   3.673   4.527  13.330 -1.3195  0.0146  0.1425
  281TMC3    H2 4248   3.692   4.681  12.927  3.2283 -1.9961 -0.3233
  281TMC3    C7 4249   3.641   4.470  13.060  0.2495  0.1770  0.2256
  281TMC3    C8 4250   3.607   0.201  13.021  0.3417 -0.0875  0.4007
  281TMC3    O1 4251   3.673   4.450  12.940 -0.2418  0.2712  0.7330
  281TMC3    O2 4252   3.554   0.274  13.098  0.3276 -0.1821  0.2873
  282MPD2     C 4253   0.959   1.060  15.058 -0.5234 -0.1562  0.0735
  282MPD2    C1 4254   0.836   1.111  15.101 -0.2371 -0.1413 -0.1561
  282MPD2    C2 4255   0.734   1.119  15.011 -0.4652 -0.3117  0.2466
  282MPD2    C3 4256   0.754   1.079  14.879 -0.6825 -0.2306  0.6875
  282MPD2    C4 4257   0.871   1.023  14.836  0.5875 -0.1281  0.2690
  282MPD2    C5 4258   0.974   1.015  14.925 -0.2248 -0.6623  0.5967
  282MPD2     H 4259   0.641   1.172  15.029 -0.1450  1.3039 -2.7243
  282MPD2    H1 4260   0.894   0.995  14.734  2.6767  0.1088  0.6686
  282MPD2    H2 4261   1.036   1.043  15.132 -0.6498 -1.4793 -0.0928
  282MPD2    H3 4262   1.066   0.973  14.886 -1.0446 -1.7401 -0.1298
  282MPD2     N 4263   0.658   1.123  14.790 -0.2214 -0.1355  0.4214
  282MPD2    H5 4264   0.575   1.171  14.824 -1.0033  0.3994 -2.1812
  282MPD2    N1 4265   0.817   1.150  15.233 -0.1660  0.3926  0.8546
  282MPD2    H7 4266   0.721   1.168  15.261  0.0733  1.2805  1.0878
  283TMC3    C1 4267   0.870   1.281  15.420 -0.3571 -0.1073  0.2694
  283TMC3    C2 4268   0.926   1.403  15.459  0.5065 -0.9789 -0.0400
  283TMC3    C3 4269   0.875   1.459  15.572  0.0909  0.1703  0.2886
  283TMC3    C4 4270   0.776   1.212  15.496  0.4779  1.2063  0.2326
  283TMC3    C5 4271   0.744   1.275  15.618  0.5182 -0.5407  0.4904
  283TMC3    C6 4272   0.787   1.395  15.658  0.0211  0.2928 -0.1086
  283TMC3     C 4273   0.915   1.224  15.300 -0.1648 -0.6779  0.5302
  283TMC3     O 4274   1.021   1.264  15.263  0.4696 -0.0081  0.4043
  283TMC3     H 4275   0.995   1.452  15.391  0.4805 -0.1640  0.5150
  283TMC3    H1 4276   0.768   1.105  15.478  0.9838  1.3158 -0.6409
  283TMC3    H2 4277   0.752   1.441  15.749 -1.9930  0.3702 -0.9249
  283TMC3    C7 4278   0.634   1.213  15.696  0.0440 -0.1047  0.1033
  283TMC3    C8 4279   0.937   1.580  15.614  0.5411 -0.6840 -0.3447
  283TMC3    O1 4280   0.625   1.253  15.806  0.0898  0.7595 -0.7264
  283TMC3    O2 4281   0.953   1.598  15.732  0.3970  0.2923 -0.1505
  284MPD2     C 4282   3.493   0.700  11.656 -0.6746 -0.0763 -0.1967
  284MPD2    C1 4283   3.517   0.692  11.519  0.1461 -0.5275  0.0585
  284MPD2    C2 4284   3.465   0.590  11.447  0.3783  0.4107 -0.5876
  284MPD2    C3 4285   3.396   0.487  11.506 -0.6853 -0.4856  0.7383
  284MPD2    C4 4286   3.386   0.484  11.646  0.0299  0.1635  0.4627
  284MPD2    C5 4287   3.434   0.591  11.716  0.1823  0.6769 -0.4878
  284MPD2     H 4288   3.479   0.587  11.340 -2.0128  3.2388 -0.9765
  284MPD2    H1 4289   3.337   0.403  11.700 -0.2526 -0.3277 -0.5256
  284MPD2    H2 4290   3.526   0.786  11.714  0.6391 -1.0301  0.4427
  284MPD2    H3 4291   3.417   0.592  11.823 -0.8175 -1.1087 -0.6345
  284MPD2     N 4292   3.359   0.385  11.420 -0.3000 -0.1124  0.8865
  284MPD2    H5 4293   3.351   0.404  11.320  2.0864  1.2810  0.9614
  284MPD2    N1 4294   3.599   0.779  11.446  0.5090 -0.3655 -0.0641
  284MPD2    H7 4295   3.613   0.754  11.348  1.6179  0.8401 -0.2128
  285TMC3    C1 4296   3.775   0.924  11.403  0.6879 -0.2202 -0.0847
  285TMC3    C2 4297   3.836   0.816  11.346  0.1597 -0.1027  0.0138
  285TMC3    C3 4298   3.971   0.823  11.310 -0.7997 -0.0476 -0.4186
  285TMC3    C4 4299   3.845   1.038  11.431 -0.4300 -0.0482 -0.3781
  285TMC3    C5 4300   3.978   1.038  11.402  0.1331  0.0176 -0.0779
  285TMC3    C6 4301   4.044   0.934  11.337 -0.0894  0.2489 -0.2709
  285TMC3     C 4302   3.655   0.900  11.480  0.0106  0.6911  0.8274
  285TMC3     O 4303   3.635   0.956  11.586  0.1437 -0.5243  0.2502
  285TMC3     H 4304   3.790   0.718  11.339 -2.3273  1.1283 -0.6002
  285TMC3    H1 4305   3.805   1.106  11.505 -2.2704  0.2128 -1.5972
  285TMC3    H2 4306   4.139   0.947  11.286 -0.6961  1.8760 -0.9714
  285TMC3    C7 4307   4.044   1.164  11.402  0.6763  0.7197  0.9532
  285TMC3    C8 4308   4.033   0.704  11.256  0.8982 -0.0647 -0.3723
  285TMC3    O1 4309   3.979   1.265  11.366 -0.3013  0.0409  0.0709
  285TMC3    O2 4310   3.957   0.631  11.198 -0.0504  0.7361  0.1486
  286MPD2     C 4311   3.548   3.407   1.668  0.1723  0.7801 -0.1051
  286MPD2    C1 4312   3.576   3.462   1.544 -0.0000  0.2936 -0.8232
  286MPD2    C2 4313   3.669   3.393   1.465  0.2560  0.0120  0.0042
  286MPD2    C3 4314   3.747   3.285   1.508 -0.2087  0.0367  0.1959
  286MPD2    C4 4315   3.720   3.242   1.637  0.0264 -0.2150  0.1206
  286MPD2    C5 4316   3.619   3.295   1.715 -0.8082 -0.5235  0.3415
  286MPD2     H 4317   3.680   3.436   1.367 -1.4522 -1.8096 -1.0050
  286MPD2    H1 4318   3.777   3.164   1.687  1.2246 -0.0739 -1.0318
  286MPD2    H2 4319   3.462   3.442   1.723  0.4540 -1.9048  2.0092
  286MPD2    H3 4320   3.598   3.277   1.820 -0.1802  2.4194  0.9521
  286MPD2     N 4321   3.851   3.232   1.430  1.0417  0.1530 -0.7002
  286MPD2    H5 4322   3.909   3.158   1.468 -1.2711 -1.0198  0.5354
  286MPD2    N1 4323   3.520   3.581   1.488  0.5676  0.5079  0.1094
  286MPD2    H7 4324   3.553   3.611   1.396 -2.6730 -0.1188 -1.2539
  287TMC3    C1 4325   3.988   3.191   1.247 -0.4896 -0.8466 -0.4483
  287TMC3    C2 4326   3.979   3.170   1.110  0.4138  0.1255  0.8062
  287TMC3    C3 4327   4.071   3.088   1.059  0.5796 -0.0087 -0.3759
  287TMC3    C4 4328   4.065   3.114   1.326  0.4623  0.1516  0.1283
  287TMC3    C5 4329   4.165   3.036   1.266  0.9228 -0.3843  0.4309
  287TMC3    C6 4330   4.168   3.018   1.132 -0.8344 -0.1845 -0.0819
  287TMC3     C 4331   3.880   3.270   1.302  0.3457  0.6989  0.6119
  287TMC3     O 4332   3.813   3.332   1.221  0.4913  0.5357  0.0125
  287TMC3     H 4333   3.915   3.226   1.043 -0.6443 -0.9556  0.9218
  287TMC3    H1 4334   4.080   3.147   1.429  0.6996  1.0838 -0.2022
  287TMC3    H2 4335   4.235   2.951   1.080 -1.4128 -1.3477  0.6632
  287TMC3    C7 4336   4.281   3.004   1.347 -0.1884 -0.6310 -0.5501
  287TMC3    C8 4337   4.087   3.082   0.916 -0.8534  0.3099 -0.5520
  287TMC3    O1 4338   4.283   3.033   1.465  0.3340  0.3452  0.0004
  287TMC3    O2 4339   3.988   3.064   0.842 -0.3505  0.0006  0.1279
  288TMC3    C1 4340   0.759   4.274  13.723  0.7246  0.2533  0.1768
  288TMC3    C2 4341   0.770   4.248  13.853 -0.1525  0.0849 -0.6581
  288TMC3    C3 4342   0.871   4.307  13.917 -0.4561  0.5833 -0.7909
  288TMC3    C4 4343   0.832   4.370  13.649 -0.2080 -0.3345  0.4978
  288TMC3    C5 4344   0.922   4.439  13.730 -0.9616 -0.5869  0.3415
  288TMC3    C6 4345   0.943   4.405  13.865 -0.3306  0.4575  0.2814
  288TMC3     C 4346   0.675   4.180  13.653 -0.2581  0.0173 -0.4743
  288TMC3     O 4347   0.664   4.065  13.695  0.1672  0.5964  0.5727
  288TMC3     H 4348   0.692   4.185  13.894  0.0254 -0.8306 -1.7060
  288TMC3    H1 4349   0.824   4.379  13.542  0.8450  1.6795  0.5947
  288TMC3    H2 4350   1.013   4.461  13.925 -0.2744  0.7166 -0.0230
  288TMC3    C7 4351   1.022   4.520  13.660  0.3147  0.4330 -0.2693
  288TMC3    C8 4352   0.881   4.309  14.066  1.0911  0.0020 -0.0634
  288TMC3    O1 4353   0.988   4.550  13.545  0.0433  0.6333 -0.0947
  288TMC3    O2 4354   0.890   4.418  14.115 -0.0945 -0.2108 -0.2032
  289MPD2     C 4355   1.298   2.890  14.400 -0.3035  0.1030 -0.0978
  289MPD2    C1 4356   1.283   3.019  14.370 -0.0133 -0.4547 -0.7122
  289MPD2    C2 4357   1.178   3.066  14.296  0.6408  0.4664 -0.5793
  289MPD2    C3 4358   1.084   2.973  14.256 -0.1684  0.0055 -0.8399
  289MPD2    C4 4359   1.110   2.833  14.276  1.0362  0.2934  0.5773
  289MPD2    C5 4360   1.211   2.792  14.360 -0.0322 -0.2421 -0.5191
  289MPD2     H 4361   1.154   3.169  14.271 -2.7133 -0.3356 -0.6773
  289MPD2    H1 4362   1.039   2.763  14.233 -0.2130  1.8508  0.1055
  289MPD2    H2 4363   1.378   2.856  14.465 -0.4926  1.3387  0.7634
  289MPD2    H3 4364   1.225   2.686  14.380 -3.6475  0.1490  3.9615
  289MPD2     N 4365   0.968   3.005  14.182 -0.1761 -0.0218  0.2598
  289MPD2    H5 4366   0.894   2.936  14.173  0.2253 -0.7633  2.5958
  289MPD2    N1 4367   1.373   3.107  14.429  0.1228  0.5629  0.4368
  289MPD2    H7 4368   1.408   3.078  14.520 -0.2250  1.9435  1.0306
  290TMC3    C1 4369   0.821   3.137  14.050  0.4075  0.2437  0.4796
  290TMC3    C2 4370   0.775   3.263  14.014 -1.0891 -0.1722  0.2006
  290TMC3    C3 4371   0.675   3.273  13.926 -0.1815 -0.8477 -0.0521
  290TMC3    C4 4372   0.765   3.020  14.001 -0.1720  0.4289 -0.2451
  290TMC3    C5 4373   0.664   3.028  13.910  0.2711  0.0922 -0.1139
  290TMC3    C6 4374   0.623   3.159  13.868 -0.3840  0.2133  0.4223
  290TMC3     C 4375   0.934   3.128  14.137  0.2246  0.6148  0.0319
  290TMC3     O 4376   0.982   3.240  14.155 -0.3295  0.1129  0.4723
  290TMC3     H 4377   0.818   3.353  14.055  1.2360 -0.7401 -0.9742
  290TMC3    H1 4378   0.811   2.924  14.023 -0.2459  0.7484  1.3144
  290TMC3    H2 4379   0.547   3.166  13.791 -0.8605  3.0894  1.1648
  290TMC3    C7 4380   0.616   2.909  13.841 -0.1709 -0.2873 -0.1193
  290TMC3    C8 4381   0.621   3.396  13.872 -0.2468  0.9937  0.0953
  290TMC3    O1 4382   0.555   2.931  13.738 -0.2217 -0.5966  0.4902
  290TMC3    O2 4383   0.569   3.385  13.763 -0.4988  0.3806  0.5019
  291MPD2     C 4384   1.061   2.509   0.607  0.0110  0.3180 -0.2015
  291MPD2    C1 4385   0.991   2.404   0.548  0.0205 -0.1382 -0.3015
  291MPD2    C2 4386   1.057   2.295   0.497  0.6570 -0.5220 -0.3825
  291MPD2    C3 4387   1.190   2.278   0.510  0.8841 -0.2003  0.3440
  291MPD2    C4 4388   1.263   2.379   0.571 -0.5074  0.1966 -0.0045
  291MPD2    C5 4389   1.195   2.490   0.622  0.3844 -0.1692 -0.7533
  291MPD2     H 4390   1.000   2.226   0.435  1.5340 -0.2182 -1.5239
  291MPD2    H1 4391   1.371   2.385   0.577 -0.6336  1.3762  1.0134
  291MPD2    H2 4392   1.016   2.587   0.667  2.5506  0.0697  2.0022
  291MPD2    H3 4393   1.257   2.560   0.676 -1.2955 -1.5050  2.9175
  291MPD2     N 4394   1.245   2.152   0.467  0.4025  0.3224  0.1020
  291MPD2    H5 4395   1.177   2.088   0.428 -1.3637  1.5654  1.1512
  291MPD2    N1 4396   0.848   2.403   0.537 -0.0907 -0.2412  0.1326
  291MPD2    H7 4397   0.799   2.319   0.510 -0.3110 -0.7985  2.2648
  292TMC3    C1 4398   0.627   2.495   0.551  0.1163 -0.4560 -0.5932
  292TMC3    C2 4399   0.541   2.571   0.627 -0.1223 -0.2668 -0.6690
  292TMC3    C3 4400   0.411   2.555   0.591  0.8094  0.3893 -0.5521
  292TMC3    C4 4401   0.588   2.425   0.434  0.3365 -0.0359  0.2082
  292TMC3    C5 4402   0.449   2.415   0.409 -0.2603  0.3946  0.4548
  292TMC3    C6 4403   0.367   2.471   0.493  0.2596  0.0911 -1.0604
  292TMC3     C 4404   0.772   2.513   0.567  0.2825 -0.0881  0.0439
  292TMC3     O 4405   0.799   2.612   0.634 -0.1250  0.4303 -0.0493
  292TMC3     H 4406   0.562   2.634   0.713 -1.2930  0.7047 -1.0980
  292TMC3    H1 4407   0.655   2.370   0.368 -0.8563 -0.7624 -0.4017
  292TMC3    H2 4408   0.260   2.462   0.476 -0.2396 -0.2426  2.3802
  292TMC3    C7 4409   0.421   2.300   0.330  0.2946  0.5989  0.3631
  292TMC3    C8 4410   0.335   2.568   0.712  0.4823  0.0212  0.6953
  292TMC3    O1 4411   0.497   2.214   0.301 -0.4848 -0.3751 -0.4177
  292TMC3    O2 4412   0.340   2.663   0.784 -0.0926  0.5866 -0.2651
  293MPD2     C 4413   1.710   0.236  12.585 -0.7353  0.3372  0.2438
  293MPD2    C1 4414   1.634   0.150  12.663  0.8829  0.0083  0.5410
  293MPD2    C2 4415   1.688   0.092  12.776 -0.2385 -0.0057  0.1283
  293MPD2    C3 4416   1.822   0.118  12.811  0.1507  0.2614  0.6699
  293MPD2    C4 4417   1.896   0.204  12.730 -0.1696 -0.8266  0.2032
  293MPD2    C5 4418   1.842   0.261  12.620 -0.1767  0.5493  0.4621
  293MPD2     H 4419   1.630   0.032  12.845 -1.4774  0.0917 -0.8379
  293MPD2    H1 4420   2.002   0.218  12.746 -0.1981 -0.4012  0.0083
  293MPD2    H2 4421   1.669   0.277  12.494 -0.4846  0.2570  0.0925
  293MPD2    H3 4422   1.911   0.315  12.557  1.7571  1.6085  3.4595
  293MPD2     N 4423   1.887   0.064  12.926  0.3435  0.3461 -0.5902
  293MPD2    H5 4424   1.843   4.703  12.965 -0.4930  1.3318  0.5816
  293MPD2    N1 4425   1.507   0.119  12.614 -1.2784 -0.9349 -0.7320
  293MPD2    H7 4426   1.479   0.166  12.528  0.8141 -0.0542 -0.9086
  294TMC3    C1 4427   1.307   0.007  12.586  0.3017 -0.0487  0.3254
  294TMC3    C2 4428   1.277   4.596  12.569  0.0144  0.2267  0.4469
  294TMC3    C3 4429   1.211   4.556  12.456  0.1796 -0.2783  0.7210
  294TMC3    C4 4430   1.268   0.103  12.494 -0.6329 -0.0322  0.1352
  294TMC3    C5 4431   1.215   0.055  12.376 -0.1127 -0.1009 -0.0668
  294TMC3    C6 4432   1.185   4.644  12.364 -0.2162 -0.0728 -0.1740
  294TMC3     C 4433   1.420   0.029  12.666 -0.5025  0.8965 -0.1776
  294TMC3     O 4434   1.434   4.679  12.764  0.3272  0.1591  0.3160
  294TMC3     H 4435   1.320   4.527  12.641  1.7266  1.1051  0.2830
  294TMC3    H1 4436   1.280   0.208  12.518  1.0624 -0.3265  0.5767
  294TMC3    H2 4437   1.135   4.611  12.274 -1.6051  1.6854 -0.0400
  294TMC3    C7 4438   1.167   0.142  12.265 -0.6090  0.0331 -0.2371
  294TMC3    C8 4439   1.249   4.421  12.422  0.0973  0.3776  0.6494
  294TMC3    O1 4440   1.133   0.253  12.290  0.0509  0.2340 -0.7224
  294TMC3    O2 4441   1.281   4.400  12.301  0.8889  0.0992 -0.1925
  295MPD2     C 4442   3.499   2.738   0.786  0.4131 -0.0388  0.8891
  295MPD2    C1 4443   3.415   2.654   0.726 -0.4035  0.2493 -1.2191
  295MPD2    C2 4444   3.370   2.546   0.807 -0.0755  0.2090 -0.6931
  295MPD2    C3 4445   3.400   2.543   0.944 -0.2428 -0.2951 -0.4369
  295MPD2    C4 4446   3.477   2.639   0.996 -0.1384 -0.4708  0.4641
  295MPD2    C5 4447   3.538   2.724   0.913 -0.4115  0.0226  0.3609
  295MPD2     H 4448   3.297   2.478   0.763  2.2759 -2.5615 -0.3578
  295MPD2    H1 4449   3.512   2.646   1.099  2.0800 -1.9118 -0.1837
  295MPD2    H2 4450   3.545   2.822   0.735 -2.3288  1.6346  1.1924
  295MPD2    H3 4451   3.602   2.798   0.958  1.2300 -0.5797 -0.9849
  295MPD2     N 4452   3.347   2.439   1.024 -0.3949 -0.4189 -0.9766
  295MPD2    H5 4453   3.308   2.359   0.974 -0.6136  0.4775 -2.2428
  295MPD2    N1 4454   3.365   2.684   0.596  1.0896 -0.1833  0.2724
  295MPD2    H7 4455   3.293   2.620   0.564  0.5613 -0.1557  1.4133
  296TMC3    C1 4456   3.281   2.325   1.216  0.2356 -0.1964 -0.2054
  296TMC3    C2 4457   3.305   2.310   1.348  0.0314  0.1149 -0.4370
  296TMC3    C3 4458   3.262   2.189   1.398 -0.2372 -0.6183  0.2725
  296TMC3    C4 4459   3.251   2.219   1.132  0.1656 -0.3529 -1.1701
  296TMC3    C5 4460   3.206   2.104   1.191  0.0901 -0.6004  0.0273
  296TMC3    C6 4461   3.205   2.082   1.326  0.6327 -0.2566 -0.2592
  296TMC3     C 4462   3.337   2.443   1.160  0.0007  0.3376  0.0373
  296TMC3     O 4463   3.371   2.533   1.234 -0.4492  0.9136 -0.1650
  296TMC3     H 4464   3.341   2.389   1.412 -3.3109  2.0412 -0.9326
  296TMC3    H1 4465   3.227   2.228   1.027  0.7873  0.2428 -1.2584
  296TMC3    H2 4466   3.174   1.995   1.382 -0.7524 -0.1025 -0.8002
  296TMC3    C7 4467   3.136   2.008   1.109  0.0874  0.4894  0.8853
  296TMC3    C8 4468   3.314   2.151   1.533 -0.2637 -0.2932 -0.3709
  296TMC3    O1 4469   3.101   2.046   0.999  0.1724  0.3540 -0.1589
  296TMC3    O2 4470   3.334   2.030   1.549 -0.7117  0.0758 -0.2826
  297MPD2     C 4471   0.200   4.593  16.431  0.5760  0.6816 -0.2728
  297MPD2    C1 4472   0.133   4.644  16.316 -0.3871 -0.1796  0.2002
  297MPD2    C2 4473   0.165   0.051  16.280 -0.9289 -0.3790  0.2975
  297MPD2    C3 4474   0.243   0.133  16.355  0.6097 -0.6629 -0.2901
  297MPD2    C4 4475   0.304   0.080  16.466 -0.3524 -0.5950  0.4940
  297MPD2    C5 4476   0.282   4.668  16.503  0.0999  0.8472 -0.0590
  297MPD2     H 4477   0.118   0.100  16.196 -0.2579 -1.1815 -0.5367
  297MPD2    H1 4478   0.386   0.125  16.521 -1.0868 -1.6252  2.3998
  297MPD2    H2 4479   0.179   4.496  16.474  1.1808  1.5474  1.9395
  297MPD2    H3 4480   0.330   4.634  16.594  0.5181 -1.0478 -1.0020
  297MPD2     N 4481   0.259   0.268  16.316  0.4774  0.2358  0.6325
  297MPD2    H5 4482   0.212   0.295  16.230  2.1379  0.6388 -0.1573
  297MPD2    N1 4483   0.029   4.582  16.245  0.8328 -0.3269 -0.2163
  297MPD2    H7 4484   4.710   4.631  16.166 -1.3080 -3.0108 -0.7421
  298TMC3    C1 4485   4.588   4.421  16.196 -0.1926 -0.8965 -0.3537
  298TMC3    C2 4486   4.614   4.429  16.060  0.7192 -0.9774  0.6140
  298TMC3    C3 4487   4.516   4.477  15.979  0.2340  0.8133  0.9170
  298TMC3    C4 4488   4.465   4.465  16.250  0.6631  0.5975 -0.5139
  298TMC3    C5 4489   4.368   4.501  16.164  0.1116  1.0942 -0.2059
  298TMC3    C6 4490   4.393   4.509  16.026 -0.0772  0.1205  0.0584
  298TMC3     C 4491   4.698   4.460  16.279 -0.5154 -0.3905  0.0664
  298TMC3     O 4492   0.006   4.389  16.372  0.0099 -0.1685 -1.0270
  298TMC3     H 4493   4.715   4.406  16.026 -0.6308 -3.1112 -1.9291
  298TMC3    H1 4494   4.437   4.458  16.355  1.7238  0.6662 -0.2308
  298TMC3    H2 4495   4.308   4.527  15.960  1.8688  3.4806 -1.5514
  298TMC3    C7 4496   4.280   4.594  16.224  0.2643 -0.0786 -0.2759
  298TMC3    C8 4497   4.565   4.552  15.872 -0.0605  0.5158  0.0753
  298TMC3    O1 4498   4.303   4.617  16.340 -0.1012  0.5155 -0.6175
  298TMC3    O2 4499   4.685   4.571  15.873  0.4295  0.1663 -0.6664
  299MPD2     C 4500   0.571   4.239  10.940  0.0407 -0.5548 -0.4875
  299MPD2    C1 4501   0.578   4.348  10.864  0.8797  0.3276 -0.1768
  299MPD2    C2 4502   0.507   4.348  10.741  0.2463  0.3375  0.0087
  299MPD2    C3 4503   0.453   4.230  10.693  0.1687 -0.3837  0.2408
  299MPD2    C4 4504   0.457   4.113  10.775  1.1989 -0.2638 -0.5433
  299MPD2    C5 4505   0.516   4.121  10.901 -0.1774 -0.2762 -0.4213
  299MPD2     H 4506   0.501   4.439  10.683  0.8728 -0.1039 -0.7425
  299MPD2    H1 4507   0.416   4.018  10.743 -1.6982  1.4215 -1.7617
  299MPD2    H2 4508   0.622   4.238  11.036  0.2517 -2.2092 -0.6094
  299MPD2    H3 4509   0.529   4.033  10.963  0.7395  1.6065  2.0539
  299MPD2     N 4510   0.375   4.213  10.575 -0.1759 -0.3688 -0.4552
  299MPD2    H5 4511   0.333   4.123  10.554  1.0638 -0.6694 -1.6011
  299MPD2    N1 4512   0.640   4.459  10.925 -0.5610 -0.4555 -0.2035
  299MPD2    H7 4513   0.687   4.444  11.014 -0.0900  2.7933  0.0932
  300TMC3    C1 4514   0.253   4.280  10.374  1.0605  0.2523 -0.4300
  300TMC3    C2 4515   0.214   4.384  10.291 -0.0309 -0.4301 -0.1663
  300TMC3    C3 4516   0.084   4.390  10.263 -0.2118  0.2636 -0.0279
  300TMC3    C4 4517   0.161   4.177  10.401 -0.1274 -0.5393  0.1883
  300TMC3    C5 4518   0.028   4.190  10.367 -0.5736 -0.1354  0.1480
  300TMC3    C6 4519   4.707   4.301  10.300 -0.1773  0.1673  0.6374
  300TMC3     C 4520   0.354   4.307  10.476 -0.9061 -0.1985 -0.5739
  300TMC3     O 4521   0.411   4.418  10.455  0.7757 -0.0374 -0.1717
  300TMC3     H 4522   0.280   4.467  10.265  1.4728 -1.7775 -0.6305
  300TMC3    H1 4523   0.194   4.102  10.472 -0.7235 -1.7933 -0.8581
  300TMC3    H2 4524   4.600   4.317  10.286  0.3647  1.2288 -2.2089
  300TMC3    C7 4525   4.658   4.137  10.471  0.3749  0.2959  0.4769
  300TMC3    C8 4526   0.035   4.517  10.210  0.0579  0.1875 -0.0095
  300TMC3    O1 4527   4.685   4.027  10.517  0.0464 -0.3429 -0.1038
  300TMC3    O2 4528   4.683   4.509  10.113 -0.0983 -0.2010  0.5672
  301MPD2     C 4529   3.180   0.778   1.269 -0.0676  0.0421 -0.5694
  301MPD2    C1 4530   3.056   0.752   1.224  0.3434 -0.2224 -0.8914
  301MPD2    C2 4531   2.966   0.675   1.293  0.8195  0.2723 -0.0762
  301MPD2    C3 4532   3.016   0.615   1.407 -0.7221  0.4086  0.1101
  301MPD2    C4 4533   3.144   0.640   1.445  0.3610 -0.7693  0.5749
  301MPD2    C5 4534   3.230   0.725   1.381  0.1812  0.0809  0.1847
  301MPD2     H 4535   2.866   0.659   1.253  0.6976 -1.7218  1.0265
  301MPD2    H1 4536   3.187   0.585   1.528  3.2012 -1.6730 -1.5104
  301MPD2    H2 4537   3.243   0.835   1.202  0.8907 -1.0529 -0.5858
  301MPD2    H3 4538   3.333   0.736   1.415  0.2432  0.3365 -0.0878
  301MPD2     N 4539   2.942   0.519   1.485 -0.5529 -0.2218  0.1637
  301MPD2    H5 4540   2.992   0.465   1.554  0.8538  2.3337  1.1604
  301MPD2    N1 4541   2.997   0.820   1.111 -0.6023  0.9037 -0.3046
  301MPD2    H7 4542   2.904   0.790   1.085 -0.7908  0.0945  1.3175
  302TMC3    C1 4543   2.755   0.381   1.536 -0.1767  0.1936  0.4768
  302TMC3    C2 4544   2.821   0.264   1.526 -0.0968  0.2985  0.0517
  302TMC3    C3 4545   2.763   0.149   1.571  0.0227  0.3461  0.1902
  302TMC3    C4 4546   2.626   0.383   1.576 -0.0923 -1.0200  0.3661
  302TMC3    C5 4547   2.567   0.262   1.615 -0.2159  0.4042 -0.2427
  302TMC3    C6 4548   2.637   0.147   1.618  1.1515  0.3217  0.4643
  302TMC3     C 4549   2.806   0.492   1.460 -0.7708 -0.0514 -0.0020
  302TMC3     O 4550   2.719   0.551   1.396  0.0143  0.2481  0.3708
  302TMC3     H 4551   2.915   0.268   1.472 -0.1034 -0.1697  0.0077
  302TMC3    H1 4552   2.570   0.475   1.586 -1.4263 -1.7430 -0.4797
  302TMC3    H2 4553   2.591   0.056   1.654  1.2721  0.8522  1.9362
  302TMC3    C7 4554   2.426   0.255   1.647  0.0060  0.1771  0.0597
  302TMC3    C8 4555   2.848   0.034   1.566  0.4675  0.0156  0.6668
  302TMC3    O1 4556   2.388   0.180   1.737  0.1791 -0.0266  0.1092
  302TMC3    O2 4557   2.964   0.062   1.547 -0.1414 -1.0722 -0.4278
  303MPD2     C 4558   2.221   4.490  10.473 -0.0582 -0.2435  0.7354
  303MPD2    C1 4559   2.256   4.358  10.493 -0.4844 -0.2079  0.0442
  303MPD2    C2 4560   2.280   4.272  10.395 -1.2898 -0.2593  0.1226
  303MPD2    C3 4561   2.248   4.319  10.267  0.1727  0.1041 -0.3508
  303MPD2    C4 4562   2.203   4.445  10.244  0.6957  0.5167 -0.4470
  303MPD2    C5 4563   2.199   4.533  10.344 -0.0555  0.2719 -0.1831
  303MPD2     H 4564   2.321   4.172  10.407 -0.6140 -0.0204 -0.1583
  303MPD2    H1 4565   2.205   4.483  10.143  0.8200  0.1132 -0.5968
  303MPD2    H2 4566   2.211   4.559  10.556  0.9130  0.3743  0.3257
  303MPD2    H3 4567   2.173   4.634  10.312 -0.7119 -0.5294 -2.1568
  303MPD2     N 4568   2.263   4.250  10.149 -0.3481  0.5211  0.1555
  303MPD2    H5 4569   2.246   4.298  10.062  1.1784  2.3817  0.8793
  303MPD2    N1 4570   2.272   4.316  10.627  0.4068 -0.4183  1.1706
  303MPD2    H7 4571   2.238   4.378  10.700 -1.4834 -0.3139  0.2084
  304TMC3    C1 4572   2.281   4.151  10.798  0.2596  0.5427  0.1464
  304TMC3    C2 4573   2.146   4.128  10.798  0.0584  0.0963 -0.5410
  304TMC3    C3 4574   2.097   4.035  10.887  0.1468  0.4525 -0.1872
  304TMC3    C4 4575   2.373   4.072  10.864  0.1497 -0.2204 -0.1906
  304TMC3    C5 4576   2.321   3.973  10.943  0.0465  0.1912 -0.5877
  304TMC3    C6 4577   2.185   3.962  10.960 -0.0495  0.5716  0.2980
  304TMC3     C 4578   2.321   4.191  10.663  0.2541 -0.8055  0.5077
  304TMC3     O 4579   2.411   4.124  10.609 -0.2243 -0.1493 -0.3716
  304TMC3     H 4580   2.088   4.168  10.715 -0.8592 -2.9470 -1.3520
  304TMC3    H1 4581   2.470   4.084  10.819 -0.3306  1.8880 -0.6641
  304TMC3    H2 4582   2.150   3.896  11.038  3.4802  0.3156  1.6759
  304TMC3    C7 4583   2.384   3.848  10.943 -0.5555 -0.0169  0.2971
  304TMC3    C8 4584   2.004   3.938  10.834  0.4156  0.7282  0.0644
  304TMC3    O1 4585   2.510   3.852  10.934  0.5627 -0.4219  0.4762
  304TMC3    O2 4586   2.035   3.824  10.871  0.0077  0.2291 -1.1849
  305MPD2     C 4587   1.061   1.946  14.114 -0.3907 -0.4425 -0.2274
  305MPD2    C1 4588   1.027   1.817  14.140 -0.2696  0.2886 -0.5748
  305MPD2    C2 4589   0.993   1.731  14.039 -0.3016  0.4085 -0.0566
  305MPD2    C3 4590   1.005   1.770  13.902  0.4603 -0.0711 -0.9358
  305MPD2    C4 4591   1.047   1.898  13.873  0.0048 -0.4463  0.0415
  305MPD2    C5 4592   1.063   1.990  13.981 -0.6671  0.1322 -0.6160
  305MPD2     H 4593   0.987   1.626  14.062 -0.1217 -0.0426 -2.1205
  305MPD2    H1 4594   1.059   1.938  13.773 -0.0846 -4.6219 -1.6258
  305MPD2    H2 4595   1.088   2.014  14.194  1.9098 -1.1118 -0.4286
  305MPD2    H3 4596   1.092   2.092  13.962 -1.2596  0.9430  2.9819
  305MPD2     N 4597   1.003   1.678  13.792  0.0568  0.3239 -0.1642
  305MPD2    H5 4598   1.031   1.714  13.701  0.2241 -1.0014 -0.6320
  305MPD2    N1 4599   1.050   1.763  14.271 -0.0705  0.0130  0.0971
  305MPD2    H7 4600   1.096   1.825  14.336 -1.2746  0.7627  0.2444
  306TMC3    C1 4601   1.071   1.616  14.455 -0.3578  0.7559 -0.8565
  306TMC3    C2 4602   1.089   1.488  14.507  0.3735  0.6229 -0.0516
  306TMC3    C3 4603   1.120   1.472  14.633 -0.3994  0.2499  0.2750
  306TMC3    C4 4604   1.079   1.720  14.539 -1.1825 -0.0510 -0.1932
  306TMC3    C5 4605   1.108   1.706  14.666  0.0564 -0.1553  0.1791
  306TMC3    C6 4606   1.122   1.581  14.722 -0.2984  0.1308 -0.4905
  306TMC3     C 4607   1.024   1.640  14.317 -0.1107 -0.0071 -1.0861
  306TMC3     O 4608   0.984   1.539  14.263  0.3465 -0.7205  0.2089
  306TMC3     H 4609   1.098   1.405  14.437  0.0600 -0.0886  0.7569
  306TMC3    H1 4610   1.036   1.811  14.499 -0.4881  1.1414  1.8058
  306TMC3    H2 4611   1.183   1.575  14.811  1.1509 -1.0949 -1.5578
  306TMC3    C7 4612   1.148   1.821  14.738  0.3619 -0.0465 -0.4425
  306TMC3    C8 4613   1.189   1.351  14.669  0.1061  0.8585  0.3023
  306TMC3    O1 4614   1.189   1.909  14.670 -0.2982 -0.0094  0.2567
  306TMC3    O2 4615   1.248   1.284  14.587 -0.6630  0.1894 -0.8130
  307MPD2     C 4616   3.895   3.251   0.429 -0.1932  0.0584 -1.0154
  307MPD2    C1 4617   3.854   3.373   0.364 -0.6529  0.8914 -0.2351
  307MPD2    C2 4618   3.795   3.470   0.447  0.1152  1.1855  0.8461
  307MPD2    C3 4619   3.773   3.442   0.586 -0.3816  0.0964  0.6420
  307MPD2    C4 4620   3.822   3.331   0.639  0.8193  0.4950  0.4656
  307MPD2    C5 4621   3.885   3.237   0.563  0.4443 -0.2924 -0.1543
  307MPD2     H 4622   3.745   3.555   0.403 -0.1348  0.1577 -0.8658
  307MPD2    H1 4623   3.809   3.303   0.743 -0.0541  0.4675  0.3435
  307MPD2    H2 4624   3.954   3.179   0.374  1.6470  0.3307  0.6119
  307MPD2    H3 4625   3.919   3.142   0.602 -1.6617 -0.9621  0.0197
  307MPD2     N 4626   3.693   3.539   0.658 -0.4420  0.0819  0.0982
  307MPD2    H5 4627   3.654   3.616   0.605 -0.8723  0.1746  0.5495
  307MPD2    N1 4628   3.865   3.399   0.223 -0.0938  0.5036 -0.8225
  307MPD2    H7 4629   3.840   3.494   0.196 -1.5603  0.4200  0.2737
  308TMC3    C1 4630   3.313   3.666   0.862  0.7671  1.2174 -0.4703
  308TMC3    C2 4631   3.329   3.800   0.847 -0.2429  0.2650  0.3338
  308TMC3    C3 4632   3.455   3.837   0.812  0.3145  0.2599  0.5504
  308TMC3    C4 4633   3.412   3.571   0.857  0.0550 -0.8226  0.9345
  308TMC3    C5 4634   3.537   3.614   0.808  0.4293 -0.1557  0.4601
  308TMC3    C6 4635   3.554   3.747   0.774 -0.3763 -0.9080 -0.3396
  308TMC3     C 4636   3.181   3.608   0.853  0.1279  0.3016 -0.2832
  308TMC3     O 4637   3.167   3.486   0.866  0.2024 -0.3954  0.6017
  308TMC3     H 4638   3.256   3.879   0.859 -2.7197 -1.7333 -1.3617
  308TMC3    H1 4639   3.398   3.464   0.867 -0.1531 -0.9792 -0.9533
  308TMC3    H2 4640   3.656   3.773   0.750 -1.3218  0.1070 -3.2321
  308TMC3    C7 4641   3.639   3.513   0.782 -0.4892  0.2479  0.1160
  308TMC3    C8 4642   3.484   3.977   0.823 -0.4698  0.1327  0.3438
  308TMC3    O1 4643   3.665   3.435   0.870 -0.4552 -0.1848  0.1534
  308TMC3    O2 4644   3.404   4.045   0.885 -0.1726  0.1145 -0.2438
  309MPD2     C 4645   2.606   4.539  17.187  0.2692 -0.6974 -0.4082
  309MPD2    C1 4646   2.513   4.541  17.083 -0.5682 -0.4893  0.1557
  309MPD2    C2 4647   2.380   4.549  17.117 -0.0425  0.4854  0.1202
  309MPD2    C3 4648   2.332   4.546  17.245 -0.1544 -0.5863  0.3094
  309MPD2    C4 4649   2.427   4.546  17.346 -0.4503 -0.2319  0.5892
  309MPD2    C5 4650   2.558   4.542  17.319 -0.4947 -0.2211  0.2195
  309MPD2     H 4651   2.303   4.558  17.041  0.6733  0.0637 -0.6496
  309MPD2    H1 4652   2.407   4.564  17.451  2.3535 -1.0691  1.2492
  309MPD2    H2 4653   2.714   4.531  17.179  0.1255 -1.6461 -1.3108
  309MPD2    H3 4654   2.622   4.535  17.407  1.0053 -1.0234 -0.9367
  309MPD2     N 4655   2.204   4.533  17.295  0.3687  0.0933 -0.4811
  309MPD2    H5 4656   2.194   4.522  17.395  0.7304 -2.8357 -0.7766
  309MPD2    N1 4657   2.557   4.539  16.948 -0.3390 -0.5060 -0.2215
  309MPD2    H7 4658   2.483   4.540  16.879  1.9750 -0.3890 -2.6960
  310TMC3    C1 4659   2.704   4.545  16.767  0.0931  0.1719  0.2354
  310TMC3    C2 4660   2.637   4.643  16.718 -0.2945  0.7624 -0.4963
  310TMC3    C3 4661   2.687   4.713  16.605  0.4161 -0.0289  0.0590
  310TMC3    C4 4662   2.823   4.513  16.715  0.2019  0.2144  0.0627
  310TMC3    C5 4663   2.882   4.588  16.620 -0.0787  0.3223  0.0210
  310TMC3    C6 4664   2.812   4.685  16.556  0.2032 -0.3481 -0.0182
  310TMC3     C 4665   2.685   4.526  16.906  0.4192 -0.4623 -0.2115
  310TMC3     O 4666   2.786   4.493  16.967 -0.2306 -0.1753 -0.2556
  310TMC3     H 4667   2.540   4.675  16.753 -0.8830 -0.4815 -1.0310
  310TMC3    H1 4668   2.867   4.422  16.754 -0.7784 -0.6335 -0.8012
  310TMC3    H2 4669   2.839   4.717  16.456  1.1078 -0.7079  0.1051
  310TMC3    C7 4670   3.009   4.539  16.565 -0.3790  0.0916 -0.0698
  310TMC3    C8 4671   2.600   0.078  16.535  0.2777  0.6799  0.6784
  310TMC3    O1 4672   3.072   4.447  16.615 -0.0405 -0.1048 -0.0297
  310TMC3    O2 4673   2.489   0.099  16.584  0.3683  0.3995  0.1434
  311MPD2     C 4674   0.145   1.408  12.911  0.4477 -0.0940  0.6378
  311MPD2    C1 4675   0.121   1.539  12.920 -0.7586  0.4062  0.3767
  311MPD2    C2 4676   4.709   1.588  12.912  0.4974 -0.0336  0.3515
  311MPD2    C3 4677   4.608   1.496  12.908  0.4263 -0.1536 -0.5391
  311MPD2    C4 4678   4.640   1.360  12.896 -0.4625  0.2945  0.8789
  311MPD2    C5 4679   0.043   1.317  12.911 -0.3010 -0.1680  0.2795
  311MPD2     H 4680   4.686   1.693  12.908 -0.7774 -0.3095  0.5981
  311MPD2    H1 4681   4.568   1.279  12.896 -2.0746  1.7544 -1.0732
  311MPD2    H2 4682   0.246   1.369  12.900  0.9947  1.2520  0.8506
  311MPD2    H3 4683   0.067   1.212  12.899 -0.8344 -0.2067 -0.4664
  311MPD2     N 4684   4.474   1.548  12.912 -0.2264  0.2451  0.6530
  311MPD2    H5 4685   4.466   1.638  12.957 -1.8481  0.8230 -0.8252
  311MPD2    N1 4686   0.226   1.640  12.903  0.1043 -0.1906  0.5534
  311MPD2    H7 4687   0.209   1.740  12.894 -0.8984 -0.3152  1.0505
  312TMC3    C1 4688   4.249   1.556  12.937 -0.6306 -0.1665 -0.6704
  312TMC3    C2 4689   4.128   1.545  12.872 -0.1041  0.2133  0.1903
  312TMC3    C3 4690   4.019   1.592  12.946 -0.4061 -0.7304  0.4004
  312TMC3    C4 4691   4.258   1.601  13.065  0.2218 -0.6341  0.3566
  312TMC3    C5 4692   4.155   1.664  13.124  0.1391  0.2579 -0.1007
  312TMC3    C6 4693   4.034   1.667  13.058  0.5995  0.2060 -0.2247
  312TMC3     C 4694   4.361   1.487  12.883  1.0261 -0.9024 -0.3469
  312TMC3     O 4695   4.349   1.397  12.802  0.2376  0.2151  0.0520
  312TMC3     H 4696   4.110   1.486  12.783 -1.1802 -0.6354  0.9637
  312TMC3    H1 4697   4.350   1.608  13.122 -1.0562 -0.3662  2.3632
  312TMC3    H2 4698   3.943   1.707  13.103  1.0319  0.6803  0.2360
  312TMC3    C7 4699   4.163   1.678  13.263 -0.0613 -0.1008 -0.5182
  312TMC3    C8 4700   3.887   1.596  12.890  0.6070  0.4647 -0.4062
  312TMC3    O1 4701   4.251   1.623  13.329  0.1780 -0.0921 -0.3881
  312TMC3    O2 4702   3.792   1.600  12.966  0.2521 -0.1217 -0.9551
  313MPD2     C 4703   4.193   0.262  10.612 -0.3677  0.6854 -0.1184
  313MPD2    C1 4704   4.079   0.326  10.659  0.2787  0.0593  0.1164
  313MPD2    C2 4705   3.959   0.269  10.625  0.3874 -0.0761  0.7579
  313MPD2    C3 4706   3.944   0.150  10.557  0.2159  0.0801 -0.0770
  313MPD2    C4 4707   4.057   0.082  10.518  0.2871  0.0769  0.1571
  313MPD2    C5 4708   4.182   0.146  10.539 -0.4243  0.3261 -0.5519
  313MPD2     H 4709   3.869   0.311  10.668 -0.8945 -0.4161 -1.5844
  313MPD2    H1 4710   4.051   4.711  10.463 -0.2418  0.9726 -1.2940
  313MPD2    H2 4711   4.288   0.315  10.612 -0.2121  0.4031  0.5274
  313MPD2    H3 4712   4.264   0.093  10.492 -0.9672 -0.2781 -0.8218
  313MPD2     N 4713   3.814   0.095  10.546 -0.4768 -0.2000  0.2233
  313MPD2    H5 4714   3.744   0.122  10.615 -1.6626  0.2096 -1.1522
  313MPD2    N1 4715   4.071   0.440  10.742  0.3626 -0.2744 -0.7333
  313MPD2    H7 4716   3.977   0.471  10.767  0.0659 -1.7083 -0.0908
  314TMC3    C1 4717   4.132   0.625  10.866 -0.3416 -0.1654  0.4614
  314TMC3    C2 4718   4.232   0.705  10.910 -0.3053 -0.2841 -0.5105
  314TMC3    C3 4719   4.199   0.829  10.954  0.1049  0.6351  0.1832
  314TMC3    C4 4720   4.000   0.665  10.861  0.5310  0.3523 -0.2883
  314TMC3    C5 4721   3.967   0.791  10.904 -0.0492 -0.2245  0.0094
  314TMC3    C6 4722   4.067   0.870  10.952 -0.0200  0.0752  0.3182
  314TMC3     C 4723   4.175   0.501  10.808 -0.2335 -0.0405  0.4834
  314TMC3     O 4724   4.293   0.477  10.795  0.0727 -0.5417  0.7149
  314TMC3     H 4725   4.332   0.664  10.918 -0.6016 -1.0336 -0.6279
  314TMC3    H1 4726   3.922   0.594  10.837  1.5844 -0.6093 -0.8703
  314TMC3    H2 4727   4.037   0.961  11.003  3.0629  0.8266  0.7875
  314TMC3    C7 4728   3.847   0.855  10.854 -0.4333 -0.5377 -0.3212
  314TMC3    C8 4729   4.293   0.925  11.000 -0.0043 -0.4449  0.7124
  314TMC3    O1 4730   3.742   0.791  10.840 -0.1685  0.1419 -0.0562
  314TMC3    O2 4731   4.242   1.022  11.061  0.1030  0.0447 -0.2941
  315MPD2     C 4732   4.241   4.056  17.088 -0.1066 -0.8226 -0.7590
  315MPD2    C1 4733   4.255   4.031  17.225  0.2915 -0.2078  0.5465
  315MPD2    C2 4734   4.210   4.127  17.317 -0.6932  0.3733  0.8648
  315MPD2    C3 4735   4.150   4.242  17.269  0.1188  0.8096  0.1410
  315MPD2    C4 4736   4.134   4.265  17.134  0.2032  1.1674  0.3990
  315MPD2    C5 4737   4.181   4.173  17.043 -0.4644  0.6469  0.2280
  315MPD2     H 4738   4.225   4.124  17.424  2.7151 -0.8143  0.3506
  315MPD2    H1 4739   4.096   4.358  17.094 -1.8452  0.2312  0.1751
  315MPD2    H2 4740   4.285   3.995  17.010 -2.5146 -3.8217  0.2023
  315MPD2    H3 4741   4.179   4.204  16.939 -0.0512 -2.4492 -0.6928
  315MPD2     N 4742   4.122   4.339  17.370  0.2409  0.0435  0.3804
  315MPD2    H5 4743   4.101   4.298  17.460  1.0639  1.8469  1.4084
  315MPD2    N1 4744   4.306   3.907  17.277  0.3285 -0.1739  0.3254
  315MPD2    H7 4745   4.299   3.892  17.377 -0.9440  0.7616  0.3788
  316TMC3    C1 4746   4.018   4.526  17.467 -0.5523  0.3314  0.2675
  316TMC3    C2 4747   4.069   4.495  17.592  0.1531  0.1353  0.0010
  316TMC3    C3 4748   3.999   4.555   0.006  0.4204  0.6899 -0.0591
  316TMC3    C4 4749   3.903   4.590  17.440  0.1987  0.0821 -0.2075
  316TMC3    C5 4750   3.837   4.647  17.549 -0.4830  0.1935 -0.6352
  316TMC3    C6 4751   3.893   4.636  17.674  0.4909  0.2455 -0.0950
  316TMC3     C 4752   4.089   4.474  17.346  0.2242  0.2814 -0.7353
  316TMC3     O 4753   4.077   4.542  17.246 -0.6824 -0.4742  0.4683
  316TMC3     H 4754   4.161   4.439  17.596 -0.9543 -1.7203 -0.3972
  316TMC3    H1 4755   3.863   4.576  17.341  0.3546  0.9674 -0.4021
  316TMC3    H2 4756   3.840   4.685   0.064 -0.5294  0.7013 -1.0495
  316TMC3    C7 4757   3.739   0.031  17.525 -0.4269 -0.6114 -0.7360
  316TMC3    C8 4758   4.034   4.534   0.146  0.5180 -0.4641 -0.6639
  316TMC3    O1 4759   3.675   0.072  17.619  0.3136  0.4319 -0.7609
  316TMC3    O2 4760   3.983   4.611   0.226  0.2933 -0.6537 -0.6050
  317MPD2     C 4761   1.051   3.730  13.327  0.3537  0.3680  0.4827
  317MPD2    C1 4762   1.024   3.612  13.257 -0.2133 -0.0311  0.4111
  317MPD2    C2 4763   1.094   3.499  13.286 -0.2148 -0.1347 -0.3651
  317MPD2    C3 4764   1.190   3.491  13.387  0.4149 -0.2848  0.2989
  317MPD2    C4 4765   1.211   3.609  13.468 -0.6186  0.6414  0.3281
  317MPD2    C5 4766   1.138   3.725  13.437 -0.5052 -0.7584  0.0202
  317MPD2     H 4767   1.065   3.410  13.231  3.4729 -1.3466 -0.3716
  317MPD2    H1 4768   1.285   3.621  13.547  0.2152  0.1810 -0.3799
  317MPD2    H2 4769   0.994   3.822  13.323  0.6067  0.5105  0.1518
  317MPD2    H3 4770   1.150   3.820  13.488  0.2108 -1.2074  0.6848
  317MPD2     N 4771   1.255   3.368  13.411 -0.0497  0.2620  0.8187
  317MPD2    H5 4772   1.218   3.295  13.351  0.7435  1.0383 -0.6125
  317MPD2    N1 4773   0.935   3.613  13.144 -0.6798  0.3647  0.0539
  317MPD2    H7 4774   0.944   3.531  13.084 -1.4275  1.5534 -1.7062
  318TMC3    C1 4775   1.397   3.199  13.491  0.5117  0.3353 -0.6186
  318TMC3    C2 4776   1.296   3.104  13.479 -0.2845  0.0318 -0.6961
  318TMC3    C3 4777   1.334   2.979  13.501 -0.1542 -0.1427  0.2513
  318TMC3    C4 4778   1.527   3.167  13.521 -0.0883 -0.3809 -0.0070
  318TMC3    C5 4779   1.554   3.034  13.553  0.5608  0.2637  0.0319
  318TMC3    C6 4780   1.458   2.938  13.546  0.1056  0.4177 -0.0571
  318TMC3     C 4781   1.362   3.339  13.495 -0.2776  0.2550 -0.2848
  318TMC3     O 4782   1.420   3.413  13.577  0.3086 -0.1767 -0.2611
  318TMC3     H 4783   1.193   3.137  13.469  0.1514  1.7771  0.5547
  318TMC3    H1 4784   1.597   3.250  13.523 -2.0353  1.2081  2.3458
  318TMC3    H2 4785   1.489   2.835  13.561  0.1505  0.1552 -1.9383
  318TMC3    C7 4786   1.675   2.986  13.609  0.6383  0.5021  0.3573
  318TMC3    C8 4787   1.229   2.876  13.522 -0.4709 -0.0045 -0.3962
  318TMC3    O1 4788   1.776   3.042  13.567  0.4607  0.2633  0.2981
  318TMC3    O2 4789   1.264   2.761  13.552  0.1280 -0.1219  0.0149
  319MPD2     C 4790   2.343   4.082  16.278 -0.0493 -0.3443 -0.3021
  319MPD2    C1 4791   2.255   4.080  16.381  0.0966 -0.4274  0.6873
  319MPD2    C2 4792   2.123   4.060  16.352 -0.0406 -0.3414  0.5134
  319MPD2    C3 4793   2.077   4.053  16.223 -0.1586  0.1090  0.0950
  319MPD2    C4 4794   2.169   4.071  16.124 -0.0532  0.0927 -0.1308
  319MPD2    C5 4795   2.299   4.092  16.146  0.4366 -0.6360  0.0153
  319MPD2     H 4796   2.052   4.055  16.434  0.8748 -1.9555  1.2089
  319MPD2    H1 4797   2.132   4.059  16.023 -0.3220 -0.1044 -0.0109
  319MPD2    H2 4798   2.445   4.110  16.302 -0.5367  0.0112  1.3794
  319MPD2    H3 4799   2.371   4.107  16.066  3.0328 -2.0560  2.0973
  319MPD2     N 4800   1.946   4.018  16.183 -0.9675 -0.0928 -0.4410
  319MPD2    H5 4801   1.925   4.018  16.083  0.2787 -2.0994 -0.7098
  319MPD2    N1 4802   2.290   4.081  16.518 -0.0283 -0.4672 -0.3627
  319MPD2    H7 4803   2.217   4.069  16.588  0.7862  2.0951  0.9407
  320TMC3    C1 4804   1.716   3.956  16.205  0.6837 -0.1173 -0.4498
  320TMC3    C2 4805   1.688   4.019  16.084  0.9119  0.7687  0.2254
  320TMC3    C3 4806   1.569   3.979  16.029 -0.2239  0.3680 -0.0571
  320TMC3    C4 4807   1.624   3.886  16.283  0.1646  0.5827  0.2734
  320TMC3    C5 4808   1.492   3.879  16.231  0.0480 -0.6773 -0.2940
  320TMC3    C6 4809   1.471   3.914  16.100  0.3137  0.5235 -0.0317
  320TMC3     C 4810   1.841   3.989  16.270 -0.3378  0.2494  1.0056
  320TMC3     O 4811   1.845   3.973  16.390 -0.2652 -0.4030  0.1015
  320TMC3     H 4812   1.753   4.088  16.033 -0.1986  0.8160 -1.1290
  320TMC3    H1 4813   1.649   3.844  16.380  1.1765 -2.6198 -1.3714
  320TMC3    H2 4814   1.371   3.899  16.062  0.8401 -0.8566 -0.8782
  320TMC3    C7 4815   1.390   3.797  16.302 -0.4213  0.2412  0.0903
  320TMC3    C8 4816   1.509   4.076  15.935  0.7958 -0.9474  0.1054
  320TMC3    O1 4817   1.300   3.750  16.234  0.3369 -0.0673 -0.3828
  320TMC3    O2 4818   1.389   4.052  15.918 -0.2191 -0.4211 -0.3964
  321TMC3    C1 4819   2.419   4.064  16.715  0.0097  0.8699 -0.3747
  321TMC3    C2 4820   2.366   3.948  16.753 -0.3863  0.3179 -0.2028
  321TMC3    C3 4821   2.319   3.917  16.879 -0.2598  0.7027 -0.0405
  321TMC3    C4 4822   2.428   4.163  16.813 -0.0231  0.1273  0.0624
  321TMC3    C5 4823   2.390   4.134  16.939  0.2572 -0.3362  0.2989
  321TMC3    C6 4824   2.324   4.012  16.974 -0.2356 -0.6397  0.6262
  321TMC3     C 4825   2.417   4.105  16.577  0.1033  0.0508  0.1902
  321TMC3     O 4826   2.526   4.138  16.529  0.5755 -0.1366  0.0551
  321TMC3     H 4827   2.344   3.883  16.669 -1.4089 -0.5420  0.7398
  321TMC3    H1 4828   2.467   4.262  16.797 -2.0790  0.5969 -2.0249
  321TMC3    H2 4829   2.323   3.984  17.079  1.2424  1.0842  1.1053
  321TMC3    C7 4830   2.489   4.178  17.045 -0.0270 -0.2333 -0.3958
  321TMC3    C8 4831   2.369   3.789  16.940 -0.0118 -0.4920 -0.1638
  321TMC3    O1 4832   2.606   4.165  17.015 -0.4119 -0.1611 -0.4456
  321TMC3    O2 4833   2.350   3.770  17.061 -0.3179  0.5455  0.0133
  322MPD2     C 4834   0.794   0.863  13.666 -0.2552 -0.3311 -0.2228
  322MPD2    C1 4835   0.897   0.822  13.751  0.5509  0.1229 -0.1893
  322MPD2    C2 4836   0.990   0.737  13.698 -0.0766  0.2790 -0.1217
  322MPD2    C3 4837   0.980   0.685  13.572 -0.1676 -0.3650  0.9996
  322MPD2    C4 4838   0.889   0.735  13.481  0.0893 -0.2007  0.7245
  322MPD2    C5 4839   0.799   0.829  13.531  0.5081  0.1652 -0.7888
  322MPD2     H 4840   1.065   0.695  13.763 -0.5140 -0.5579 -0.1541
  322MPD2    H1 4841   0.881   0.707  13.376 -0.1490  0.7909  0.4809
  322MPD2    H2 4842   0.705   0.908  13.708  1.1850  0.6904  1.7365
  322MPD2    H3 4843   0.714   0.856  13.470  1.6864  2.3680 -1.4377
  322MPD2     N 4844   1.080   0.597  13.534  0.3110 -0.4806 -0.2374
  322MPD2    H5 4845   1.154   0.572  13.600  0.2201 -1.0390 -0.3420
  322MPD2    N1 4846   0.900   0.871  13.889 -0.5000 -0.1935  0.2197
  322MPD2    H7 4847   0.967   0.830  13.954 -0.2194 -1.1239 -0.6487
  323TMC3    C1 4848   0.904   1.036  14.046 -0.0833 -0.1915 -0.0414
  323TMC3    C2 4849   0.967   1.157  14.045  0.2767 -0.2234  0.9833
  323TMC3    C3 4850   1.002   1.209  14.168  0.6237  0.4267  0.9295
  323TMC3    C4 4851   0.863   0.973  14.159 -1.3517  0.3010 -0.8368
  323TMC3    C5 4852   0.908   1.021  14.283 -0.1656 -0.5292 -0.3601
  323TMC3    C6 4853   0.963   1.149  14.291  0.0026 -0.9646  0.0613
  323TMC3     C 4854   0.846   0.994  13.919  0.0018 -0.5583  1.0381
  323TMC3     O 4855   0.805   1.081  13.843  0.3251 -0.0390  0.6723
  323TMC3     H 4856   0.998   1.199  13.950 -0.1979 -1.4919  0.2773
  323TMC3    H1 4857   0.817   0.875  14.151  0.1242 -0.4533 -0.1823
  323TMC3    H2 4858   0.974   1.197  14.388 -1.8490 -0.2950 -0.0545
  323TMC3    C7 4859   0.947   0.928  14.387 -0.7256  0.2885  0.0538
  323TMC3    C8 4860   1.130   1.257  14.183 -0.2119  0.9643  0.1540
  323TMC3    O1 4861   0.902   0.811  14.385 -0.2588  0.4218  0.2142
  323TMC3    O2 4862   1.204   1.205  14.266  0.5511 -0.6118 -0.5274
  324MPD2     C 4863   2.774   2.393  14.485  0.4930  0.0774 -0.6395
  324MPD2    C1 4864   2.814   2.521  14.490 -0.0730  0.0689  0.6654
  324MPD2    C2 4865   2.748   2.621  14.417 -0.4140  0.3600 -0.5210
  324MPD2    C3 4866   2.627   2.599  14.355 -0.1276  0.1266  0.3653
  324MPD2    C4 4867   2.585   2.468  14.360 -0.7931 -0.5197  0.1489
  324MPD2    C5 4868   2.661   2.371  14.415  0.4388 -0.2636 -0.3386
  324MPD2     H 4869   2.790   2.721  14.428  0.1815 -0.0978  1.3167
  324MPD2    H1 4870   2.484   2.455  14.323 -1.8228  1.8244  2.1759
  324MPD2    H2 4871   2.829   2.318  14.540 -0.3523 -1.3809 -1.7821
  324MPD2    H3 4872   2.626   2.268  14.416 -0.7495  0.1346 -1.1881
  324MPD2     N 4873   2.539   2.695  14.310 -0.0092  0.6042 -0.6804
  324MPD2    H5 4874   2.451   2.667  14.268 -0.3775  0.1077  0.4122
  324MPD2    N1 4875   2.939   2.557  14.549 -0.4527  0.5748  1.3421
  324MPD2    H7 4876   2.967   2.650  14.520 -0.5762  0.7274  1.7066
  325TMC3    C1 4877   2.436   2.895  14.302 -0.2582  0.8578  0.2337
  325TMC3    C2 4878   2.357   2.822  14.227  0.0612 -0.0786  0.2839
  325TMC3    C3 4879   2.234   2.793  14.274 -0.6480 -0.5916  0.6451
  325TMC3    C4 4880   2.390   2.945  14.424 -0.0904 -0.6515 -0.1251
  325TMC3    C5 4881   2.263   2.922  14.460  0.5598 -0.2713 -0.6062
  325TMC3    C6 4882   2.181   2.851  14.381  0.5406 -0.4674 -0.9237
  325TMC3     C 4883   2.569   2.832  14.322 -0.8731  0.5666 -0.1424
  325TMC3     O 4884   2.662   2.895  14.371  0.3903  0.7915 -0.7545
  325TMC3     H 4885   2.398   2.786  14.133 -0.8259 -0.1360 -0.0767
  325TMC3    H1 4886   2.457   3.002  14.487  0.4744 -1.3707 -0.0694
  325TMC3    H2 4887   2.081   2.831  14.418  0.5636  0.0724 -0.5786
  325TMC3    C7 4888   2.234   2.950  14.599 -0.5758 -0.9691  0.1958
  325TMC3    C8 4889   2.195   2.659  14.238  0.2714 -0.5218 -0.3986
  325TMC3    O1 4890   2.330   2.981  14.667  0.4906 -0.4559  0.2439
  325TMC3    O2 4891   2.282   2.584  14.192 -0.2628  0.1299 -0.1798
  326MPD2     C 4892   3.243   3.081  11.139  0.3651 -0.5895  0.0696
  326MPD2    C1 4893   3.286   3.058  11.011 -0.1022 -0.2609 -0.3704
  326MPD2    C2 4894   3.424   3.044  10.983 -0.4787 -0.3904 -0.0550
  326MPD2    C3 4895   3.513   3.047  11.087  0.5314 -0.2307 -0.0913
  326MPD2    C4 4896   3.469   3.070  11.214  0.3888  0.3247 -0.1668
  326MPD2    C5 4897   3.334   3.085  11.238  0.0136 -0.1314  0.4433
  326MPD2     H 4898   3.447   3.030  10.878  1.8869  1.1275  0.2724
  326MPD2    H1 4899   3.541   3.075  11.295 -1.5668 -1.8546  1.6884
  326MPD2    H2 4900   3.142   3.102  11.172  0.5900  4.1392 -2.3059
  326MPD2    H3 4901   3.304   3.102  11.340 -1.4285 -1.6343  0.2629
  326MPD2     N 4902   3.656   3.049  11.065  0.2341  0.3117 -0.2997
  326MPD2    H5 4903   3.718   3.055  11.146  0.3538  2.8284 -0.6074
  326MPD2    N1 4904   3.205   3.073  10.893  0.1109  0.0540  0.0920
  326MPD2    H7 4905   3.254   3.084  10.805  1.2112  1.2856  0.8666
  327TMC3    C1 4906   3.042   3.136  10.761  0.2848 -0.4455 -0.1688
  327TMC3    C2 4907   3.048   3.263  10.712 -0.4964 -0.1790 -0.2855
  327TMC3    C3 4908   3.053   3.278  10.576 -0.5293  1.0209  0.7994
  327TMC3    C4 4909   3.043   3.021  10.686 -0.0873  0.4075 -0.1518
  327TMC3    C5 4910   3.058   3.046  10.548  0.3820 -0.1343  0.2950
  327TMC3    C6 4911   3.058   3.173  10.488 -0.1785 -0.0031 -0.2720
  327TMC3     C 4912   3.078   3.123  10.902 -0.1460 -0.2696  0.7535
  327TMC3     O 4913   3.010   3.168  10.990 -0.0847 -0.1462 -0.3090
  327TMC3     H 4914   3.031   3.349  10.776  1.5826  0.1406 -0.1506
  327TMC3    H1 4915   3.026   2.927  10.736 -2.4714  1.2095  0.5484
  327TMC3    H2 4916   3.060   3.181  10.380 -1.4047 -0.0947 -0.3017
  327TMC3    C7 4917   3.141   2.948  10.484  0.1913 -0.1962  0.1857
  327TMC3    C8 4918   3.072   3.412  10.523  0.1018 -0.0883  0.2530
  327TMC3    O1 4919   3.150   2.954  10.361 -0.2620  0.2434  0.1809
  327TMC3    O2 4920   3.052   3.429  10.402  0.6588  0.3648  0.4374
  328MPD2     C 4921   1.409   2.432  17.305  0.4915  0.6927 -0.3161
  328MPD2    C1 4922   1.388   2.415  17.172 -0.4084 -0.4472 -0.8218
  328MPD2    C2 4923   1.412   2.522  17.083 -0.1795  0.4102  0.2154
  328MPD2    C3 4924   1.436   2.649  17.139  0.9732  0.0288 -0.7137
  328MPD2    C4 4925   1.440   2.665  17.275 -0.3834  0.2012 -0.4557
  328MPD2    C5 4926   1.439   2.554  17.359  1.0318  0.8089  0.2852
  328MPD2     H 4927   1.402   2.504  16.977  0.7572 -1.4878  0.4560
  328MPD2    H1 4928   1.463   2.762  17.318 -0.9590 -0.0510  0.4123
  328MPD2    H2 4929   1.388   2.354  17.377  0.9925 -0.1146 -1.0465
  328MPD2    H3 4930   1.470   2.568  17.462 -0.3776 -0.9488  0.9450
  328MPD2     N 4931   1.442   2.772  17.064  0.3763 -0.4935  0.7856
  328MPD2    H5 4932   1.464   2.849  17.125  2.9908 -1.0373  0.5448
  328MPD2    N1 4933   1.354   2.287  17.133  0.2483  0.4267 -0.4756
  328MPD2    H7 4934   1.331   2.225  17.210 -1.4465 -0.3668 -1.6296
  329TMC3    C1 4935   1.260   2.106  17.018  0.0821  0.4658 -0.0706
  329TMC3    C2 4936   1.250   2.039  17.136 -0.5777  0.6043 -0.5031
  329TMC3    C3 4937   1.263   1.904  17.136 -0.2097 -0.0143  0.3155
  329TMC3    C4 4938   1.284   2.039  16.900 -0.2291 -0.4486  1.0273
  329TMC3    C5 4939   1.303   1.902  16.909 -0.2760 -0.2669 -0.0270
  329TMC3    C6 4940   1.271   1.833  17.022  0.1382  0.5956 -0.4523
  329TMC3     C 4941   1.313   2.242  17.010 -0.3751  0.3707  0.6721
  329TMC3     O 4942   1.312   2.296  16.895  0.6118  0.5357  0.5063
  329TMC3     H 4943   1.221   2.082  17.230  2.9798 -0.7005  1.1775
  329TMC3    H1 4944   1.280   2.088  16.803  0.1651  0.7114  1.5948
  329TMC3    H2 4945   1.269   1.725  17.023  0.3253  0.5907 -0.5590
  329TMC3    C7 4946   1.367   1.822  16.806  0.0435 -0.6559 -0.0928
  329TMC3    C8 4947   1.185   1.838  17.238  0.0905 -0.4375  0.1138
  329TMC3    O1 4948   1.386   1.701  16.826 -0.1908 -0.3882 -0.0268
  329TMC3    O2 4949   1.109   1.754  17.190  0.0760 -0.3470  0.1661
  330TMC3    C1 4950   3.394   1.501   9.202  0.9655  0.0745  0.2135
  330TMC3    C2 4951   3.310   1.392   9.176 -0.1845 -0.2096  0.1991
  330TMC3    C3 4952   3.369   1.284   9.115  0.0623 -0.8038 -0.0232
  330TMC3    C4 4953   3.510   1.512   9.141  0.1398  0.3303  0.4988
  330TMC3    C5 4954   3.565   1.405   9.073 -0.1042 -0.0496 -0.1125
  330TMC3    C6 4955   3.491   1.288   9.060  0.3590 -0.2143 -0.4503
  330TMC3     C 4956   3.352   1.607   9.287 -0.6032  1.1138  0.4965
  330TMC3     O 4957   3.445   1.680   9.318 -0.1918 -0.3060  0.1402
  330TMC3     H 4958   3.225   1.381   9.242 -0.8136  0.0766 -0.5655
  330TMC3    H1 4959   3.564   1.606   9.143 -1.6164  1.3279  0.7125
  330TMC3    H2 4960   3.515   1.201   9.001  2.6734 -0.1705  0.4433
  330TMC3    C7 4961   3.689   1.431   8.991  0.0734  0.3843  0.3357
  330TMC3    C8 4962   3.290   1.160   9.097  0.1006  0.6959  0.3764
  330TMC3    O1 4963   3.743   1.542   9.005  0.1291 -0.4382 -0.7694
  330TMC3    O2 4964   3.349   1.065   9.047 -0.1728 -1.0651  0.5284
  331MPD2     C 4965   1.930   1.882  13.131 -0.1516  0.1603 -0.0876
  331MPD2    C1 4966   2.032   1.913  13.037 -0.4945  0.7304  0.6369
  331MPD2    C2 4967   2.058   1.825  12.940  0.0202  0.0465 -0.2884
  331MPD2    C3 4968   1.984   1.703  12.927  0.1341 -0.1149 -0.1893
  331MPD2    C4 4969   1.885   1.668  13.021 -0.4209 -0.4593 -0.0860
  331MPD2    C5 4970   1.861   1.761  13.123  0.2209  0.4591  0.1551
  331MPD2     H 4971   2.124   1.855  12.859 -2.9966  1.1179 -2.3709
  331MPD2    H1 4972   1.829   1.576  13.024  0.8045 -1.2248 -0.6204
  331MPD2    H2 4973   1.902   1.957  13.204  0.0955  0.9833 -0.8500
  331MPD2    H3 4974   1.798   1.726  13.204  0.5366 -1.4549 -0.4074
  331MPD2     N 4975   2.014   1.616  12.817  0.1634  0.8546  0.1438
  331MPD2    H5 4976   2.088   1.654  12.759 -0.2503  0.3016 -0.7299
  331MPD2    N1 4977   2.090   2.042  13.047 -0.3773  0.2904  0.2305
  331MPD2    H7 4978   2.040   2.110  13.103 -1.3675 -0.9734  0.8740
  332TMC3    C1 4979   2.022   1.437  12.681 -0.0073 -0.3589  0.2350
  332TMC3    C2 4980   2.056   1.506  12.570  0.8523  0.1412  0.0282
  332TMC3    C3 4981   2.135   1.444  12.478 -0.4446 -0.0570 -0.2530
  332TMC3    C4 4982   2.070   1.312  12.712 -0.2508  0.9321  1.0424
  332TMC3    C5 4983   2.170   1.262  12.623 -0.2665  0.5636  0.3635
  332TMC3    C6 4984   2.203   1.326  12.506 -0.3900  0.3987 -1.0597
  332TMC3     C 4985   1.951   1.499  12.790  0.1492  0.1471 -0.5302
  332TMC3     O 4986   1.874   1.435  12.856 -0.2255 -0.5791  0.1438
  332TMC3     H 4987   2.011   1.600  12.540  1.1372  0.0557 -0.6696
  332TMC3    H1 4988   2.039   1.273  12.809 -0.9840  1.3265  0.9681
  332TMC3    H2 4989   2.279   1.291  12.437 -0.6710 -0.3215 -0.9999
  332TMC3    C7 4990   2.249   1.167  12.695 -0.6492  0.1287 -0.0049
  332TMC3    C8 4991   2.159   1.520  12.354 -1.0432  0.2353  0.0941
  332TMC3    O1 4992   2.193   1.105  12.785  0.4624  0.1022  0.2845
  332TMC3    O2 4993   2.173   1.642  12.345  0.4443  0.0492  0.1449
  333MPD2     C 4994   2.266   1.428  11.479  0.0221 -0.4903  0.9601
  333MPD2    C1 4995   2.364   1.337  11.456 -0.1198 -1.0579  0.2352
  333MPD2    C2 4996   2.347   1.205  11.500 -0.0825  0.4462 -0.2736
  333MPD2    C3 4997   2.237   1.171  11.572 -0.4804 -0.1714 -0.1899
  333MPD2    C4 4998   2.135   1.264  11.601 -0.1056  0.2811 -0.0290
  333MPD2    C5 4999   2.156   1.391  11.554 -0.1636  0.1252 -1.1135
  333MPD2     H 5000   2.422   1.130  11.480 -0.1212  0.4453 -0.4164
  333MPD2    H1 5001   2.048   1.235  11.659  0.4602  2.6067  1.9935
  333MPD2    H2 5002   2.284   1.532  11.454 -1.0838 -0.4751  0.2243
  333MPD2    H3 5003   2.084   1.470  11.574 -1.7018 -1.6438  0.3323
  333MPD2     N 5004   2.227   1.037  11.605  0.0493  0.0520  0.5784
  333MPD2    H5 5005   2.305   0.977  11.579  1.6605  1.5369  2.0512
  333MPD2    N1 5006   2.491   1.382  11.400  0.4368 -0.3831  0.5602
  333MPD2    H7 5007   2.509   1.480  11.420  1.7244 -0.1170 -1.8972
  334TMC3    C1 5008   2.677   1.373  11.271  0.7389 -0.4120  0.1098
  334TMC3    C2 5009   2.803   1.315  11.241  0.1074  0.0063 -0.6579
  334TMC3    C3 5010   2.889   1.384  11.160  0.8572  0.8756  0.1725
  334TMC3    C4 5011   2.645   1.501  11.216 -0.2410 -0.0280  0.1464
  334TMC3    C5 5012   2.742   1.562  11.150 -0.7721  0.5855  0.0182
  334TMC3    C6 5013   2.864   1.515  11.123 -0.0280 -0.9755  0.2774
  334TMC3     C 5014   2.582   1.293  11.345 -0.4172  0.3654 -0.6637
  334TMC3     O 5015   2.565   1.175  11.307  0.0149  0.2629  0.3539
  334TMC3     H 5016   2.818   1.221  11.292  0.6733  1.6030  2.1935
  334TMC3    H1 5017   2.548   1.547  11.224  0.5673  1.1189  3.2383
  334TMC3    H2 5018   2.934   1.584  11.076 -0.9328 -0.4280 -0.2569
  334TMC3    C7 5019   2.708   1.703  11.111  0.0105  0.6563 -0.1006
  334TMC3    C8 5020   3.022   1.337  11.148  0.0129 -0.4071 -0.5433
  334TMC3    O1 5021   2.811   1.773  11.110  0.3068  0.0437  0.5926
  334TMC3    O2 5022   3.054   1.242  11.223  0.4998 -0.6785 -0.2952
  335TMC3    C1 5023   2.185   2.691   0.105 -0.2971 -0.0477 -0.1975
  335TMC3    C2 5024   2.084   2.637   0.030 -0.6619  0.2557 -0.3281
  335TMC3    C3 5025   2.121   2.583  17.604  0.4074 -0.6806 -0.4339
  335TMC3    C4 5026   2.317   2.692   0.053  0.1577  1.3819 -0.0361
  335TMC3    C5 5027   2.344   2.628  17.624  0.2953 -0.4801 -0.4419
  335TMC3    C6 5028   2.246   2.571  17.556 -0.3503 -0.0157 -0.7080
  335TMC3     C 5029   2.164   2.731   0.244 -0.2333  0.3513  0.0548
  335TMC3     O 5030   2.246   2.814   0.284  0.0231 -0.3664  0.7513
  335TMC3     H 5031   1.978   2.634   0.049 -0.8314  3.1120 -0.7190
  335TMC3    H1 5032   2.396   2.720   0.122  0.3722  0.2608  0.1737
  335TMC3    H2 5033   2.259   2.520  17.461  0.2090 -0.5342 -0.3532
  335TMC3    C7 5034   2.474   2.643  17.557  0.0394  0.2864 -0.1376
  335TMC3    C8 5035   2.009   2.562  17.517 -0.2139  0.3128  0.2701
  335TMC3    O1 5036   2.499   2.560  17.468 -0.0485  0.0152 -0.3546
  335TMC3    O2 5037   1.935   2.661  17.504 -0.3510  0.3740 -0.1442
  336MPD2     C 5038   1.471   0.422  16.370 -0.4057 -0.0054 -0.1391
  336MPD2    C1 5039   1.401   0.398  16.251  0.2714  0.0820 -0.0716
  336MPD2    C2 5040   1.375   0.269  16.211  0.1894 -0.5372  0.6405
  336MPD2    C3 5041   1.415   0.161  16.284  0.8110  0.2582 -0.4669
  336MPD2    C4 5042   1.483   0.185  16.402 -0.1493 -0.2241  0.3714
  336MPD2    C5 5043   1.506   0.314  16.446 -0.1230  0.5300  0.8340
  336MPD2     H 5044   1.319   0.252  16.119  1.9750  1.5561 -0.8279
  336MPD2    H1 5045   1.508   0.093  16.454 -0.1454 -0.0508  0.6770
  336MPD2    H2 5046   1.500   0.518  16.411  0.0283 -0.7397  1.2544
  336MPD2    H3 5047   1.556   0.326  16.541  0.1457 -1.8194  0.9864
  336MPD2     N 5048   1.389   0.031  16.244 -0.8349  1.2428  0.9187
  336MPD2    H5 5049   1.404   4.681  16.314 -1.5531 -1.2005 -1.4434
  336MPD2    N1 5050   1.357   0.504  16.168 -0.9642  0.8880 -0.6102
  336MPD2    H7 5051   1.312   0.481  16.079 -1.9727 -2.0542  0.6626
  337TMC3    C1 5052   1.336   0.707  16.057  0.2475  0.5325  0.2462
  337TMC3    C2 5053   1.226   0.661  15.993  0.2829  0.5270  0.0915
  337TMC3    C3 5054   1.175   0.746  15.895 -0.1105  0.1216  0.2447
  337TMC3    C4 5055   1.405   0.816  16.016 -0.3939 -0.3743  0.5413
  337TMC3    C5 5056   1.363   0.896  15.919 -0.7199 -0.1771 -0.1799
  337TMC3    C6 5057   1.248   0.860  15.852 -0.6957 -0.1346  0.0494
  337TMC3     C 5058   1.371   0.642  16.178  0.2444  0.2146  0.3691
  337TMC3     O 5059   1.423   0.703  16.272 -0.4649  0.3336  0.2877
  337TMC3     H 5060   1.167   0.574  16.020  0.2359  1.5452  3.2324
  337TMC3    H1 5061   1.489   0.845  16.078 -1.6565 -0.1335  2.1636
  337TMC3    H2 5062   1.200   0.946  15.806 -0.4345 -0.2856 -0.5034
  337TMC3    C7 5063   1.457   0.987  15.862  0.2356 -0.2922 -0.2710
  337TMC3    C8 5064   1.040   0.723  15.854 -0.1153 -0.6961 -0.1422
  337TMC3    O1 5065   1.562   0.989  15.926  0.5376 -0.4931 -0.6270
  337TMC3    O2 5066   0.978   0.639  15.915  0.0335 -0.3898  0.1806
  338MPD2     C 5067   2.122   4.290   1.024 -0.6944  0.0159 -0.6692
  338MPD2    C1 5068   2.073   4.251   0.905 -0.4671 -0.1095  0.1258
  338MPD2    C2 5069   1.936   4.262   0.880  0.2250 -0.5794 -0.2984
  338MPD2    C3 5070   1.848   4.293   0.978 -0.0484  0.2841 -1.0382
  338MPD2    C4 5071   1.901   4.330   1.103 -0.6701  0.2368 -0.2811
  338MPD2    C5 5072   2.036   4.330   1.120 -0.4362 -0.3407  0.2874
  338MPD2     H 5073   1.899   4.234   0.782 -0.9206 -1.5995  0.4326
  338MPD2    H1 5074   1.840   4.373   1.182 -0.6241 -1.6692  0.7718
  338MPD2    H2 5075   2.226   4.292   1.054 -0.4874 -1.8762 -1.2937
  338MPD2    H3 5076   2.081   4.377   1.206 -0.3363 -0.0619  0.0821
  338MPD2     N 5077   1.710   4.303   0.950 -0.3834  0.0602 -0.1486
  338MPD2    H5 5078   1.684   4.294   0.852 -1.3257  0.5768  0.0536
  338MPD2    N1 5079   2.156   4.205   0.799  0.0518  0.1696  0.1846
  338MPD2    H7 5080   2.117   4.167   0.713  2.5462 -1.0352 -0.4062
  339TMC3    C1 5081   1.469   4.315   1.000  0.4166 -0.0325 -0.0469
  339TMC3    C2 5082   1.382   4.289   1.097  0.1325 -0.8220  0.0177
  339TMC3    C3 5083   1.253   4.341   1.077  0.2499 -1.0935 -0.2363
  339TMC3    C4 5084   1.444   4.393   0.885 -0.2570  0.2984  0.0388
  339TMC3    C5 5085   1.320   4.456   0.884 -0.0851  0.7940 -0.5727
  339TMC3    C6 5086   1.228   4.432   0.982 -0.5959  0.0082 -0.0295
  339TMC3     C 5087   1.614   4.297   1.048  0.1082  0.7227 -0.4448
  339TMC3     O 5088   1.620   4.258   1.166  0.1142  0.0312  0.1572
  339TMC3     H 5089   1.397   4.230   1.187  2.8086 -0.6185 -0.3006
  339TMC3    H1 5090   1.520   4.416   0.811  0.5279 -3.1853 -0.2111
  339TMC3    H2 5091   1.132   4.482   0.973 -0.5121  0.0882 -0.5015
  339TMC3    C7 5092   1.302   4.556   0.789 -0.5611  0.7200 -0.0058
  339TMC3    C8 5093   1.140   4.278   1.130  0.0171 -0.3577 -0.1666
  339TMC3    O1 5094   1.367   4.556   0.682 -0.1410 -0.6713  0.1628
  339TMC3    O2 5095   1.033   4.325   1.092  0.2455 -0.7195  0.4515
  340MPD2     C 5096   1.734   2.401   9.849  0.0106 -1.0078 -0.3449
  340MPD2    C1 5097   1.781   2.319   9.955  0.3517 -0.3849  0.3268
  340MPD2    C2 5098   1.833   2.374  10.072  1.0881  0.0441  0.4956
  340MPD2    C3 5099   1.855   2.506  10.089  0.0224  0.1578 -0.5418
  340MPD2    C4 5100   1.822   2.582   9.976  0.1798 -0.1867  0.1462
  340MPD2    C5 5101   1.760   2.531   9.865  0.6826 -0.2481  0.4475
  340MPD2     H 5102   1.883   2.309  10.143  0.8156 -1.6848 -0.8920
  340MPD2    H1 5103   1.842   2.688   9.985  0.0451 -0.2053  0.7112
  340MPD2    H2 5104   1.704   2.372   9.749 -2.3123  2.5075 -0.6833
  340MPD2    H3 5105   1.729   2.604   9.791  0.9286 -1.5419 -0.9257
  340MPD2     N 5106   1.922   2.568  10.200 -0.7147  0.3980 -0.1991
  340MPD2    H5 5107   1.922   2.670  10.199 -0.8179  0.4232  1.8231
  340MPD2    N1 5108   1.774   2.181   9.927 -0.1172  0.3016  0.8570
  340MPD2    H7 5109   1.739   2.149   9.837 -1.7455  1.1421  1.1970
  341TMC3    C1 5110   1.833   1.957   9.963 -0.1145 -0.2032 -0.1070
  341TMC3    C2 5111   1.784   1.848  10.026 -0.1222  0.1819 -0.2187
  341TMC3    C3 5112   1.819   1.720   9.988 -0.7329 -0.0069 -0.8326
  341TMC3    C4 5113   1.916   1.957   9.855 -0.7648  0.0264  0.4824
  341TMC3    C5 5114   1.955   1.832   9.818 -0.7978 -0.1927 -0.0296
  341TMC3    C6 5115   1.902   1.715   9.874 -0.1229 -0.2133  0.4504
  341TMC3     C 5116   1.808   2.086  10.024  0.8342  0.1412 -1.1752
  341TMC3     O 5117   1.828   2.094  10.144 -0.0420  0.8089  0.6409
  341TMC3     H 5118   1.725   1.864  10.115 -0.6261  0.3986 -0.5983
  341TMC3    H1 5119   1.961   2.047   9.816 -2.9466 -0.4226 -3.0836
  341TMC3    H2 5120   1.939   1.624   9.828  1.6024  0.4033  0.6193
  341TMC3    C7 5121   2.072   1.818   9.741  0.4615  0.3760  0.0389
  341TMC3    C8 5122   1.798   1.596  10.053 -0.1166 -0.2264 -0.1542
  341TMC3    O1 5123   2.160   1.900   9.763 -0.1936 -0.7030  0.3302
  341TMC3    O2 5124   1.769   1.496   9.987  0.1210 -0.7587 -0.2404
  342MPD2     C 5125   4.516   0.988  17.638  0.5559  0.0008  0.2200
  342MPD2    C1 5126   4.632   0.969  17.560  0.6920  0.0935 -0.1481
  342MPD2    C2 5127   4.718   1.079  17.534  0.7253  0.1040 -0.7969
  342MPD2    C3 5128   4.695   1.209  17.586  0.1512  0.3024  0.2946
  342MPD2    C4 5129   4.581   1.215  17.666  0.0949 -0.1728 -0.2672
  342MPD2    C5 5130   4.499   1.110   0.003  0.1418  0.6958 -0.3893
  342MPD2     H 5131   0.077   1.064  17.464 -0.1295 -1.0913 -1.5322
  342MPD2    H1 5132   4.559   1.302   0.036  0.6290  1.0059 -1.7534
  342MPD2    H2 5133   4.441   0.912  17.655 -1.4025  1.9556  0.2519
  342MPD2    H3 5134   4.416   1.108   0.072 -0.7700 -1.5554 -1.5427
  342MPD2     N 5135   0.050   1.326  17.565  0.0122 -0.0584  0.3519
  342MPD2    H5 5136   0.033   1.398  17.635 -1.0283 -0.8038  0.8651
  342MPD2    N1 5137   4.666   0.844  17.503 -0.0012 -0.0521 -0.9540
  342MPD2    H7 5138   0.036   0.836  17.461  0.2966  0.9307 -0.4804
  343TMC3    C1 5139   4.667   0.621  17.464 -0.3997  0.6227 -0.3134
  343TMC3    C2 5140   0.050   0.644  17.381 -0.2818  0.3570  0.5072
  343TMC3    C3 5141   0.140   0.537  17.362  0.3211  0.4400 -0.1947
  343TMC3    C4 5142   4.641   0.507  17.530  0.1513  0.1892 -1.0913
  343TMC3    C5 5143   0.016   0.409  17.528 -0.4065  0.3320 -0.7488
  343TMC3    C6 5144   0.129   0.423  17.445 -0.9634  0.3699 -0.5071
  343TMC3     C 5145   4.589   0.732  17.504  0.3668 -0.5421  0.0859
  343TMC3     O 5146   4.480   0.706  17.557  0.4563 -0.0593  0.1056
  343TMC3     H 5147   0.051   0.734  17.320  1.1920 -1.8584 -2.6727
  343TMC3    H1 5148   4.548   0.493  17.585  0.6394  0.7107 -0.1379
  343TMC3    H2 5149   0.194   0.337  17.432 -0.1873  0.8364  0.3598
  343TMC3    C7 5150   4.679   0.278  17.511  1.1678  0.0506  0.1659
  343TMC3    C8 5151   0.165   0.513  17.226  0.2550 -0.3589  0.1904
  343TMC3    O1 5152   4.686   0.238  17.397 -0.0537 -0.2741 -0.0777
  343TMC3    O2 5153   0.130   0.600  17.145  0.4445 -0.0236 -0.6940
  344MPD2     C 5154   1.210   0.377  10.976  0.3389  0.1085  0.2975
  344MPD2    C1 5155   1.095   0.376  10.899 -1.0752  0.5688 -0.4108
  344MPD2    C2 5156   1.092   0.467  10.799 -0.2692 -0.4039 -0.1587
  344MPD2    C3 5157   1.201   0.551  10.781  0.3391 -0.6658  0.2459
  344MPD2    C4 5158   1.314   0.552  10.859 -0.0544  0.4225  0.2941
  344MPD2    C5 5159   1.314   0.462  10.964  1.0673  0.0484  0.6386
  344MPD2     H 5160   1.012   0.469  10.726 -1.1301 -0.2005  0.7900
  344MPD2    H1 5161   1.402   0.613  10.844 -0.4371 -0.1622 -4.1913
  344MPD2    H2 5162   1.223   0.299  11.051  0.3464  0.7175  0.9290
  344MPD2    H3 5163   1.389   0.463  11.043  2.2304 -0.2731 -0.4564
  344MPD2     N 5164   1.199   0.650  10.676 -0.4442 -0.6726 -0.9258
  344MPD2    H5 5165   1.285   0.702  10.670  0.3682 -2.1455 -2.0472
  344MPD2    N1 5166   0.982   0.293  10.915  0.1056 -0.2415  0.1335
  344MPD2    H7 5167   0.911   0.303  10.843  0.5606 -0.2015 -0.3068
  345TMC3    C1 5168   1.122   0.792  10.502  0.4476  0.3381  0.1733
  345TMC3    C2 5169   1.239   0.870  10.528 -0.5952 -0.5729 -0.4528
  345TMC3    C3 5170   1.291   0.940  10.423 -0.1088 -0.4453 -0.1239
  345TMC3    C4 5171   1.043   0.807  10.392  0.0272  0.7406 -0.3483
  345TMC3    C5 5172   1.103   0.879  10.287 -0.3652 -0.4343  0.3490
  345TMC3    C6 5173   1.229   0.936  10.298 -0.6917 -0.2401 -0.5031
  345TMC3     C 5174   1.092   0.681  10.590  0.3339  0.0761  0.2181
  345TMC3     O 5175   0.995   0.619  10.563 -0.1802  0.2288 -0.5748
  345TMC3     H 5176   1.265   0.881  10.633  0.3235 -1.7575 -0.5554
  345TMC3    H1 5177   0.958   0.740  10.381  1.4841 -0.8977 -1.6147
  345TMC3    H2 5178   1.262   1.004  10.220 -1.0928  2.5156  1.7186
  345TMC3    C7 5179   1.038   0.936  10.172 -0.5888 -0.2327 -0.4342
  345TMC3    C8 5180   1.358   1.065  10.461 -0.1990 -0.4711  0.1638
  345TMC3    O1 5181   1.107   0.989  10.083  0.0856 -0.5409 -0.0751
  345TMC3    O2 5182   1.329   1.157  10.386  0.1416 -0.3005  0.6982
  346MPD2     C 5183   1.083   2.236  14.404 -0.0500  0.0950  0.1883
  346MPD2    C1 5184   1.190   2.307  14.351  0.2316  0.4480 -0.9123
  346MPD2    C2 5185   1.291   2.347  14.444 -0.0228 -0.5214 -0.7109
  346MPD2    C3 5186   1.264   2.347  14.580  0.5593 -0.1201 -0.2448
  346MPD2    C4 5187   1.146   2.279  14.625 -0.5331 -0.6483 -0.5381
  346MPD2    C5 5188   1.068   2.215  14.537  0.6233 -0.7316 -0.3333
  346MPD2     H 5189   1.380   2.399  14.411 -0.6745  2.1456  1.8746
  346MPD2    H1 5190   1.113   2.271  14.728  1.8452  1.1792  0.3590
  346MPD2    H2 5191   1.016   2.187  14.336 -0.5366  0.0704  0.6812
  346MPD2    H3 5192   0.981   2.160  14.569 -1.3415  1.4772 -1.9125
  346MPD2     N 5193   1.340   2.421  14.673  0.1896  0.4086  0.3527
  346MPD2    H5 5194   1.422   2.468  14.636 -0.6331  0.9332 -0.8095
  346MPD2    N1 5195   1.200   2.336  14.215 -0.0489  0.0320  0.4621
  346MPD2    H7 5196   1.283   2.387  14.188  0.4355 -0.4122  1.1346
  347TMC3    C1 5197   1.405   2.511  14.892  0.5250  1.1832 -0.2531
  347TMC3    C2 5198   1.495   2.600  14.839  0.3016 -0.2259  1.0642
  347TMC3    C3 5199   1.561   2.686  14.921  0.5703 -0.4028  0.5478
  347TMC3    C4 5200   1.382   2.506  15.024 -0.0327  0.1522 -0.0113
  347TMC3    C5 5201   1.460   2.582  15.105  0.1671  0.4372  0.2277
  347TMC3    C6 5202   1.538   2.683  15.060  0.0589  0.3500 -0.3161
  347TMC3     C 5203   1.315   2.432  14.811  0.1094  0.4604  0.6218
  347TMC3     O 5204   1.222   2.387  14.876  0.1297  0.1284  0.0022
  347TMC3     H 5205   1.503   2.618  14.733 -1.5381 -0.5744  0.8620
  347TMC3    H1 5206   1.322   2.430  15.071 -0.3501 -0.6269 -1.6580
  347TMC3    H2 5207   1.584   2.764  15.116  4.5247 -1.7434 -0.9280
  347TMC3    C7 5208   1.405   2.593  15.238  0.1026  0.0768  0.5253
  347TMC3    C8 5209   1.666   2.775  14.867  0.0585 -0.9807  0.5986
  347TMC3    O1 5210   1.291   2.552  15.245  0.5981 -0.0558 -0.5051
  347TMC3    O2 5211   1.669   2.784  14.744  0.0749  0.2444  0.7307
  348MPD2     C 5212   4.321   1.674  11.761  0.0326  0.2782 -0.0574
  348MPD2    C1 5213   4.379   1.788  11.803  0.3136 -0.2087 -0.1610
  348MPD2    C2 5214   4.325   1.907  11.754  0.1046 -0.7222  0.1303
  348MPD2    C3 5215   4.232   1.911  11.652 -0.3435  0.6413  0.3358
  348MPD2    C4 5216   4.175   1.788  11.617 -0.7439 -0.0772 -0.3820
  348MPD2    C5 5217   4.221   1.670  11.668  0.4919  0.0157  0.2650
  348MPD2     H 5218   4.365   1.995  11.803 -0.7101  1.3884 -3.0287
  348MPD2    H1 5219   4.099   1.778  11.539 -0.2013  0.1147 -0.9351
  348MPD2    H2 5220   4.354   1.584  11.812 -0.9165  0.4747  0.9015
  348MPD2    H3 5221   4.170   1.578  11.642  1.1476 -0.0723 -0.6954
  348MPD2     N 5222   4.202   2.028  11.583  0.8117 -0.1557  0.0659
  348MPD2    H5 5223   4.235   2.117  11.618  0.0469 -0.0865  0.6271
  348MPD2    N1 5224   4.458   1.799  11.917 -0.2161  0.1664  0.0321
  348MPD2    H7 5225   4.497   1.892  11.932 -1.8637  1.0392 -1.0275
  349TMC3    C1 5226   4.601   1.756  12.090  0.2669 -0.7052  0.1455
  349TMC3    C2 5227   4.679   1.646  12.121 -0.1674  0.0482  0.0420
  349TMC3    C3 5228   0.099   1.673  12.108  0.1692 -0.4901 -0.2693
  349TMC3    C4 5229   4.652   1.877  12.047  0.7826  0.6708  0.1711
  349TMC3    C5 5230   0.061   1.891  12.019 -0.3451  0.6482 -0.1181
  349TMC3    C6 5231   0.146   1.792  12.057  0.1543  0.2307 -0.3050
  349TMC3     C 5232   4.477   1.712  12.024  0.7144  0.5461 -0.2590
  349TMC3     O 5233   4.423   1.605  12.042 -0.3867 -0.5690 -0.1222
  349TMC3     H 5234   4.636   1.550  12.145  1.2551 -0.4563  0.5738
  349TMC3    H1 5235   4.592   1.967  12.049  0.0150  0.0916  3.1664
  349TMC3    H2 5236   0.252   1.807  12.035  0.4626  0.5997  1.4357
  349TMC3    C7 5237   0.090   1.968  11.893  0.2547  0.7783 -0.3132
  349TMC3    C8 5238   0.185   1.565  12.149 -0.0417 -0.2934 -0.8316
  349TMC3    O1 5239   0.149   1.898  11.813  0.3977  0.0408  0.0675
  349TMC3    O2 5240   0.129   1.457  12.170  0.0988  0.0728  0.3457
  350MPD2     C 5241   2.964   4.495  10.086 -0.2535  0.3785  0.3064
  350MPD2    C1 5242   3.070   4.415  10.074  0.5705 -0.2399 -0.0594
  350MPD2    C2 5243   3.181   4.423  10.160 -0.2538  0.7378 -0.4413
  350MPD2    C3 5244   3.182   4.519  10.259 -0.7026  0.1385  0.6225
  350MPD2    C4 5245   3.075   4.603  10.268  0.6174 -0.5954  0.3116
  350MPD2    C5 5246   2.965   4.593  10.190  0.1296  0.5480 -0.5041
  350MPD2     H 5247   3.258   4.349  10.140 -1.5105 -0.7898  0.3628
  350MPD2    H1 5248   3.078   4.677  10.347 -2.9283 -0.5152  0.3867
  350MPD2    H2 5249   2.871   4.484  10.032  0.6052 -1.3156 -0.8072
  350MPD2    H3 5250   2.890   4.669  10.213  0.5735  1.0108 -0.5915
  350MPD2     N 5251   3.289   4.537  10.354  0.1947 -0.2214 -0.2820
  350MPD2    H5 5252   3.283   4.619  10.413 -0.2141 -0.5922  0.1833
  350MPD2    N1 5253   3.073   4.312   9.982  0.4782  0.2048 -0.2266
  350MPD2    H7 5254   3.150   4.247   9.982 -0.5658 -1.0340  0.4663
  351TMC3    C1 5255   2.993   4.179   9.797  0.5433 -0.1433  0.9563
  351TMC3    C2 5256   3.033   4.073   9.870  0.6552  0.1985 -0.4801
  351TMC3    C3 5257   3.029   3.952   9.807 -0.2408 -0.5602  0.2893
  351TMC3    C4 5258   2.940   4.171   9.679 -0.3206  0.3693 -0.4225
  351TMC3    C5 5259   2.951   4.045   9.614 -0.0279 -0.0971  0.8020
  351TMC3    C6 5260   2.988   3.934   9.675 -0.4943 -0.2694  0.4418
  351TMC3     C 5261   2.982   4.299   9.873  0.7687  0.0511  0.4812
  351TMC3     O 5262   2.905   4.386   9.832 -0.1261 -0.2544 -0.3586
  351TMC3     H 5263   3.054   4.080   9.976  1.6215  0.2965 -0.6793
  351TMC3    H1 5264   2.896   4.257   9.629  0.6464 -0.2000 -2.2772
  351TMC3    H2 5265   2.991   3.842   9.618  0.7520  0.0744 -0.0496
  351TMC3    C7 5266   2.886   4.020   9.480 -0.2115  0.3174  0.6463
  351TMC3    C8 5267   3.006   3.833   9.893  0.3480  0.0952  0.3658
  351TMC3    O1 5268   2.864   3.905   9.452 -0.2985 -0.2688  0.0397
  351TMC3    O2 5269   3.020   3.840  10.012  0.0605 -0.2386 -0.5855
  352MPD2     C 5270   3.226   1.718   0.806 -0.7953 -0.1908 -0.4041
  352MPD2    C1 5271   3.099   1.707   0.751 -0.1707 -0.4390 -0.1401
  352MPD2    C2 5272   3.031   1.585   0.763 -0.3648  0.2350 -0.5482
  352MPD2    C3 5273   3.096   1.475   0.825  0.7348 -0.0781 -0.1818
  352MPD2    C4 5274   3.220   1.490   0.886  0.4141  0.7411 -0.3948
  352MPD2    C5 5275   3.281   1.607   0.863  0.0981  0.0058  0.2462
  352MPD2     H 5276   2.928   1.584   0.729  0.1922 -0.7091 -2.1729
  352MPD2    H1 5277   3.275   1.403   0.920 -0.0650 -0.5508 -2.9391
  352MPD2    H2 5278   3.284   1.810   0.810  0.0326 -0.7786  1.1892
  352MPD2    H3 5279   3.381   1.618   0.905  1.0831 -1.0750 -1.8445
  352MPD2     N 5280   3.040   1.352   0.841  0.0828  0.2438  0.1579
  352MPD2    H5 5281   3.099   1.286   0.891 -1.6907 -0.4163  1.3888
  352MPD2    N1 5282   3.035   1.820   0.696 -0.2235 -0.4512  0.6658
  352MPD2    H7 5283   3.090   1.906   0.694  1.1383 -1.3233  0.7078
  353TMC3    C1 5284   2.889   1.176   0.837  0.8027  0.4493 -0.0179
  353TMC3    C2 5285   2.991   1.099   0.890 -0.1470  0.1305 -0.2790
  353TMC3    C3 5286   2.953   0.981   0.951  0.1255 -0.0368  0.6086
  353TMC3    C4 5287   2.757   1.152   0.866 -0.6021 -0.2686 -0.1307
  353TMC3    C5 5288   2.729   1.044   0.941 -0.4746 -0.1098  0.1587
  353TMC3    C6 5289   2.820   0.955   0.984  0.0982  0.6930  0.2928
  353TMC3     C 5290   2.923   1.307   0.792  0.5571  0.1529  0.2727
  353TMC3     O 5291   2.837   1.378   0.739  0.2708  0.1159  0.1597
  353TMC3     H 5292   3.095   1.119   0.866  0.4748 -1.4571  1.0297
  353TMC3    H1 5293   2.680   1.215   0.823 -0.7220  0.8926  1.7690
  353TMC3    H2 5294   2.786   0.865   1.034  2.2997 -0.3434 -0.0621
  353TMC3    C7 5295   2.605   1.033   1.011  0.6375  0.4691  0.5653
  353TMC3    C8 5296   3.053   0.923   1.038  0.7201 -0.2988  0.2037
  353TMC3    O1 5297   2.570   0.925   1.058  0.5353  0.7864 -0.4605
  353TMC3    O2 5298   3.171   0.954   1.027 -0.3887  0.1916  0.3108
  354TMC3    C1 5299   4.043   3.339  13.297 -0.2313  0.4794 -0.6840
  354TMC3    C2 5300   4.040   3.462  13.234 -0.5226  0.2658 -0.5802
  354TMC3    C3 5301   4.147   3.495  13.157  0.0420  0.1802  0.0311
  354TMC3    C4 5302   4.141   3.245  13.275  0.7797 -0.0675 -0.6586
  354TMC3    C5 5303   4.232   3.271  13.179 -0.3111  0.2634 -0.4417
  354TMC3    C6 5304   4.243   3.403  13.131 -0.8788  0.3452 -0.2942
  354TMC3     C 5305   3.933   3.309  13.390  0.1988 -0.5614  0.0885
  354TMC3     O 5306   3.830   3.373  13.372  0.1388 -0.8335 -0.0952
  354TMC3     H 5307   3.961   3.533  13.252 -0.8658 -0.5997  1.3040
  354TMC3    H1 5308   4.121   3.141  13.299 -2.5336  0.0352 -2.9783
  354TMC3    H2 5309   4.330   3.445  13.082  1.2401 -1.4028  1.9986
  354TMC3    C7 5310   4.252   3.166  13.082  0.0028 -0.2758  0.4989
  354TMC3    C8 5311   4.113   3.601  13.061 -0.0096 -0.4340 -0.2022
  354TMC3    O1 5312   4.239   3.052  13.118 -0.2535 -0.4503  0.2540
  354TMC3    O2 5313   4.146   3.582  12.945 -0.4260 -0.4429 -0.3975
  355MPD2     C 5314   3.570   4.181  11.691  0.3469 -0.2325 -0.2024
  355MPD2    C1 5315   3.662   4.128  11.600  0.4326  0.5626 -0.6034
  355MPD2    C2 5316   3.780   4.073  11.644  0.1531 -0.1759 -0.3013
  355MPD2    C3 5317   3.815   4.069  11.778  0.3178 -0.1812  0.7578
  355MPD2    C4 5318   3.728   4.126  11.864  0.4774  0.7781  0.0826
  355MPD2    C5 5319   3.609   4.185  11.822 -0.1054  0.3982 -0.4018
  355MPD2     H 5320   3.861   4.052  11.575  0.6561  3.5377 -0.8224
  355MPD2    H1 5321   3.755   4.142  11.968  0.7186 -2.5032  0.5176
  355MPD2    H2 5322   3.477   4.231  11.668  0.1263 -0.6580 -0.2310
  355MPD2    H3 5323   3.538   4.221  11.896 -0.8039 -2.0916  0.1790
  355MPD2     N 5324   3.946   4.042  11.826 -0.3486 -0.4883 -0.1204
  355MPD2    H5 5325   3.970   4.096  11.908  1.4516 -0.4247 -0.7005
  355MPD2    N1 5326   3.647   4.136  11.457 -0.3103 -0.5264 -0.4407
  355MPD2    H7 5327   3.567   4.189  11.423 -0.2933  0.2791  0.7887
  356TMC3    C1 5328   4.172   4.001  11.811  0.0017  0.1636 -0.7117
  356TMC3    C2 5329   4.266   4.025  11.712  0.1455  0.0642 -0.0846
  356TMC3    C3 5330   4.335   4.140  11.707  0.2292 -0.4427  0.1003
  356TMC3    C4 5331   4.180   4.091  11.919 -0.8813  0.9694  0.7636
  356TMC3    C5 5332   4.271   4.194  11.916  0.1378  0.1290 -0.5422
  356TMC3    C6 5333   4.346   4.231  11.805 -0.1024  0.5069 -0.1941
  356TMC3     C 5334   4.040   3.969  11.762 -0.0708 -0.2469 -0.8602
  356TMC3     O 5335   4.031   3.907  11.662 -0.5791 -0.5208  0.5457
  356TMC3     H 5336   4.247   3.972  11.620  0.2489  0.7675 -0.5049
  356TMC3    H1 5337   4.134   4.054  12.009 -0.1404  1.1978  1.2343
  356TMC3    H2 5338   4.418   4.312  11.803  1.3110 -0.7382  0.1444
  356TMC3    C7 5339   4.314   4.248  12.044 -0.1989 -0.1320  0.2185
  356TMC3    C8 5340   4.389   4.172  11.578 -0.6674 -0.4531 -0.1282
  356TMC3    O1 5341   4.291   4.184  12.148 -0.0507  0.3185  0.0908
  356TMC3    O2 5342   4.380   4.096  11.487 -0.4677 -1.2033 -0.3436
  357MPD2     C 5343   3.590   3.023   1.173  0.3576  0.3624 -0.6102
  357MPD2    C1 5344   3.685   2.937   1.222 -0.7218 -0.4491 -0.6032
  357MPD2    C2 5345   3.669   2.900   1.357  0.6846  0.4838 -0.5629
  357MPD2    C3 5346   3.570   2.953   1.440 -0.3331 -0.3431 -0.4081
  357MPD2    C4 5347   3.477   3.031   1.382  0.7802 -0.6357  0.8240
  357MPD2    C5 5348   3.484   3.061   1.251 -0.3226  0.2509 -0.1724
  357MPD2     H 5349   3.750   2.839   1.397  0.5993  1.3391  0.9030
  357MPD2    H1 5350   3.395   3.076   1.437 -0.2452 -2.3142  0.6726
  357MPD2    H2 5351   3.588   3.053   1.069  0.0304 -2.3455 -1.3658
  357MPD2    H3 5352   3.411   3.128   1.207 -2.1426 -0.3491  1.8791
  357MPD2     N 5353   3.561   2.926   1.579 -0.0835 -0.2463  0.2857
  357MPD2    H5 5354   3.471   2.938   1.625 -0.1125 -0.9904  0.4108
  357MPD2    N1 5355   3.782   2.882   1.132  0.0664 -0.1427 -0.6182
  357MPD2    H7 5356   3.766   2.909   1.035  0.5453  0.8991 -0.4124
  358TMC3    C1 5357   3.939   2.727   1.052  0.4858 -0.6131  0.1687
  358TMC3    C2 5358   3.879   2.739   0.922  0.3971  0.6720 -0.1224
  358TMC3    C3 5359   3.869   2.628   0.842 -0.0584 -0.1092  0.3185
  358TMC3    C4 5360   3.995   2.610   1.090 -1.4176  0.1528 -0.2000
  358TMC3    C5 5361   3.979   2.502   1.011 -0.2798 -0.6094  0.0200
  358TMC3    C6 5362   3.913   2.507   0.890  0.0708  0.3217 -0.0284
  358TMC3     C 5363   3.883   2.801   1.167  0.3943  0.5811  0.5702
  358TMC3     O 5364   3.942   2.786   1.272  0.6187  0.7180 -0.2556
  358TMC3     H 5365   3.847   2.835   0.884  1.4652  0.5134 -1.4656
  358TMC3    H1 5366   4.045   2.607   1.186 -0.0490 -2.4077 -0.9906
  358TMC3    H2 5367   3.901   2.421   0.825 -0.2294  0.4322 -0.1162
  358TMC3    C7 5368   3.997   2.377   1.080 -0.8395  0.8878 -0.3970
  358TMC3    C8 5369   3.814   2.646   0.711 -0.4751 -0.2171 -0.1192
  358TMC3    O1 5370   4.015   2.386   1.201 -0.1587  0.0332 -1.0256
  358TMC3    O2 5371   3.827   2.750   0.650  0.2839  0.4937 -0.4438
  359MPD2     C 5372   3.699   3.308  12.385 -0.0011 -0.1539  0.2316
  359MPD2    C1 5373   3.700   3.175  12.349  0.1612 -0.0556 -0.0972
  359MPD2    C2 5374   3.601   3.096  12.403  0.1529  0.3039 -0.0565
  359MPD2    C3 5375   3.495   3.154  12.481 -0.2315  0.0801 -0.0966
  359MPD2    C4 5376   3.497   3.289  12.505 -0.0400  0.0948  0.6932
  359MPD2    C5 5377   3.603   3.367  12.458 -0.3419  0.7241  0.2949
  359MPD2     H 5378   3.613   2.989  12.390 -0.1440  0.1038  1.4019
  359MPD2    H1 5379   3.421   3.323  12.574  0.6224  0.2765  1.3272
  359MPD2    H2 5380   3.774   3.374  12.342 -3.4761  0.8653 -4.2573
  359MPD2    H3 5381   3.610   3.472  12.485  2.7927  1.2716 -2.7227
  359MPD2     N 5382   3.392   3.086  12.539  0.1582  0.4590  0.6725
  359MPD2    H5 5383   3.331   3.129  12.608 -0.5466  0.3531  0.1188
  359MPD2    N1 5384   3.799   3.125  12.264 -0.2394 -0.1564  0.2828
  359MPD2    H7 5385   3.795   3.025  12.243  0.4765  0.7115 -4.0693
  360TMC3    C1 5386   3.953   3.122  12.085  0.2022 -0.8883 -0.6724
  360TMC3    C2 5387   4.091   3.120  12.066 -0.1759  0.2601  0.6416
  360TMC3    C3 5388   4.149   3.027  11.976  1.0012 -0.2169 -0.3117
  360TMC3    C4 5389   3.871   3.058  11.993 -0.0478 -0.1470 -0.2980
  360TMC3    C5 5390   3.921   2.988  11.887  0.2715  0.4686  0.0096
  360TMC3    C6 5391   4.066   2.964  11.883  0.1744  0.3578 -0.2267
  360TMC3     C 5392   3.906   3.189  12.203 -0.5446  0.0573  0.0251
  360TMC3     O 5393   3.962   3.295  12.227 -0.3821  0.0660  0.3300
  360TMC3     H 5394   4.150   3.153  12.151  0.3860  0.3985  0.1993
  360TMC3    H1 5395   3.766   3.069  12.016  0.3137  1.2225  0.6780
  360TMC3    H2 5396   4.104   2.913  11.796  0.3071  0.0502  0.0113
  360TMC3    C7 5397   3.840   2.918  11.789  0.6499  0.6379 -0.6469
  360TMC3    C8 5398   4.284   3.002  11.962 -0.5421 -0.1391 -0.0943
  360TMC3    O1 5399   3.908   2.853  11.711 -0.1233 -0.4020 -0.6348
  360TMC3    O2 5400   4.322   2.905  11.905 -0.7160  0.5534  0.2715
  361MPD2     C 5401   1.015   1.107  16.841 -0.3954 -0.8481 -0.1571
  361MPD2    C1 5402   0.982   1.137  16.970  0.5534 -0.0398 -0.2988
  361MPD2    C2 5403   1.021   1.050  17.071  0.2692  0.1304  0.2237
  361MPD2    C3 5404   1.101   0.944  17.043 -0.0550 -0.5603 -1.0392
  361MPD2    C4 5405   1.124   0.909  16.911 -0.2590 -0.5520 -0.3735
  361MPD2    C5 5406   1.076   0.987  16.803  0.4695  0.1255  0.3965
  361MPD2     H 5407   0.994   1.070  17.174  0.1509 -0.4053  0.2970
  361MPD2    H1 5408   1.190   0.828  16.882 -2.0692 -1.5174 -1.7553
  361MPD2    H2 5409   0.985   1.176  16.763 -0.2664 -0.8526 -0.2118
  361MPD2    H3 5410   1.106   0.960  16.702 -1.9518  0.0826 -0.3066
  361MPD2     N 5411   1.167   0.868  17.135 -0.5836 -0.1214  0.0241
  361MPD2    H5 5412   1.229   0.797  17.098 -0.2519 -0.6716  1.6205
  361MPD2    N1 5413   0.933   1.264  17.006  1.7138  0.3749 -0.5482
  361MPD2    H7 5414   0.922   1.278  17.106  0.3285 -1.3191 -0.4685
  362TMC3    C1 5415   0.870   1.494  16.986  0.1388  0.2773  0.0675
  362TMC3    C2 5416   0.745   1.478  17.038 -0.0750  0.1622 -0.0597
  362TMC3    C3 5417   0.667   1.589  17.030  0.5602  0.5129 -0.3761
  362TMC3    C4 5418   0.906   1.608  16.924 -0.5554 -0.4223 -0.8002
  362TMC3    C5 5419   0.816   1.707  16.891  0.4843 -0.5279  0.6094
  362TMC3    C6 5420   0.690   1.699  16.947 -0.4743  0.3643 -0.3900
  362TMC3     C 5421   0.936   1.379  16.926 -0.3008  0.6985 -0.0588
  362TMC3     O 5422   0.996   1.396  16.825 -0.3785 -0.0263 -0.5728
  362TMC3     H 5423   0.707   1.385  17.077 -1.4872  0.1263 -1.5297
  362TMC3    H1 5424   1.008   1.611  16.888  0.3578  0.2012  1.7828
  362TMC3    H2 5425   0.621   1.783  16.941  0.2516  1.0912  1.5400
  362TMC3    C7 5426   0.849   1.803  16.789 -0.1843 -0.2767 -0.1292
  362TMC3    C8 5427   0.521   1.568  17.065 -0.4356 -0.1853 -0.3081
  362TMC3    O1 5428   0.779   1.905  16.780  0.3500 -0.3235 -0.4111
  362TMC3    O2 5429   0.482   1.452  17.087 -0.0132  0.1176 -0.0402
  363TMC3    C1 5430   3.965   4.020  10.125  0.5196 -0.1204  0.1001
  363TMC3    C2 5431   4.037   3.947  10.036  0.8700 -0.4371  0.3097
  363TMC3    C3 5432   4.122   4.008   9.948  0.4847  0.2966 -0.6923
  363TMC3    C4 5433   3.962   4.158  10.121  0.1355 -0.2341 -0.1499
  363TMC3    C5 5434   4.063   4.222  10.047 -0.5423 -0.1395  0.1265
  363TMC3    C6 5435   4.130   4.145   9.956  0.1508  0.2945  0.1437
  363TMC3     C 5436   3.865   3.950  10.193  0.5628 -0.6258 -0.5525
  363TMC3     O 5437   3.899   3.848  10.247 -0.0268  0.0910 -0.6374
  363TMC3     H 5438   4.022   3.840  10.040  0.0240 -0.3674 -0.9284
  363TMC3    H1 5439   3.900   4.211  10.192 -0.6284 -0.8976 -0.3161
  363TMC3    H2 5440   4.186   4.200   9.881  0.6359  0.7026  0.7952
  363TMC3    C7 5441   4.069   4.367  10.058  0.1847 -0.9184  0.4167
  363TMC3    C8 5442   4.233   3.942   9.884  0.4269  0.6760 -0.4052
  363TMC3    O1 5443   4.005   4.416  10.151  0.3255  0.6621  0.0191
  363TMC3    O2 5444   4.309   4.007   9.812  0.2404 -0.1181  0.1040
  364MPD2     C 5445   3.099   3.919  10.617  0.6501  0.5922 -0.3582
  364MPD2    C1 5446   3.045   3.860  10.503  0.0561  0.4265  0.5569
  364MPD2    C2 5447   3.062   3.720  10.483  0.7958  0.2925  0.3907
  364MPD2    C3 5448   3.118   3.641  10.589 -0.6563  0.1721  0.8324
  364MPD2    C4 5449   3.161   3.707  10.694 -0.4737  0.7260 -0.0241
  364MPD2    C5 5450   3.153   3.838  10.712 -0.4709 -0.0598 -0.1732
  364MPD2     H 5451   3.021   3.668  10.397  2.4001  0.9050 -0.7383
  364MPD2    H1 5452   3.203   3.651  10.777 -2.1680 -2.3414 -1.2487
  364MPD2    H2 5453   3.105   4.025  10.643 -1.1668  0.4242  0.7989
  364MPD2    H3 5454   3.197   3.883  10.800 -1.1201 -0.1158  0.1801
  364MPD2     N 5455   3.133   3.501  10.603  1.0136  0.0665 -0.4174
  364MPD2    H5 5456   3.165   3.457  10.688 -1.0671  1.2630  0.9674
  364MPD2    N1 5457   2.981   3.936  10.397  0.4082 -0.6369  0.0888
  364MPD2    H7 5458   2.938   3.886  10.321 -2.6203  0.3726  1.1531
  365TMC3    C1 5459   2.905   4.138  10.280 -0.0173 -0.2957 -0.2781
  365TMC3    C2 5460   2.841   4.068  10.189 -0.3060  0.2032 -0.1899
  365TMC3    C3 5461   2.739   4.132  10.120 -0.6807 -0.4745  0.0874
  365TMC3    C4 5462   2.854   4.265  10.318 -0.1532 -0.0235  0.3472
  365TMC3    C5 5463   2.754   4.321  10.238 -0.1191  0.0373  0.7153
  365TMC3    C6 5464   2.695   4.257  10.140 -0.4564 -0.8098  0.2852
  365TMC3     C 5465   2.981   4.075  10.392  0.4895 -0.2750  0.1150
  365TMC3     O 5466   3.028   4.151  10.473 -0.3869  0.9575 -0.0731
  365TMC3     H 5467   2.881   3.974  10.151 -0.2886  0.1481 -0.0356
  365TMC3    H1 5468   2.900   4.321  10.398  1.0571  0.4418 -0.6728
  365TMC3    H2 5469   2.621   4.302  10.074  0.3534  0.3742  0.1803
  365TMC3    C7 5470   2.674   4.423  10.301  0.2137 -0.0565 -0.3331
  365TMC3    C8 5471   2.693   4.073   9.999  0.2664 -0.3043 -0.3813
  365TMC3    O1 5472   2.610   4.488  10.223  0.2368  0.4536  0.0366
  365TMC3    O2 5473   2.648   4.147   9.911  0.5449 -0.5505 -0.0414
  366MPD2     C 5474   1.738   4.374  15.061 -0.5962 -0.7617 -0.0114
  366MPD2    C1 5475   1.783   4.457  15.160  0.4737  0.0937 -0.2743
  366MPD2    C2 5476   1.915   4.442  15.204 -0.5410 -0.4694  0.0302
  366MPD2    C3 5477   1.997   4.348  15.140 -0.1924  0.2611  0.3665
  366MPD2    C4 5478   1.945   4.250  15.059 -0.3781  0.0002  0.6149
  366MPD2    C5 5479   1.819   4.270  15.015 -0.5774 -0.0665 -0.0951
  366MPD2     H 5480   1.946   4.516  15.277 -1.5147 -1.3756  1.3738
  366MPD2    H1 5481   1.990   4.158  15.026  0.0500  1.4425 -2.8539
  366MPD2    H2 5482   1.646   4.400  15.011 -0.8333  2.1076  1.8522
  366MPD2    H3 5483   1.782   4.196  14.946 -1.2094 -0.3900  0.6029
  366MPD2     N 5484   2.139   4.328  15.166 -0.5632 -0.2567 -0.0553
  366MPD2    H5 5485   2.172   4.237  15.137  0.3963 -0.1577  0.7241
  366MPD2    N1 5486   1.698   4.557  15.216  0.3114  0.4843 -0.6082
  366MPD2    H7 5487   1.738   4.606  15.296  0.4146 -1.5107  0.5710
  367TMC3    C1 5488   1.531   4.718  15.233 -0.4037 -0.2606 -0.0482
  367TMC3    C2 5489   1.561   0.024  15.363  1.2190  0.1825  0.1442
  367TMC3    C3 5490   1.482   0.120  15.424  0.2818 -0.4956  0.6856
  367TMC3    C4 5491   1.424   0.063  15.173  1.0911  0.1745 -1.3081
  367TMC3    C5 5492   1.347   0.155  15.237  0.0006 -0.5876 -0.1106
  367TMC3    C6 5493   1.372   0.182  15.369 -0.2601  0.0999  0.1532
  367TMC3     C 5494   1.575   4.599  15.167 -0.2296  0.2852 -0.2101
  367TMC3     O 5495   1.511   4.573  15.062  0.5620 -0.2969  0.1870
  367TMC3     H 5496   1.633   4.689  15.421 -1.1456 -2.3293  0.6093
  367TMC3    H1 5497   1.398   0.046  15.070 -0.3675  0.7448 -1.0282
  367TMC3    H2 5498   1.320   0.257  15.426 -0.3989 -0.1736  0.3861
  367TMC3    C7 5499   1.238   0.224  15.173  0.1053 -0.1861  0.1037
  367TMC3    C8 5500   1.531   0.170  15.549 -0.2073  0.0629 -0.0465
  367TMC3    O1 5501   1.228   0.344  15.196 -0.1303  0.0982  0.3384
  367TMC3    O2 5502   1.605   0.094  15.602  0.8547  0.3633 -0.0990
  368MPD2     C 5503   3.180   1.712  13.373 -0.6476 -0.3881 -1.0789
  368MPD2    C1 5504   3.141   1.723  13.242  0.5626 -0.2086  0.0327
  368MPD2    C2 5505   3.236   1.728  13.146  0.0845 -0.3683 -0.2763
  368MPD2    C3 5506   3.375   1.728  13.170 -0.3496  0.8086 -0.0053
  368MPD2    C4 5507   3.412   1.731  13.301 -0.0635 -0.1184 -0.2313
  368MPD2    C5 5508   3.317   1.726  13.400 -1.1755  0.1442 -0.3447
  368MPD2     H 5509   3.199   1.740  13.045  0.3324  3.3960  0.0675
  368MPD2    H1 5510   3.513   1.738  13.340  0.3885  0.8390 -1.5776
  368MPD2    H2 5511   3.106   1.729  13.451  0.2341 -2.5907  0.2245
  368MPD2    H3 5512   3.353   1.719  13.502  1.8386 -0.3926 -1.4596
  368MPD2     N 5513   3.470   1.745  13.064 -0.0919 -0.4825 -0.2507
  368MPD2    H5 5514   3.565   1.753  13.098 -0.1006  1.6178 -0.6675
  368MPD2    N1 5515   3.000   1.735  13.210  0.0529 -0.3891 -0.4717
  368MPD2    H7 5516   2.942   1.688  13.279 -1.9329  0.0460 -1.8327
  369TMC3    C1 5517   2.807   1.790  13.105 -0.1396  0.1004 -0.1953
  369TMC3    C2 5518   2.758   1.905  13.056 -0.1491  0.1858  0.3555
  369TMC3    C3 5519   2.646   1.960  13.099 -0.4566  0.0871  0.5670
  369TMC3    C4 5520   2.738   1.732  13.209  0.0362  0.1954  0.5937
  369TMC3    C5 5521   2.613   1.783  13.241 -0.3924  0.2677 -0.7184
  369TMC3    C6 5522   2.566   1.904  13.190  0.1095  0.2456 -0.5448
  369TMC3     C 5523   2.951   1.780  13.092  0.1300  1.0559  0.1640
  369TMC3     O 5524   3.012   1.867  13.034 -0.0506 -0.3298  0.2153
  369TMC3     H 5525   2.812   1.951  12.973  1.3318 -2.2084 -0.0105
  369TMC3    H1 5526   2.767   1.634  13.246 -3.8225 -1.8553 -1.7895
  369TMC3    H2 5527   2.476   1.954  13.222  1.2368  2.8558 -1.4089
  369TMC3    C7 5528   2.536   1.721  13.349 -0.6247 -0.2787 -0.5300
  369TMC3    C8 5529   2.621   2.102  13.056  0.4125 -0.8150  0.1915
  369TMC3    O1 5530   2.594   1.639  13.425  0.5571 -0.1157  0.0149
  369TMC3    O2 5531   2.664   2.139  12.948  0.1801 -0.0613  0.0307
  370TMC3    C1 5532   2.325   2.466  16.356  0.4430 -0.2147  0.5730
  370TMC3    C2 5533   2.258   2.383  16.450 -0.1015  0.6887  0.3096
  370TMC3    C3 5534   2.199   2.264  16.402  0.4550  0.2387 -0.2676
  370TMC3    C4 5535   2.348   2.432  16.225  0.3982  0.1120 -1.1341
  370TMC3    C5 5536   2.295   2.312  16.191 -0.1642 -0.1833 -0.4961
  370TMC3    C6 5537   2.215   2.234  16.274 -0.7607  0.2903 -0.8999
  370TMC3     C 5538   2.391   2.586  16.417  0.4217 -0.1019  0.8086
  370TMC3     O 5539   2.403   2.582  16.538 -0.2501  0.3975 -0.1807
  370TMC3     H 5540   2.249   2.408  16.555 -1.3949 -1.0856  0.6113
  370TMC3    H1 5541   2.386   2.496  16.147  1.4265 -0.2332 -0.9166
  370TMC3    H2 5542   2.170   2.145  16.232 -0.0217 -0.8754  0.7978
  370TMC3    C7 5543   2.285   2.277  16.052 -0.0728  0.7951  0.5438
  370TMC3    C8 5544   2.146   2.157  16.487  0.1497  0.3118  0.1328
  370TMC3    O1 5545   2.175   2.264  16.008 -0.2798  0.4458 -0.2391
  370TMC3    O2 5546   2.173   2.045  16.441  0.1609 -0.2134 -0.1179
  371TMC3    C1 5547   3.595   0.668  15.568 -0.6154  0.3133 -0.1054
  371TMC3    C2 5548   3.505   0.682  15.668  0.5917  0.2225 -0.6021
  371TMC3    C3 5549   3.453   0.800  15.699 -0.0963 -0.1324  0.9696
  371TMC3    C4 5550   3.639   0.769  15.494  0.1046  0.1685 -0.1053
  371TMC3    C5 5551   3.580   0.888  15.525 -0.5450 -0.2665  0.2914
  371TMC3    C6 5552   3.490   0.904  15.624 -0.2642 -0.7090  0.1774
  371TMC3     C 5553   3.686   0.559  15.583  0.3372 -0.4237 -0.6129
  371TMC3     O 5554   3.810   0.564  15.570 -0.2470  0.5147 -0.6410
  371TMC3     H 5555   3.493   0.610  15.748  1.6202  0.0745 -0.5832
  371TMC3    H1 5556   3.718   0.751  15.421 -0.5311  1.8943 -1.2472
  371TMC3    H2 5557   3.453   1.005  15.635  1.1618 -0.0810 -0.7738
  371TMC3    C7 5558   3.604   1.002  15.431  0.1971  0.5112  0.2210
  371TMC3    C8 5559   3.361   0.813  15.811 -0.2128 -0.0411 -0.4247
  371TMC3    O1 5560   3.587   1.113  15.478  0.4324  0.7759 -0.6003
  371TMC3    O2 5561   3.365   0.726  15.900  0.4883  0.1662  0.5801
  372MPD2     C 5562   2.692   2.057  13.490  0.3111  0.4610 -0.3232
  372MPD2    C1 5563   2.814   1.995  13.509  0.1176 -0.0368  0.3336
  372MPD2    C2 5564   2.828   1.902  13.602 -0.0714  0.3119 -0.1280
  372MPD2    C3 5565   2.720   1.857  13.677 -0.1440 -0.5048  0.3051
  372MPD2    C4 5566   2.596   1.912  13.654 -0.8886 -0.3068  0.2113
  372MPD2    C5 5567   2.582   2.013  13.566  0.2588 -0.1287  0.3016
  372MPD2     H 5568   2.923   1.854  13.624 -1.3219 -1.5634  1.2056
  372MPD2    H1 5569   2.508   1.874  13.705  0.5529 -0.2103  2.7428
  372MPD2    H2 5570   2.683   2.137  13.418 -0.7137  2.3149  1.8860
  372MPD2    H3 5571   2.489   2.070  13.561 -0.3690 -1.1431  0.3319
  372MPD2     N 5572   2.735   1.750  13.766  0.3694 -0.0031 -0.4022
  372MPD2    H5 5573   2.827   1.718  13.792  0.7802  0.8116 -0.8549
  372MPD2    N1 5574   2.938   2.035  13.449  0.2721  0.2189  0.2847
  372MPD2    H7 5575   3.018   1.998  13.499 -1.2555 -0.7942  1.9636
  373TMC3    C1 5576   2.693   1.594  13.933 -0.2166 -0.2696 -0.2686
  373TMC3    C2 5577   2.747   1.665  14.040 -0.1458  0.8668 -0.4194
  373TMC3    C3 5578   2.840   1.601  14.114  0.0320 -0.4093 -0.0370
  373TMC3    C4 5579   2.736   1.474  13.899 -0.5142  0.3594 -0.1894
  373TMC3    C5 5580   2.838   1.419  13.971  0.8334 -0.5024 -0.6567
  373TMC3    C6 5581   2.883   1.475  14.085 -0.0622 -0.6566  0.2312
  373TMC3     C 5582   2.641   1.680  13.829 -0.3309 -0.0218  0.6707
  373TMC3     O 5583   2.528   1.659  13.799 -0.0977 -0.3180  0.1419
  373TMC3     H 5584   2.722   1.769  14.051 -0.0618  0.7412  0.8905
  373TMC3    H1 5585   2.701   1.433  13.805  2.1801  2.6792 -2.1908
  373TMC3    H2 5586   2.967   1.435  14.140  2.0118  1.9615 -0.9971
  373TMC3    C7 5587   2.924   1.328  13.894  0.1109  0.4055  0.1597
  373TMC3    C8 5588   2.859   1.640  14.258 -0.2639  0.2445  0.0633
  373TMC3    O1 5589   2.907   1.324  13.775  0.0767  1.1499  0.5406
  373TMC3    O2 5590   2.916   1.560  14.334  0.3176  0.5371  0.0608
  374TMC3    C1 5591   3.921   1.546   9.332  0.0380 -0.8119  0.0241
  374TMC3    C2 5592   3.863   1.590   9.447  0.5143  0.5098  0.2780
  374TMC3    C3 5593   3.776   1.500   9.504 -0.4860 -0.6956  0.0822
  374TMC3    C4 5594   3.901   1.422   9.281 -0.4214  0.4068  0.0858
  374TMC3    C5 5595   3.814   1.347   9.346 -0.3028 -0.3357 -0.5895
  374TMC3    C6 5596   3.755   1.377   9.462 -0.7132 -0.3758  0.1568
  374TMC3     C 5597   4.001   1.638   9.256  0.2864  0.5411 -0.2891
  374TMC3     O 5598   4.072   1.716   9.317  0.5329  0.3451  0.5478
  374TMC3     H 5599   3.875   1.692   9.483  1.3560  0.2744  0.6455
  374TMC3    H1 5600   3.921   1.400   9.176  1.1515  0.8110  0.3064
  374TMC3    H2 5601   3.703   1.302   9.520  0.9232 -0.4572  1.5232
  374TMC3    C7 5602   3.764   1.221   9.299  0.2194 -0.1568  0.1360
  374TMC3    C8 5603   3.726   1.513   9.641  0.5043  0.1943 -0.2152
  374TMC3    O1 5604   3.652   1.190   9.340 -0.4536 -0.3706  0.4933
  374TMC3    O2 5605   3.631   1.443   9.672 -0.4157 -0.4494  0.5790
  375MPD2     C 5606   3.678   2.336  17.053 -0.8716 -0.0438 -0.0553
  375MPD2    C1 5607   3.625   2.410  16.951 -0.0351 -0.2128 -0.2989
  375MPD2    C2 5608   3.700   2.438  16.844  0.0369 -0.8644 -0.1969
  375MPD2    C3 5609   3.829   2.380  16.828  0.2047 -0.7462 -0.0021
  375MPD2    C4 5610   3.885   2.321  16.942  0.1126 -0.0525 -0.3419
  375MPD2    C5 5611   3.805   2.292  17.042 -0.4559  0.0855  0.2858
  375MPD2     H 5612   3.656   2.493  16.762  0.8185 -0.6598 -0.4822
  375MPD2    H1 5613   3.986   2.282  16.943 -0.3477 -1.3179 -2.4732
  375MPD2    H2 5614   3.626   2.295  17.139  1.2594 -1.9901  0.2958
  375MPD2    H3 5615   3.833   2.234  17.129 -1.6093 -0.6881  0.1402
  375MPD2     N 5616   3.911   2.392  16.715 -0.1309  0.1389 -0.2994
  375MPD2    H5 5617   4.005   2.354  16.722 -1.8153 -4.0260 -0.5712
  375MPD2    N1 5618   3.495   2.467  16.968 -0.3824 -0.7594 -0.1245
  375MPD2    H7 5619   3.456   2.521  16.891  0.4728  3.9647  2.7807
  376TMC3    C1 5620   3.969   2.405  16.496 -0.0354  1.4825  0.1354
  376TMC3    C2 5621   4.105   2.431  16.519  0.0456 -0.2045  0.1551
  376TMC3    C3 5622   4.186   2.464  16.414 -0.2699  0.0935 -0.4610
  376TMC3    C4 5623   3.925   2.397  16.366  0.7761 -0.6581  0.4496
  376TMC3    C5 5624   4.009   2.450  16.264 -0.2601  0.3013  1.0043
  376TMC3    C6 5625   4.141   2.479  16.286 -0.3088  0.4958  0.3746
  376TMC3     C 5626   3.864   2.417  16.592 -0.1789  0.3762 -0.5848
  376TMC3     O 5627   3.755   2.430  16.546 -0.2785 -0.2067  0.2777
  376TMC3     H 5628   4.140   2.452  16.620  0.6169 -0.6535  0.0473
  376TMC3    H1 5629   3.822   2.369  16.347  0.7458  1.0173 -1.8304
  376TMC3    H2 5630   4.211   2.494  16.204  2.1107  1.1265  2.5694
  376TMC3    C7 5631   3.941   2.501  16.143  0.2285  0.8144  0.1814
  376TMC3    C8 5632   4.324   2.514  16.439  0.2318  0.5717 -0.7236
  376TMC3    O1 5633   3.833   2.447  16.126  0.6709 -0.1627  0.6919
  376TMC3    O2 5634   4.379   2.569  16.345 -0.6966  0.4333 -0.4195
  377MPD2     C 5635   1.466   2.674  12.666 -0.1041 -0.3134 -0.4354
  377MPD2    C1 5636   1.581   2.617  12.721  0.0614  0.0405  0.0231
  377MPD2    C2 5637   1.570   2.563  12.850 -0.1087 -0.2229  0.3414
  377MPD2    C3 5638   1.449   2.547  12.913 -0.0083  0.2970 -0.2149
  377MPD2    C4 5639   1.338   2.600  12.853  0.4180  0.0594 -0.4555
  377MPD2    C5 5640   1.346   2.667  12.733  0.0491 -0.1646  0.5673
  377MPD2     H 5641   1.663   2.526  12.892 -0.1468 -0.9630 -0.2183
  377MPD2    H1 5642   1.245   2.605  12.910  0.4024  1.1571 -0.5774
  377MPD2    H2 5643   1.465   2.729  12.573 -1.8133  2.2175  1.0838
  377MPD2    H3 5644   1.262   2.728  12.702 -0.4092 -1.2014 -0.2475
  377MPD2     N 5645   1.436   2.495  13.048  0.2869 -0.2149  0.2707
  377MPD2    H5 5646   1.342   2.483  13.084  0.0864 -0.0949 -0.2177
  377MPD2    N1 5647   1.708   2.642  12.652  0.2366 -0.3320  0.0624
  377MPD2    H7 5648   1.695   2.679  12.558 -0.0279 -1.3005 -0.2862
  378TMC3    C1 5649   2.009   2.804  12.442 -0.3633  0.2958  0.3292
  378TMC3    C2 5650   1.903   2.750  12.504 -0.1216  0.4494  0.7482
  378TMC3    C3 5651   1.937   2.669  12.612  0.2455 -0.2019 -0.3217
  378TMC3    C4 5652   2.142   2.773  12.467 -0.4005 -0.2259 -0.0418
  378TMC3    C5 5653   2.167   2.694  12.571 -0.0490  0.0115 -0.9308
  378TMC3    C6 5654   2.061   2.646  12.650 -0.7901 -0.0948 -0.6581
  378TMC3     C 5655   1.988   2.915  12.356  0.1045  1.0854 -0.3335
  378TMC3     O 5656   1.875   2.940  12.321  0.0893  0.1761  0.3627
  378TMC3     H 5657   1.802   2.772  12.470  0.3582  0.0643 -0.9355
  378TMC3    H1 5658   2.212   2.799  12.388  0.1103  1.7326  1.0765
  378TMC3    H2 5659   2.078   2.570  12.725 -0.5077  0.9242  0.3066
  378TMC3    C7 5660   2.287   2.608  12.557  0.1657 -0.5117  0.7316
  378TMC3    C8 5661   1.833   2.602  12.691  0.4584 -0.5161 -0.3605
  378TMC3    O1 5662   2.326   2.562  12.667 -0.4028  0.8712 -0.4468
  378TMC3    O2 5663   1.875   2.540  12.788 -0.0621  0.2140  0.3229
  379MPD2     C 5664   2.417   0.423  16.226 -0.1342 -0.2593 -0.2808
  379MPD2    C1 5665   2.351   0.325  16.289 -0.4416  0.7855  0.6089
  379MPD2    C2 5666   2.427   0.226  16.341 -0.2896  0.2958  0.1503
  379MPD2    C3 5667   2.566   0.231  16.344  0.6551 -0.2112  0.2538
  379MPD2    C4 5668   2.631   0.321  16.265  0.1573 -0.3478  0.0907
  379MPD2    C5 5669   2.556   0.420  16.201 -0.7954  0.2946 -0.2414
  379MPD2     H 5670   2.368   0.152  16.395  0.6367  1.1922  2.4092
  379MPD2    H1 5671   2.738   0.329  16.248  0.2492  1.1073  1.3731
  379MPD2    H2 5672   2.356   0.500  16.180  2.6789  1.2853 -1.4703
  379MPD2    H3 5673   2.596   0.505  16.145  0.9267 -1.5681 -1.8421
  379MPD2     N 5674   2.642   0.142  16.423  0.7488 -0.1211 -0.1355
  379MPD2    H5 5675   2.739   0.128  16.396  0.9115 -1.6081  1.1879
  379MPD2    N1 5676   2.209   0.328  16.299 -0.6677 -0.0645 -0.1500
  379MPD2    H7 5677   2.150   0.378  16.233  1.1603  0.3785 -1.4311
  380TMC3    C1 5678   1.991   0.244  16.369  0.1683  0.2288  0.4236
  380TMC3    C2 5679   1.937   0.124  16.390 -0.1582 -0.3475 -0.3527
  380TMC3    C3 5680   1.826   0.080  16.322  0.0315 -0.2797 -0.0395
  380TMC3    C4 5681   1.927   0.328  16.279  0.2353  0.0005 -0.5789
  380TMC3    C5 5682   1.812   0.285  16.216 -0.8695 -0.3720  0.0117
  380TMC3    C6 5683   1.760   0.156  16.230 -0.4933  0.3647  0.5627
  380TMC3     C 5684   2.135   0.250  16.387  0.3462 -0.6040 -0.1207
  380TMC3     O 5685   2.179   0.214  16.492  0.3109  0.7295  0.4191
  380TMC3     H 5686   1.988   0.056  16.457 -2.0208 -1.1128  0.2931
  380TMC3    H1 5687   1.955   0.432  16.279 -0.2533  0.1342  0.7685
  380TMC3    H2 5688   1.664   0.130  16.187 -0.3929 -0.0809  0.6008
  380TMC3    C7 5689   1.752   0.386  16.136  0.0435 -0.5066 -0.3349
  380TMC3    C8 5690   1.792   4.663  16.341  0.3352 -0.2069 -0.4598
  380TMC3    O1 5691   1.757   0.504  16.166 -0.0458 -0.0216  0.1535
  380TMC3    O2 5692   1.668   4.643  16.327  0.5189  0.1320  0.2057
  381TMC3    C1 5693   2.101   1.846  16.205  0.9071  0.0638  0.8825
  381TMC3    C2 5694   2.239   1.851  16.171 -0.2699  0.3737 -0.1213
  381TMC3    C3 5695   2.325   1.763  16.228 -0.2179 -0.5758  0.4324
  381TMC3    C4 5696   2.057   1.753  16.299 -0.3896 -0.6591 -0.5705
  381TMC3    C5 5697   2.148   1.665  16.349  0.1265 -0.1105 -0.0596
  381TMC3    C6 5698   2.283   1.667  16.317  0.4576  0.1921  0.1132
  381TMC3     C 5699   2.003   1.936  16.149 -0.1036  0.3147  0.2747
  381TMC3     O 5700   1.898   1.961  16.209 -0.0996  0.2373 -0.1270
  381TMC3     H 5701   2.275   1.925  16.101  1.3301 -0.9886 -0.7390
  381TMC3    H1 5702   1.949   1.745  16.312 -0.5820 -1.1868 -2.4707
  381TMC3    H2 5703   2.354   1.595  16.356 -0.9701 -0.3178  1.7674
  381TMC3    C7 5704   2.090   1.551  16.425  0.1979  0.3127 -0.3088
  381TMC3    C8 5705   2.451   1.817  16.264 -0.4594  0.4639 -0.1498
  381TMC3    O1 5706   2.151   1.443  16.435  0.5217  0.5679 -0.4392
  381TMC3    O2 5707   2.551   1.748  16.256 -0.5384  0.2806 -1.2667
  382MPD2     C 5708   1.810   3.533   0.166 -0.0826  0.4548  0.4786
  382MPD2    C1 5709   1.696   3.579   0.112  0.1403 -0.6988 -0.5262
  382MPD2    C2 5710   1.603   3.495   0.050 -0.3727 -0.4097  0.1082
  382MPD2    C3 5711   1.624   3.360   0.058  0.1717  0.7686 -0.3617
  382MPD2    C4 5712   1.740   3.315   0.127  0.4650 -0.0730  0.2227
  382MPD2    C5 5713   1.839   3.402   0.169  0.1186  0.1085 -1.2807
  382MPD2     H 5714   1.508   3.529   0.010 -0.4804 -1.1714 -0.2745
  382MPD2    H1 5715   1.763   3.209   0.130  0.5208 -0.0476  0.8718
  382MPD2    H2 5716   1.880   3.605   0.205 -0.6110  1.0207  0.3922
  382MPD2    H3 5717   1.922   3.362   0.227 -1.0227  0.9164  0.9364
  382MPD2     N 5718   1.540   3.262   0.002  0.0547  0.2564  0.0653
  382MPD2    H5 5719   1.570   3.166  17.690 -2.2166 -0.4742  0.7427
  382MPD2    N1 5720   1.658   3.713   0.116 -0.6309 -0.1092  0.1215
  382MPD2    H7 5721   1.581   3.742   0.056 -1.4953  0.5216  1.5479
  383TMC3    C1 5722   1.372   3.146  17.569  0.0263 -0.2481  0.1719
  383TMC3    C2 5723   1.291   3.140  17.458 -0.0107 -0.2143  0.3803
  383TMC3    C3 5724   1.244   3.021  17.427  0.0695 -0.3814 -0.1797
  383TMC3    C4 5725   1.392   3.038  17.648  0.1012  0.0293 -0.5543
  383TMC3    C5 5726   1.328   2.921  17.610 -0.0810 -0.6720  0.0300
  383TMC3    C6 5727   1.259   2.904  17.496  0.2435 -0.0711  0.5206
  383TMC3     C 5728   1.426   3.276  17.612 -0.4684 -0.0284 -0.6661
  383TMC3     O 5729   1.378   3.379  17.573 -0.0198  0.1791 -0.0984
  383TMC3     H 5730   1.271   3.230  17.401  0.0048 -0.1617  0.4575
  383TMC3    H1 5731   1.448   3.039   0.050  0.1267  1.1717 -0.5805
  383TMC3    H2 5732   1.209   2.815  17.460  1.0824 -0.8833  1.3597
  383TMC3    C7 5733   1.356   2.797  17.682 -1.1662 -0.0525  0.0895
  383TMC3    C8 5734   1.156   3.017  17.310  0.0469 -0.3189  0.1561
  383TMC3    O1 5735   1.349   2.685  17.629  0.1155 -0.0681  0.2151
  383TMC3    O2 5736   1.106   3.125  17.280 -0.8899  0.1176 -0.0513
  384MPD2     C 5737   2.731   0.817  12.086  0.0039  0.6036 -0.1228
  384MPD2    C1 5738   2.765   0.745  12.196  0.0370  0.5182 -0.2048
  384MPD2    C2 5739   2.848   0.637  12.189  0.6879 -0.3962 -0.1340
  384MPD2    C3 5740   2.898   0.594  12.069 -0.4954 -0.7695  0.7252
  384MPD2    C4 5741   2.874   0.666  11.958 -0.4139  0.0739 -0.4497
  384MPD2    C5 5742   2.791   0.775  11.967 -0.2611 -0.1284 -0.2298
  384MPD2     H 5743   2.853   0.579  12.280  0.6227 -0.7309 -0.3457
  384MPD2    H1 5744   2.914   0.632  11.863  1.9970 -1.2816  1.0258
  384MPD2    H2 5745   2.668   0.904  12.092  0.0801  0.6178  0.4995
  384MPD2    H3 5746   2.761   0.828  11.877 -1.2130  0.2870  0.3355
  384MPD2     N 5747   2.973   0.478  12.075  0.2711 -0.2036  0.0783
  384MPD2    H5 5748   2.998   0.443  12.166 -1.5593 -1.2876  0.1581
  384MPD2    N1 5749   2.714   0.771  12.324 -0.0151 -0.1823  0.0649
  384MPD2    H7 5750   2.733   0.697  12.391  0.8498  0.8029  0.9154
  385TMC3    C1 5751   3.084   0.281  12.019  1.1041 -0.6342 -0.7979
  385TMC3    C2 5752   3.041   0.164  11.972  0.2472  0.7689 -0.0758
  385TMC3    C3 5753   3.042   0.058  12.063 -0.2155  0.7225 -0.4076
  385TMC3    C4 5754   3.127   0.292  12.144 -0.0358  0.0836 -0.0882
  385TMC3    C5 5755   3.109   0.194  12.234 -0.1477  0.5578  0.1501
  385TMC3    C6 5756   3.069   0.068  12.196 -0.3822 -0.3033 -0.2705
  385TMC3     C 5757   3.012   0.402  11.969 -0.0392 -0.6477  0.4807
  385TMC3     O 5758   2.973   0.408  11.852  0.0774  0.1500 -0.0588
  385TMC3     H 5759   2.991   0.150  11.877 -0.4819  0.0345  0.4149
  385TMC3    H1 5760   3.174   0.386  12.174 -0.7870  0.6944 -0.8178
  385TMC3    H2 5761   3.056   4.712  12.271 -1.1632 -0.1456 -0.2392
  385TMC3    C7 5762   3.040   0.244  12.347  0.4890 -0.3272  0.1413
  385TMC3    C8 5763   3.024   4.644  12.012 -0.0228  0.2260 -0.5521
  385TMC3    O1 5764   2.997   0.355  12.325  0.3305  0.0161  0.2208
  385TMC3    O2 5765   3.021   4.564  12.103 -0.5027 -0.0064 -0.5373
  386TMC3    C1 5766   3.510   2.391  12.005 -0.3423 -0.4138 -0.2196
  386TMC3    C2 5767   3.512   2.407  11.869 -0.0539 -0.7538 -0.2964
  386TMC3    C3 5768   3.468   2.523  11.828  0.8581  0.4185 -0.3657
  386TMC3    C4 5769   3.449   2.478  12.092  0.6973  0.4378  0.0144
  386TMC3    C5 5770   3.405   2.595  12.043  0.6331 -0.1595  0.4256
  386TMC3    C6 5771   3.424   2.630  11.909 -0.0132  0.3936 -0.1553
  386TMC3     C 5772   3.616   2.315  12.059  0.2673  0.1547 -0.6163
  386TMC3     O 5773   3.658   2.356  12.167  0.0686  0.2336  0.6868
  386TMC3     H 5774   3.517   2.316  11.809  0.3898 -0.7060 -0.3309
  386TMC3    H1 5775   3.415   2.447  12.190 -0.7684  2.4611  0.1592
  386TMC3    H2 5776   3.398   2.726  11.866  0.1913 -0.0597 -1.2903
  386TMC3    C7 5777   3.291   2.653  12.111 -0.3765  0.2251  0.3317
  386TMC3    C8 5778   3.394   2.523  11.701 -0.4856  0.3516 -0.1131
  386TMC3    O1 5779   3.272   2.617  12.224  0.5796  0.4972 -0.1461
  386TMC3    O2 5780   3.291   2.586  11.712  0.2222  0.2123  0.7344
  387MPD2     C 5781   0.675   2.369   9.899  1.1647 -0.2771 -1.0659
  387MPD2    C1 5782   0.807   2.342   9.900 -0.3177  0.0112 -0.0138
  387MPD2    C2 5783   0.848   2.220   9.845 -0.6624 -0.2301 -0.8207
  387MPD2    C3 5784   0.756   2.133   9.787  0.9185  0.8866 -0.0899
  387MPD2    C4 5785   0.628   2.169   9.767  0.1140 -0.0801  0.5783
  387MPD2    C5 5786   0.594   2.285   9.832 -0.3339  0.4286 -1.0081
  387MPD2     H 5787   0.952   2.188   9.848  0.1613  2.7683  1.9639
  387MPD2    H1 5788   0.549   2.114   9.717  0.7036 -0.6864  0.3104
  387MPD2    H2 5789   0.645   2.467   9.935 -1.6333 -1.4831 -0.1024
  387MPD2    H3 5790   0.489   2.307   9.822 -0.8501 -2.0288 -1.0800
  387MPD2     N 5791   0.806   2.007   9.761 -0.1275  0.1852  0.2402
  387MPD2    H5 5792   0.902   1.984   9.781  0.2830 -0.4156 -2.4682
  387MPD2    N1 5793   0.905   2.415   9.966  0.2138  1.1032  0.5535
  387MPD2    H7 5794   1.002   2.388   9.957  0.1685  0.7883  0.9540
  388TMC3    C1 5795   1.023   2.559  10.105  0.4925 -0.1487  0.0407
  388TMC3    C2 5796   1.029   2.646  10.210 -0.0595  0.0521 -0.5424
  388TMC3    C3 5797   1.116   2.631  10.308 -0.2140 -0.2571 -0.0651
  388TMC3    C4 5798   1.108   2.455  10.094 -0.1615 -0.4499 -0.3749
  388TMC3    C5 5799   1.201   2.443  10.195 -0.0275 -0.3249  0.8438
  388TMC3    C6 5800   1.207   2.531  10.299  0.3662  0.7013 -0.0042
  388TMC3     C 5801   0.894   2.532  10.040  0.1323 -0.2880 -0.0264
  388TMC3     O 5802   0.794   2.599  10.056 -0.2982  0.4784  0.3208
  388TMC3     H 5803   0.950   2.718  10.228  0.5725  0.4192  0.7458
  388TMC3    H1 5804   1.124   2.398  10.003 -2.0153 -0.2413 -0.8275
  388TMC3    H2 5805   1.284   2.510  10.374  2.3298  0.2335 -2.1465
  388TMC3    C7 5806   1.290   2.325  10.197 -0.2714  0.2436  0.6255
  388TMC3    C8 5807   1.136   2.725  10.410  0.2320 -0.4699  0.3368
  388TMC3    O1 5808   1.408   2.346  10.183 -1.1340  0.2881  0.7024
  388TMC3    O2 5809   1.182   2.695  10.520  0.2974  0.6974 -1.0909
  389MPD2     C 5810   0.316   0.645  11.174  0.3272  0.1749  0.3158
  389MPD2    C1 5811   0.223   0.575  11.108  0.7139  0.2695  0.9022
  389MPD2    C2 5812   0.117   0.511  11.173  0.0819  0.3020 -0.3253
  389MPD2    C3 5813   0.109   0.514  11.309 -0.0820  0.0412 -0.1507
  389MPD2    C4 5814   0.193   0.597  11.382 -0.4834  0.5368  0.6104
  389MPD2    C5 5815   0.291   0.662  11.312 -0.5205  0.1736  0.5085
  389MPD2     H 5816   0.041   0.457  11.117  1.6189 -3.2340  1.0228
  389MPD2    H1 5817   0.186   0.601  11.490  1.9085 -1.1079  0.8164
  389MPD2    H2 5818   0.391   0.704  11.123  0.5580  2.1444  2.9873
  389MPD2    H3 5819   0.350   0.721  11.381  0.2053 -0.3575  0.3345
  389MPD2     N 5820   0.009   0.441  11.372 -0.9008 -0.4628  1.0470
  389MPD2    H5 5821   4.701   0.466  11.465  1.0156  1.6933  1.0700
  389MPD2    N1 5822   0.244   0.586  10.966  0.3224  0.6119  0.6856
  389MPD2    H7 5823   0.331   0.633  10.939 -0.7984  2.5670  0.4540
  390TMC3    C1 5824   4.557   0.275  11.373 -0.1919 -0.7214  0.3404
  390TMC3    C2 5825   4.507   0.155  11.317 -0.0735  0.2381  0.1630
  390TMC3    C3 5826   4.387   0.110  11.375  0.1707  0.0715 -0.2207
  390TMC3    C4 5827   4.495   0.342  11.475 -0.1822 -0.6931  0.6090
  390TMC3    C5 5828   4.384   0.286  11.528  0.6244 -0.1496  0.8612
  390TMC3    C6 5829   4.343   0.162  11.491  0.5294  0.2041  0.0125
  390TMC3     C 5830   4.681   0.327  11.310 -0.8351 -0.4468  0.0553
  390TMC3     O 5831   0.020   0.255  11.235 -0.0749 -0.0505  0.6440
  390TMC3     H 5832   4.542   0.115  11.223  0.2943 -0.5841  0.6508
  390TMC3    H1 5833   4.537   0.436  11.509 -1.5005 -0.4634  1.5860
  390TMC3    H2 5834   4.263   0.114  11.547 -1.8835  3.5656 -0.5962
  390TMC3    C7 5835   4.276   0.383  11.550  0.0217  0.1283  0.5651
  390TMC3    C8 5836   4.300   0.010  11.321  0.3542  0.4099  0.0727
  390TMC3    O1 5837   4.302   0.478  11.621  0.2071 -0.1954 -0.4645
  390TMC3    O2 5838   4.181   0.023  11.345  0.0015 -0.0459  0.2186
  391MPD2     C 5839   3.693   2.281  10.909  0.4585 -0.1822 -0.3211
  391MPD2    C1 5840   3.822   2.241  10.913  0.0262  0.1999  0.3141
  391MPD2    C2 5841   3.886   2.224  10.794 -0.4583 -0.1591 -0.3741
  391MPD2    C3 5842   3.827   2.224  10.671  0.2849 -0.3322 -0.3671
  391MPD2    C4 5843   3.698   2.269  10.664  0.2960  0.2430  0.3085
  391MPD2    C5 5844   3.635   2.296  10.786 -0.0885 -0.0425 -0.5731
  391MPD2     H 5845   3.990   2.195  10.792 -0.2870  0.3263  1.2882
  391MPD2    H1 5846   3.638   2.270  10.574 -0.4584  1.2744  0.8128
  391MPD2    H2 5847   3.652   2.316  11.003  0.1821 -2.3606  0.3771
  391MPD2    H3 5848   3.532   2.329  10.783 -0.0787  0.0230 -0.1117
  391MPD2     N 5849   3.908   2.192  10.562  0.1933 -0.3350  0.1144
  391MPD2    H5 5850   4.006   2.177  10.580  0.1217  0.7900  1.4517
  391MPD2    N1 5851   3.903   2.241  11.027 -0.5852  0.3570 -0.4158
  391MPD2    H7 5852   4.001   2.224  11.006  0.0277  1.8138  1.2487
  392TMC3    C1 5853   3.990   2.168  10.337  0.2383 -0.6300 -1.1164
  392TMC3    C2 5854   3.947   2.116  10.216  0.8154 -0.7432  0.3850
  392TMC3    C3 5855   4.052   2.063  10.140 -0.4327  0.5309  0.3779
  392TMC3    C4 5856   4.121   2.175  10.381 -0.1730  0.2056 -0.0470
  392TMC3    C5 5857   4.217   2.129  10.291  0.6464  0.3363  0.1535
  392TMC3    C6 5858   4.191   2.070  10.168 -0.2004 -0.4737 -1.0194
  392TMC3     C 5859   3.880   2.199  10.427 -0.4701  0.7780 -0.2351
  392TMC3     O 5860   3.770   2.211  10.373  0.1324 -0.3398 -0.5284
  392TMC3     H 5861   3.842   2.110  10.190  0.2086 -0.6039  2.7497
  392TMC3    H1 5862   4.137   2.222  10.477  0.7671  0.9773 -0.5813
  392TMC3    H2 5863   4.268   2.006  10.127  3.4320  0.6002  4.1429
  392TMC3    C7 5864   4.349   2.178  10.311 -0.3749  0.4670 -0.3955
  392TMC3    C8 5865   4.007   1.961  10.050  0.1126 -0.0532  0.2403
  392TMC3    O1 5866   4.372   2.242  10.412 -0.1465  0.1324  0.1140
  392TMC3    O2 5867   4.053   1.955   9.936 -0.3321  0.1989  0.0284
  393TMC3    C1 5868   2.600   0.319  10.414 -0.7088  0.0970 -0.9257
  393TMC3    C2 5869   2.483   0.308  10.472  0.1323 -0.2627 -0.2241
  393TMC3    C3 5870   2.465   0.326  10.608  0.8734 -0.6569  0.8197
  393TMC3    C4 5871   2.707   0.362  10.483  0.6044 -0.8525 -0.6719
  393TMC3    C5 5872   2.684   0.384  10.610 -0.3109 -0.0400  0.3055
  393TMC3    C6 5873   2.572   0.357  10.682 -0.0219  0.7171  0.0321
  393TMC3     C 5874   2.617   0.263  10.278  0.0281  0.2736 -0.0327
  393TMC3     O 5875   2.514   0.204  10.237  0.1122 -0.3839  0.0016
  393TMC3     H 5876   2.392   0.284  10.418 -0.5063 -0.7078  1.0465
  393TMC3    H1 5877   2.801   0.393  10.441  0.1960  0.6827 -0.4342
  393TMC3    H2 5878   2.570   0.397  10.782 -0.3155  1.6531 -0.3456
  393TMC3    C7 5879   2.795   0.415  10.697  0.9924 -0.0267  0.4908
  393TMC3    C8 5880   2.334   0.317  10.661  0.5123  0.2430  0.4094
  393TMC3    O1 5881   2.789   0.504  10.774 -0.2205  0.5127  0.4640
  393TMC3    O2 5882   2.236   0.311  10.589 -0.0077  0.2983 -0.8226
  394TMC3    C1 5883   0.189   0.580  10.732 -0.7182 -0.2863  0.8684
  394TMC3    C2 5884   0.128   0.505  10.634 -0.1045 -0.0280 -0.0463
  394TMC3    C3 5885   0.095   0.573  10.522 -0.1197  0.4814 -0.6585
  394TMC3    C4 5886   0.226   0.711  10.716 -0.3127 -0.5440  0.3564
  394TMC3    C5 5887   0.186   0.773  10.605 -0.1449  0.0158  0.9483
  394TMC3    C6 5888   0.118   0.708  10.505 -0.6915  0.1003 -0.8647
  394TMC3     C 5889   0.166   0.524  10.872  0.6184 -0.3450 -0.1046
  394TMC3     O 5890   0.098   0.421  10.882 -0.1737 -0.4790  0.5296
  394TMC3     H 5891   0.098   0.402  10.651 -3.2257  0.4313 -2.7531
  394TMC3    H1 5892   0.254   0.770  10.803  1.1544 -0.7983  0.0484
  394TMC3    H2 5893   0.083   0.751  10.412  0.2237  0.2985 -1.1155
  394TMC3    C7 5894   0.255   0.894  10.565  0.1918  0.8227  0.7732
  394TMC3    C8 5895   0.061   0.507  10.399  0.0316  0.1239 -0.2985
  394TMC3    O1 5896   0.218   0.948  10.461  0.3767 -0.0399 -0.7465
  394TMC3    O2 5897   0.015   0.571  10.309 -1.0189 -0.2379  0.0053
  395TMC3    C1 5898   0.302   2.447  14.174 -0.3561  0.2939  0.3742
  395TMC3    C2 5899   0.211   2.449  14.071  0.7998  0.0478  0.7589
  395TMC3    C3 5900   0.169   2.573  14.033 -0.7791 -0.0879  0.1034
  395TMC3    C4 5901   0.367   2.558  14.220 -0.3402 -0.3562  0.5281
  395TMC3    C5 5902   0.341   2.672  14.155 -0.0483 -0.0893  0.4187
  395TMC3    C6 5903   0.241   2.685  14.062 -0.3176  0.3249 -0.7315
  395TMC3     C 5904   0.246   2.370  14.288 -0.1395 -0.2099 -0.5906
  395TMC3     O 5905   0.280   2.417  14.395 -0.1132  0.3231  0.5003
  395TMC3     H 5906   0.154   2.367  14.029 -2.4914  2.9908 -0.4998
  395TMC3    H1 5907   0.443   2.555  14.297  0.6255 -1.4183 -0.4755
  395TMC3    H2 5908   0.202   2.776  14.018 -0.1748  1.0535  0.6367
  395TMC3    C7 5909   0.421   2.787  14.204 -0.0368  0.1137  0.2106
  395TMC3    C8 5910   0.030   2.609  14.054  0.0505 -0.7147 -0.2913
  395TMC3    O1 5911   0.505   2.773  14.290  0.4412 -0.0641 -0.1839
  395TMC3    O2 5912   4.717   2.724  14.080  0.0982  0.4710 -0.5587
  396MPD2     C 5913   4.258   3.525  16.779 -0.1378 -0.2618 -0.0326
  396MPD2    C1 5914   4.372   3.506  16.843 -0.0039 -0.4942  0.5795
  396MPD2    C2 5915   4.480   3.560  16.781 -0.2307  0.1986  0.3125
  396MPD2    C3 5916   4.473   3.649  16.677  0.5287  0.6936  0.4193
  396MPD2    C4 5917   4.350   3.668  16.614  0.1785  0.1160  0.0149
  396MPD2    C5 5918   4.241   3.600  16.663  0.2806 -0.5054  0.3798
  396MPD2     H 5919   4.577   3.559  16.829 -0.8037 -1.3707  1.4601
  396MPD2    H1 5920   4.329   3.744  16.539  0.4518  0.6667  0.4996
  396MPD2    H2 5921   4.170   3.472  16.814 -1.4316  1.7450 -0.2664
  396MPD2    H3 5922   4.145   3.602  16.612  0.8148 -0.1982 -0.5954
  396MPD2     N 5923   4.582   3.721  16.631 -0.2321 -0.5045 -0.4563
  396MPD2    H5 5924   4.667   3.714  16.686  0.1307  1.1764 -0.7756
  396MPD2    N1 5925   4.373   3.411  16.950  0.0225  0.2421 -0.2303
  396MPD2    H7 5926   4.281   3.380  16.981  0.0944  0.5069  0.2456
  397TMC3    C1 5927   4.460   3.266  17.111 -0.0491 -0.4291 -0.0798
  397TMC3    C2 5928   4.573   3.240  17.188  0.0125 -0.5618 -0.7463
  397TMC3    C3 5929   4.610   3.114  17.209  0.1861  0.2590  0.3956
  397TMC3    C4 5930   4.393   3.157  17.063  0.5367  0.1150 -0.4429
  397TMC3    C5 5931   4.423   3.028  17.106  0.5607  0.0515 -0.0020
  397TMC3    C6 5932   4.532   3.006  17.180  0.0390  0.7878  0.1041
  397TMC3     C 5933   4.484   3.368  17.017  0.1554  0.3104 -0.2873
  397TMC3     O 5934   4.601   3.388  16.992 -0.1134 -0.1124 -0.1698
  397TMC3     H 5935   4.638   3.320  17.219 -1.1100 -0.3226  0.9989
  397TMC3    H1 5936   4.301   3.174  17.008 -0.7991  0.4555  1.9056
  397TMC3    H2 5937   4.568   2.904  17.191  2.0247  1.7365  2.2885
  397TMC3    C7 5938   4.328   2.923  17.099  0.4979 -0.1136  0.0828
  397TMC3    C8 5939   0.006   3.083  17.294 -0.3178  0.0450  0.7565
  397TMC3    O1 5940   4.267   2.903  16.995  0.1982 -0.5926  0.3922
  397TMC3    O2 5941   4.698   3.017  17.387  0.0927 -0.1566  0.0232
  398MPD2     C 5942   2.993   4.372   0.281  0.1116  0.5892  1.2668
  398MPD2    C1 5943   3.082   4.271   0.308  0.0332 -0.2854  0.5289
  398MPD2    C2 5944   3.209   4.296   0.281 -0.6161 -0.0753  0.6240
  398MPD2    C3 5945   3.258   4.416   0.229  0.4970 -0.4417  0.3822
  398MPD2    C4 5946   3.166   4.523   0.230  0.6145  0.5666 -0.1175
  398MPD2    C5 5947   3.033   4.496   0.243  1.0372  0.3750  0.2022
  398MPD2     H 5948   3.275   4.214   0.308 -1.7110 -1.5365 -1.1108
  398MPD2    H1 5949   3.199   4.621   0.195 -0.8230  1.1595  0.2014
  398MPD2    H2 5950   2.889   4.354   0.306 -0.4280 -0.1835 -1.5394
  398MPD2    H3 5951   2.970   4.584   0.235  1.3578  0.5440 -0.4363
  398MPD2     N 5952   3.396   4.435   0.187  0.5931  0.0420  0.4352
  398MPD2    H5 5953   3.454   4.353   0.197 -0.5950 -0.9522 -0.7711
  398MPD2    N1 5954   3.046   4.139   0.340 -0.5359  0.9353 -0.2386
  398MPD2    H7 5955   3.124   4.076   0.352 -0.4892  0.7882 -1.2713
  399TMC3    C1 5956   2.924   3.944   0.374 -0.1349  0.5580  0.2786
  399TMC3    C2 5957   3.037   3.869   0.416  0.2071  0.5804  0.6162
  399TMC3    C3 5958   3.033   3.734   0.405 -0.3234  0.0538 -0.8707
  399TMC3    C4 5959   2.817   3.879   0.316 -0.0566 -1.0672  0.3472
  399TMC3    C5 5960   2.826   3.745   0.296  0.0907 -0.0796 -0.3067
  399TMC3    C6 5961   2.929   3.669   0.346  0.4051 -0.4531 -0.2520
  399TMC3     C 5962   2.925   4.088   0.344  0.0233  0.4332  0.2368
  399TMC3     O 5963   2.815   4.144   0.328 -0.1764  0.3246 -0.0347
  399TMC3     H 5964   3.127   3.910   0.461  0.6789 -0.0185  0.2016
  399TMC3    H1 5965   2.729   3.936   0.290 -0.2945 -1.6453 -0.0926
  399TMC3    H2 5966   2.940   3.567   0.313  0.4304 -0.9663  1.3596
  399TMC3    C7 5967   2.728   3.677   0.219  0.1242 -0.4762  0.4169
  399TMC3    C8 5968   3.147   3.658   0.459 -0.1711  0.6822 -0.4767
  399TMC3    O1 5969   2.718   3.554   0.237  0.3735  0.4172 -0.2497
  399TMC3    O2 5970   3.250   3.722   0.479 -0.2391  0.2926  0.1679
  400TMC3    C1 5971   1.372   2.911  16.888 -0.7355 -0.0820 -0.6225
  400TMC3    C2 5972   1.253   2.924  16.829 -0.5673 -0.0080 -0.0293
  400TMC3    C3 5973   1.204   3.047  16.803 -0.1389 -0.4425  0.0153
  400TMC3    C4 5974   1.414   3.017  16.960  0.0609  0.6557 -0.2193
  400TMC3    C5 5975   1.345   3.136  16.961  0.2661  0.1316  0.7761
  400TMC3    C6 5976   1.234   3.157  16.878  0.5249 -0.5414  0.2553
  400TMC3     C 5977   1.410   2.777  16.927  0.0832  0.2843  0.1576
  400TMC3     O 5978   1.381   2.686  16.851  0.5174 -0.5391  0.1322
  400TMC3     H 5979   1.215   2.836  16.777  1.0430  0.5609 -2.1656
  400TMC3    H1 5980   1.517   3.020  16.994  0.7672 -1.6283 -2.2538
  400TMC3    H2 5981   1.176   3.248  16.867 -1.1471 -1.2672  2.9416
  400TMC3    C7 5982   1.414   3.250  17.013 -0.5964  0.4934 -0.5032
  400TMC3    C8 5983   1.083   3.054  16.722 -0.2528  0.2232 -0.3629
  400TMC3    O1 5984   1.535   3.237  17.028  0.5982  0.4332  0.0656
  400TMC3    O2 5985   1.025   3.160  16.707  0.0791 -0.3288 -0.2454
  401MPD2     C 5986   4.498   1.396   0.519 -0.5362  0.7215  0.7696
  401MPD2    C1 5987   4.559   1.375   0.644  0.0039  1.3444  0.3998
  401MPD2    C2 5988   4.597   1.246   0.679 -0.0769 -0.2180 -0.1635
  401MPD2    C3 5989   4.589   1.145   0.583  0.7921  1.1432 -0.0807
  401MPD2    C4 5990   4.546   1.173   0.449 -0.1737 -0.4534 -0.4371
  401MPD2    C5 5991   4.497   1.300   0.420  0.2956  0.4402  0.0511
  401MPD2     H 5992   4.620   1.226   0.783 -0.2683 -0.3873 -0.1531
  401MPD2    H1 5993   4.537   1.101   0.369 -2.0098 -0.2025 -0.4661
  401MPD2    H2 5994   4.444   1.487   0.495 -1.5911  0.4698  2.2274
  401MPD2    H3 5995   4.456   1.323   0.323  0.4498 -2.4034 -0.6928
  401MPD2     N 5996   4.640   1.014   0.614  0.1080  0.1023 -0.0652
  401MPD2    H5 5997   4.683   0.999   0.705 -0.0098  0.1432 -0.0029
  401MPD2    N1 5998   4.562   1.477   0.745 -0.0145  0.0745 -0.1369
  401MPD2    H7 5999   4.596   1.448   0.836 -1.2944 -0.8680  0.0362
  402TMC3    C1 6000   0.004   0.801   0.589 -0.1514  0.6245  0.4270
  402TMC3    C2 6001   4.697   0.755   0.713 -1.1286  1.3203 -0.8347
  402TMC3    C3 6002   0.036   0.638   0.752  0.1086 -0.7928 -0.7046
  402TMC3    C4 6003   0.078   0.727   0.504 -0.5710  0.0368  0.4767
  402TMC3    C5 6004   0.148   0.615   0.543 -0.2029  0.4413  0.4262
  402TMC3    C6 6005   0.122   0.568   0.668  0.1245 -0.0712  0.1015
  402TMC3     C 6006   4.647   0.906   0.528  0.4810 -0.2449  0.4823
  402TMC3     O 6007   4.618   0.893   0.409 -0.0363 -0.1584  0.1739
  402TMC3     H 6008   4.624   0.812   0.770 -0.2295  1.2238  0.4131
  402TMC3    H1 6009   0.109   0.777   0.413 -0.7096 -1.5226 -0.4240
  402TMC3    H2 6010   0.183   0.488   0.708 -0.1827 -1.1304 -1.5558
  402TMC3    C7 6011   0.159   0.514   0.440 -0.0484  0.3848 -0.5448
  402TMC3    C8 6012   0.002   0.579   0.874  0.1221  0.3028 -0.2222
  402TMC3    O1 6013   0.118   0.544   0.329 -0.6909 -0.5353  0.0574
  402TMC3    O2 6014   4.722   0.459   0.888 -0.2499  0.2331  0.1137
  403MPD2     C 6015   2.432   0.407  13.357  0.1878 -0.0644  0.0336
  403MPD2    C1 6016   2.433   0.271  13.388 -1.0857  0.5225 -0.1534
  403MPD2    C2 6017   2.495   0.232  13.503  0.3572 -0.0931  0.2732
  403MPD2    C3 6018   2.551   0.317  13.595  0.0523 -0.5410  0.0526
  403MPD2    C4 6019   2.541   0.449  13.566 -0.0546 -0.0940  0.6508
  403MPD2    C5 6020   2.480   0.495  13.454 -0.1679 -0.4684  1.1780
  403MPD2     H 6021   2.501   0.124  13.514 -1.3166 -0.3391 -1.1574
  403MPD2    H1 6022   2.593   0.517  13.632  1.5241 -0.5140 -0.1725
  403MPD2    H2 6023   2.384   0.450  13.270 -0.0062 -1.9416 -0.8029
  403MPD2    H3 6024   2.476   0.602  13.439  2.0534 -0.5560 -0.1118
  403MPD2     N 6025   2.631   0.260  13.697  0.2409  0.1354 -0.4608
  403MPD2    H5 6026   2.636   0.159  13.693  0.3690  0.1953 -2.0331
  403MPD2    N1 6027   2.381   0.184  13.287  0.2320 -0.1316  0.5742
  403MPD2    H7 6028   2.348   0.233  13.205 -0.4781 -2.9288 -0.8345
  404TMC3    C1 6029   2.265   4.717  13.195  0.3676  0.7890  0.7841
  404TMC3    C2 6030   2.232   4.593  13.226 -0.3027 -0.0368 -0.2435
  404TMC3    C3 6031   2.107   4.553  13.200 -0.2067  0.3072  0.3277
  404TMC3    C4 6032   2.193   0.077  13.116 -0.0446  0.4021 -0.0169
  404TMC3    C5 6033   2.068   0.031  13.082  0.6555 -0.3860 -0.0965
  404TMC3    C6 6034   2.013   4.639  13.141  0.4963 -0.3560 -0.1690
  404TMC3     C 6035   2.343   0.058  13.305 -0.0541 -0.1076  0.3998
  404TMC3     O 6036   2.360   4.708  13.404  0.2794  0.2797 -0.3821
  404TMC3     H 6037   2.309   4.531  13.271 -0.4753  0.7067  1.1019
  404TMC3    H1 6038   2.233   0.167  13.069  2.4148 -0.5801  0.2684
  404TMC3    H2 6039   1.922   4.590  13.110  1.2705 -0.8463 -1.6521
  404TMC3    C7 6040   1.998   0.114  12.985  0.1956 -0.1904  0.1759
  404TMC3    C8 6041   2.054   4.476  13.313  0.0328  0.8895  0.0420
  404TMC3    O1 6042   2.043   0.226  12.971  0.6697 -0.0639  0.1652
  404TMC3    O2 6043   1.951   4.411  13.300  0.4654  0.3997 -0.2167
  405MPD2     C 6044   3.106   0.331  15.768 -0.4189  0.1318  0.0422
  405MPD2    C1 6045   3.001   0.298  15.681 -0.4414  0.5751  0.0828
  405MPD2    C2 6046   2.970   0.397  15.595 -0.7785  0.9973 -0.4036
  405MPD2    C3 6047   3.037   0.515  15.568  0.1178 -0.2413 -0.6273
  405MPD2    C4 6048   3.135   0.544  15.653 -0.0464 -0.0697  0.0669
  405MPD2    C5 6049   3.167   0.451  15.752  0.1634 -0.0734  0.3345
  405MPD2     H 6050   2.884   0.381  15.531 -1.2090  0.9885  0.1853
  405MPD2    H1 6051   3.196   0.631  15.629  0.4635 -0.5454 -0.3660
  405MPD2    H2 6052   3.144   0.256  15.837 -1.7711 -0.2820  0.3433
  405MPD2    H3 6053   3.249   0.474  15.820 -0.0137 -0.0715  0.5490
  405MPD2     N 6054   2.983   0.603  15.468  0.2156 -0.4086  0.2284
  405MPD2    H5 6055   2.900   0.560  15.429 -1.1397  1.5267  0.9615
  405MPD2    N1 6056   2.940   0.176  15.696 -0.0538 -0.1958 -0.0009
  405MPD2    H7 6057   2.965   0.120  15.777  1.5984 -2.3013 -1.9423
  406TMC3    C1 6058   2.776   0.933  15.267  0.2091  0.2284 -0.4263
  406TMC3    C2 6059   2.668   0.925  15.341 -0.5127 -0.4089 -0.1634
  406TMC3    C3 6060   2.662   0.831  15.435  0.8569  0.6238  0.0903
  406TMC3    C4 6061   2.897   0.887  15.307 -0.3171 -0.4797 -1.0503
  406TMC3    C5 6062   2.896   0.801  15.417 -0.1464 -0.6757  0.5912
  406TMC3    C6 6063   2.780   0.761  15.472 -0.3956  0.7975  0.5063
  406TMC3     C 6064   2.764   0.948  15.120 -0.0077 -0.5813 -0.6611
  406TMC3     O 6065   2.862   0.933  15.048  0.1913  0.2336  0.1782
  406TMC3     H 6066   2.568   0.959  15.315 -0.8622 -0.5943  0.9455
  406TMC3    H1 6067   2.989   0.904  15.252  0.4536  1.0702  0.6908
  406TMC3    H2 6068   2.778   0.696  15.559 -2.1897  0.4708  0.2303
  406TMC3    C7 6069   3.017   0.733  15.454 -0.1289 -0.3531 -1.0908
  406TMC3    C8 6070   2.534   0.763  15.454 -0.1111 -0.2459  0.2955
  406TMC3    O1 6071   3.104   0.798  15.514 -0.0799 -0.7116  0.0345
  406TMC3    O2 6072   2.433   0.832  15.438 -0.7099  0.3915  0.7350
  407MPD2     C 6073   0.137   1.903   9.775  0.5810 -0.1996 -0.4034
  407MPD2    C1 6074   0.279   1.915   9.759  0.4067 -0.6607  0.1013
  407MPD2    C2 6075   0.355   1.959   9.862 -0.1146 -0.2946 -0.9482
  407MPD2    C3 6076   0.293   2.011   9.970 -0.5278  0.2404 -0.4360
  407MPD2    C4 6077   0.160   2.028   9.968 -0.0028  0.5735 -0.0394
  407MPD2    C5 6078   0.080   1.951   9.886 -0.4653  0.0735 -0.0834
  407MPD2     H 6079   0.460   1.959   9.836  0.6277 -1.8716  1.9759
  407MPD2    H1 6080   0.104   2.066  10.052  2.3306  2.4117  0.6774
  407MPD2    H2 6081   0.071   1.843   9.714 -3.5095  0.6953  3.0844
  407MPD2    H3 6082   4.694   1.947   9.894 -0.2482 -0.7257  2.5869
  407MPD2     N 6083   0.360   2.091  10.054 -0.4910  0.0706  0.8349
  407MPD2    H5 6084   0.304   2.157  10.107 -0.6857 -0.9108  1.8513
  407MPD2    N1 6085   0.345   1.870   9.644 -0.6712  0.1776 -0.0248
  407MPD2    H7 6086   0.445   1.858   9.632 -0.7316  1.0909 -1.4997
  408TMC3    C1 6087   0.395   1.844   9.431 -0.3929 -0.1764  0.0462
  408TMC3    C2 6088   0.474   1.733   9.406  0.0633  0.3849 -0.3274
  408TMC3    C3 6089   0.581   1.754   9.326  0.1687  0.4423 -0.2844
  408TMC3    C4 6090   0.435   1.968   9.397 -0.0261  0.4202  0.3320
  408TMC3    C5 6091   0.561   1.984   9.337 -0.2046  0.1075 -0.1522
  408TMC3    C6 6092   0.631   1.876   9.300 -0.6984 -0.3864 -0.0694
  408TMC3     C 6093   0.287   1.860   9.529  0.0375 -0.0573  0.3937
  408TMC3     O 6094   0.177   1.904   9.500 -0.3954 -0.2354 -0.0544
  408TMC3     H 6095   0.436   1.638   9.441  3.4982 -0.7512  0.2335
  408TMC3    H1 6096   0.373   2.054   9.420 -1.2173 -0.2212 -0.4829
  408TMC3    H2 6097   0.720   1.895   9.242 -1.4115 -0.3441 -1.1667
  408TMC3    C7 6098   0.635   2.103   9.363  0.0489 -0.2756  0.2123
  408TMC3    C8 6099   0.669   1.643   9.308 -1.0213 -0.5644  0.1183
  408TMC3    O1 6100   0.757   2.094   9.338  0.1240  0.2710  0.5745
  408TMC3    O2 6101   0.601   1.542   9.292 -0.0941  0.7271  0.0013
  409MPD2     C 6102   4.581   2.641  17.057  0.1603 -0.0202 -0.3403
  409MPD2    C1 6103   4.694   2.646  17.134  1.1802 -0.5619 -0.7564
  409MPD2    C2 6104   0.070   2.732  17.102 -0.5566  0.7153 -0.8698
  409MPD2    C3 6105   0.064   2.811  16.992  0.4381 -0.4869 -0.2441
  409MPD2    C4 6106   4.671   2.814  16.925 -0.1061 -0.1196 -0.6596
  409MPD2    C5 6107   4.570   2.727  16.953 -0.2409 -0.0722 -0.0923
  409MPD2     H 6108   0.163   2.729  17.156  0.3888  2.1389 -2.4195
  409MPD2    H1 6109   4.669   2.878  16.837  3.4327  0.8822 -0.0039
  409MPD2    H2 6110   4.497   2.573  17.066  0.4200 -0.3459 -0.3831
  409MPD2    H3 6111   4.479   2.721  16.895 -0.4877 -0.8398  0.3820
  409MPD2     N 6112   0.164   2.902  16.955 -0.2168  0.0889  0.0361
  409MPD2    H5 6113   0.148   2.962  16.875 -0.1047  1.4930  1.0762
  409MPD2    N1 6114   4.712   2.564  17.241  0.1318 -0.5743 -0.2597
  409MPD2    H7 6115   0.061   2.579  17.312 -2.8006  0.2768  2.5146
  410TMC3    C1 6116   0.378   3.011  16.939  0.4780  0.5930  0.4682
  410TMC3    C2 6117   0.489   3.056  17.009  0.9772  0.2296  0.2585
  410TMC3    C3 6118   0.586   3.128  16.936 -0.2809 -0.4621 -0.0323
  410TMC3    C4 6119   0.356   3.038  16.806 -0.0292  0.7464  0.7081
  410TMC3    C5 6120   0.450   3.118  16.745 -0.1291 -0.4332 -0.7794
  410TMC3    C6 6121   0.570   3.160  16.805  0.0021  0.1100 -0.4084
  410TMC3     C 6122   0.294   2.914  17.008  0.1565 -0.0755 -0.2705
  410TMC3     O 6123   0.342   2.860  17.110 -0.7905  0.9470  0.2303
  410TMC3     H 6124   0.532   3.008  17.096  1.4991  0.4075  0.0998
  410TMC3    H1 6125   0.260   3.020  16.759 -0.9632 -0.6230  3.1303
  410TMC3    H2 6126   0.655   3.201  16.751 -0.0527 -0.3278 -0.8344
  410TMC3    C7 6127   0.417   3.155  16.612  0.3796  0.8052  0.9657
  410TMC3    C8 6128   0.720   3.099  16.972  0.1957 -0.3593  0.2152
  410TMC3    O1 6129   0.316   3.107  16.562 -0.2391  0.1091  0.1361
  410TMC3    O2 6130   0.788   3.195  17.012 -0.3084 -0.4778  0.2622
  411MPD2     C 6131   0.217   3.204  14.469  0.5016  0.3276 -0.6683
  411MPD2    C1 6132   0.152   3.293  14.382 -0.5382  0.4301  0.2358
  411MPD2    C2 6133   0.042   3.245  14.324  0.0143  0.4764 -0.3126
  411MPD2    C3 6134   4.704   3.125  14.354  0.3839  0.3447  0.2492
  411MPD2    C4 6135   0.055   3.033  14.421 -0.1100  0.3610  0.6708
  411MPD2    C5 6136   0.168   3.075  14.487  0.2061 -0.2850  0.4619
  411MPD2     H 6137   4.704   3.308  14.259  0.8681 -0.7177 -2.2612
  411MPD2    H1 6138   0.006   2.941  14.449  2.2250 -0.5724  1.6794
  411MPD2    H2 6139   0.308   3.248  14.510  0.9478 -0.5738 -0.6882
  411MPD2    H3 6140   0.210   3.016  14.568  0.4945 -0.1833  0.3856
  411MPD2     N 6141   4.577   3.093  14.302 -0.0036  0.2993 -0.2511
  411MPD2    H5 6142   4.536   3.160  14.239 -0.7620  0.9105  0.8994
  411MPD2    N1 6143   0.205   3.427  14.376  0.3282 -0.3573  0.0152
  411MPD2    H7 6144   0.283   3.452  14.437  1.3556 -0.5194 -1.2317
  412TMC3    C1 6145   4.402   2.952  14.251  0.6954 -0.1476 -0.5130
  412TMC3    C2 6146   4.276   3.007  14.255  0.2604  0.0534  0.3906
  412TMC3    C3 6147   4.202   3.005  14.135  0.4259  0.1476  0.3690
  412TMC3    C4 6148   4.462   2.900  14.138 -0.0442  1.0315 -0.1684
  412TMC3    C5 6149   4.392   2.900  14.023  0.5957  0.0281  0.1388
  412TMC3    C6 6150   4.259   2.949  14.025 -0.0456  0.7910 -0.0046
  412TMC3     C 6151   4.494   2.991  14.345 -0.1629  0.4274 -0.3169
  412TMC3     O 6152   4.513   2.905  14.429  0.0216  0.2618 -0.7565
  412TMC3     H 6153   4.256   3.068  14.342 -1.6678 -0.3924  0.2608
  412TMC3    H1 6154   4.565   2.867  14.148 -0.9113 -1.3179  0.9497
  412TMC3    H2 6155   4.208   2.953  13.930  1.6297  0.9460 -0.9043
  412TMC3    C7 6156   4.471   2.944  13.909 -0.1285 -0.3513  0.7857
  412TMC3    C8 6157   4.130   3.127  14.110 -0.3429  0.0230 -0.3391
  412TMC3    O1 6158   4.410   3.030  13.841  0.1552  0.4653 -0.1743
  412TMC3    O2 6159   4.053   3.174  14.197 -0.6945 -0.1960  0.8284
  413MPD2     C 6160   1.854   1.640  15.983  0.4186  0.1797 -0.1596
  413MPD2    C1 6161   1.878   1.653  15.848  0.8113 -0.1848 -0.9588
  413MPD2    C2 6162   2.002   1.623  15.790  0.4499 -0.1767  1.6484
  413MPD2    C3 6163   2.099   1.565  15.869 -0.5422 -0.1332 -0.1923
  413MPD2    C4 6164   2.069   1.548  16.006  0.3576  0.3458  0.0501
  413MPD2    C5 6165   1.951   1.585  16.063  1.1549  0.6613  0.2083
  413MPD2     H 6166   2.016   1.634  15.683  0.8565 -2.0007  1.5221
  413MPD2    H1 6167   2.133   1.496  16.077  0.0643  0.1316  0.1546
  413MPD2    H2 6168   1.758   1.663  16.028 -0.1042 -0.1936 -1.0901
  413MPD2    H3 6169   1.946   1.560  16.168  0.8411 -0.6390 -0.1153
  413MPD2     N 6170   2.217   1.507  15.813  0.6072 -0.8464  0.0295
  413MPD2    H5 6171   2.223   1.495  15.712  0.4421  1.5991 -0.2668
  413MPD2    N1 6172   1.766   1.700  15.776 -0.2355 -0.3997 -1.1559
  413MPD2    H7 6173   1.692   1.739  15.833  2.5233  0.8972  1.5383
  414TMC3    C1 6174   2.405   1.361  15.805 -0.3654 -0.0728  0.0944
  414TMC3    C2 6175   2.475   1.268  15.872 -0.5584 -0.3163  0.1332
  414TMC3    C3 6176   2.543   1.169  15.808 -0.0148  0.0977 -0.1286
  414TMC3    C4 6177   2.413   1.368  15.672 -0.7072 -0.5223  0.1472
  414TMC3    C5 6178   2.495   1.281  15.606 -0.1130 -0.5518 -0.3236
  414TMC3    C6 6179   2.569   1.184  15.673 -0.7758  0.4853  0.4986
  414TMC3     C 6180   2.316   1.449  15.890 -0.2049 -0.4622 -0.7970
  414TMC3     O 6181   2.350   1.461  16.007 -0.0820  0.2488  0.0169
  414TMC3     H 6182   2.450   1.254  15.977  1.5718 -1.0410  0.5491
  414TMC3    H1 6183   2.375   1.454  15.618  0.2930  1.1168  2.0256
  414TMC3    H2 6184   2.619   1.110  15.612 -1.1468  0.8814 -0.2929
  414TMC3    C7 6185   2.530   1.320  15.472  0.5157  0.1685  0.5438
  414TMC3    C8 6186   2.565   1.043  15.870 -0.3636 -0.3263 -0.8251
  414TMC3    O1 6187   2.435   1.365  15.411  0.5684 -0.4436  0.0091
  414TMC3    O2 6188   2.494   1.014  15.961  0.0720 -0.1945 -0.8230
  415TMC3    C1 6189   2.310   4.073   9.997  0.0153  0.7155  0.2889
  415TMC3    C2 6190   2.326   4.161   9.899  0.6580  0.8046  0.1275
  415TMC3    C3 6191   2.306   4.103   9.774  0.2752 -0.1596 -0.1912
  415TMC3    C4 6192   2.292   3.939   9.988  0.2767 -0.3300 -0.0880
  415TMC3    C5 6193   2.276   3.888   9.861  0.2615 -0.1452  0.2358
  415TMC3    C6 6194   2.296   3.967   9.753 -0.6250  0.2156  0.1309
  415TMC3     C 6195   2.294   4.115  10.138 -0.4419  0.2339  0.8501
  415TMC3     O 6196   2.312   4.031  10.228 -0.3524  0.1216  0.1372
  415TMC3     H 6197   2.351   4.264   9.918  0.1871  0.8496  0.5270
  415TMC3    H1 6198   2.280   3.874  10.074  1.5777 -0.4895 -0.0251
  415TMC3    H2 6199   2.300   3.921   9.655 -2.0194  0.3507  0.0137
  415TMC3    C7 6200   2.249   3.742   9.842 -0.0239 -0.4532 -0.4502
  415TMC3    C8 6201   2.338   4.178   9.661 -0.1444  0.9513  0.0167
  415TMC3    O1 6202   2.245   3.694   9.728  0.2139 -0.4706 -0.2780
  415TMC3    O2 6203   2.265   4.176   9.561 -1.1802 -0.0339  0.3444
  416MPD2     C 6204   4.171   2.972  11.475  0.0715  0.5260  0.0590
  416MPD2    C1 6205   4.051   2.987  11.400 -0.1577 -0.3845  0.2981
  416MPD2    C2 6206   4.031   2.911  11.285  0.0859  0.4122 -0.2386
  416MPD2    C3 6207   4.117   2.815  11.240  0.0981 -1.0948  0.3520
  416MPD2    C4 6208   4.229   2.797  11.312 -0.7425 -0.4063  0.2169
  416MPD2    C5 6209   4.256   2.880  11.421 -0.5551  0.2193 -1.2291
  416MPD2     H 6210   3.945   2.933  11.222  0.9329  0.6075 -1.3093
  416MPD2    H1 6211   4.307   2.730  11.278 -0.9379 -1.6140  2.1238
  416MPD2    H2 6212   4.196   3.027  11.565  0.5064  0.2311  0.1163
  416MPD2    H3 6213   4.355   2.879  11.466 -0.8542 -0.2325 -0.5845
  416MPD2     N 6214   4.099   2.741  11.125 -0.1147  0.0912 -0.2983
  416MPD2    H5 6215   4.187   2.714  11.083 -0.3985 -0.4695 -0.5370
  416MPD2    N1 6216   3.964   3.087  11.448  0.2415 -0.2651  0.7302
  416MPD2    H7 6217   4.010   3.146  11.517  0.4931  1.1960 -0.6840
  417TMC3    C1 6218   3.788   3.235  11.481 -0.2511  0.7276 -0.8621
  417TMC3    C2 6219   3.844   3.274  11.600 -0.3681 -0.0374 -0.1190
  417TMC3    C3 6220   3.800   3.387  11.662  0.1236  0.1990  0.1197
  417TMC3    C4 6221   3.682   3.303  11.424  0.0543  0.3688  0.0544
  417TMC3    C5 6222   3.637   3.412  11.492  0.3754  0.5055 -0.1946
  417TMC3    C6 6223   3.693   3.450  11.612  0.0769  0.5149  0.3014
  417TMC3     C 6224   3.842   3.128  11.399  0.0753 -0.2013  0.0951
  417TMC3     O 6225   3.785   3.090  11.300 -0.4926  0.6313  0.4072
  417TMC3     H 6226   3.925   3.220  11.648 -0.5085 -0.0079  0.1564
  417TMC3    H1 6227   3.628   3.271  11.336  1.8447  0.5817 -1.1123
  417TMC3    H2 6228   3.654   3.528  11.676  0.7804 -0.3709  1.8088
  417TMC3    C7 6229   3.550   3.499  11.422  0.1959  0.3120  0.3482
  417TMC3    C8 6230   3.857   3.432  11.791 -1.0520  0.5796  0.2829
  417TMC3    O1 6231   3.550   3.490  11.300 -0.3598 -0.1785 -0.3183
  417TMC3    O2 6232   3.783   3.502  11.862  0.2990 -0.3898  0.6419
  418TMC3    C1 6233   3.687   4.340  17.662  0.5150 -1.4310 -0.7581
  418TMC3    C2 6234   3.607   4.456  17.667 -0.0701  0.5185  0.6730
  418TMC3    C3 6235   3.592   4.514   0.095  0.0696 -0.3059 -0.6043
  418TMC3    C4 6236   3.757   4.286   0.077  0.4029 -0.0410 -0.0667
  418TMC3    C5 6237   3.740   4.352   0.197 -0.1980  0.1607  0.0022
  418TMC3    C6 6238   3.653   4.465   0.212  0.2141  0.6037 -0.4100
  418TMC3     C 6239   3.706   4.291  17.528 -0.6367 -0.0078  0.7659
  418TMC3     O 6240   3.698   4.362  17.434  0.5662 -0.0423 -0.2298
  418TMC3     H 6241   3.566   4.494  17.574  0.4141  0.3283  0.3774
  418TMC3    H1 6242   3.836   4.214   0.059 -0.5464 -1.3419  1.0054
  418TMC3    H2 6243   3.624   4.511   0.305 -0.3356  0.2786 -0.4217
  418TMC3    C7 6244   3.760   4.281   0.319  0.6125  0.6006 -0.2063
  418TMC3    C8 6245   3.451   4.542   0.120 -0.1217  0.1174 -0.5282
  418TMC3    O1 6246   3.785   4.158   0.313  0.0026 -0.2544  0.0473
  418TMC3    O2 6247   3.404   4.651   0.096  0.2140 -0.2289 -0.5584
  419MPD2     C 6248   1.691   3.317  12.263 -0.2348  0.0885  1.0755
  419MPD2    C1 6249   1.605   3.417  12.293 -0.6106  0.1079 -0.2529
  419MPD2    C2 6250   1.550   3.427  12.414 -0.5442 -1.0448  0.0008
  419MPD2    C3 6251   1.586   3.347  12.519  0.6273  0.4324 -0.4707
  419MPD2    C4 6252   1.680   3.252  12.490  0.1326 -0.8507 -0.0039
  419MPD2    C5 6253   1.724   3.231  12.360 -0.1239  0.3624  0.2284
  419MPD2     H 6254   1.491   3.514  12.440 -0.9516 -1.4941  0.5653
  419MPD2    H1 6255   1.715   3.189  12.571  0.4366 -1.5823 -0.6900
  419MPD2    H2 6256   1.730   3.295  12.164 -0.6925  0.2531  0.8607
  419MPD2    H3 6257   1.797   3.153  12.340  1.2150  1.4335  0.9391
  419MPD2     N 6258   1.519   3.370  12.641  0.2043 -0.3613 -0.2388
  419MPD2    H5 6259   1.447   3.442  12.639 -1.4213 -2.0076 -0.5486
  419MPD2    N1 6260   1.577   3.523  12.205 -0.0969  0.2278 -0.3526
  419MPD2    H7 6261   1.538   3.605  12.251  1.5298  0.2275  1.0177
  420TMC3    C1 6262   1.475   3.395  12.868 -0.4316 -0.3258 -0.3347
  420TMC3    C2 6263   1.358   3.462  12.830 -0.4765 -0.2189 -0.7312
  420TMC3    C3 6264   1.303   3.556  12.915 -0.8547 -0.5293  0.1599
  420TMC3    C4 6265   1.535   3.424  12.987  0.5098  0.0991 -0.2081
  420TMC3    C5 6266   1.481   3.516  13.071  0.0483  0.1302  0.1576
  420TMC3    C6 6267   1.371   3.586  13.027  0.7817 -0.1470  0.1667
  420TMC3     C 6268   1.558   3.333  12.767  0.2661 -0.4768  0.1009
  420TMC3     O 6269   1.658   3.282  12.807  0.0255  0.2288  0.4961
  420TMC3     H 6270   1.310   3.439  12.736 -0.0850  2.0193 -1.4724
  420TMC3    H1 6271   1.624   3.369  13.014 -0.3850 -1.3134 -0.1339
  420TMC3    H2 6272   1.327   3.649  13.104 -1.3764  1.0399 -2.0214
  420TMC3    C7 6273   1.542   3.539  13.205  0.1829  0.0089 -0.0831
  420TMC3    C8 6274   1.210   3.646  12.855 -0.0544 -0.1567  0.7131
  420TMC3    O1 6275   1.612   3.455  13.262 -0.0366  0.9565  0.1784
  420TMC3    O2 6276   1.187   3.630  12.735  0.0360  0.0280 -0.4219
  421TMC3    C1 6277   2.748   0.244  13.895  0.0779 -0.1865 -0.6954
  421TMC3    C2 6278   2.728   0.271  14.026  0.0326 -0.0668 -0.3910
  421TMC3    C3 6279   2.778   0.193  14.127  0.3771 -0.5387  0.0557
  421TMC3    C4 6280   2.826   0.137  13.856  0.1540 -0.1586 -0.1148
  421TMC3    C5 6281   2.869   0.054  13.961 -0.6584 -0.0981 -0.4329
  421TMC3    C6 6282   2.848   0.082  14.097  0.2501  0.4353  0.1796
  421TMC3     C 6283   2.676   0.330  13.804  0.0068 -0.4162 -1.0321
  421TMC3     O 6284   2.656   0.444  13.839 -0.9141 -0.5517  0.1851
  421TMC3     H 6285   2.660   0.350  14.056  0.7256 -0.2051  1.5773
  421TMC3    H1 6286   2.864   0.145  13.754 -0.6474  0.4999 -0.3560
  421TMC3    H2 6287   2.906   0.036  14.176  0.0363 -0.3151 -0.1033
  421TMC3    C7 6288   2.960   4.669  13.929 -0.0773  0.2231 -0.4980
  421TMC3    C8 6289   2.777   0.225  14.266 -0.1531  0.5671 -0.2378
  421TMC3    O1 6290   3.025   4.614  14.012  0.7941  0.6878 -0.0136
  421TMC3    O2 6291   2.765   0.138  14.353  0.2480  0.4580 -0.0452
  422TMC3    C1 6292   0.633   1.805  12.722 -0.3014  0.1067  0.3257
  422TMC3    C2 6293   0.605   1.934  12.766 -0.1814 -0.4138  0.3185
  422TMC3    C3 6294   0.500   1.949  12.853  0.1927 -0.0287 -0.7980
  422TMC3    C4 6295   0.550   1.698  12.760 -0.0381  0.5117  0.3685
  422TMC3    C5 6296   0.437   1.728  12.838  0.1580  0.1292  0.2655
  422TMC3    C6 6297   0.409   1.854  12.881  1.0408  0.2031 -0.1585
  422TMC3     C 6298   0.719   1.789  12.601  0.0201  0.3019 -0.1855
  422TMC3     O 6299   0.800   1.700  12.603 -1.0866 -0.1635 -0.0251
  422TMC3     H 6300   0.671   2.018  12.747  0.0436 -0.8467 -0.7708
  422TMC3    H1 6301   0.566   1.596  12.726 -1.4427  0.5623 -0.4648
  422TMC3    H2 6302   0.333   1.861  12.958 -0.0273 -0.8462 -1.1265
  422TMC3    C7 6303   0.360   1.615  12.888 -0.4569 -1.0622 -0.1098
  422TMC3    C8 6304   0.463   2.088  12.879 -0.5181 -0.2705  0.3187
  422TMC3    O1 6305   0.417   1.505  12.877  0.1255 -0.2637 -0.6476
  422TMC3    O2 6306   0.556   2.169  12.868  0.2811 -0.4594 -0.2639
  423MPD2     C 6307   2.269   2.085   0.608  0.5039  1.7033 -0.3293
  423MPD2    C1 6308   2.340   2.028   0.500 -0.2597  0.0244  0.0657
  423MPD2    C2 6309   2.260   1.958   0.406  0.6789  0.4040 -0.0499
  423MPD2    C3 6310   2.131   1.920   0.441  0.5339 -0.2898  0.4445
  423MPD2    C4 6311   2.080   1.967   0.555  0.1255  0.7134  0.0013
  423MPD2    C5 6312   2.142   2.054   0.641  0.1884  0.6311  0.1356
  423MPD2     H 6313   2.308   1.905   0.325 -2.3000 -2.7534  0.2591
  423MPD2    H1 6314   1.978   1.943   0.586  0.2407 -0.7417 -0.7399
  423MPD2    H2 6315   2.315   2.152   0.679 -0.1840  1.1800  0.6128
  423MPD2    H3 6316   2.092   2.107   0.721 -1.3099 -0.9653  0.2566
  423MPD2     N 6317   2.044   1.841   0.361  0.1607 -0.6499  0.5074
  423MPD2    H5 6318   1.956   1.824   0.408  0.1294  0.7505  0.9486
  423MPD2    N1 6319   2.477   2.038   0.487  0.0557  0.3276  0.5596
  423MPD2    H7 6320   2.519   1.996   0.405  1.9180  2.9200  0.1849
  424TMC3    C1 6321   2.694   2.099   0.544 -0.4439 -0.5712 -0.2304
  424TMC3    C2 6322   2.734   1.979   0.567  0.1058  0.5052 -0.1804
  424TMC3    C3 6323   2.848   1.963   0.635 -0.2376 -0.1766 -0.1843
  424TMC3    C4 6324   2.765   2.207   0.573 -0.4864 -0.1492 -0.0850
  424TMC3    C5 6325   2.870   2.190   0.656  0.5526 -0.0424 -0.1859
  424TMC3    C6 6326   2.927   2.068   0.677  0.3003 -0.1420  0.4638
  424TMC3     C 6327   2.553   2.123   0.556  0.1353 -0.1817  0.0402
  424TMC3     O 6328   2.529   2.218   0.633 -0.0025  0.2454 -0.5999
  424TMC3     H 6329   2.667   1.894   0.553  0.1306  0.2669  1.1585
  424TMC3    H1 6330   2.722   2.302   0.543 -1.3175  0.0101  1.5742
  424TMC3    H2 6331   3.016   2.063   0.739  0.9381  0.7073 -0.3802
  424TMC3    C7 6332   2.906   2.293   0.742 -0.7855  0.3348 -0.2273
  424TMC3    C8 6333   2.908   1.830   0.645 -0.2158  0.4261 -0.0197
  424TMC3    O1 6334   2.924   2.405   0.693  0.3941  0.0034  0.0424
  424TMC3    O2 6335   2.829   1.747   0.609 -0.6019  0.3817 -0.8825
  425MPD2     C 6336   0.993   1.293  17.365  0.0496 -0.0458  0.1679
  425MPD2    C1 6337   0.893   1.217  17.424  0.3938  0.5087  0.5825
  425MPD2    C2 6338   0.779   1.281  17.472  0.3799  0.0937 -0.5450
  425MPD2    C3 6339   0.754   1.417  17.440  0.4077 -0.7922 -0.8989
  425MPD2    C4 6340   0.835   1.475  17.348 -1.1418 -0.3996 -0.1922
  425MPD2    C5 6341   0.958   1.418  17.324 -0.6785 -0.2097  0.1963
  425MPD2     H 6342   0.711   1.227  17.537 -0.3992  0.2338 -1.2409
  425MPD2    H1 6343   0.810   1.578  17.323 -0.0689 -0.4942 -1.6824
  425MPD2    H2 6344   1.097   1.263  17.355 -0.4552 -1.8995  0.5697
  425MPD2    H3 6345   1.044   1.467  17.280 -0.1027 -0.5291  0.9687
  425MPD2     N 6346   0.632   1.468  17.482 -0.0358  0.3084  0.1515
  425MPD2    H5 6347   0.574   1.408  17.539  1.0198  0.3120  1.2357
  425MPD2    N1 6348   0.922   1.077  17.451  0.1234 -0.2734 -0.5319
  425MPD2    H7 6349   1.008   1.040  17.413  0.8649  0.9416 -0.0402
  426TMC3    C1 6350   0.882   0.845  17.503  0.3695 -0.2205  0.0724
  426TMC3    C2 6351   0.880   0.782  17.378  0.2012  0.4435 -0.1861
  426TMC3    C3 6352   0.872   0.648  17.378  0.0646  0.9612 -0.7598
  426TMC3    C4 6353   0.854   0.777  17.615 -0.5755  0.8527 -1.0920
  426TMC3    C5 6354   0.850   0.642  17.606 -0.1739  0.1042  0.1679
  426TMC3    C6 6355   0.852   0.571  17.491  0.4023  0.1239 -0.6652
  426TMC3     C 6356   0.838   0.981  17.512  0.4437 -0.1999 -0.1035
  426TMC3     O 6357   0.739   0.994  17.583 -0.2255  1.4000 -0.3817
  426TMC3     H 6358   0.898   0.831  17.283  0.1950 -0.5906 -0.7283
  426TMC3    H1 6359   0.847   0.834   0.016 -0.3131 -0.9832  0.0566
  426TMC3    H2 6360   0.826   0.466  17.488  0.7122 -0.0320  2.4821
  426TMC3    C7 6361   0.829   0.560   0.033  0.8265  0.3497 -0.5208
  426TMC3    C8 6362   0.862   0.589  17.246 -0.0405 -0.0702  0.0213
  426TMC3    O1 6363   0.886   0.451   0.030 -0.4485  0.1381 -0.0547
  426TMC3    O2 6364   0.818   0.656  17.150  0.1102  0.2306  0.5150
  427MPD2     C 6365   3.989   3.720  14.726 -0.9153  0.4687  0.2288
  427MPD2    C1 6366   3.949   3.616  14.808 -1.0686 -0.5267 -0.0124
  427MPD2    C2 6367   3.827   3.627  14.872 -0.1594  0.5357 -0.4029
  427MPD2    C3 6368   3.745   3.740  14.859 -0.4201  0.1425 -0.2466
  427MPD2    C4 6369   3.794   3.845  14.783  0.3889  0.0550  0.2200
  427MPD2    C5 6370   3.914   3.834  14.710  0.1118  0.0463  0.2071
  427MPD2     H 6371   3.802   3.548  14.942 -0.4728  0.6461 -0.3879
  427MPD2    H1 6372   3.737   3.937  14.780  1.0297  0.4426 -0.2720
  427MPD2    H2 6373   4.083   3.714  14.673 -1.9146 -1.5770 -1.3784
  427MPD2    H3 6374   3.951   3.915  14.648  2.0867 -1.5990 -0.7765
  427MPD2     N 6375   3.615   3.750  14.911  0.1682 -0.4666 -0.0770
  427MPD2    H5 6376   3.565   3.837  14.897  0.8357 -0.1496 -0.4813
  427MPD2    N1 6377   4.029   3.503  14.829 -0.4051 -0.1793 -0.4397
  427MPD2    H7 6378   4.004   3.439  14.904 -0.2523  0.1473 -0.1071
  428TMC3    C1 6379   4.222   3.366  14.834  0.3358  0.3528 -0.0426
  428TMC3    C2 6380   4.136   3.273  14.885  0.2460 -0.2980 -0.1520
  428TMC3    C3 6381   4.182   3.195  14.985 -0.6355 -0.1871  0.0703
  428TMC3    C4 6382   4.356   3.373  14.857 -0.0491  0.8218  0.2619
  428TMC3    C5 6383   4.391   3.296  14.964  0.6003  0.2621 -0.2513
  428TMC3    C6 6384   4.310   3.212  15.027 -0.1006  0.1901  0.0888
  428TMC3     C 6385   4.160   3.490  14.780  0.0527  0.4851  0.1324
  428TMC3     O 6386   4.229   3.567  14.717  0.2983  0.0854  0.2704
  428TMC3     H 6387   4.036   3.260  14.844  0.8794  0.7698 -1.9983
  428TMC3    H1 6388   4.420   3.450  14.815 -1.4958 -0.2458 -3.8836
  428TMC3    H2 6389   4.355   3.170  15.116 -1.3379  0.1422  0.6842
  428TMC3    C7 6390   4.525   3.305  15.006 -0.2410 -0.1545  0.5977
  428TMC3    C8 6391   4.170   3.053  14.972 -0.0882  0.0881  0.0878
  428TMC3    O1 6392   4.547   3.282  15.120 -0.0148  0.2714 -0.3021
  428TMC3    O2 6393   4.240   2.986  15.049 -0.1510  0.0754  0.2859
  429MPD2     C 6394   0.454   3.539   0.159 -0.4165 -0.0012  0.5319
  429MPD2    C1 6395   0.549   3.470   0.094  0.1722 -0.4560 -0.0277
  429MPD2    C2 6396   0.624   3.531  17.688  0.1464 -0.0249  1.0568
  429MPD2    C3 6397   0.609   3.670  17.657  0.2050 -0.5792 -0.2510
  429MPD2    C4 6398   0.504   3.737   0.029 -0.1948 -0.4079  0.7025
  429MPD2    C5 6399   0.435   3.670   0.126  0.3847 -0.4710 -0.0014
  429MPD2     H 6400   0.698   3.469  17.638 -1.2970 -2.0688  1.4443
  429MPD2    H1 6401   0.475   3.840   0.014 -0.6847 -0.3453  2.0301
  429MPD2    H2 6402   0.390   3.501   0.238  1.0569 -2.0099  0.7882
  429MPD2    H3 6403   0.349   3.712   0.176 -0.5269  0.0028 -1.9674
  429MPD2     N 6404   0.690   3.734  17.557 -0.5820 -0.0523 -0.1370
  429MPD2    H5 6405   0.773   3.681  17.533  0.9108  0.7987  3.1223
  429MPD2    N1 6406   0.586   3.342   0.132 -0.2343 -0.2112 -0.1236
  429MPD2    H7 6407   0.668   3.306   0.084 -1.1416 -2.2443 -0.1678
  430TMC3    C1 6408   0.773   3.885  17.403 -0.0086 -0.7400  0.2969
  430TMC3    C2 6409   0.730   3.955  17.289 -0.6445  0.0380 -0.8478
  430TMC3    C3 6410   0.822   3.962  17.182 -0.2119  0.2162 -0.5992
  430TMC3    C4 6411   0.897   3.831  17.414 -0.1362  0.2536  0.0009
  430TMC3    C5 6412   0.982   3.841  17.305 -0.1590 -0.1886  0.2113
  430TMC3    C6 6413   0.950   3.915  17.195  0.2160  0.4420  0.4078
  430TMC3     C 6414   0.671   3.856  17.506  0.1553 -0.3177  0.6339
  430TMC3     O 6415   0.567   3.921  17.498 -0.0366 -0.2401 -0.6685
  430TMC3     H 6416   0.633   4.000  17.275 -0.9725  0.0140  1.4025
  430TMC3    H1 6417   0.923   3.763  17.495  1.2524 -0.3587 -0.9599
  430TMC3    H2 6418   1.007   3.910  17.102 -1.5708  2.0215 -0.7760
  430TMC3    C7 6419   1.072   3.728  17.283 -0.7645 -0.3843 -0.0113
  430TMC3    C8 6420   0.784   4.013  17.049 -0.2400 -0.1319 -0.0329
  430TMC3    O1 6421   1.023   3.615  17.300  0.0754  0.2071  0.5221
  430TMC3    O2 6422   0.866   4.043  16.964  0.0720  0.4308 -0.2897
  431MPD2     C 6423   1.285   4.111  12.628  0.0036 -0.3720  0.3705
  431MPD2    C1 6424   1.279   4.192  12.516 -0.5712  0.2365 -0.0629
  431MPD2    C2 6425   1.315   4.123  12.396 -0.0324 -0.4163  0.5315
  431MPD2    C3 6426   1.351   3.992  12.393 -0.8506  0.1953 -0.0126
  431MPD2    C4 6427   1.348   3.916  12.505  0.0844  0.1047 -1.0675
  431MPD2    C5 6428   1.314   3.974  12.624  0.8210  0.1363  0.4966
  431MPD2     H 6429   1.319   4.187  12.309 -2.7075 -1.4007 -0.2989
  431MPD2    H1 6430   1.375   3.811  12.497 -1.4146 -0.3872  0.4266
  431MPD2    H2 6431   1.253   4.147  12.726 -2.2054 -0.6238 -0.2613
  431MPD2    H3 6432   1.320   3.914  12.714 -0.4134 -1.0901 -0.2445
  431MPD2     N 6433   1.408   3.929  12.279  0.5348 -0.2891 -0.5175
  431MPD2    H5 6434   1.443   3.835  12.293 -0.2278 -0.3841  0.7425
  431MPD2    N1 6435   1.243   4.330  12.530  0.3568 -0.6204 -0.7518
  431MPD2    H7 6436   1.224   4.358  12.626 -1.2353  0.2715 -1.3274
  432TMC3    C1 6437   1.476   3.882  12.068 -0.0721 -0.2324  0.5916
  432TMC3    C2 6438   1.542   3.923  11.956 -0.7696  0.3179  0.4855
  432TMC3    C3 6439   1.603   3.834  11.881  0.3902  0.4298  0.0789
  432TMC3    C4 6440   1.490   3.747  12.107  0.0297  0.0984 -0.3145
  432TMC3    C5 6441   1.552   3.662  12.023 -0.3418  0.0077  0.2972
  432TMC3    C6 6442   1.610   3.701  11.907 -0.7188  0.3729  0.0910
  432TMC3     C 6443   1.422   3.982  12.154  0.1620  0.0549 -0.2777
  432TMC3     O 6444   1.422   4.100  12.131 -0.1455 -0.1762  0.5388
  432TMC3     H 6445   1.535   4.030  11.941  0.4205  0.3453  0.1280
  432TMC3    H1 6446   1.449   3.704  12.198 -0.0174  1.0329  0.1078
  432TMC3    H2 6447   1.675   3.641  11.844  1.6263  1.7737  1.1770
  432TMC3    C7 6448   1.599   3.537  12.072  0.2518  0.4891 -0.5462
  432TMC3    C8 6449   1.716   3.885  11.812  0.0521  0.7541  0.0345
  432TMC3    O1 6450   1.629   3.457  11.984 -0.4429 -0.2948  0.4582
  432TMC3    O2 6451   1.740   3.826  11.710  1.2224 -0.0564  0.3697
  433MPD2     C 6452   0.575   2.689  11.027 -0.3245 -0.0752 -0.7874
  433MPD2    C1 6453   0.468   2.598  11.047 -0.5550  0.4447 -0.0976
  433MPD2    C2 6454   0.394   2.614  11.165 -0.1543  0.5519  0.5203
  433MPD2    C3 6455   0.425   2.717  11.251  0.1002 -0.7909 -0.2640
  433MPD2    C4 6456   0.527   2.806  11.225  0.6600 -0.1790  0.1266
  433MPD2    C5 6457   0.602   2.790  11.109  0.3123 -1.0876  0.4981
  433MPD2     H 6458   0.317   2.544  11.198  0.4906 -0.5326 -0.2761
  433MPD2    H1 6459   0.566   2.871  11.303 -0.2330 -0.0141  0.4340
  433MPD2    H2 6460   0.640   2.670  10.942  1.0499 -0.4133  0.3285
  433MPD2    H3 6461   0.686   2.857  11.095 -0.0943 -0.9155 -1.1456
  433MPD2     N 6462   0.361   2.713  11.373 -0.3518  0.7339  0.1240
  433MPD2    H5 6463   0.328   2.621  11.400 -0.3445  1.2099  1.7623
  433MPD2    N1 6464   0.441   2.497  10.952  0.3141  0.1889 -0.2637
  433MPD2    H7 6465   0.498   2.494  10.868  1.1109 -1.5670  0.3386
  434TMC3    C1 6466   0.377   2.294  10.869 -0.2610 -0.6413 -0.0888
  434TMC3    C2 6467   0.451   2.186  10.920  0.2145 -0.7070 -0.0943
  434TMC3    C3 6468   0.541   2.125  10.833 -0.2685 -0.4026  0.0777
  434TMC3    C4 6469   0.406   2.348  10.750 -0.4383 -0.0478  0.2528
  434TMC3    C5 6470   0.490   2.278  10.666 -0.5923 -0.5908  0.2920
  434TMC3    C6 6471   0.557   2.165  10.703  0.2933  0.0586 -0.6111
  434TMC3     C 6472   0.365   2.387  10.975 -0.7200 -0.3629  0.3719
  434TMC3     O 6473   0.324   2.340  11.080 -0.0996 -0.5312 -0.1348
  434TMC3     H 6474   0.439   2.153  11.022  0.8618  1.1049  0.5624
  434TMC3    H1 6475   0.369   2.445  10.719  0.4689  0.5511  1.0210
  434TMC3    H2 6476   0.637   2.123  10.644 -0.0304  0.6617 -1.4804
  434TMC3    C7 6477   0.408   2.246  10.555  1.4203  0.4384  1.0080
  434TMC3    C8 6478   0.654   2.052  10.893  0.0586  0.1831  0.1368
  434TMC3    O1 6479   0.330   2.328  10.508 -0.2257 -0.7552 -0.0472
  434TMC3    O2 6480   0.757   2.033  10.832  0.5770  0.7403 -0.0976
  435MPD2     C 6481   2.639   2.161  15.408  0.2777  0.2310  0.2472
  435MPD2    C1 6482   2.602   2.176  15.542  0.1000  0.3912  0.6514
  435MPD2    C2 6483   2.689   2.141  15.642 -0.1048  0.1765  0.0657
  435MPD2    C3 6484   2.822   2.102  15.614 -0.8130 -0.1135 -0.1852
  435MPD2    C4 6485   2.859   2.105  15.475  0.8247  0.2460  0.2946
  435MPD2    C5 6486   2.764   2.122  15.375 -0.0603 -0.4635 -0.0167
  435MPD2     H 6487   2.655   2.160  15.743 -0.0234  2.0874 -0.2580
  435MPD2    H1 6488   2.955   2.066  15.443 -0.8775 -1.3493 -2.9175
  435MPD2    H2 6489   2.569   2.199  15.335  0.8911  0.0070 -0.4511
  435MPD2    H3 6490   2.791   2.113  15.270 -1.6745 -2.7805 -0.2353
  435MPD2     N 6491   2.907   2.082  15.728 -0.0977  0.0587 -0.6664
  435MPD2    H5 6492   2.854   2.089  15.815  1.2095 -0.1619  0.1482
  435MPD2    N1 6493   2.479   2.225  15.589  0.5641  0.9038 -0.0605
  435MPD2    H7 6494   2.466   2.223  15.689  1.5994 -0.8529  0.0363
  436TMC3    C1 6495   2.189   2.482  15.755 -0.3266 -0.1555  0.6266
  436TMC3    C2 6496   2.297   2.415  15.704  0.6990 -0.4535  0.7435
  436TMC3    C3 6497   2.272   2.347  15.589  0.4499  0.0320  0.0068
  436TMC3    C4 6498   2.062   2.482  15.703 -1.2331  0.1640 -0.1560
  436TMC3    C5 6499   2.043   2.394  15.593  0.2074  0.6365  0.6385
  436TMC3    C6 6500   2.147   2.335  15.532 -0.2523 -0.0115  0.5914
  436TMC3     C 6501   2.231   2.562  15.869  0.2744  0.5582 -0.6750
  436TMC3     O 6502   2.349   2.585  15.892  0.3358  0.2486 -0.3658
  436TMC3     H 6503   2.399   2.424  15.740  0.1284 -0.3041  2.3147
  436TMC3    H1 6504   1.984   2.540  15.750  1.5153  3.6254  0.1677
  436TMC3    H2 6505   2.134   2.275  15.443 -1.0984 -1.4723  1.6980
  436TMC3    C7 6506   1.913   2.365  15.543  0.6049  0.2535 -0.7373
  436TMC3    C8 6507   2.378   2.279  15.505  0.0274  0.2182  0.0268
  436TMC3    O1 6508   1.905   2.306  15.435 -0.0231  0.2214  0.2609
  436TMC3    O2 6509   2.363   2.266  15.383  0.5736  0.4033 -0.2323
  437TMC3    C1 6510   0.778   4.563  12.709 -0.0616 -0.9148 -0.1524
  437TMC3    C2 6511   0.714   4.527  12.829 -0.8601 -0.2341  1.0363
  437TMC3    C3 6512   0.657   4.620  12.911 -0.1839 -0.6231  0.5715
  437TMC3    C4 6513   0.788   4.692  12.671  0.3000  0.5291  0.4408
  437TMC3    C5 6514   0.711   0.061  12.740  0.1124  0.8591  0.0396
  437TMC3    C6 6515   0.641   0.026  12.856 -0.4176  0.4478  0.1469
  437TMC3     C 6516   0.841   4.456  12.637  0.1313  0.8817 -0.2276
  437TMC3     O 6517   0.861   4.351  12.699 -0.3668 -0.0712 -0.3871
  437TMC3     H 6518   0.710   4.424  12.861 -1.4209  0.3109  2.6778
  437TMC3    H1 6519   0.832   4.721  12.576  0.2792  0.6627  0.4717
  437TMC3    H2 6520   0.564   0.092  12.894  0.1495  2.2066 -1.7843
  437TMC3    C7 6521   0.756   0.193  12.716  0.2204 -0.2792  0.0654
  437TMC3    C8 6522   0.581   4.576  13.026  0.0944 -0.2970 -0.2071
  437TMC3    O1 6523   0.670   0.284  12.707 -0.5347  0.0318  0.0545
  437TMC3    O2 6524   0.601   4.461  13.067  0.3559 -0.8786 -0.3481
  438MPD2     C 6525   3.558   0.311  16.555 -0.0114  0.9142  0.2637
  438MPD2    C1 6526   3.584   0.186  16.613 -0.3499  0.2753 -0.3870
  438MPD2    C2 6527   3.548   0.163  16.748 -0.4081 -0.3560  0.2739
  438MPD2    C3 6528   3.480   0.261  16.816  0.0535  0.3919  0.4554
  438MPD2    C4 6529   3.446   0.379  16.754  0.0018 -0.4502 -0.2344
  438MPD2    C5 6530   3.495   0.407  16.629  0.6585 -0.5820  0.1416
  438MPD2     H 6531   3.578   0.069  16.791  0.9142 -0.5753 -1.1181
  438MPD2    H1 6532   3.400   0.463  16.804 -0.1585 -0.0130 -1.1341
  438MPD2    H2 6533   3.601   0.345  16.461 -2.3414 -0.7730 -1.3930
  438MPD2    H3 6534   3.481   0.506  16.589  1.6690 -0.4872  0.0148
  438MPD2     N 6535   3.440   0.246  16.947  0.0100 -0.0731 -0.1144
  438MPD2    H5 6536   3.380   0.318  16.985 -2.2955 -1.0017 -2.0140
  438MPD2    N1 6537   3.658   0.093  16.540  0.5647 -0.0477 -1.2000
  438MPD2    H7 6538   3.687   0.006  16.584 -2.0141 -0.6784 -0.7461
  439TMC3    C1 6539   3.756   4.707  16.360 -0.1710  0.5572 -0.2468
  439TMC3    C2 6540   3.740   4.670  16.231  1.1515 -0.3337  0.2665
  439TMC3    C3 6541   3.804   4.559  16.184  0.9851  0.8523  0.4245
  439TMC3    C4 6542   3.833   4.629  16.440 -0.7086  0.1334  0.1288
  439TMC3    C5 6543   3.896   4.520  16.392 -0.2053 -0.9455 -0.0440
  439TMC3    C6 6544   3.879   4.477  16.266 -0.6758 -0.3270 -0.1048
  439TMC3     C 6545   3.665   0.088  16.402 -0.6550 -0.5860  0.4541
  439TMC3     O 6546   3.588   0.144  16.320 -0.1013  0.0685 -0.9279
  439TMC3     H 6547   3.702   0.022  16.161  2.1335 -0.1266 -0.0474
  439TMC3    H1 6548   3.859   4.673  16.535 -0.4197  3.6120 -1.5553
  439TMC3    H2 6549   3.909   4.379  16.230  3.2973  0.6627  0.5183
  439TMC3    C7 6550   4.000   4.455  16.478  0.0786  0.1980 -0.1512
  439TMC3    C8 6551   3.787   4.525  16.047 -0.2973  0.5622  0.2817
  439TMC3    O1 6552   4.022   4.502  16.587  0.2361  0.1020  0.1453
  439TMC3    O2 6553   3.693   4.582  15.994  0.0667  0.3946 -0.0572
  440MPD2     C 6554   1.722   0.609  15.419 -0.5306 -0.1140 -0.2321
  440MPD2    C1 6555   1.806   0.670  15.510  0.7117  0.2193 -0.3503
  440MPD2    C2 6556   1.889   0.602  15.590 -0.4386  0.3127 -0.1170
  440MPD2    C3 6557   1.897   0.469  15.573  0.0838 -0.2647 -0.5024
  440MPD2    C4 6558   1.814   0.405  15.488 -0.3366  0.6571 -0.7963
  440MPD2    C5 6559   1.717   0.473  15.416 -0.2240  0.3344 -0.0520
  440MPD2     H 6560   1.959   0.653  15.655 -0.4706  0.9887 -0.6157
  440MPD2    H1 6561   1.820   0.297  15.486 -0.6515  0.6275  0.0276
  440MPD2    H2 6562   1.643   0.657  15.362 -1.3407 -1.1572  0.0110
  440MPD2    H3 6563   1.651   0.414  15.353 -1.9230  0.5094  1.5747
  440MPD2     N 6564   1.991   0.385  15.639  0.1713 -0.1702  0.2210
  440MPD2    H5 6565   1.971   0.288  15.618  1.6402 -1.0011  2.6808
  440MPD2    N1 6566   1.818   0.810  15.525  0.3923  0.4293  0.6761
  440MPD2    H7 6567   1.878   0.849  15.598  1.8346  0.5685 -0.5742
  441TMC3    C1 6568   2.204   0.344  15.737  0.5731 -0.0757 -0.3486
  441TMC3    C2 6569   2.327   0.393  15.757 -0.1573 -0.2920 -0.0339
  441TMC3    C3 6570   2.411   0.329  15.848 -0.0216 -0.0647 -0.0283
  441TMC3    C4 6571   2.166   0.235  15.806 -0.0587 -0.4864 -0.5197
  441TMC3    C5 6572   2.249   0.173  15.895 -0.3987 -0.1084  0.0776
  441TMC3    C6 6573   2.375   0.223  15.918 -0.1622 -0.3773  0.6704
  441TMC3     C 6574   2.106   0.443  15.687  0.4776 -0.8356 -0.4312
  441TMC3     O 6575   2.158   0.559  15.676 -0.6441 -0.0724 -0.7462
  441TMC3     H 6576   2.364   0.476  15.698 -0.4941 -0.9110 -1.1023
  441TMC3    H1 6577   2.067   0.196  15.784  0.4865 -2.0052 -0.3429
  441TMC3    H2 6578   2.449   0.175  15.981  0.3816 -1.6940 -0.9757
  441TMC3    C7 6579   2.182   0.111  16.010  0.4635 -0.3440 -0.5256
  441TMC3    C8 6580   2.534   0.391  15.887 -0.1391  0.3684  0.7019
  441TMC3    O1 6581   2.059   0.123  16.008 -0.3243 -0.1122  0.4675
  441TMC3    O2 6582   2.624   0.312  15.920  0.3142  0.2944  0.5590
  442MPD2     C 6583   0.452   1.330  16.479 -0.0977 -0.4033  0.3904
  442MPD2    C1 6584   0.413   1.239  16.574 -0.5995 -0.1996 -0.3535
  442MPD2    C2 6585   0.413   1.105  16.538 -0.3042 -0.1149 -0.2929
  442MPD2    C3 6586   0.455   1.069  16.409  0.0138  0.1125 -0.3067
  442MPD2    C4 6587   0.508   1.169  16.324 -0.6755  0.1677  0.0129
  442MPD2    C5 6588   0.500   1.299  16.355  0.3981 -0.4687 -0.0671
  442MPD2     H 6589   0.369   1.037  16.609  0.5011 -1.4415 -1.0625
  442MPD2    H1 6590   0.559   1.145  16.231 -1.4499 -1.4338 -0.0023
  442MPD2    H2 6591   0.453   1.436  16.500 -1.7411 -0.1295 -0.9050
  442MPD2    H3 6592   0.518   1.371  16.276 -1.9260  0.5509  0.3203
  442MPD2     N 6593   0.460   0.943  16.356 -0.1732  0.1596 -0.1118
  442MPD2    H5 6594   0.481   0.927  16.258  4.1251  2.6474  0.4147
  442MPD2    N1 6595   0.364   1.270  16.705 -0.1551  0.0974 -0.2926
  442MPD2    H7 6596   0.303   1.201  16.749 -0.4592  1.6494  1.6908
  443TMC3    C1 6597   0.270   1.405  16.861 -0.9266  0.5225 -0.4546
  443TMC3    C2 6598   0.226   1.540  16.862 -0.2482  0.9112  0.3934
  443TMC3    C3 6599   0.084   1.553  16.875  0.1853 -0.0217  0.2952
  443TMC3    C4 6600   0.176   1.304  16.886 -0.6242  0.2474 -0.2504
  443TMC3    C5 6601   0.043   1.334  16.919  0.1859 -0.5015  0.6310
  443TMC3    C6 6602   4.714   1.460  16.912 -0.6184  0.0968  0.3002
  443TMC3     C 6603   0.370   1.393  16.760 -0.7187  0.2034 -0.3288
  443TMC3     O 6604   0.437   1.485  16.727  0.0314 -0.6081  0.1388
  443TMC3     H 6605   0.289   1.624  16.834  0.8470 -0.1794 -0.4448
  443TMC3    H1 6606   0.207   1.201  16.906 -0.8804  0.7586  2.7218
  443TMC3    H2 6607   4.607   1.473  16.909 -0.5852  0.2866 -0.1194
  443TMC3    C7 6608   4.690   1.230  16.981 -0.3530  0.3501 -0.0855
  443TMC3    C8 6609   0.034   1.690  16.862 -0.7080 -0.4716  0.1906
  443TMC3    O1 6610   4.701   1.117  16.935  0.1928 -0.2209 -0.3619
  443TMC3    O2 6611   4.666   1.719  16.940  0.2782 -0.4286 -0.3481
  444MPD2     C 6612   0.185   0.371  16.969  0.3745  0.7089 -0.6973
  444MPD2    C1 6613   0.244   0.330  17.085 -0.3189 -0.2234  0.2775
  444MPD2    C2 6614   0.331   0.222  17.080 -0.1116  0.0150  0.5465
  444MPD2    C3 6615   0.365   0.160  16.963  0.4096  0.5043 -0.1853
  444MPD2    C4 6616   0.294   0.188  16.851  0.0466 -0.0440 -0.1097
  444MPD2    C5 6617   0.210   0.299  16.857  0.5682  0.3381 -0.1548
  444MPD2     H 6618   0.389   0.192  17.166 -0.7602 -2.0996  0.2415
  444MPD2    H1 6619   0.306   0.140  16.755 -0.3394 -0.6256  0.1333
  444MPD2    H2 6620   0.127   0.462  16.960 -1.2907 -0.4087 -1.1874
  444MPD2    H3 6621   0.173   0.317  16.757  0.3642 -0.9636 -0.3185
  444MPD2     N 6622   0.466   0.059  16.965 -0.7628 -0.1752  0.7188
  444MPD2    H5 6623   0.511   0.036  17.053 -0.0575  0.1755  0.4443
  444MPD2    N1 6624   0.232   0.400  17.212  0.4681 -0.2088  0.1693
  444MPD2    H7 6625   0.276   0.369  17.298  1.5990  1.4513  0.1781
  445TMC3    C1 6626   0.596   4.598  16.880  0.0512 -0.1727  0.3946
  445TMC3    C2 6627   0.584   4.537  17.001  0.4376  0.8685  0.6141
  445TMC3    C3 6628   0.669   4.435  17.031 -0.0301 -0.1029 -0.5435
  445TMC3    C4 6629   0.670   4.547  16.781 -1.2154 -0.3358  0.6488
  445TMC3    C5 6630   0.741   4.433  16.810 -0.8016 -0.4848 -0.4049
  445TMC3    C6 6631   0.753   4.385  16.939 -0.1216 -0.2341 -0.3845
  445TMC3     C 6632   0.523   0.002  16.850 -0.1938  0.4770  0.6350
  445TMC3     O 6633   0.518   0.047  16.737 -0.2837  0.5370 -0.0815
  445TMC3     H 6634   0.520   4.574  17.080  0.1958 -1.6030  1.5703
  445TMC3    H1 6635   0.656   4.581  16.679 -0.4580 -1.2515  0.2390
  445TMC3    H2 6636   0.811   4.298  16.969 -0.1670 -0.2261 -0.2722
  445TMC3    C7 6637   0.833   4.387  16.707  0.0832 -0.1911  0.6331
  445TMC3    C8 6638   0.679   4.394  17.167  0.1560 -0.0746  0.2838
  445TMC3    O1 6639   0.843   4.461  16.609  0.5836  0.5109  0.4243
  445TMC3    O2 6640   0.573   4.385  17.232  0.2627 -0.8258 -0.6817
  446MPD2     C 6641   0.221   1.945  11.466 -0.2308  0.3039 -0.0779
  446MPD2    C1 6642   0.216   1.980  11.330 -0.5326 -0.2203 -0.1595
  446MPD2    C2 6643   0.300   2.087  11.285  0.4640  0.1905 -0.2494
  446MPD2    C3 6644   0.388   2.155  11.364 -0.6700 -0.3975  0.0738
  446MPD2    C4 6645   0.388   2.117  11.496  0.4592  0.6074  0.3112
  446MPD2    C5 6646   0.319   2.012  11.544 -0.8016 -0.5039 -0.1729
  446MPD2     H 6647   0.288   2.120  11.182 -1.2892  2.9660  0.8334
  446MPD2    H1 6648   0.459   2.166  11.562  1.0148  0.1695  0.0386
  446MPD2    H2 6649   0.159   1.878  11.524 -3.2849  3.6217  0.4842
  446MPD2    H3 6650   0.328   1.972  11.644 -1.5556 -2.2990 -0.8234
  446MPD2     N 6651   0.473   2.247  11.306 -0.2917  0.7062 -0.3001
  446MPD2    H5 6652   0.450   2.277  11.212  1.2007  2.0160 -0.2492
  446MPD2    N1 6653   0.126   1.909  11.248 -0.3004  0.4339 -0.0680
  446MPD2    H7 6654   0.131   1.938  11.151  2.8816 -2.2262 -0.7252
  447TMC3    C1 6655   0.649   2.413  11.286 -0.7888 -0.2501 -0.0774
  447TMC3    C2 6656   0.666   2.380  11.155  0.2265 -0.0764  0.4664
  447TMC3    C3 6657   0.788   2.412  11.095  0.6692  0.8007 -0.4752
  447TMC3    C4 6658   0.742   2.484  11.354  0.0662  0.4214 -0.1135
  447TMC3    C5 6659   0.857   2.517  11.289 -1.3415  0.4117 -0.1564
  447TMC3    C6 6660   0.883   2.477  11.162  0.3883 -0.6604  0.0136
  447TMC3     C 6661   0.573   2.315  11.370  0.6426  0.7471 -0.3896
  447TMC3     O 6662   0.632   2.276  11.470  0.5057 -0.8993  0.7259
  447TMC3     H 6663   0.589   2.319  11.110  1.5825 -1.6797  0.3414
  447TMC3    H1 6664   0.719   2.492  11.460 -3.2699  2.0393 -0.9415
  447TMC3    H2 6665   0.972   2.503  11.106 -0.5223 -0.1196 -1.1951
  447TMC3    C7 6666   0.974   2.534  11.375  0.4809  0.0231  0.0767
  447TMC3    C8 6667   0.803   2.404  10.951 -0.5223 -0.1834 -0.5138
  447TMC3    O1 6668   1.081   2.505  11.323  0.1377 -0.4030 -0.2990
  447TMC3    O2 6669   0.700   2.429  10.888 -0.0586  0.4865 -0.0397
  448TMC3    C1 6670   4.208   1.566  16.971 -0.4092 -0.3153  0.2287
  448TMC3    C2 6671   4.232   1.443  16.918 -0.2184  0.0511  0.3672
  448TMC3    C3 6672   4.221   1.338  17.003 -0.1366 -0.5239  0.5879
  448TMC3    C4 6673   4.166   1.588  17.106  0.1651 -0.2468 -0.0668
  448TMC3    C5 6674   4.147   1.478  17.181 -0.0210 -0.1799 -0.0692
  448TMC3    C6 6675   4.182   1.353  17.132  0.1060 -0.2170  0.3149
  448TMC3     C 6676   4.196   1.671  16.878  1.1591  0.0289 -0.2647
  448TMC3     O 6677   4.269   1.661  16.781  0.2288  0.1696  0.9102
  448TMC3     H 6678   4.247   1.428  16.812 -0.7725 -1.8104  0.5675
  448TMC3    H1 6679   4.149   1.687  17.147  1.7525  0.5620 -1.3940
  448TMC3    H2 6680   4.164   1.267  17.196 -0.9786  0.1379  0.4933
  448TMC3    C7 6681   4.164   1.498  17.322  0.5137  0.4626 -0.1797
  448TMC3    C8 6682   4.228   1.204  16.947  0.4107 -0.3603  0.4947
  448TMC3    O1 6683   4.182   1.614  17.357  0.3680 -0.5741  0.0013
  448TMC3    O2 6684   4.171   1.114  17.006 -0.3422  0.5319  0.7091
  449MPD2     C 6685   0.222   0.012  14.043 -0.6520 -0.0918 -0.2591
  449MPD2    C1 6686   0.097   0.056  14.082  0.2270 -0.1023  0.0631
  449MPD2    C2 6687   0.009   4.682  14.136 -0.4355 -0.1967  0.1910
  449MPD2    C3 6688   0.042   4.547  14.158 -0.2275 -0.1143  0.5237
  449MPD2    C4 6689   0.170   4.505  14.118 -0.3412 -0.1771 -0.1171
  449MPD2    C5 6690   0.251   4.599  14.054  0.2852 -0.2691 -0.6991
  449MPD2     H 6691   4.633   0.001  14.156 -0.4717 -0.7924  1.2383
  449MPD2    H1 6692   0.202   4.402  14.125  0.9959  0.2841  0.3821
  449MPD2    H2 6693   0.292   0.085  14.003  1.5332 -1.6158  0.7663
  449MPD2    H3 6694   0.339   4.555  14.009 -0.2479 -0.7295 -1.3084
  449MPD2     N 6695   4.667   4.461  14.212 -0.0907  0.3100  0.4684
  449MPD2    H5 6696   4.590   4.514  14.251 -0.3160 -1.0536  1.8579
  449MPD2    N1 6697   0.050   0.188  14.077  0.1440  0.0227  0.7748
  449MPD2    H7 6698   4.687   0.219  14.125 -0.1552  0.0272  0.2397
  450TMC3    C1 6699   0.016   0.405  13.996  0.2547 -0.2548  0.0272
  450TMC3    C2 6700   4.697   0.422  13.872  0.3332  0.3197 -0.4860
  450TMC3    C3 6701   4.561   0.434  13.851 -0.6137 -0.3283 -0.1459
  450TMC3    C4 6702   4.653   0.395  14.101 -0.1428  0.3502 -0.8221
  450TMC3    C5 6703   4.517   0.405  14.081  0.0450  0.0004  0.2253
  450TMC3    C6 6704   4.469   0.424  13.954  0.4645 -0.0293  0.0784
  450TMC3     C 6705   0.108   0.291  14.010 -0.0249 -0.0959 -0.9279
  450TMC3     O 6706   0.192   0.279  13.922 -0.4588  0.6470 -0.6937
  450TMC3     H 6707   0.044   0.410  13.789  1.1360 -2.2496  0.5433
  450TMC3    H1 6708   4.687   0.383  14.204 -0.1229 -0.7268 -0.9574
  450TMC3    H2 6709   4.363   0.435  13.933  0.5069 -0.4074 -0.3424
  450TMC3    C7 6710   4.462   0.282  14.145 -0.2309  0.5368 -0.8872
  450TMC3    C8 6711   4.509   0.470  13.718 -0.6227 -0.1428  0.7618
  450TMC3    O1 6712   4.536   0.206  14.205  0.1240  0.0335  0.4846
  450TMC3    O2 6713   4.393   0.442  13.691 -0.1754  0.5307  0.1284
  451MPD2     C 6714   1.171   3.010   1.533 -0.0151 -0.5099 -0.0835
  451MPD2    C1 6715   1.179   3.110   1.439  0.2110 -0.3217 -0.4308
  451MPD2    C2 6716   1.298   3.128   1.365 -0.7796 -0.3189 -0.4570
  451MPD2    C3 6717   1.401   3.045   1.395 -0.1044  0.3730 -0.4502
  451MPD2    C4 6718   1.392   2.946   1.490 -0.2789  0.7439  0.5077
  451MPD2    C5 6719   1.278   2.928   1.559  0.1114  0.2130  0.4914
  451MPD2     H 6720   1.302   3.214   1.299 -0.4987  0.7542  0.9567
  451MPD2    H1 6721   1.464   2.866   1.498  0.1429  1.0532 -0.1382
  451MPD2    H2 6722   1.079   2.982   1.584  0.7162  0.0329  1.5335
  451MPD2    H3 6723   1.281   2.842   1.625 -2.6594 -0.3740 -0.1844
  451MPD2     N 6724   1.522   3.052   1.328 -0.5002 -0.2200  0.4572
  451MPD2    H5 6725   1.590   2.978   1.346  0.8074  0.6638 -0.8449
  451MPD2    N1 6726   1.074   3.200   1.427 -0.4237  0.3542  0.1634
  451MPD2    H7 6727   0.993   3.175   1.482  0.1231  0.7583  1.1460
  452TMC3    C1 6728   1.702   3.148   1.204  0.2311  0.5869 -0.2300
  452TMC3    C2 6729   1.789   3.072   1.279  0.6196  0.4610 -0.2290
  452TMC3    C3 6730   1.918   3.069   1.232  0.2992  0.0778 -0.4501
  452TMC3    C4 6731   1.733   3.198   1.084  0.1697 -0.5052  0.2510
  452TMC3    C5 6732   1.857   3.172   1.029  0.0461  0.1184 -0.1216
  452TMC3    C6 6733   1.958   3.117   1.107  0.4521 -0.4357  0.0302
  452TMC3     C 6734   1.568   3.162   1.250 -0.0258 -0.0147 -0.1352
  452TMC3     O 6735   1.513   3.266   1.215  0.1139 -0.1589  0.4461
  452TMC3     H 6736   1.761   3.044   1.380  0.2684  2.5327  0.2615
  452TMC3    H1 6737   1.659   3.261   1.035  0.9055 -0.5557 -0.9332
  452TMC3    H2 6738   2.050   3.087   1.058  0.2430 -2.2596  0.7906
  452TMC3    C7 6739   1.859   3.146   0.884  0.1071  0.0686  0.1932
  452TMC3    C8 6740   2.020   3.037   1.334 -0.5421  0.0633  0.2058
  452TMC3    O1 6741   1.960   3.127   0.824 -0.1755  0.0834  0.2716
  452TMC3    O2 6742   1.974   3.000   1.444 -0.2257 -0.9838 -0.0655
  453TMC3    C1 6743   2.594   1.217  11.869 -0.6744  0.0053  0.8175
  453TMC3    C2 6744   2.487   1.170  11.940  0.6016  0.0046  0.1075
  453TMC3    C3 6745   2.440   1.047  11.915  0.5006 -0.4303 -0.3197
  453TMC3    C4 6746   2.643   1.144  11.765 -0.4022  0.4468  0.3278
  453TMC3    C5 6747   2.599   1.014  11.750  0.9871  0.6825 -0.4319
  453TMC3    C6 6748   2.493   0.962  11.820 -0.2927  0.0268 -0.5474
  453TMC3     C 6749   2.654   1.342  11.900  0.8949  1.1252  0.2170
  453TMC3     O 6750   2.751   1.369  11.835  0.7189  0.2768 -0.3399
  453TMC3     H 6751   2.438   1.238  12.009  0.9672  1.1088 -0.7164
  453TMC3    H1 6752   2.728   1.182  11.709 -1.9942  0.1673 -2.3252
  453TMC3    H2 6753   2.454   0.862  11.806  0.4558 -0.4364  0.6675
  453TMC3    C7 6754   2.617   0.949  11.620  0.1455 -0.1054 -0.0485
  453TMC3    C8 6755   2.346   0.994  12.016 -0.0380 -0.6272  0.6886
  453TMC3    O1 6756   2.520   0.877  11.591  0.2217 -0.1656 -0.6878
  453TMC3    O2 6757   2.278   1.074  12.082  0.2084 -0.0972 -0.1121
  454MPD2     C 6758   1.084   0.131  16.334 -0.0599  0.2188  0.3108
  454MPD2    C1 6759   1.021   0.192  16.230  0.0886  0.2331 -0.4860
  454MPD2    C2 6760   0.997   0.326  16.243  0.4281  0.3240  0.4706
  454MPD2    C3 6761   1.025   0.395  16.361  0.2067 -0.5758 -0.3252
  454MPD2    C4 6762   1.087   0.327  16.460  0.4246 -0.0997  0.2141
  454MPD2    C5 6763   1.110   0.193  16.455  0.4162  0.5667  0.2006
  454MPD2     H 6764   0.953   0.391  16.168  1.2732  1.1402  0.6742
  454MPD2    H1 6765   1.116   0.385  16.547 -0.8650  0.5167  0.2351
  454MPD2    H2 6766   1.102   0.024  16.335  0.7030  0.3482  0.4626
  454MPD2    H3 6767   1.151   0.130  16.534  0.0936  0.7866  0.5427
  454MPD2     N 6768   0.996   0.529  16.380  0.2243  0.1087 -0.0869
  454MPD2    H5 6769   1.049   0.579  16.451  2.0145 -0.4715 -1.0318
  454MPD2    N1 6770   0.993   0.132  16.109 -0.1262 -0.2596  0.1940
  454MPD2    H7 6771   0.945   0.189  16.040  0.5953 -1.4976 -1.3423
  455TMC3    C1 6772   0.774   0.518  16.392  1.0757  0.2067 -0.5910
  455TMC3    C2 6773   0.765   0.515  16.527 -0.3156  0.1197 -0.4303
  455TMC3    C3 6774   0.706   0.408  16.587  0.1131  0.0997 -0.5401
  455TMC3    C4 6775   0.721   0.423  16.312 -0.8234  0.6003 -0.0253
  455TMC3    C5 6776   0.665   0.310  16.371  0.1101 -0.1903 -0.0409
  455TMC3    C6 6777   0.669   0.302  16.509 -0.2440  0.3441  0.1719
  455TMC3     C 6778   0.889   0.594  16.338 -0.0333  0.3242  0.6077
  455TMC3     O 6779   0.871   0.717  16.332  0.3618  0.2008 -0.0443
  455TMC3     H 6780   0.800   0.597  16.590  3.5592  0.5129 -3.0874
  455TMC3    H1 6781   0.719   0.431  16.204 -0.9275 -1.4514 -0.1789
  455TMC3    H2 6782   0.616   0.221  16.558  0.7487  0.8883  2.1465
  455TMC3    C7 6783   0.663   0.195  16.277 -0.0517 -0.1448 -0.2269
  455TMC3    C8 6784   0.724   0.406  16.735  0.4448 -0.1186 -0.8912
  455TMC3    O1 6785   0.659   0.231  16.157  1.1044  0.4135  0.0069
  455TMC3    O2 6786   0.713   0.521  16.777  0.8602 -0.2489 -0.6039
  456MPD2     C 6787   4.008   0.082  16.066  0.5585 -0.1125 -0.0338
  456MPD2    C1 6788   4.093   0.038  16.164  0.0239  0.5195 -0.8566
  456MPD2    C2 6789   4.085   0.099  16.283 -0.6902 -0.6272  0.3224
  456MPD2    C3 6790   3.999   0.203  16.316 -0.1015  0.0933 -0.0423
  456MPD2    C4 6791   3.919   0.253  16.210  0.1199  0.1954 -0.0694
  456MPD2    C5 6792   3.919   0.180  16.092 -0.3878  0.5566  0.4399
  456MPD2     H 6793   4.143   0.058  16.364  0.5961  0.5547 -0.0058
  456MPD2    H1 6794   3.843   0.329  16.228  0.0347 -0.1128  0.8606
  456MPD2    H2 6795   3.988   0.021  15.978 -2.2782  0.3925  0.2685
  456MPD2    H3 6796   3.840   0.212  16.025 -2.2517 -1.8816  1.4850
  456MPD2     N 6797   4.001   0.254  16.450 -0.7159  0.5914  0.6197
  456MPD2    H5 6798   4.048   0.209  16.527 -1.1554 -1.4127 -0.2977
  456MPD2    N1 6799   4.186   4.653  16.138  0.2889  0.3262 -0.1782
  456MPD2    H7 6800   4.194   4.630  16.039  1.0111  0.3825 -0.1348
  457TMC3    C1 6801   3.974   0.412  16.618  0.1799  0.2801  0.4165
  457TMC3    C2 6802   4.038   0.531  16.642  0.1466  0.3336 -0.2293
  457TMC3    C3 6803   4.033   0.569  16.772  0.2578  0.3314  0.1271
  457TMC3    C4 6804   3.910   0.340  16.713 -0.1542  0.3009 -0.0817
  457TMC3    C5 6805   3.906   0.388  16.840  0.4725 -0.1063  0.3093
  457TMC3    C6 6806   3.965   0.507  16.872 -0.1855  0.2056 -0.0466
  457TMC3     C 6807   3.947   0.377  16.484  0.1363  0.1504  0.9635
  457TMC3     O 6808   3.919   0.469  16.409  0.4336 -0.5474  0.1143
  457TMC3     H 6809   4.089   0.585  16.563  2.3887 -1.9380 -0.3439
  457TMC3    H1 6810   3.842   0.262  16.680 -0.9627  1.3864 -1.0146
  457TMC3    H2 6811   3.957   0.550  16.971  0.3869  0.7707 -0.2425
  457TMC3    C7 6812   3.841   0.307  16.934 -0.0333  0.1463 -0.0176
  457TMC3    C8 6813   4.090   0.700  16.802  0.2452  0.0540  0.1202
  457TMC3    O1 6814   3.833   0.184  16.919 -0.5645  0.1189 -0.2624
  457TMC3    O2 6815   4.064   0.753  16.909  0.0514  0.0934 -0.1244
  458MPD2     C 6816   1.105   0.565  12.700  0.6332 -0.7021  0.2794
  458MPD2    C1 6817   1.161   0.454  12.764 -0.2858  0.1766  0.3153
  458MPD2    C2 6818   1.092   0.336  12.761  0.0276  0.5353 -0.2409
  458MPD2    C3 6819   0.965   0.326  12.713 -0.1375 -0.2258  0.2373
  458MPD2    C4 6820   0.909   0.438  12.653 -0.3318  0.4240 -0.1237
  458MPD2    C5 6821   0.977   0.554  12.651  0.1284 -0.3577 -0.4983
  458MPD2     H 6822   1.126   0.240  12.798  0.4113 -0.0671 -2.1282
  458MPD2    H1 6823   0.806   0.437  12.620 -0.3071 -1.2367 -0.1504
  458MPD2    H2 6824   1.153   0.661  12.688 -0.3914 -0.1941  0.3286
  458MPD2    H3 6825   0.919   0.637  12.613  1.1049  0.2269 -0.6992
  458MPD2     N 6826   0.896   0.204  12.724  0.4447  0.2718  0.1654
  458MPD2    H5 6827   0.945   0.122  12.760  2.6598  1.8244  0.6711
  458MPD2    N1 6828   1.288   0.463  12.823  0.3736 -0.6930 -0.0065
  458MPD2    H7 6829   1.344   0.546  12.807  0.4599 -0.4976  1.3255
  459TMC3    C1 6830   1.483   0.395  12.938  0.6764 -0.0950  0.4133
  459TMC3    C2 6831   1.567   0.484  12.877  0.2524  0.0521 -0.1855
  459TMC3    C3 6832   1.701   0.473  12.913 -0.6908 -0.4029  0.2947
  459TMC3    C4 6833   1.530   0.304  13.028 -0.1871 -0.1258 -0.3653
  459TMC3    C5 6834   1.663   0.298  13.061  0.7706 -0.0959 -0.3627
  459TMC3    C6 6835   1.758   0.380  12.997 -0.3460 -0.3281 -0.1729
  459TMC3     C 6836   1.341   0.368  12.904  0.0929 -0.3664  0.0034
  459TMC3     O 6837   1.287   0.274  12.949  0.9211  0.6910 -0.2471
  459TMC3     H 6838   1.540   0.524  12.780  1.0771  0.2524 -0.3345
  459TMC3    H1 6839   1.460   0.246  13.087 -1.4955  0.2763 -1.4896
  459TMC3    H2 6840   1.863   0.354  12.999  0.2953  2.2337  0.0279
  459TMC3    C7 6841   1.706   0.215  13.169 -0.0245  0.3104 -0.3674
  459TMC3    C8 6842   1.804   0.551  12.835  0.1408  0.5054 -0.6523
  459TMC3    O1 6843   1.626   0.130  13.208  0.2498 -0.6596  0.5160
  459TMC3    O2 6844   1.922   0.525  12.862  0.5856 -0.0411 -0.0474
  460MPD2     C 6845   1.098   2.326  10.756 -0.2673 -0.7358 -0.2766
  460MPD2    C1 6846   0.968   2.349  10.781  0.2562 -0.2003  0.2494
  460MPD2    C2 6847   0.882   2.366  10.668 -0.4683  0.4531 -0.2747
  460MPD2    C3 6848   0.928   2.353  10.541 -0.1253  1.0530  0.4535
  460MPD2    C4 6849   1.060   2.325  10.520 -0.2326 -0.8737 -0.3093
  460MPD2    C5 6850   1.141   2.310  10.630  0.1469  0.0718 -0.5918
  460MPD2     H 6851   0.775   2.364  10.683 -0.4120 -0.1286  0.0490
  460MPD2    H1 6852   1.103   2.323  10.421 -0.3216 -0.7924 -0.3499
  460MPD2    H2 6853   1.172   2.310  10.834  0.5959  1.9841 -0.5478
  460MPD2    H3 6854   1.243   2.278  10.609  0.0717 -0.3754 -0.2668
  460MPD2     N 6855   0.832   2.350  10.438  0.0848  0.2739 -0.1885
  460MPD2    H5 6856   0.747   2.395  10.470 -1.1865 -1.0298 -1.7511
  460MPD2    N1 6857   0.923   2.353  10.913 -0.0029  0.4281 -0.5530
  460MPD2    H7 6858   0.987   2.337  10.990 -2.0608 -2.6031  0.5155
  461TMC3    C1 6859   0.719   2.311  10.245  0.0655  0.0335 -0.1728
  461TMC3    C2 6860   0.668   2.195  10.204 -0.1089 -0.7052 -0.1728
  461TMC3    C3 6861   0.533   2.186  10.176 -0.5209 -0.1470  0.4850
  461TMC3    C4 6862   0.649   2.422  10.259 -0.3611 -1.1773 -0.5512
  461TMC3    C5 6863   0.513   2.416  10.234  0.3962  0.7678 -0.2163
  461TMC3    C6 6864   0.453   2.303  10.188 -0.1909  0.3391  0.0914
  461TMC3     C 6865   0.845   2.309  10.313 -0.4869  0.4868 -0.0029
  461TMC3     O 6866   0.946   2.253  10.271 -0.0614  0.2634 -0.1978
  461TMC3     H 6867   0.730   2.106  10.206  0.2754 -0.4357 -0.1118
  461TMC3    H1 6868   0.697   2.508  10.305 -2.4097 -0.5657  0.4407
  461TMC3    H2 6869   0.345   2.298  10.181 -0.1348 -1.3042  0.4926
  461TMC3    C7 6870   0.439   2.541  10.221 -0.4938 -0.8441  0.0420
  461TMC3    C8 6871   0.490   2.080  10.090  0.2971  0.0655  0.2281
  461TMC3    O1 6872   0.320   2.540  10.227  0.0780 -0.2425 -0.4352
  461TMC3    O2 6873   0.570   1.992  10.059 -0.3961  0.3303 -0.3455
  462TMC3    C1 6874   1.337   1.753   0.609  0.1499  0.0531  0.5573
  462TMC3    C2 6875   1.283   1.700   0.490  0.3434  0.1468  0.0769
  462TMC3    C3 6876   1.279   1.775   0.379  0.5508  0.3115 -0.4451
  462TMC3    C4 6877   1.378   1.882   0.611 -0.8094 -0.2855 -0.0335
  462TMC3    C5 6878   1.365   1.955   0.494 -0.6194  0.2278 -0.3389
  462TMC3    C6 6879   1.323   1.901   0.378 -0.5637  0.0130  0.5935
  462TMC3     C 6880   1.377   1.657   0.712  0.2303 -0.3466  0.5714
  462TMC3     O 6881   1.358   1.536   0.688  0.0500 -0.4246 -0.3587
  462TMC3     H 6882   1.231   1.605   0.492 -0.9093  0.8164 -0.3188
  462TMC3    H1 6883   1.431   1.923   0.696 -1.5753 -0.1639  0.3792
  462TMC3    H2 6884   1.301   1.972   0.299 -0.3863 -2.5774 -1.7646
  462TMC3    C7 6885   1.364   2.103   0.504 -0.3551 -0.2261 -0.1460
  462TMC3    C8 6886   1.197   1.730   0.272 -0.1657  0.4815  0.5818
  462TMC3    O1 6887   1.446   2.151   0.582 -0.2587  0.0590  0.5296
  462TMC3    O2 6888   1.110   1.653   0.308  0.2090 -0.9339  0.0739
  463MPD2     C 6889   2.602   0.612   1.819  0.2510  0.2563 -0.4191
  463MPD2    C1 6890   2.531   0.688   1.725  0.4230 -0.1642  0.3982
  463MPD2    C2 6891   2.593   0.769   1.636  1.3358  0.2772 -0.6897
  463MPD2    C3 6892   2.732   0.784   1.643 -0.5464 -0.3578 -0.0139
  463MPD2    C4 6893   2.807   0.710   1.733 -0.1144  0.0346  0.1580
  463MPD2    C5 6894   2.736   0.633   1.832 -0.8724 -0.5843  0.4392
  463MPD2     H 6895   2.533   0.815   1.559  0.6168 -0.6623 -0.6882
  463MPD2    H1 6896   2.913   0.724   1.746 -0.3371 -0.0316  1.9808
  463MPD2    H2 6897   2.536   0.557   1.885  0.1228  2.1180  1.0042
  463MPD2    H3 6898   2.790   0.591   1.916  1.0280 -2.9760 -1.9829
  463MPD2     N 6899   2.807   0.862   1.554  0.1308 -0.3550  0.1968
  463MPD2    H5 6900   2.906   0.867   1.574  0.2074  2.7834 -0.9189
  463MPD2    N1 6901   2.385   0.694   1.723  0.7487  0.3957 -0.5072
  463MPD2    H7 6902   2.349   0.769   1.665  1.0082  2.0155  1.4483
  464TMC3    C1 6903   2.161   0.641   1.783 -0.2356 -0.4661  0.9121
  464TMC3    C2 6904   2.122   0.757   1.725 -0.6133  0.3427 -0.0925
  464TMC3    C3 6905   2.000   0.804   1.737  0.7947 -0.6343 -0.1928
  464TMC3    C4 6906   2.079   0.573   1.869  0.7947  0.4256  0.2349
  464TMC3    C5 6907   1.953   0.620   1.870 -0.0152  0.5833 -0.8453
  464TMC3    C6 6908   1.910   0.732   1.803  0.1143  0.1195 -0.4220
  464TMC3     C 6909   2.303   0.612   1.798  0.3349  0.2010 -0.3125
  464TMC3     O 6910   2.327   0.512   1.869 -0.4383 -0.2801 -0.0352
  464TMC3     H 6911   2.187   0.801   1.650  4.1060 -2.7273  2.2083
  464TMC3    H1 6912   2.108   0.487   1.929  1.0190  0.0469 -0.4238
  464TMC3    H2 6913   1.821   0.787   1.832  0.3799  0.9686 -1.2449
  464TMC3    C7 6914   1.855   0.522   1.910  0.0684 -0.6182 -1.0378
  464TMC3    C8 6915   1.973   0.940   1.694  0.5287 -0.0944 -0.1388
  464TMC3    O1 6916   1.892   0.406   1.934  0.0336 -0.4441 -0.4600
  464TMC3    O2 6917   2.069   1.014   1.690  0.4243 -0.0954 -0.1077
  465MPD2     C 6918   3.180   0.057  16.784  0.3405 -0.6647  0.5621
  465MPD2    C1 6919   3.058   0.041  16.849  0.1051 -0.2337  0.0274
  465MPD2    C2 6920   2.960   0.133  16.823  0.2771  0.2272 -0.4924
  465MPD2    C3 6921   2.967   0.228  16.728  0.4362  0.3173  0.5698
  465MPD2    C4 6922   3.093   0.241  16.660  0.0658  0.3545 -0.8533
  465MPD2    C5 6923   3.195   0.156  16.686  0.7549  0.7464  0.1302
  465MPD2     H 6924   2.866   0.110  16.872  0.3744  0.7515 -0.0599
  465MPD2    H1 6925   3.113   0.329  16.600  1.1017 -0.1609 -1.2726
  465MPD2    H2 6926   3.268   4.720  16.804  0.3265 -0.1414  2.1874
  465MPD2    H3 6927   3.292   0.169  16.639  0.6587 -2.6089 -1.0155
  465MPD2     N 6928   2.853   0.313  16.710 -0.0456  0.1866 -0.1314
  465MPD2    H5 6929   2.768   0.300  16.764 -1.4425  1.2521 -2.0399
  465MPD2    N1 6930   3.028   4.672  16.952 -0.3526  0.0739 -0.7440
  465MPD2    H7 6931   2.938   4.668  16.998  0.2050 -1.0781  0.2682
  466TMC3    C1 6932   2.491   0.473  16.616  0.0595  0.3999  0.5377
  466TMC3    C2 6933   2.477   0.584  16.534 -0.2006 -0.0856  0.4183
  466TMC3    C3 6934   2.593   0.631  16.481 -0.3088 -0.3757  0.3670
  466TMC3    C4 6935   2.609   0.410  16.641  0.6530 -0.4604 -0.8480
  466TMC3    C5 6936   2.726   0.476  16.601 -0.0738  0.5592 -0.0111
  466TMC3    C6 6937   2.722   0.574  16.504 -0.4912 -0.1946 -0.5487
  466TMC3     C 6938   2.400   0.466  16.725 -0.3966  0.2080 -0.1645
  466TMC3     O 6939   2.348   0.571  16.766 -0.6814 -0.5611  0.0087
  466TMC3     H 6940   2.379   0.627  16.516  0.5339  2.0964  1.7093
  466TMC3    H1 6941   2.602   0.334  16.718 -1.7059  0.9095  0.2967
  466TMC3    H2 6942   2.803   0.637  16.470 -1.0412  0.3046 -0.9353
  466TMC3    C7 6943   2.852   0.407  16.613 -0.6492  0.3472  0.2800
  466TMC3    C8 6944   2.588   0.755  16.405 -0.0634 -0.0233 -0.6684
  466TMC3    O1 6945   2.938   0.441  16.532 -0.3264 -0.3121  0.2203
  466TMC3    O2 6946   2.642   0.758  16.293 -0.1703  0.7890  0.1301
  467TMC3    C1 6947   3.205   3.820  13.614  0.0802 -0.3881 -0.7644
  467TMC3    C2 6948   3.252   3.831  13.488  0.5947 -0.6250  0.8291
  467TMC3    C3 6949   3.182   3.924  13.419  0.3539  0.8949 -0.3843
  467TMC3    C4 6950   3.094   3.876  13.663 -0.0432 -0.0042  0.6785
  467TMC3    C5 6951   3.020   3.951  13.578  0.9807 -0.3870  0.5044
  467TMC3    C6 6952   3.064   3.977  13.451 -0.8110  0.5688 -0.6461
  467TMC3     C 6953   3.294   3.788  13.720 -0.3388  0.5432 -0.1821
  467TMC3     O 6954   3.283   3.845  13.829 -0.4914 -0.0244  0.3887
  467TMC3     H 6955   3.353   3.805  13.458 -0.1474 -0.4773 -1.8664
  467TMC3    H1 6956   3.054   3.842  13.758 -2.8200 -3.5001 -1.7330
  467TMC3    H2 6957   3.015   4.045  13.382 -0.0658  0.6938 -1.0592
  467TMC3    C7 6958   2.889   4.005  13.609 -0.6435 -0.8172  0.2335
  467TMC3    C8 6959   3.262   4.011  13.330  0.0646  0.3983 -0.5577
  467TMC3    O1 6960   2.829   4.055  13.515 -0.2752  0.0205 -0.6091
  467TMC3    O2 6961   3.204   4.101  13.274 -0.0614  0.1930  0.1332
  468MPD2     C 6962   2.396   2.103  11.037  0.7586  0.4103 -0.1777
  468MPD2    C1 6963   2.520   2.097  11.080 -0.3220  0.5315 -0.3035
  468MPD2    C2 6964   2.583   1.976  11.100 -0.1246 -0.4783  0.2361
  468MPD2    C3 6965   2.524   1.858  11.059  0.6399 -0.6974 -0.6747
  468MPD2    C4 6966   2.400   1.866  11.004 -0.7676 -0.5719 -0.4508
  468MPD2    C5 6967   2.338   1.989  10.995 -0.3305  0.1165 -0.3003
  468MPD2     H 6968   2.678   1.976  11.151  0.4098  1.4229 -0.7597
  468MPD2    H1 6969   2.347   1.776  10.974  0.0992 -0.6285 -1.8122
  468MPD2    H2 6970   2.337   2.193  11.022 -1.0200 -0.5873  0.8590
  468MPD2    H3 6971   2.233   1.993  10.966 -0.7409  1.9060  1.3854
  468MPD2     N 6972   2.577   1.731  11.077  0.0950 -0.1163  0.3530
  468MPD2    H5 6973   2.522   1.649  11.053 -1.9411  1.7183 -1.1846
  468MPD2    N1 6974   2.589   2.207  11.123  0.0828  0.2470  0.3336
  468MPD2    H7 6975   2.683   2.184  11.153 -0.0107  1.1468  1.3570
  469TMC3    C1 6976   2.637   2.415  11.213  0.1985 -0.0242 -0.3467
  469TMC3    C2 6977   2.775   2.385  11.188 -0.0816 -0.3611  0.2382
  469TMC3    C3 6978   2.867   2.479  11.248 -0.0697  0.6350 -0.5987
  469TMC3    C4 6979   2.603   2.522  11.296  0.0265  0.1444  0.0709
  469TMC3    C5 6980   2.701   2.604  11.351 -0.2378 -0.7838 -0.3528
  469TMC3    C6 6981   2.831   2.584  11.332 -0.2251  0.3808 -0.5273
  469TMC3     C 6982   2.541   2.334  11.157 -0.4963 -0.2737 -0.1784
  469TMC3     O 6983   2.427   2.387  11.156  0.7412 -0.3145 -0.0827
  469TMC3     H 6984   2.808   2.331  11.100  0.6363  3.3465 -1.7668
  469TMC3    H1 6985   2.498   2.546  11.305 -0.4645 -1.8052 -0.3649
  469TMC3    H2 6986   2.909   2.645  11.376 -0.2379 -2.1473  3.0326
  469TMC3    C7 6987   2.655   2.738  11.384 -0.3520  0.1716 -0.8707
  469TMC3    C8 6988   3.001   2.459  11.204 -0.0083  0.1309 -0.4188
  469TMC3    O1 6989   2.548   2.779  11.339  0.2325  0.2080 -0.3655
  469TMC3    O2 6990   3.023   2.399  11.100 -0.4651 -0.0632  0.2809
  470TMC3    C1 6991   4.384   2.473   0.664 -0.5191 -0.2116  0.7877
  470TMC3    C2 6992   4.400   2.601   0.708 -0.5743 -0.0550  0.0638
  470TMC3    C3 6993   4.390   2.620   0.845 -0.9765 -0.1296 -0.1480
  470TMC3    C4 6994   4.361   2.365   0.739  0.4733  0.8898  0.7693
  470TMC3    C5 6995   4.351   2.388   0.874  0.4296  0.1797  0.2854
  470TMC3    C6 6996   4.375   2.510   0.926 -1.0762  0.3947  0.4577
  470TMC3     C 6997   4.416   2.451   0.522 -0.2000 -0.3385  0.0079
  470TMC3     O 6998   4.504   2.522   0.469  0.3935  0.3049  0.2127
  470TMC3     H 6999   4.417   2.678   0.634 -1.0130  0.6950  0.7366
  470TMC3    H1 7000   4.354   2.266   0.698  3.1873  1.5816 -1.3746
  470TMC3    H2 7001   4.362   2.535   1.030 -1.4966 -1.5608  0.8646
  470TMC3    C7 7002   4.345   2.282   0.969 -0.5289 -0.1014  0.3106
  470TMC3    C8 7003   4.429   2.746   0.912  0.5233 -0.6260  0.2514
  470TMC3    O1 7004   4.367   2.323   1.084 -0.1558  0.0690  0.0340
  470TMC3    O2 7005   4.357   2.784   1.002  0.0219  0.3445 -0.5195
  471MPD2     C 7006   0.439   4.189  16.704  0.5349  0.0576 -0.1700
  471MPD2    C1 7007   0.565   4.138  16.688  0.0429 -0.4408  0.0509
  471MPD2    C2 7008   0.638   4.093  16.791  0.4751 -0.2940  0.6495
  471MPD2    C3 7009   0.582   4.095  16.924  1.0621 -0.1376 -0.1393
  471MPD2    C4 7010   0.453   4.149  16.935 -0.1365  0.6888  0.0589
  471MPD2    C5 7011   0.387   4.204  16.829 -0.0710 -0.0453  0.4913
  471MPD2     H 7012   0.726   4.033  16.772  1.0280  1.8095 -3.4749
  471MPD2    H1 7013   0.396   4.145  17.027 -0.4660 -0.8366 -0.2065
  471MPD2    H2 7014   0.382   4.231  16.623 -1.1477 -2.8577 -0.4976
  471MPD2    H3 7015   0.289   4.248  16.838 -0.0714  0.3069 -1.2365
  471MPD2     N 7016   0.650   4.042  17.041 -0.4819  0.2829  0.1404
  471MPD2    H5 7017   0.598   4.033  17.128 -1.1719 -0.0225 -0.2950
  471MPD2    N1 7018   0.614   4.096  16.558  0.3649 -0.6664 -0.4313
  471MPD2    H7 7019   0.703   4.049  16.547  0.4752 -0.8192  1.0274
  472TMC3    C1 7020   0.578   4.016  16.334 -0.3797  0.0963  0.1941
  472TMC3    C2 7021   0.545   4.042  16.200  0.2115 -0.4106 -0.6607
  472TMC3    C3 7022   0.570   3.953  16.103  0.4798 -0.2074 -0.2569
  472TMC3    C4 7023   0.640   3.899  16.367 -0.3491  0.2755  0.0803
  472TMC3    C5 7024   0.664   3.810  16.267  0.2608  0.4803 -0.0474
  472TMC3    C6 7025   0.632   3.838  16.135 -0.0309  0.8471  0.1184
  472TMC3     C 7026   0.543   4.107  16.438 -0.9217  0.4760 -0.5364
  472TMC3     O 7027   0.448   4.178  16.410 -0.3958  0.1971  0.4360
  472TMC3     H 7028   0.481   4.127  16.179 -1.5009 -1.0098  2.1820
  472TMC3    H1 7029   0.641   3.869  16.471  1.1640 -1.0562 -0.3270
  472TMC3    H2 7030   0.638   3.756  16.064  1.7463  0.1922  1.0137
  472TMC3    C7 7031   0.662   3.673  16.313 -0.1590 -0.1422 -0.0879
  472TMC3    C8 7032   0.444   3.906  16.046  0.0404 -1.1394 -0.5200
  472TMC3    O1 7033   0.705   3.644  16.422  0.1082 -0.0862  0.0305
  472TMC3    O2 7034   0.427   3.957  15.935 -0.0478  0.1429 -0.1458
  473MPD2     C 7035   0.241   1.373  13.908  0.5194  0.6086 -0.8816
  473MPD2    C1 7036   0.315   1.434  13.810 -0.6155  0.0680 -0.3154
  473MPD2    C2 7037   0.403   1.533  13.838 -0.0310 -0.1676 -0.1573
  473MPD2    C3 7038   0.426   1.568  13.972  1.0413  0.2554 -0.2220
  473MPD2    C4 7039   0.344   1.506  14.068  0.2957  0.0539  0.0599
  473MPD2    C5 7040   0.252   1.412  14.037 -0.1079 -0.7683 -0.6575
  473MPD2     H 7041   0.458   1.584  13.760  2.2637 -1.6720  0.4957
  473MPD2    H1 7042   0.351   1.534  14.172  1.3426 -1.7884  0.4904
  473MPD2    H2 7043   0.180   1.286  13.883  0.5883  1.6895 -4.8470
  473MPD2    H3 7044   0.189   1.378  14.118 -0.6849  0.1409 -0.7221
  473MPD2     N 7045   0.517   1.674  14.011  0.2073 -0.0984  0.2628
  473MPD2    H5 7046   0.525   1.704  14.108  1.5301 -0.4833  0.2833
  473MPD2    N1 7047   0.291   1.412  13.673 -0.0845  0.8442  0.1647
  473MPD2    H7 7048   0.344   1.471  13.609  1.6924  1.1217  1.9161
  474TMC3    C1 7049   0.682   1.843  13.996 -0.4975 -0.7867  0.9579
  474TMC3    C2 7050   0.687   1.957  13.918  0.4956  0.4393 -0.4165
  474TMC3    C3 7051   0.691   2.076  13.984  0.0159  0.0841 -0.5535
  474TMC3    C4 7052   0.671   1.847  14.136 -1.2050 -0.1333  0.6253
  474TMC3    C5 7053   0.677   1.975  14.193  0.2995 -0.7067  0.4414
  474TMC3    C6 7054   0.669   2.090  14.118  0.2868 -0.2549 -0.0321
  474TMC3     C 7055   0.599   1.744  13.921  0.4592  0.3087  0.0213
  474TMC3     O 7056   0.620   1.739  13.802  0.0439  0.8706 -0.1093
  474TMC3     H 7057   0.706   1.947  13.812 -0.3517 -2.0126 -0.3449
  474TMC3    H1 7058   0.693   1.756  14.191 -1.3198 -0.4707  0.1168
  474TMC3    H2 7059   0.677   2.183  14.174 -0.2720 -0.5701  0.5656
  474TMC3    C7 7060   0.704   1.985  14.334  0.2949 -0.2534  0.1938
  474TMC3    C8 7061   0.645   2.190  13.904  0.7236  0.0030  0.0689
  474TMC3    O1 7062   0.743   2.093  14.376  0.0544 -0.1247 -0.5365
  474TMC3    O2 7063   0.630   2.158  13.788  0.8594 -0.1222 -0.2858
  475MPD2     C 7064   3.303   0.411  10.711 -0.3750  0.0577  0.0726
  475MPD2    C1 7065   3.262   0.292  10.663 -0.2157 -0.0620  0.3750
  475MPD2    C2 7066   3.129   0.283  10.637 -0.1416  0.1418  0.4658
  475MPD2    C3 7067   3.040   0.385  10.670  0.1397 -1.1997 -0.5534
  475MPD2    C4 7068   3.088   0.499  10.730  0.7989 -0.4948 -0.3556
  475MPD2    C5 7069   3.221   0.511  10.740 -0.0105 -0.5354 -0.6410
  475MPD2     H 7070   3.096   0.198  10.579  0.1573  1.4402 -1.6112
  475MPD2    H1 7071   3.023   0.573  10.776  0.5232 -0.8345 -0.1969
  475MPD2    H2 7072   3.409   0.433  10.721 -0.3596 -0.3394  0.7556
  475MPD2    H3 7073   3.271   0.597  10.783  0.7275 -1.3615  0.1550
  475MPD2     N 7074   2.907   0.351  10.648  0.0238 -0.1942  0.2895
  475MPD2    H5 7075   2.889   0.272  10.586 -0.6028 -0.0358  0.2613
  475MPD2    N1 7076   3.355   0.191  10.637 -0.1368  0.4121  0.2252
  475MPD2    H7 7077   3.449   0.222  10.658  0.2190 -0.9588  0.6801
  476TMC3    C1 7078   3.451   4.717  10.584 -0.7848 -0.1369 -0.0041
  476TMC3    C2 7079   3.416   4.590  10.560 -0.1035  0.4670 -0.5059
  476TMC3    C3 7080   3.487   4.526  10.463 -0.0355  0.6911  0.5468
  476TMC3    C4 7081   3.559   0.056  10.527  0.2137  0.3590 -0.0936
  476TMC3    C5 7082   3.645   4.707  10.447  1.1561 -0.0491  0.0722
  476TMC3    C6 7083   3.605   4.579  10.419 -0.1564 -0.5598  0.1950
  476TMC3     C 7084   3.334   0.066  10.597  0.8676  0.4906 -0.1236
  476TMC3     O 7085   3.228   0.004  10.576  0.8794  0.4861 -0.1838
  476TMC3     H 7086   3.335   4.533  10.604  0.7413 -1.3029 -1.2768
  476TMC3    H1 7087   3.569   0.163  10.539 -0.0753  0.2589  1.0758
  476TMC3    H2 7088   3.656   4.526  10.339  0.9285  1.4065 -0.4262
  476TMC3    C7 7089   3.788   0.006  10.448 -0.3171  0.1508  0.3937
  476TMC3    C8 7090   3.405   4.461  10.371 -0.3765 -0.2966  0.4450
  476TMC3    O1 7091   3.852   4.682  10.353 -0.1969 -0.7946  0.2934
  476TMC3    O2 7092   3.447   4.363  10.309 -0.0755 -0.2222 -0.4970
  477MPD2     C 7093   1.356   1.658  11.964  0.4257 -0.2794  0.7498
  477MPD2    C1 7094   1.234   1.599  11.993  0.7289  0.4939 -0.2774
  477MPD2    C2 7095   1.222   1.482  12.067 -0.5248 -0.6102  0.0792
  477MPD2    C3 7096   1.338   1.422  12.115 -0.2336 -0.0278  0.2871
  477MPD2    C4 7097   1.462   1.484  12.090 -0.4096  0.6710  0.5061
  477MPD2    C5 7098   1.468   1.601  12.019  0.0953  0.4465  0.1800
  477MPD2     H 7099   1.126   1.439  12.093 -1.1064 -0.2482 -1.4684
  477MPD2    H1 7100   1.556   1.451  12.133 -0.1728 -0.6611 -1.0322
  477MPD2    H2 7101   1.366   1.746  11.901 -0.0442 -1.3221 -0.7606
  477MPD2    H3 7102   1.565   1.645  12.000  0.2637  0.5749  1.3707
  477MPD2     N 7103   1.325   1.311  12.198  0.5023 -0.6260 -0.6117
  477MPD2    H5 7104   1.233   1.272  12.216 -0.2067  0.6444 -1.4910
  477MPD2    N1 7105   1.128   1.659  11.932  0.0190 -0.3692  1.4238
  477MPD2    H7 7106   1.149   1.739  11.873 -0.6935 -0.2691  1.3039
  478TMC3    C1 7107   0.906   1.730  11.893  0.0486  0.6009 -0.2434
  478TMC3    C2 7108   0.781   1.748  11.942 -0.0128  0.0416  0.5347
  478TMC3    C3 7109   0.697   1.830  11.871  0.1008  0.0182  0.3659
  478TMC3    C4 7110   0.943   1.775  11.770 -0.5981  0.5762  0.1322
  478TMC3    C5 7111   0.851   1.850  11.698  0.0440 -0.1156 -0.6722
  478TMC3    C6 7112   0.722   1.877  11.743  0.0500 -0.5249  0.6199
  478TMC3     C 7113   0.993   1.637  11.962 -0.0008 -0.2525  0.1317
  478TMC3     O 7114   0.937   1.567  12.041 -0.0530  0.0928  0.4840
  478TMC3     H 7115   0.754   1.705  12.038 -0.9797  0.8259  0.6257
  478TMC3    H1 7116   1.037   1.747  11.725 -0.3321 -0.5422  1.3871
  478TMC3    H2 7117   0.657   1.938  11.682  2.5710  0.0438 -1.5000
  478TMC3    C7 7118   0.896   1.911  11.572  0.1000 -0.3013  0.4934
  478TMC3    C8 7119   0.565   1.869  11.928 -0.3201 -0.9659  0.2579
  478TMC3    O1 7120   1.017   1.915  11.564  0.5265 -0.0313 -0.2183
  478TMC3    O2 7121   0.507   1.789  11.994  0.2014  0.0469 -0.6805
  479MPD2     C 7122   0.081   3.390  14.790 -0.0653  0.2856  0.3920
  479MPD2    C1 7123   0.017   3.374  14.910 -0.1223 -0.2065  0.1932
  479MPD2    C2 7124   0.096   3.373  15.022 -0.0436 -0.1920  0.6001
  479MPD2    C3 7125   0.231   3.397  15.019  0.0708 -0.1935 -0.7124
  479MPD2    C4 7126   0.291   3.421  14.897  0.0999 -0.9869 -0.1659
  479MPD2    C5 7127   0.215   3.412  14.782  0.4864 -0.0237 -0.5011
  479MPD2     H 7128   0.049   3.372  15.120 -1.1672 -0.8462  0.0517
  479MPD2    H1 7129   0.391   3.462  14.885 -0.6530  0.8554 -0.2495
  479MPD2    H2 7130   0.029   3.400  14.695  0.9840 -0.5281 -0.2709
  479MPD2    H3 7131   0.261   3.433  14.686 -1.5129  1.9501 -1.0111
  479MPD2     N 7132   0.296   3.407  15.141  0.1588  0.3191 -0.9423
  479MPD2    H5 7133   0.379   3.465  15.147  1.4199 -1.2849 -2.7833
  479MPD2    N1 7134   4.608   3.336  14.901 -0.3752 -1.2659  0.7596
  479MPD2    H7 7135   4.570   3.341  14.807 -1.2024  0.3279  1.1809
  480TMC3    C1 7136   0.148   3.465  15.573 -0.3884  0.4800 -0.5297
  480TMC3    C2 7137   0.097   3.581  15.538 -1.0126  0.4986 -0.2357
  480TMC3    C3 7138   0.127   3.636  15.416 -0.3251  0.8067 -0.0823
  480TMC3    C4 7139   0.237   3.404  15.490 -0.7920  0.1085 -0.0451
  480TMC3    C5 7140   0.270   3.459  15.368  0.1204  0.7875  0.4007
  480TMC3    C6 7141   0.218   3.576  15.328 -0.2907 -0.3472 -0.3652
  480TMC3     C 7142   0.135   3.399  15.708  0.3595  0.1605  0.1250
  480TMC3     O 7143   0.235   3.342  15.743  0.2285  0.5726 -0.1611
  480TMC3     H 7144   0.036   3.644  15.601  0.2760 -0.5151  2.0435
  480TMC3    H1 7145   0.286   3.311  15.516 -2.7443 -1.0230 -0.4871
  480TMC3    H2 7146   0.227   3.611  15.226 -1.6387 -2.9432 -1.3797
  480TMC3    C7 7147   0.251   3.353  15.263  0.1333 -0.3856 -0.5301
  480TMC3    C8 7148   0.003   3.691  15.352 -0.9528  0.1714 -0.4058
  480TMC3    O1 7149   0.170   3.267  15.283  0.6436 -0.7123 -0.0244
  480TMC3    O2 7150   4.619   3.649  15.397  0.0654  0.1264 -0.4652
  481MPD2     C 7151   2.046   3.546  14.441 -0.1882  0.1899  0.1747
  481MPD2    C1 7152   1.938   3.466  14.417 -0.6650  0.1353  0.3622
  481MPD2    C2 7153   1.875   3.419  14.531  0.9634  0.3163  0.4674
  481MPD2    C3 7154   1.930   3.434  14.654 -1.0017 -0.1502  0.7232
  481MPD2    C4 7155   2.050   3.501  14.675  0.0331  0.6838 -0.3196
  481MPD2    C5 7156   2.098   3.565  14.563  0.2801 -0.6131  0.0601
  481MPD2     H 7157   1.778   3.372  14.524  0.3527  1.7341 -0.6570
  481MPD2    H1 7158   2.093   3.523  14.772  1.7254  1.1069 -1.1740
  481MPD2    H2 7159   2.097   3.591  14.357  1.0468 -2.9672 -0.7567
  481MPD2    H3 7160   2.183   3.631  14.576  0.1380 -0.6447  1.1616
  481MPD2     N 7161   1.870   3.378  14.773 -0.2985  0.0135  0.8847
  481MPD2    H5 7162   1.910   3.415  14.858  1.9278  0.8346 -0.5160
  481MPD2    N1 7163   1.877   3.469  14.285  0.1518  0.4416  0.1547
  481MPD2    H7 7164   1.918   3.527  14.213 -1.3477  0.0024 -1.0559
  482TMC3    C1 7165   1.722   3.402  14.114  0.6592 -0.8916 -0.6009
  482TMC3    C2 7166   1.662   3.292  14.062  0.5324  0.4347 -0.3699
  482TMC3    C3 7167   1.579   3.309  13.954 -0.2713 -0.5733  0.0678
  482TMC3    C4 7168   1.696   3.526  14.059  0.5669  0.1338 -0.8233
  482TMC3    C5 7169   1.635   3.530  13.936 -0.5231 -0.6051 -0.6965
  482TMC3    C6 7170   1.571   3.422  13.883  0.7205 -0.0947 -0.5481
  482TMC3     C 7171   1.765   3.393  14.252  0.1208  0.2859  0.1866
  482TMC3     O 7172   1.709   3.313  14.322 -0.3227 -0.1921  0.3831
  482TMC3     H 7173   1.666   3.199  14.117  0.6953 -0.0845 -1.2711
  482TMC3    H1 7174   1.747   3.612  14.099  0.1913 -0.6581  1.3494
  482TMC3    H2 7175   1.519   3.416  13.788  1.5054 -0.0131 -0.9784
  482TMC3    C7 7176   1.645   3.647  13.858 -0.2404  0.1806 -0.5375
  482TMC3    C8 7177   1.493   3.193  13.926  0.1675 -0.1112  0.6541
  482TMC3    O1 7178   1.694   3.750  13.908 -0.3532 -0.1539  0.4848
  482TMC3    O2 7179   1.540   3.078  13.943  0.2596 -0.0907 -0.8963
  483TMC3    C1 7180   4.574   1.696   0.828 -0.1505 -0.4911  0.0322
  483TMC3    C2 7181   4.582   1.833   0.809  0.0055  0.2364  0.7167
  483TMC3    C3 7182   4.624   1.912   0.911  0.3290  0.4306 -0.2901
  483TMC3    C4 7183   4.587   1.644   0.954  0.1437 -0.3835 -0.7968
  483TMC3    C5 7184   4.625   1.735   1.058  0.3329  0.0630 -0.6460
  483TMC3    C6 7185   4.634   1.868   1.041  0.3331  0.3517  0.0668
  483TMC3     C 7186   4.532   1.609   0.720  0.1693 -0.6133  0.2651
  483TMC3     O 7187   4.515   1.663   0.611 -0.6244 -0.2396 -0.5264
  483TMC3     H 7188   4.568   1.881   0.713  1.4402  0.3175  0.5482
  483TMC3    H1 7189   4.584   1.538   0.978 -0.4897 -0.4212 -1.0515
  483TMC3    H2 7190   4.682   1.927   1.119 -0.9091  0.1940  0.9504
  483TMC3    C7 7191   4.660   1.683   1.189  0.0395 -0.2284  0.1933
  483TMC3    C8 7192   4.693   2.035   0.866 -0.7725 -0.4170 -0.2478
  483TMC3    O1 7193   4.675   1.562   1.193  0.1347  0.9072  0.4434
  483TMC3    O2 7194   0.013   2.037   0.752  0.3335 -0.0372 -0.0181
  484MPD2     C 7195   1.771   0.854  12.614 -0.0231 -0.1953  0.0041
  484MPD2    C1 7196   1.832   0.748  12.677  0.7334  0.1610  0.8901
  484MPD2    C2 7197   1.972   0.738  12.667 -0.4066  0.1248 -0.5025
  484MPD2    C3 7198   2.052   0.833  12.600 -0.4814 -0.8953 -0.4820
  484MPD2    C4 7199   1.981   0.936  12.537  0.1243  0.2735 -0.2480
  484MPD2    C5 7200   1.841   0.946  12.545 -0.2701 -0.1815  0.2111
  484MPD2     H 7201   2.018   0.647  12.705 -0.0820  0.8792  0.9139
  484MPD2    H1 7202   2.027   1.014  12.478 -0.2036 -0.8150 -1.9816
  484MPD2    H2 7203   1.664   0.866  12.620  0.2598  1.1709  2.3664
  484MPD2    H3 7204   1.783   1.022  12.494  1.4007  2.5251  2.3443
  484MPD2     N 7205   2.193   0.827  12.580 -0.1263  0.2832 -0.3915
  484MPD2    H5 7206   2.233   0.877  12.501 -0.4211  2.1379  0.6093
  484MPD2    N1 7207   1.753   0.658  12.756  0.2236 -0.7015  0.1458
  484MPD2    H7 7208   1.660   0.696  12.770 -0.4264 -2.3209  0.2836
  485TMC3    C1 7209   2.405   0.739  12.596 -0.0232 -0.0483 -0.0748
  485TMC3    C2 7210   2.489   0.657  12.664 -0.6564  0.1437  0.0355
  485TMC3    C3 7211   2.623   0.675  12.656 -0.4695  0.3119  0.0224
  485TMC3    C4 7212   2.447   0.834  12.506  0.5266  0.0846  0.2292
  485TMC3    C5 7213   2.579   0.842  12.489  0.6057 -0.7417  0.3611
  485TMC3    C6 7214   2.661   0.777  12.569 -0.4700 -0.0780 -0.0565
  485TMC3     C 7215   2.271   0.743  12.658 -0.3606 -0.5131  0.0288
  485TMC3     O 7216   2.246   0.665  12.748 -0.1399  0.2434 -0.5790
  485TMC3     H 7217   2.457   0.572  12.723 -0.9042  0.4580  0.3597
  485TMC3    H1 7218   2.383   0.874  12.428  1.3043 -0.2370 -0.5693
  485TMC3    H2 7219   2.767   0.797  12.558 -0.3118 -1.2020 -0.5868
  485TMC3    C7 7220   2.633   0.877  12.360 -0.6203  0.6252  0.3015
  485TMC3    C8 7221   2.703   0.557  12.615 -0.5394  0.1830  0.3359
  485TMC3    O1 7222   2.568   0.964  12.300  0.2392 -0.8776 -0.0043
  485TMC3    O2 7223   2.767   0.575  12.512  0.5091  0.2792 -0.0273
  486MPD2     C 7224   4.335   4.079  12.699 -0.4032 -0.6041 -0.4674
  486MPD2    C1 7225   4.309   4.035  12.570  0.9168 -0.4780  0.0192
  486MPD2    C2 7226   4.254   4.124  12.478  0.0216  0.7484  0.0966
  486MPD2    C3 7227   4.205   4.243  12.533 -0.4024 -0.6070  0.5675
  486MPD2    C4 7228   4.219   4.278  12.663 -0.2798  0.8086  0.7092
  486MPD2    C5 7229   4.284   4.195  12.751 -0.7993  0.4797  0.3789
  486MPD2     H 7230   4.249   4.103  12.371 -0.0535  2.1695 -0.1768
  486MPD2    H1 7231   4.157   4.356  12.706 -0.2712  0.8318  0.6797
  486MPD2    H2 7232   4.398   4.023  12.766 -0.3715 -0.9065 -0.7519
  486MPD2    H3 7233   4.309   4.219  12.853  1.4488 -2.7399  0.5577
  486MPD2     N 7234   4.142   4.324  12.439  0.3934  0.0686 -0.0217
  486MPD2    H5 7235   4.127   4.282  12.347 -1.2246 -0.2028  0.3591
  486MPD2    N1 7236   4.356   3.901  12.541 -0.8576 -0.2706 -0.1285
  486MPD2    H7 7237   4.402   3.861  12.622 -2.2221  2.4072  2.0049
  487TMC3    C1 7238   4.411   3.706  12.436  0.2527 -0.8247  0.4526
  487TMC3    C2 7239   4.347   3.598  12.366 -0.3782  0.1868  0.3849
  487TMC3    C3 7240   4.409   3.477  12.368 -0.6068  0.0969 -1.0934
  487TMC3    C4 7241   4.520   3.690  12.517  0.0710 -0.0231  0.4886
  487TMC3    C5 7242   4.558   3.563  12.533 -0.0646  0.3796  0.0807
  487TMC3    C6 7243   4.520   3.464  12.445  0.2000 -0.1167  0.3928
  487TMC3     C 7244   4.355   3.837  12.419 -0.3171 -0.0993 -0.0541
  487TMC3     O 7245   4.282   3.853  12.318 -0.6904  0.2057 -0.1252
  487TMC3     H 7246   4.264   3.604  12.296 -0.6293  0.9465  0.7387
  487TMC3    H1 7247   4.566   3.769  12.575 -1.6881  1.8514 -0.6743
  487TMC3    H2 7248   4.552   3.364  12.469  2.9000  0.8473  0.8951
  487TMC3    C7 7249   4.562   3.521  12.671  0.1400  0.0095 -0.0808
  487TMC3    C8 7250   4.319   3.372  12.390 -0.0203 -0.1459 -0.2044
  487TMC3    O1 7251   4.521   3.600  12.757 -0.0468  0.4811  0.4381
  487TMC3    O2 7252   4.282   3.295  12.302 -0.1554  0.3411  0.2560
  488MPD2     C 7253   0.008   0.552  16.448  0.3643 -0.2415  0.2045
  488MPD2    C1 7254   0.010   0.655  16.537 -0.0913  0.4317  0.1708
  488MPD2    C2 7255   4.694   0.637  16.662  0.5679  0.1838 -0.2897
  488MPD2    C3 7256   4.648   0.515  16.708 -0.3039 -0.0193  0.2555
  488MPD2    C4 7257   4.661   0.410  16.619 -0.1662 -0.0153 -0.2606
  488MPD2    C5 7258   4.699   0.427  16.489  0.5727  0.2073  0.4044
  488MPD2     H 7259   4.701   0.721  16.730 -1.9031 -1.6906  2.2880
  488MPD2    H1 7260   4.640   0.310  16.656  2.9884 -0.8408 -0.6925
  488MPD2    H2 7261   0.030   0.555  16.342 -0.7640 -1.9602 -0.0687
  488MPD2    H3 7262   4.700   0.338  16.428  1.9304  1.1481 -0.9370
  488MPD2     N 7263   4.599   0.501  16.841 -0.0088  0.0656 -0.0600
  488MPD2    H5 7264   4.596   0.585  16.899  0.4605  0.0479 -0.0148
  488MPD2    N1 7265   0.044   0.789  16.504 -0.0706 -0.2168  0.0703
  488MPD2    H7 7266   0.059   0.860  16.576  0.5823 -0.4320  0.1419
  489TMC3    C1 7267   4.466   0.427  17.014  0.8610  0.2570  0.1114
  489TMC3    C2 7268   4.507   0.547  17.062  0.5143 -0.3259  0.1723
  489TMC3    C3 7269   4.415   0.639  17.100 -0.0840 -0.9932 -0.6808
  489TMC3    C4 7270   4.332   0.395  17.029  0.1023  0.6694  0.4721
  489TMC3    C5 7271   4.241   0.487  17.073 -1.8058  0.3670 -0.2954
  489TMC3    C6 7272   4.281   0.614  17.110 -0.1064  1.0806  0.0470
  489TMC3     C 7273   4.531   0.392  16.889 -0.0797  0.0431 -0.5863
  489TMC3     O 7274   4.492   0.292  16.823  0.0839 -0.2890  0.0652
  489TMC3     H 7275   4.611   0.577  17.067  0.6720 -0.7723 -0.4380
  489TMC3    H1 7276   4.294   0.298  16.997 -0.4109  0.7858  0.7330
  489TMC3    H2 7277   4.206   0.685  17.143 -2.4193 -1.9595  1.3715
  489TMC3    C7 7278   4.144   0.433  17.169 -0.3696 -0.4153  0.2292
  489TMC3    C8 7279   4.456   0.779  17.100 -0.7484 -0.7258 -0.6322
  489TMC3    O1 7280   4.042   0.497  17.180 -0.0564  0.0583  0.2007
  489TMC3    O2 7281   4.544   0.797  17.021 -0.1387  0.3140  0.5744
  490MPD2     C 7282   0.337   0.248   0.016  0.5879  0.2705  0.3573
  490MPD2    C1 7283   0.363   0.111   0.035 -0.8022  0.3457  0.0910
  490MPD2    C2 7284   0.455   0.077   0.131 -0.5058 -0.1515  0.4629
  490MPD2    C3 7285   0.528   0.167   0.202  0.1215  0.9680 -0.3328
  490MPD2    C4 7286   0.515   0.304   0.169  0.7216  0.1012  0.3770
  490MPD2    C5 7287   0.419   0.338   0.079 -0.1893 -0.5890 -0.0005
  490MPD2     H 7288   0.472   4.693   0.144  0.1533 -0.2825 -1.4410
  490MPD2    H1 7289   0.574   0.383   0.213 -0.4220  1.3059 -0.2764
  490MPD2    H2 7290   0.249   0.276  17.650  1.1927 -0.6509 -1.0151
  490MPD2    H3 7291   0.412   0.444   0.058  0.8318  0.0729  2.8319
  490MPD2     N 7292   0.621   0.128   0.302  0.4529 -0.1910  0.1379
  490MPD2    H5 7293   0.657   0.203   0.359 -2.1887  1.9171 -0.9243
  490MPD2    N1 7294   0.299   0.005  17.650  0.5647  0.2616 -0.0419
  490MPD2    H7 7295   0.315   4.632  17.683  0.5839 -0.1489 -1.2187
  491TMC3    C1 7296   0.185   4.612  17.480 -0.3846 -0.6132 -1.0070
  491TMC3    C2 7297   0.169   4.510  17.570  0.3371 -0.3808  0.3908
  491TMC3    C3 7298   0.161   4.386  17.518 -0.1168  0.2765 -0.6192
  491TMC3    C4 7299   0.191   4.597  17.341  0.5077 -0.0426  0.1165
  491TMC3    C5 7300   0.183   4.468  17.298  0.3067  0.2255  0.6272
  491TMC3    C6 7301   0.178   4.358  17.385 -0.6302  0.3151  0.5523
  491TMC3     C 7302   0.233   0.016  17.533 -0.3368 -0.3030  0.3874
  491TMC3     O 7303   0.243   0.101  17.449  0.3822 -0.1811  0.3757
  491TMC3     H 7304   0.171   4.515  17.678  0.6527 -1.6442  0.4466
  491TMC3    H1 7305   0.217   4.673  17.268  1.6678 -1.1195 -0.5959
  491TMC3    H2 7306   0.139   4.272  17.331  1.5240 -1.2890  1.5403
  491TMC3    C7 7307   0.179   4.428  17.155  0.3435 -0.9738  0.1877
  491TMC3    C8 7308   0.150   4.271  17.604  0.9018 -0.2672  0.3280
  491TMC3    O1 7309   0.211   4.310  17.124 -0.4148 -0.0487  0.2958
  491TMC3    O2 7310   0.103   4.278   0.025  0.4989 -0.3282 -0.1565
  492MPD2     C 7311   0.704   0.224  11.618  0.0169  0.0722 -0.3451
  492MPD2    C1 7312   0.648   0.114  11.554  0.6291  0.1498  0.5424
  492MPD2    C2 7313   0.553   0.030  11.617 -0.5992  0.3412  0.4171
  492MPD2    C3 7314   0.518   0.052  11.753  0.2236  0.1688  0.6536
  492MPD2    C4 7315   0.574   0.160  11.814  0.2953 -0.2348  0.1138
  492MPD2    C5 7316   0.665   0.243  11.751  0.6098  0.3597 -0.1002
  492MPD2     H 7317   0.511   4.671  11.559  2.2823 -0.3931 -0.6269
  492MPD2    H1 7318   0.546   0.192  11.914  1.5632  1.1685  0.0107
  492MPD2    H2 7319   0.771   0.288  11.563 -1.4498  1.2667 -0.7458
  492MPD2    H3 7320   0.714   0.330  11.793  0.9002  0.1729 -0.0530
  492MPD2     N 7321   0.420   4.701  11.834 -0.2388 -0.1146  0.4157
  492MPD2    H5 7322   0.415   0.016  11.928  0.3791  1.5499 -0.2099
  492MPD2    N1 7323   0.692   0.098  11.421 -0.2873  1.2281  0.3112
  492MPD2    H7 7324   0.768   0.159  11.390 -0.2970 -0.6145 -3.4102
  493TMC3    C1 7325   0.723   0.014  11.201  0.2974 -0.2334 -0.1854
  493TMC3    C2 7326   0.814   0.116  11.171 -0.3980 -0.7987  0.4123
  493TMC3    C3 7327   0.839   0.132  11.038 -0.3821 -0.1017  0.0022
  493TMC3    C4 7328   0.679   4.652  11.101  0.1399  0.6769  0.3510
  493TMC3    C5 7329   0.709   4.675  10.972  0.0306  0.4382 -0.1740
  493TMC3    C6 7330   0.787   0.059  10.935 -0.0387 -0.2996 -0.9016
  493TMC3     C 7331   0.649   0.006  11.327 -0.4213  0.1062  0.5993
  493TMC3     O 7332   0.580   4.628  11.338 -0.1837 -0.0150  0.6779
  493TMC3     H 7333   0.841   0.191  11.244 -0.7205  0.1066 -0.3940
  493TMC3    H1 7334   0.623   4.564  11.131 -0.0137  1.2118  1.6582
  493TMC3    H2 7335   0.824   0.060  10.834 -0.7583 -0.0620 -1.1605
  493TMC3    C7 7336   0.666   4.582  10.876 -0.1176 -0.3467  0.2389
  493TMC3    C8 7337   0.967   0.201  11.019  0.2149 -0.0761 -0.5119
  493TMC3    O1 7338   0.645   4.629  10.771 -0.5380  0.3156 -0.3254
  493TMC3    O2 7339   1.042   0.176  11.113 -0.6477  0.4133  0.2748
  494TMC3    C1 7340   1.711   1.657   0.557  0.5533 -0.6455  0.6094
  494TMC3    C2 7341   1.712   1.537   0.624 -0.5304  0.5399  0.4068
  494TMC3    C3 7342   1.644   1.434   0.561  0.6673  0.1392 -0.1503
  494TMC3    C4 7343   1.648   1.679   0.442  0.2006  0.6281 -0.5568
  494TMC3    C5 7344   1.583   1.573   0.383 -0.4621 -0.4767  0.2678
  494TMC3    C6 7345   1.575   1.453   0.444 -0.0023 -0.0046 -0.4487
  494TMC3     C 7346   1.752   1.777   0.632 -0.0837 -0.2332 -0.1621
  494TMC3     O 7347   1.722   1.886   0.580 -0.2787  0.0206  0.7215
  494TMC3     H 7348   1.731   1.517   0.729  1.0539  0.5344  0.1134
  494TMC3    H1 7349   1.654   1.772   0.387  2.1063 -0.4897 -2.2667
  494TMC3    H2 7350   1.554   1.360   0.392  1.6650 -0.6506  0.0094
  494TMC3    C7 7351   1.535   1.594   0.244  0.0284 -0.9561 -0.4510
  494TMC3    C8 7352   1.646   1.302   0.615 -0.1709  0.6953  0.8858
  494TMC3    O1 7353   1.539   1.708   0.202 -0.2699  0.0168 -0.1258
  494TMC3    O2 7354   1.733   1.284   0.700 -0.6197  0.1784 -0.4016
  495TMC3    C1 7355   0.192   3.664  14.368 -0.2299 -0.4452 -0.4414
  495TMC3    C2 7356   0.129   3.759  14.284 -0.1328  0.0442  0.7929
  495TMC3    C3 7357   0.047   3.851  14.342  0.2685 -0.7948  0.5106
  495TMC3    C4 7358   0.187   3.679  14.502  0.4383 -0.2535  0.0398
  495TMC3    C5 7359   0.092   3.765  14.553  0.6976  0.1168 -0.4198
  495TMC3    C6 7360   0.023   3.847  14.473 -0.7657  0.4281  0.2483
  495TMC3     C 7361   0.153   3.537  14.312  0.1020 -0.1520 -0.1610
  495TMC3     O 7362   0.066   3.534  14.224 -0.2037 -0.3638  0.1029
  495TMC3     H 7363   0.127   3.751  14.176  0.1393 -1.9191  0.9187
  495TMC3    H1 7364   0.237   3.607  14.566 -1.0902 -1.7842 -0.4845
  495TMC3    H2 7365   4.673   3.919  14.509 -0.9625 -0.0266  0.7591
  495TMC3    C7 7366   0.080   3.763  14.696 -0.2906 -0.0707  0.5612
  495TMC3    C8 7367   4.651   3.901  14.257 -0.1188 -0.3943  0.0491
  495TMC3    O1 7368   0.188   3.741  14.754 -0.0508 -0.1673 -0.2623
  495TMC3    O2 7369   4.553   3.919  14.324 -0.0565 -0.6247 -0.4086
  496MPD2     C 7370   1.841   4.074  15.393  0.6241 -0.0850 -0.5032
  496MPD2    C1 7371   1.878   3.970  15.477 -0.0795  0.6929  0.9331
  496MPD2    C2 7372   1.776   3.893  15.544  0.0803  0.4581 -0.4271
  496MPD2    C3 7373   1.641   3.932  15.522  0.4778 -0.0023 -0.0007
  496MPD2    C4 7374   1.615   4.031  15.432 -0.4652 -0.5231 -0.1534
  496MPD2    C5 7375   1.714   4.109  15.374 -0.6361  0.7328  0.7584
  496MPD2     H 7376   1.798   3.807  15.607 -0.9756  0.7146  0.2821
  496MPD2    H1 7377   1.512   4.060  15.416 -0.8926 -2.7563 -1.4703
  496MPD2    H2 7378   1.912   4.129  15.333  0.1448  2.2654  1.0886
  496MPD2    H3 7379   1.684   4.184  15.302 -1.9139 -0.5728 -0.0962
  496MPD2     N 7380   1.532   3.855  15.575 -0.6239  0.0189 -0.0276
  496MPD2    H5 7381   1.440   3.856  15.533  0.2259 -0.3618 -1.9003
  496MPD2    N1 7382   2.018   3.948  15.488 -0.1179  0.2943  0.3698
  496MPD2    H7 7383   2.081   4.008  15.436 -0.4655 -0.1845 -0.6039
  497TMC3    C1 7384   1.427   3.696  15.723  0.3455 -0.7851 -0.7080
  497TMC3    C2 7385   1.314   3.768  15.752 -0.4303  0.3391  0.1399
  497TMC3    C3 7386   1.238   3.723  15.861  0.6348 -0.5203 -0.1385
  497TMC3    C4 7387   1.457   3.590  15.800  0.7046 -0.1426  0.2073
  497TMC3    C5 7388   1.373   3.541  15.899 -0.5175  0.1013  0.1465
  497TMC3    C6 7389   1.262   3.614  15.926  0.0163 -0.2830  0.4751
  497TMC3     C 7390   1.551   3.768  15.682  0.5544  0.0257  0.1821
  497TMC3     O 7391   1.644   3.734  15.751 -0.1196 -0.6027  0.4590
  497TMC3     H 7392   1.296   3.864  15.706 -1.2793 -0.3876 -1.0717
  497TMC3    H1 7393   1.550   3.538  15.782  2.1571  1.8788  1.8303
  497TMC3    H2 7394   1.187   3.582  15.998 -1.4079  0.4234 -0.6883
  497TMC3    C7 7395   1.441   3.511  16.021  0.5159 -0.1411 -0.4105
  497TMC3    C8 7396   1.128   3.814  15.902  0.6236  0.6984  0.1885
  497TMC3    O1 7397   1.372   3.452  16.104 -0.0311  0.5085  0.1026
  497TMC3    O2 7398   1.085   3.891  15.821  0.4049 -0.0259  0.9725
  498MPD2     C 7399   2.635   4.504   9.414 -0.0775 -0.3171  0.9642
  498MPD2    C1 7400   2.704   4.478   9.536 -0.3658 -0.4398  0.2632
  498MPD2    C2 7401   2.645   4.386   9.626 -0.3283 -0.0172  0.4775
  498MPD2    C3 7402   2.514   4.338   9.599 -0.9154 -0.1542  0.0499
  498MPD2    C4 7403   2.451   4.378   9.476 -0.0117 -0.4502  0.8333
  498MPD2    C5 7404   2.512   4.455   9.386  0.5721 -0.4668  0.7572
  498MPD2     H 7405   2.709   4.346   9.704  0.0500  0.2103  0.2826
  498MPD2    H1 7406   2.347   4.363   9.448  0.2661 -1.5502  0.3858
  498MPD2    H2 7407   2.692   4.564   9.344  1.7409 -0.2278  2.5286
  498MPD2    H3 7408   2.465   4.481   9.292  0.2059  0.6683  1.2543
  498MPD2     N 7409   2.454   4.245   9.686  0.9615  0.0296 -0.5328
  498MPD2    H5 7410   2.500   4.222   9.774 -0.0552  0.7893  0.2067
  498MPD2    N1 7411   2.831   4.531   9.571 -0.1066 -0.6809  0.3853
  498MPD2    H7 7412   2.871   4.495   9.657  0.6985 -1.7330 -0.4277
  499TMC3    C1 7413   3.019   4.667   9.587 -0.0717 -0.6245 -0.8328
  499TMC3    C2 7414   3.084   4.566   9.657 -1.0855  0.1687 -0.3672
  499TMC3    C3 7415   3.217   4.595   9.689  1.1429  0.5635  0.6499
  499TMC3    C4 7416   3.094   0.043   9.526  0.2457 -0.7737 -0.4401
  499TMC3    C5 7417   3.221   0.060   9.555  0.0490  0.0502 -0.5582
  499TMC3    C6 7418   3.288   4.700   9.638 -0.7478  0.6580 -0.6333
  499TMC3     C 7419   2.893   4.640   9.514 -0.1793 -0.0695  0.0591
  499TMC3     O 7420   2.853   0.003   9.435 -0.3185 -0.0824 -0.3430
  499TMC3     H 7421   3.038   4.468   9.671  0.2032 -0.0578  2.4772
  499TMC3    H1 7422   3.044   0.113   9.460 -2.3072 -1.3090  0.9329
  499TMC3    H2 7423   3.395   4.710   9.655 -0.6799  0.7964 -1.1230
  499TMC3    C7 7424   3.304   0.143   9.474 -0.6717 -0.0115 -0.3366
  499TMC3    C8 7425   3.298   4.484   9.739  0.3774  0.6419  0.0248
  499TMC3    O1 7426   3.253   0.254   9.470 -0.2345  0.7422  0.1208
  499TMC3    O2 7427   3.394   4.516   9.802  0.7600 -0.5467 -0.3328
  500MPD2     C 7428   4.595   1.295  10.788  0.4607  0.0605 -0.2059
  500MPD2    C1 7429   4.636   1.350  10.665  0.0937 -0.4604 -0.5069
  500MPD2    C2 7430   4.545   1.390  10.579 -0.4141  0.1511 -0.0272
  500MPD2    C3 7431   4.409   1.381  10.610  0.9140  0.6112 -0.4281
  500MPD2    C4 7432   4.366   1.339  10.730  0.1232  0.1879 -0.7630
  500MPD2    C5 7433   4.462   1.299  10.823 -0.4642  0.0819  0.1690
  500MPD2     H 7434   4.578   1.417  10.479 -1.6867 -1.5121 -0.8939
  500MPD2    H1 7435   4.261   1.348  10.756  0.2665 -3.8412  1.3044
  500MPD2    H2 7436   4.663   1.266  10.868  1.8838  0.0977 -1.4088
  500MPD2    H3 7437   4.430   1.243  10.910 -0.3810  1.7838  1.3059
  500MPD2     N 7438   4.304   1.428  10.527 -0.1630  0.1304 -0.4311
  500MPD2    H5 7439   4.211   1.414  10.565 -0.0930  0.4307 -0.1457
  500MPD2    N1 7440   0.051   1.372  10.627 -0.3738  0.5302  0.0090
  500MPD2    H7 7441   0.075   1.417  10.540 -0.2739 -0.7788 -0.6505
  501TMC3    C1 7442   0.284   1.389  10.657 -0.0288  0.0403  0.2996
  501TMC3    C2 7443   0.295   1.488  10.556 -0.1700  0.1801  0.1385
  501TMC3    C3 7444   0.418   1.509  10.506 -0.0429  0.2308  0.4601
  501TMC3    C4 7445   0.393   1.326  10.715 -0.0957  0.0026  0.3990
  501TMC3    C5 7446   0.520   1.362  10.672 -0.2955 -0.6371 -0.4763
  501TMC3    C6 7447   0.530   1.453  10.568 -0.1948 -0.2264  0.4368
  501TMC3     C 7448   0.157   1.337  10.711 -0.2919 -0.0385 -0.4463
  501TMC3     O 7449   0.155   1.294  10.828 -0.2170 -0.6519 -0.2411
  501TMC3     H 7450   0.214   1.530  10.497 -0.4547  0.1694  0.5203
  501TMC3    H1 7451   0.381   1.249  10.791  2.5347  0.9744  1.8140
  501TMC3    H2 7452   0.625   1.468  10.519 -0.8506 -0.3552 -0.8730
  501TMC3    C7 7453   0.633   1.282  10.725  0.1111 -0.1348 -0.5476
  501TMC3    C8 7454   0.447   1.630  10.429 -0.2942  0.1924 -0.2379
  501TMC3    O1 7455   0.605   1.194  10.807  0.3985  0.1004 -0.2151
  501TMC3    O2 7456   0.555   1.680  10.438 -0.0370 -0.1911  0.3732
  502TMC3    C1 7457   4.367   0.281  14.959 -0.4642  0.0400  0.1580
  502TMC3    C2 7458   4.350   0.407  15.003  0.1409 -0.0334 -0.0754
  502TMC3    C3 7459   4.231   0.424  15.062 -0.4756  0.3197  0.3795
  502TMC3    C4 7460   4.269   0.186  14.953 -0.6057 -0.0631  0.9635
  502TMC3    C5 7461   4.148   0.210  15.015  0.3813  1.1237 -0.4205
  502TMC3    C6 7462   4.129   0.330  15.079  0.6587 -0.2874 -0.3227
  502TMC3     C 7463   4.503   0.229  14.970 -0.0784  0.5804  0.5600
  502TMC3     O 7464   4.597   0.307  14.977 -0.3589  0.4193 -0.0896
  502TMC3     H 7465   4.427   0.482  15.009  0.2193  0.0104 -1.7428
  502TMC3    H1 7466   4.274   0.102  14.885  0.4424 -1.0391  2.2728
  502TMC3    H2 7467   4.038   0.347  15.136  0.6301 -2.0759  0.1787
  502TMC3    C7 7468   4.085   0.087  15.056  0.2554 -0.6557  0.5846
  502TMC3    C8 7469   4.204   0.557  15.093 -0.1250  0.4531  0.6861
  502TMC3    O1 7470   4.155   4.706  15.056  0.4171  0.1697 -0.3553
  502TMC3    O2 7471   4.259   0.641  15.027 -0.2380  0.2814  0.8161
  503MPD2     C 7472   1.234   0.177  17.279  1.4874 -0.0414  0.6158
  503MPD2    C1 7473   1.352   0.243  17.316 -0.4631 -0.0870  0.9566
  503MPD2    C2 7474   1.467   0.165  17.321  0.1867 -0.2205  0.1825
  503MPD2    C3 7475   1.473   0.027  17.289  0.0494 -0.0105  0.2332
  503MPD2    C4 7476   1.352   4.693  17.247 -0.3653 -0.8741 -0.3815
  503MPD2    C5 7477   1.240   0.047  17.229 -0.0617 -0.5537  0.6704
  503MPD2     H 7478   1.555   0.224  17.344  1.4566 -2.1277  0.2346
  503MPD2    H1 7479   1.343   4.589  17.217 -1.0670 -1.5610  2.1836
  503MPD2    H2 7480   1.135   0.222  17.274  1.0014 -1.4511 -2.3552
  503MPD2    H3 7481   1.146   0.001  17.201  0.1741  0.3977 -1.7231
  503MPD2     N 7482   1.596   4.681  17.298 -0.4968  0.1139  0.4143
  503MPD2    H5 7483   1.684   0.010  17.298 -0.6742  0.4211 -0.5532
  503MPD2    N1 7484   1.369   0.380  17.352 -0.7288 -0.1505  0.5601
  503MPD2    H7 7485   1.463   0.408  17.376  0.3599 -2.4712 -1.0351
  504TMC3    C1 7486   1.735   4.485  17.314  0.6636  0.3666  0.1784
  504TMC3    C2 7487   1.747   4.379  17.398  0.5282 -0.4723  0.4647
  504TMC3    C3 7488   1.870   4.341  17.437 -0.0936 -0.3806  0.2963
  504TMC3    C4 7489   1.848   4.549  17.262 -0.0565 -0.3899  0.1999
  504TMC3    C5 7490   1.970   4.504  17.309  0.5263 -0.1439 -0.0392
  504TMC3    C6 7491   1.988   4.399  17.392 -0.5287  0.3753  0.7281
  504TMC3     C 7492   1.603   4.545  17.294 -0.2062 -1.2018 -0.0155
  504TMC3     O 7493   1.509   4.468  17.303  0.3182 -0.2677  0.9022
  504TMC3     H 7494   1.661   4.326  17.437  0.2699 -0.3429  0.0749
  504TMC3    H1 7495   1.845   4.630  17.190  1.1894 -0.3694  0.1672
  504TMC3    H2 7496   2.086   4.356  17.408 -1.0587 -2.0914 -2.7360
  504TMC3    C7 7497   2.085   4.540  17.225  0.2111 -0.3088 -0.4259
  504TMC3    C8 7498   1.874   4.205  17.501  0.7331  0.2494  0.1320
  504TMC3    O1 7499   2.067   4.565  17.106 -0.3902 -0.2154 -0.1219
  504TMC3    O2 7500   1.782   4.133  17.475  0.0769 -1.3132 -0.1390
  505MPD2     C 7501   1.687   3.737  10.498  0.8392  0.5717 -0.0989
  505MPD2    C1 7502   1.771   3.667  10.574  0.2339  0.2740  0.5337
  505MPD2    C2 7503   1.837   3.746  10.672 -0.1581  0.2275  0.8852
  505MPD2    C3 7504   1.819   3.885  10.678 -0.4995  0.2965  0.3964
  505MPD2    C4 7505   1.720   3.946  10.609 -0.5499  0.7080 -0.3169
  505MPD2    C5 7506   1.658   3.870  10.516 -0.3576 -0.9094  0.4135
  505MPD2     H 7507   1.907   3.694  10.737  0.3164  1.3293  1.2558
  505MPD2    H1 7508   1.694   4.051  10.605 -2.5484  0.1908 -0.8282
  505MPD2    H2 7509   1.623   3.690  10.424 -0.7534  1.9055  0.4268
  505MPD2    H3 7510   1.575   3.919  10.465  1.0653  2.7583  1.6186
  505MPD2     N 7511   1.903   3.975  10.746 -0.4866 -0.0558  0.5403
  505MPD2    H5 7512   1.877   4.073  10.739 -0.1226  0.0304  0.4124
  505MPD2    N1 7513   1.780   3.521  10.559 -0.2976 -0.5749  0.4647
  505MPD2    H7 7514   1.739   3.478  10.477 -0.1860  1.6384 -0.7706
  506TMC3    C1 7515   1.857   3.305  10.605  0.0393 -0.9364 -0.2021
  506TMC3    C2 7516   1.882   3.286  10.474  0.4852 -0.2387 -0.3260
  506TMC3    C3 7517   1.996   3.219  10.440 -0.2751 -0.1404  1.2758
  506TMC3    C4 7518   1.931   3.245  10.700 -0.2284 -0.5165  0.1610
  506TMC3    C5 7519   2.030   3.165  10.664  0.5869  0.4551 -0.6275
  506TMC3    C6 7520   2.071   3.154  10.536  0.6110  0.2501 -0.0339
  506TMC3     C 7521   1.849   3.438  10.642 -1.0227  0.6313 -0.4107
  506TMC3     O 7522   1.908   3.464  10.747  0.5914  0.4476  0.1733
  506TMC3     H 7523   1.819   3.325  10.395 -0.7553  0.0389  0.7926
  506TMC3    H1 7524   1.901   3.263  10.803 -0.0202 -0.8433  0.2792
  506TMC3    H2 7525   2.168   3.112  10.515  0.4702  0.2243 -0.6508
  506TMC3    C7 7526   2.150   3.195  10.742  0.0972  0.7936  0.1212
  506TMC3    C8 7527   2.037   3.213  10.298 -0.1046  0.8944 -0.6218
  506TMC3    O1 7528   2.236   3.105  10.737 -0.2457 -0.8788 -0.4567
  506TMC3    O2 7529   2.102   3.117  10.259 -0.2248  0.4985  0.4206
  507TMC3    C1 7530   2.640   4.688  15.831  0.4031 -0.4189  0.2275
  507TMC3    C2 7531   2.536   4.669  15.744 -0.5180  0.4414 -0.1616
  507TMC3    C3 7532   2.558   4.669  15.608  0.0810  0.3789  0.1993
  507TMC3    C4 7533   2.764   0.004  15.790 -0.5199 -0.2657 -0.3399
  507TMC3    C5 7534   2.787   0.005  15.652 -0.6000  0.3305 -0.0212
  507TMC3    C6 7535   2.689   4.693  15.564 -0.0508  0.0636  0.0301
  507TMC3     C 7536   2.622   4.663  15.971 -0.4070 -0.6555  0.2835
  507TMC3     O 7537   2.515   4.670  16.024  0.1082 -0.2745  0.4104
  507TMC3     H 7538   2.437   4.665  15.789  0.5288 -1.8113  1.9107
  507TMC3    H1 7539   2.834   0.029  15.869 -0.1288  0.6719 -0.9830
  507TMC3    H2 7540   2.707   4.684  15.457  3.6505  1.2561  0.5397
  507TMC3    C7 7541   2.844   0.126  15.608 -0.9486 -0.0351 -0.1718
  507TMC3    C8 7542   2.459   0.035  15.552  0.0388 -0.3457  0.3060
  507TMC3    O1 7543   2.805   0.161  15.499 -0.1476 -0.0150 -0.5289
  507TMC3    O2 7544   2.345   0.015  15.590 -0.1524 -0.4764 -0.7703
  508MPD2     C 7545   4.064   2.778  15.935 -0.1476 -0.1374  0.1053
  508MPD2    C1 7546   3.980   2.672  15.962  0.6116 -0.9319 -0.5137
  508MPD2    C2 7547   3.859   2.671  15.894 -0.3746  0.3938 -0.2369
  508MPD2    C3 7548   3.824   2.765  15.802 -0.9465 -0.3059  0.0209
  508MPD2    C4 7549   3.917   2.864  15.771 -0.1237 -0.1512 -0.3878
  508MPD2    C5 7550   4.032   2.869  15.842  0.1669 -0.5004  0.1037
  508MPD2     H 7551   3.795   2.587  15.917  0.7379 -0.3848  0.0540
  508MPD2    H1 7552   3.902   2.937  15.692  1.5367  0.7998  0.1766
  508MPD2    H2 7553   4.163   2.785  15.978  0.4704  0.1312 -1.3699
  508MPD2    H3 7554   4.107   2.939  15.809  0.3045 -0.2592  0.9471
  508MPD2     N 7555   3.694   2.768  15.743 -0.3959  0.3886 -0.0269
  508MPD2    H5 7556   3.640   2.684  15.761  0.0727 -0.2735 -1.7014
  508MPD2    N1 7557   4.021   2.586  16.072 -0.1044 -0.0128  0.1975
  508MPD2    H7 7558   4.113   2.606  16.110  0.7697 -1.7098 -1.0468
  509TMC3    C1 7559   3.341   2.932  15.511 -0.2623  0.7369 -0.0254
  509TMC3    C2 7560   3.356   2.855  15.399  0.2333 -0.3507 -0.2432
  509TMC3    C3 7561   3.463   2.775  15.390  0.4589  0.1072  0.6295
  509TMC3    C4 7562   3.419   2.912  15.622 -0.0697 -0.0091  0.0083
  509TMC3    C5 7563   3.526   2.831  15.603 -0.5972 -1.0283  0.2882
  509TMC3    C6 7564   3.553   2.761  15.491  1.5130 -0.1372  0.0291
  509TMC3     C 7565   3.310   3.071  15.476 -0.3363 -0.7871 -0.0885
  509TMC3     O 7566   3.359   3.119  15.374  0.1076  0.3260 -0.3779
  509TMC3     H 7567   3.301   2.867  15.306  0.6503 -1.1302 -0.5828
  509TMC3    H1 7568   3.409   2.973  15.711  2.1836 -0.4004  0.5357
  509TMC3    H2 7569   3.648   2.709  15.480 -0.6286 -3.7558 -1.3104
  509TMC3    C7 7570   3.638   2.871  15.678 -0.0466  0.5231 -0.0046
  509TMC3    C8 7571   3.540   2.807  15.267 -0.2242 -0.3699 -0.2004
  509TMC3    O1 7572   3.667   2.991  15.676 -0.0517  0.0141  0.7653
  509TMC3    O2 7573   3.623   2.722  15.237 -0.7376 -0.2920  0.6849
  510MPD2     C 7574   1.411   4.517  14.196 -0.7822  0.0270 -0.1283
  510MPD2    C1 7575   1.469   4.448  14.297  0.4597  0.2550  0.3019
  510MPD2    C2 7576   1.598   4.480  14.331  0.0057  0.0549 -0.6273
  510MPD2    C3 7577   1.672   4.574  14.264 -0.1428  0.2302 -0.2441
  510MPD2    C4 7578   1.611   4.639  14.156  0.1531 -0.6025  0.2552
  510MPD2    C5 7579   1.485   4.599  14.125 -0.6050  0.4773 -0.0586
  510MPD2     H 7580   1.652   4.436  14.414 -1.2681  0.4296  0.3928
  510MPD2    H1 7581   1.653   0.002  14.104 -0.7746  0.3751  1.1253
  510MPD2    H2 7582   1.316   4.480  14.158  0.1467 -1.0474 -1.4021
  510MPD2    H3 7583   1.445   4.642  14.033 -3.3061 -1.6657  0.1081
  510MPD2     N 7584   1.811   4.593  14.293  0.1739  0.2195  0.0320
  510MPD2    H5 7585   1.849   4.529  14.362 -2.0883  1.2954  2.2665
  510MPD2    N1 7586   1.389   4.348  14.362 -0.3822 -0.2758  1.2545
  510MPD2    H7 7587   1.294   4.329  14.333 -0.7475  2.7021  0.5064
  511TMC3    C1 7588   1.325   4.194  14.536 -0.5505  0.0983  0.0999
  511TMC3    C2 7589   1.307   4.192  14.669 -0.0165 -0.5255  0.0914
  511TMC3    C3 7590   1.221   4.100  14.720 -0.0368  0.3358 -0.3946
  511TMC3    C4 7591   1.274   4.103  14.449  0.3139 -0.7301  0.5521
  511TMC3    C5 7592   1.193   4.009  14.509 -0.2759 -0.7269  0.2913
  511TMC3    C6 7593   1.156   4.007  14.640  0.5981  0.1715  0.2524
  511TMC3     C 7594   1.429   4.286  14.486  0.7214 -0.3860  0.2982
  511TMC3     O 7595   1.525   4.318  14.562 -0.5023 -0.5403  0.3885
  511TMC3     H 7596   1.326   4.283  14.724 -2.9794  1.3082 -1.8971
  511TMC3    H1 7597   1.300   4.106  14.343 -0.0253 -0.7324  0.4699
  511TMC3    H2 7598   1.077   3.946  14.681  1.7372 -0.7803  1.0483
  511TMC3    C7 7599   1.179   3.894  14.430  0.9339 -0.2145 -0.4258
  511TMC3    C8 7600   1.170   4.126  14.856 -0.5853  0.4230 -0.8706
  511TMC3    O1 7601   1.181   3.902  14.309 -0.1099 -0.7223  0.0374
  511TMC3    O2 7602   1.057   4.089  14.880  0.9171 -0.4350  0.1687
  512TMC3    C1 7603   4.704   3.984  12.871 -0.6926  0.0945 -0.7442
  512TMC3    C2 7604   4.716   3.974  13.009  0.8488 -0.0207 -0.7262
  512TMC3    C3 7605   0.048   3.856  13.053  0.0675  0.3547  0.3026
  512TMC3    C4 7606   0.021   3.880  12.789  0.5511 -0.2585 -0.6884
  512TMC3    C5 7607   0.056   3.758  12.846  0.3160 -0.0728  0.4547
  512TMC3    C6 7608   0.080   3.747  12.977  0.4744 -0.0033 -0.4083
  512TMC3     C 7609   4.668   4.106  12.808  0.3654 -0.2100  0.2700
  512TMC3     O 7610   4.623   4.085  12.694 -0.0765 -0.3672  0.2853
  512TMC3     H 7611   4.688   4.052  13.078  3.7090 -0.7551  1.2816
  512TMC3    H1 7612   0.020   3.895  12.682 -2.6097 -0.5096 -0.6796
  512TMC3    H2 7613   0.119   3.657  13.022 -0.7548  0.1856  1.0486
  512TMC3    C7 7614   0.131   3.679  12.760  0.4642 -0.2100 -0.6839
  512TMC3    C8 7615   0.078   3.841  13.198 -0.5884 -0.3596 -1.5506
  512TMC3    O1 7616   0.137   3.710  12.642 -0.0515 -0.4650  0.0763
  512TMC3    O2 7617   0.088   3.725  13.229  0.0791 -0.6608  0.3996
  513MPD2     C 7618   1.870   3.401  13.633 -0.3249  0.9995 -0.7550
  513MPD2    C1 7619   1.908   3.522  13.587  1.0191  0.0757 -0.0863
  513MPD2    C2 7620   1.967   3.610  13.671  0.4909  0.3182  0.4443
  513MPD2    C3 7621   1.988   3.579  13.802  0.1568 -0.1282 -0.4377
  513MPD2    C4 7622   1.943   3.457  13.851 -0.3186  0.9823 -0.1422
  513MPD2    C5 7623   1.890   3.362  13.764  0.3820  0.5718  0.2827
  513MPD2     H 7624   1.988   3.709  13.633  1.2236  0.1534  0.4073
  513MPD2    H1 7625   1.968   3.421  13.950 -0.6434 -0.3539 -0.5461
  513MPD2    H2 7626   1.828   3.330  13.562  1.7242 -0.7111 -0.2541
  513MPD2    H3 7627   1.859   3.265  13.802 -0.6644  0.5245 -0.6703
  513MPD2     N 7628   2.053   3.675  13.888 -0.2419  0.2912 -0.0612
  513MPD2    H5 7629   2.098   3.750  13.836  0.9843 -0.5155 -0.1593
  513MPD2    N1 7630   1.892   3.540  13.446 -0.9649  0.3807  0.1165
  513MPD2    H7 7631   1.873   3.455  13.394  1.9540  0.5003 -1.1701
  514TMC3    C1 7632   1.936   3.634  13.237 -0.3003  0.0293  0.0840
  514TMC3    C2 7633   1.885   3.736  13.162  0.6892  0.9045 -0.3722
  514TMC3    C3 7634   1.959   3.774  13.054 -0.2168  0.2641 -0.2329
  514TMC3    C4 7635   2.070   3.602  13.224  0.4741 -0.0922  0.2288
  514TMC3    C5 7636   2.152   3.658  13.131 -0.1385 -0.0400 -0.7946
  514TMC3    C6 7637   2.090   3.734  13.041  0.2186  0.3809  0.2521
  514TMC3     C 7638   1.919   3.657  13.384 -0.5261 -0.1570  0.1769
  514TMC3     O 7639   1.967   3.763  13.424  0.1778 -0.1741  0.7267
  514TMC3     H 7640   1.784   3.773  13.172  1.1496  2.1437 -0.2065
  514TMC3    H1 7641   2.118   3.535  13.294  1.6190  0.0816 -0.3877
  514TMC3    H2 7642   2.160   3.774  12.969  2.8713 -0.0162  2.6334
  514TMC3    C7 7643   2.257   3.733  13.181  0.0041  0.3971  0.5537
  514TMC3    C8 7644   1.906   3.873  12.959 -0.2901 -0.1281 -0.0005
  514TMC3    O1 7645   2.340   3.784  13.104  0.7267  0.2112 -0.7406
  514TMC3    O2 7646   1.814   3.947  12.992  0.0363  1.0966  0.0306
  515MPD2     C 7647   0.212   0.762  14.391  0.3237 -0.0023  0.5913
  515MPD2    C1 7648   0.168   0.728  14.512  0.8380 -0.5936  0.0946
  515MPD2    C2 7649   0.254   0.697  14.615  0.1212  0.0958 -0.3835
  515MPD2    C3 7650   0.391   0.721  14.598 -0.0982  0.2480  0.2012
  515MPD2    C4 7651   0.437   0.745  14.471  0.2146  0.2806  0.1971
  515MPD2    C5 7652   0.345   0.768  14.372  0.8847  0.0569 -0.0024
  515MPD2     H 7653   0.213   0.657  14.706  0.9958  0.3853  0.1377
  515MPD2    H1 7654   0.543   0.749  14.449  0.2635  3.0247  0.8948
  515MPD2    H2 7655   0.143   0.770  14.308  0.7115 -0.1745  0.2510
  515MPD2    H3 7656   0.385   0.788  14.273  2.5175  2.0029  1.0564
  515MPD2     N 7657   0.485   0.700  14.697  0.2434 -0.0750 -0.3119
  515MPD2    H5 7658   0.583   0.705  14.674  0.6381 -3.1969  0.6811
  515MPD2    N1 7659   0.030   0.692  14.535 -0.2814 -0.0585  0.7143
  515MPD2    H7 7660   0.002   0.628  14.609 -0.6080  0.6575  1.2001
  516TMC3    C1 7661   4.537   0.622  14.458  0.6194 -0.2754  0.7226
  516TMC3    C2 7662   4.429   0.673  14.393  0.3032  0.4638  0.3779
  516TMC3    C3 7663   4.332   0.583  14.348  0.9889 -0.5820 -0.0660
  516TMC3    C4 7664   4.541   0.493  14.505  0.4253  0.5552 -0.2232
  516TMC3    C5 7665   4.434   0.414  14.479  0.6297 -0.6730 -0.4187
  516TMC3    C6 7666   4.328   0.454  14.400  0.2158  0.4273 -0.0936
  516TMC3     C 7667   4.654   0.707  14.441  0.9173  0.1646  0.6336
  516TMC3     O 7668   4.648   0.775  14.343  0.6623  0.2210 -0.3933
  516TMC3     H 7669   4.413   0.778  14.371  1.4892  0.9387  1.7999
  516TMC3    H1 7670   4.615   0.462  14.578  0.8176  0.9597 -0.4463
  516TMC3    H2 7671   4.246   0.386  14.379  1.5603 -0.6547 -1.8443
  516TMC3    C7 7672   4.438   0.281  14.538  0.2689 -0.6497 -0.1648
  516TMC3    C8 7673   4.246   0.626  14.238 -0.3605  0.3009  0.4861
  516TMC3    O1 7674   4.546   0.247  14.593 -0.4235  0.1813 -0.0534
  516TMC3    O2 7675   4.152   0.549  14.217  0.3398 -0.6447  0.1334
  517MPD2     C 7676   0.056   2.066   0.041 -0.0928 -0.3044 -0.0217
  517MPD2    C1 7677   0.179   2.020   0.075 -0.1070 -0.0948 -0.2662
  517MPD2    C2 7678   0.262   2.097   0.155  0.0518  0.3025 -0.2590
  517MPD2    C3 7679   0.218   2.219   0.207 -0.1100 -0.5325 -0.2106
  517MPD2    C4 7680   0.087   2.254   0.184  0.2687 -0.4884  0.8852
  517MPD2    C5 7681   0.011   2.177   0.096 -0.2129  0.2919 -0.0268
  517MPD2     H 7682   0.363   2.063   0.172 -0.8702 -1.8260  1.0508
  517MPD2    H1 7683   0.043   2.341   0.232  1.4074  0.2365  0.6167
  517MPD2    H2 7684   4.711   2.014  17.663 -0.7705  0.2688  0.2120
  517MPD2    H3 7685   4.629   2.205   0.084 -0.7317 -1.4937  0.3325
  517MPD2     N 7686   0.293   2.308   0.284  0.3349 -0.1417 -0.2016
  517MPD2    H5 7687   0.244   2.388   0.324 -3.3619 -2.7407  0.4273
  517MPD2    N1 7688   0.230   1.901   0.011  0.3609  0.1474 -0.4576
  517MPD2    H7 7689   0.330   1.886   0.027  0.3336  0.6672  0.1873
  518TMC3    C1 7690   0.249   1.694  17.580 -0.3746 -0.5778  0.3931
  518TMC3    C2 7691   0.177   1.579  17.579 -0.2425  0.0506 -0.8797
  518TMC3    C3 7692   0.235   1.468  17.521 -0.6413 -0.0821  0.0205
  518TMC3    C4 7693   0.377   1.713  17.531  0.0081 -0.3662 -0.1373
  518TMC3    C5 7694   0.436   1.597  17.491  0.2336  0.2190 -0.4573
  518TMC3    C6 7695   0.371   1.475  17.487 -0.0825 -0.3137 -0.0181
  518TMC3     C 7696   0.167   1.814  17.617 -0.2050 -0.5527 -0.0321
  518TMC3     O 7697   0.045   1.809  17.598  0.3648  0.2039  0.2741
  518TMC3     H 7698   0.074   1.578  17.612  0.0981 -3.0215  0.1013
  518TMC3    H1 7699   0.423   1.810  17.516 -1.5517  0.3426 -0.3649
  518TMC3    H2 7700   0.414   1.390  17.436 -0.3278 -0.8807  0.7101
  518TMC3    C7 7701   0.582   1.595  17.457  0.6487  1.1460 -0.3682
  518TMC3    C8 7702   0.167   1.342  17.490  0.6384 -0.2829 -0.2661
  518TMC3    O1 7703   0.646   1.694  17.418  0.2052  0.3473  0.4372
  518TMC3    O2 7704   0.219   1.265  17.412  0.5635 -0.7281  0.6854
  519MPD2     C 7705   1.768   1.055  14.228 -0.3599 -0.6474 -0.5162
  519MPD2    C1 7706   1.760   0.917  14.234  0.5556 -0.1909  0.1218
  519MPD2    C2 7707   1.856   0.840  14.169  1.0061  0.1615  0.1390
  519MPD2    C3 7708   1.964   0.900  14.109 -1.3915 -0.1043  0.2447
  519MPD2    C4 7709   1.959   1.037  14.101 -0.9139 -0.5829  0.6669
  519MPD2    C5 7710   1.863   1.109  14.152 -0.5915  0.1949 -0.2515
  519MPD2     H 7711   1.840   0.734  14.153  1.4042  0.1185  0.0055
  519MPD2    H1 7712   2.046   1.090  14.064 -1.3102 -0.5869 -0.2622
  519MPD2    H2 7713   1.698   1.121  14.278 -0.0957  1.0205 -2.3825
  519MPD2    H3 7714   1.869   1.217  14.155  0.1196  0.1725 -0.9583
  519MPD2     N 7715   2.067   0.820  14.053  0.0808  0.1628  0.4090
  519MPD2    H5 7716   2.084   0.725  14.084 -0.1437  0.1501  0.4927
  519MPD2    N1 7717   1.651   0.865  14.301 -0.8266 -0.2770 -0.3817
  519MPD2    H7 7718   1.586   0.926  14.349  1.6265  1.2894  0.9615
  520TMC3    C1 7719   2.241   0.771  13.908  0.1685  0.4686  0.2717
  520TMC3    C2 7720   2.259   0.776  13.772 -0.0232  0.1816 -0.8413
  520TMC3    C3 7721   2.277   0.657  13.705 -0.9784  0.5117 -0.4581
  520TMC3    C4 7722   2.261   0.652  13.990  0.5566  0.6249 -0.0498
  520TMC3    C5 7723   2.289   0.542  13.920 -0.0983 -0.2790  0.1900
  520TMC3    C6 7724   2.284   0.538  13.780 -0.4593  0.0749  0.9210
  520TMC3     C 7725   2.148   0.874  13.958  0.3051  0.4509 -0.1791
  520TMC3     O 7726   2.135   0.973  13.887 -0.0112  0.0023  0.4242
  520TMC3     H 7727   2.225   0.864  13.718 -0.3980  0.2838 -0.4376
  520TMC3    H1 7728   2.271   0.663  14.097 -0.7757 -0.4299  0.1834
  520TMC3    H2 7729   2.311   0.449  13.724 -0.9541  1.1827 -1.0965
  520TMC3    C7 7730   2.339   0.433  14.000 -0.3925  0.1655  0.2029
  520TMC3    C8 7731   2.214   0.665  13.575 -0.2856 -0.1516 -0.0683
  520TMC3    O1 7732   2.387   0.459  14.111  0.1642  0.0768 -0.4020
  520TMC3    O2 7733   2.271   0.738  13.492 -0.0049 -0.4923  0.4871
  521MPD2     C 7734   2.745   2.868  17.644 -0.2638 -0.9164  0.3287
  521MPD2    C1 7735   2.676   2.785  17.559 -0.3597 -0.1279 -0.4286
  521MPD2    C2 7736   2.739   2.736  17.444  0.6835  0.7890 -0.4067
  521MPD2    C3 7737   2.873   2.763  17.422  0.7714  0.0196 -0.1175
  521MPD2    C4 7738   2.938   2.848  17.507 -0.2014  0.2564  0.3401
  521MPD2    C5 7739   2.871   2.908  17.616 -0.3748 -0.3960 -0.4009
  521MPD2     H 7740   2.679   2.681  17.371 -0.8187  2.0862 -0.1601
  521MPD2    H1 7741   3.043   2.875  17.499 -0.6995  1.7532 -1.2420
  521MPD2    H2 7742   2.695   2.907   0.041 -1.2705  2.1228 -1.6350
  521MPD2    H3 7743   2.928   2.975  17.678  1.4072 -1.5249 -0.8012
  521MPD2     N 7744   2.927   2.702  17.310 -0.1095 -0.1812  0.1332
  521MPD2    H5 7745   2.870   2.663  17.236 -0.9238  1.3770 -0.0533
  521MPD2    N1 7746   2.547   2.752  17.602  0.1316  0.1255  0.5404
  521MPD2    H7 7747   2.511   2.808  17.678 -0.3418  2.9535 -1.7774
  522TMC3    C1 7748   3.109   2.623  17.178 -0.1711 -0.4502 -0.9020
  522TMC3    C2 7749   3.221   2.547  17.185 -0.2606 -0.3044  0.5777
  522TMC3    C3 7750   3.277   2.518  17.061  0.0684  0.0647 -0.3557
  522TMC3    C4 7751   3.073   2.694  17.074 -0.3533  0.5196 -0.2591
  522TMC3    C5 7752   3.140   2.675  16.955  0.5096 -0.7000 -0.1174
  522TMC3    C6 7753   3.241   2.583  16.947 -0.1442  0.6174 -0.5829
  522TMC3     C 7754   3.064   2.686  17.304  0.1565 -0.8453  0.3715
  522TMC3     O 7755   3.149   2.698  17.389  0.3775 -0.1735 -1.0308
  522TMC3     H 7756   3.263   2.506  17.277  0.3650  0.1395  0.4924
  522TMC3    H1 7757   2.996   2.770  17.085  0.4489  1.2905  0.0269
  522TMC3    H2 7758   3.289   2.553  16.854  0.6031 -0.7079  0.2458
  522TMC3    C7 7759   3.130   2.760  16.843  0.8923 -0.5054  0.2554
  522TMC3    C8 7760   3.411   2.458  17.080  0.2823 -0.4047 -0.2671
  522TMC3    O1 7761   3.192   2.719  16.746 -0.1539 -0.2735  0.0649
  522TMC3    O2 7762   3.435   2.397  17.187  0.2300 -0.2787 -0.1646
  523MPD2     C 7763   0.580   2.850  10.096 -0.3579  0.4982 -0.3053
  523MPD2    C1 7764   0.479   2.767  10.137  0.4490 -0.1880 -1.0633
  523MPD2    C2 7765   0.352   2.801  10.114 -0.0935  0.7071 -0.0272
  523MPD2    C3 7766   0.314   2.917  10.052 -0.1904 -0.0092  0.5112
  523MPD2    C4 7767   0.413   3.008  10.026 -0.6349 -0.8173  0.6694
  523MPD2    C5 7768   0.541   2.976  10.061  0.2045  0.4752 -0.9864
  523MPD2     H 7769   0.277   2.727  10.140  0.2061 -0.4143 -2.3223
  523MPD2    H1 7770   0.381   3.105   9.989 -1.7821 -1.2909  0.4150
  523MPD2    H2 7771   0.687   2.836  10.110 -0.9011 -2.7706  0.5583
  523MPD2    H3 7772   0.619   3.050  10.043  0.2919  0.1797 -1.8144
  523MPD2     N 7773   0.181   2.948  10.014  0.3945  0.0329 -0.3376
  523MPD2    H5 7774   0.165   3.033   9.961  2.3796  0.9743  0.5660
  523MPD2    N1 7775   0.522   2.644  10.187  0.3720  0.7588 -0.4254
  523MPD2    H7 7776   0.620   2.621  10.177 -0.5651 -3.0047 -0.9963
  524TMC3    C1 7777   4.672   2.955   9.996  0.3051  0.2028  0.6440
  524TMC3    C2 7778   4.554   2.900   9.953  0.2841  0.5571  0.6738
  524TMC3    C3 7779   4.441   2.981   9.950 -0.2971  0.3135  0.0395
  524TMC3    C4 7780   4.675   3.087  10.033 -0.0965  0.4162  0.3018
  524TMC3    C5 7781   4.562   3.165  10.010 -0.1403  0.5437  0.1680
  524TMC3    C6 7782   4.441   3.114   9.969 -0.2443  0.7529 -0.6130
  524TMC3     C 7783   0.065   2.876  10.040  0.1174  0.8079 -0.1353
  524TMC3     O 7784   0.059   2.755  10.054  0.0618 -0.0638 -0.4796
  524TMC3     H 7785   4.546   2.792   9.959  0.9889  0.3000 -3.2025
  524TMC3    H1 7786   0.042   3.132  10.074 -0.5310  1.5165  0.0428
  524TMC3    H2 7787   4.363   3.181   9.935 -1.6715 -1.1975 -1.1622
  524TMC3    C7 7788   4.582   3.303   9.990  0.1694  0.2087 -0.0140
  524TMC3    C8 7789   4.318   2.921   9.907 -0.2042  0.3944  0.4370
  524TMC3    O1 7790   4.704   3.322   9.981 -0.3205 -0.0030  0.1951
  524TMC3    O2 7791   4.213   2.973   9.937 -0.0466 -0.3379  0.2288
  525MPD2     C 7792   3.112   0.015  14.560  0.4820 -0.0338 -0.2207
  525MPD2    C1 7793   3.205   0.070  14.653  0.6589  0.0254  0.6134
  525MPD2    C2 7794   3.258   0.191  14.627  1.0373 -0.3722 -0.3336
  525MPD2    C3 7795   3.206   0.264  14.513  0.2430  0.5012  0.2065
  525MPD2    C4 7796   3.125   0.202  14.418  0.0121 -0.5402  0.1591
  525MPD2    C5 7797   3.075   0.077  14.440  0.0769  0.3366  0.1915
  525MPD2     H 7798   3.327   0.234  14.698  0.6891  1.4888 -1.1242
  525MPD2    H1 7799   3.100   0.252  14.326  0.8033  0.3227  0.4072
  525MPD2    H2 7800   3.073   4.637  14.572  1.2983 -0.5157 -1.5714
  525MPD2    H3 7801   3.000   0.034  14.375 -2.3745  2.0447  1.8845
  525MPD2     N 7802   3.234   0.397  14.485 -0.1490 -0.2810 -0.7335
  525MPD2    H5 7803   3.183   0.449  14.414 -2.9425 -1.0013  0.7373
  525MPD2    N1 7804   3.245   4.712  14.761 -0.1090  0.0560  0.6856
  525MPD2    H7 7805   3.338   0.003  14.799  1.3975 -0.2484 -2.8943
  526TMC3    C1 7806   3.233   4.518  14.898  0.1720 -0.0557 -0.1035
  526TMC3    C2 7807   3.148   4.444  14.982  0.2315 -0.2740 -0.2798
  526TMC3    C3 7808   3.198   4.345  15.057  0.4598 -0.3419  0.7673
  526TMC3    C4 7809   3.369   4.488  14.877  0.1713  0.6423 -0.0571
  526TMC3    C5 7810   3.410   4.382  14.957  0.2324  0.6392  0.3442
  526TMC3    C6 7811   3.332   4.315  15.042  0.6731  0.4756 -0.1672
  526TMC3     C 7812   3.160   4.608  14.807 -0.1276 -0.0782  0.1560
  526TMC3     O 7813   3.040   4.586  14.791 -0.8146  0.3008  0.7863
  526TMC3     H 7814   3.043   4.468  14.986  0.8653  2.8449 -2.0280
  526TMC3    H1 7815   3.426   4.541  14.801 -0.5174  1.0927 -0.2562
  526TMC3    H2 7816   3.370   4.221  15.080 -0.6135  0.4264  1.0136
  526TMC3    C7 7817   3.550   4.347  14.960  0.1947 -0.5735  0.1324
  526TMC3    C8 7818   3.152   4.341  15.191  0.3496 -1.1154 -0.2275
  526TMC3    O1 7819   3.605   4.301  15.059  0.1842  0.3531  0.2232
  526TMC3    O2 7820   3.231   4.300  15.275 -0.1805 -0.1313  0.1145
  527MPD2     C 7821   2.959   2.483   1.211  0.3122 -0.1013  0.4719
  527MPD2    C1 7822   2.910   2.357   1.219  0.5593  0.5670 -0.7128
  527MPD2    C2 7823   2.886   2.282   1.104 -0.0369 -0.0956 -0.3538
  527MPD2    C3 7824   2.911   2.334   0.979 -0.2358 -0.2950 -0.7847
  527MPD2    C4 7825   2.964   2.460   0.975  0.4827 -0.2535 -0.7157
  527MPD2    C5 7826   2.981   2.536   1.088 -0.2722 -0.5667  0.0080
  527MPD2     H 7827   2.843   2.182   1.107  1.4143 -0.7531 -1.4531
  527MPD2    H1 7828   2.997   2.507   0.882 -1.0129  2.5624  0.1672
  527MPD2    H2 7829   2.959   2.557   1.290 -1.5956  0.7725 -0.3394
  527MPD2    H3 7830   3.026   2.634   1.080 -0.5072 -0.6794 -2.6641
  527MPD2     N 7831   2.897   2.251   0.871  0.1791  0.1859  0.4663
  527MPD2    H5 7832   2.859   2.159   0.891 -0.1810 -0.0725 -1.4151
  527MPD2    N1 7833   2.876   2.300   1.344  0.0356 -0.1980  0.1017
  527MPD2    H7 7834   2.841   2.204   1.340  2.7392 -1.1643 -0.7188
  528TMC3    C1 7835   2.848   2.253   1.573 -0.0200  0.4453  0.0453
  528TMC3    C2 7836   2.871   2.287   1.707  0.5025  0.2506 -0.1749
  528TMC3    C3 7837   2.876   2.195   1.809 -0.1831  0.0712 -0.7947
  528TMC3    C4 7838   2.838   2.119   1.546 -0.4502 -0.1225 -0.3368
  528TMC3    C5 7839   2.864   2.027   1.647  0.1459  0.2322 -1.1119
  528TMC3    C6 7840   2.883   2.063   1.782 -0.9763 -0.3271  0.3686
  528TMC3     C 7841   2.896   2.349   1.463 -1.3319 -0.2203 -0.2527
  528TMC3     O 7842   2.948   2.453   1.493  0.0083 -0.2306 -0.2315
  528TMC3     H 7843   2.905   2.387   1.730  2.0821  0.0793 -1.7940
  528TMC3    H1 7844   2.850   2.083   1.444 -0.8918 -1.9681  0.2633
  528TMC3    H2 7845   2.889   1.990   1.861  0.4162  0.1311  0.6938
  528TMC3    C7 7846   2.854   1.880   1.619 -0.3578 -0.8211  1.0149
  528TMC3    C8 7847   2.834   2.227   1.943 -0.1274 -0.3699 -0.3905
  528TMC3    O1 7848   2.910   1.809   1.700  0.5087 -0.4870 -0.1597
  528TMC3    O2 7849   2.859   2.141   2.023 -0.2808  0.2936  0.8317
  529MPD2     C 7850   4.339   0.912   1.044 -0.6262 -0.0609 -0.3786
  529MPD2    C1 7851   4.354   0.785   0.992  0.8018  0.2313 -0.2760
  529MPD2    C2 7852   4.344   0.769   0.853  0.4329 -0.3146  0.0611
  529MPD2    C3 7853   4.329   0.874   0.766  0.4449  0.1312 -0.1420
  529MPD2    C4 7854   4.330   1.000   0.821  0.2898 -0.2839 -0.3269
  529MPD2    C5 7855   4.332   1.017   0.954 -0.3426  0.8094  0.1188
  529MPD2     H 7856   4.350   0.668   0.814 -0.1302  1.0293 -3.4585
  529MPD2    H1 7857   4.332   1.088   0.758  0.4297 -1.5842 -2.1408
  529MPD2    H2 7858   4.336   0.933   1.150 -1.6033 -1.3640 -0.1464
  529MPD2    H3 7859   4.323   1.115   0.999 -2.0522 -0.5862  2.8217
  529MPD2     N 7860   4.304   0.867   0.627  0.2925 -0.1833  0.2395
  529MPD2    H5 7861   4.296   0.955   0.577 -2.7769 -0.7458 -0.2697
  529MPD2    N1 7862   4.359   0.667   1.074 -0.2288  0.5450  0.2488
  529MPD2    H7 7863   4.359   0.580   1.022 -0.7684 -0.0605  1.2557
  530TMC3    C1 7864   4.330   0.529   1.265 -0.2958  0.1086 -0.0247
  530TMC3    C2 7865   4.355   0.495   1.397 -0.8593  0.1670  0.4840
  530TMC3    C3 7866   4.304   0.384   1.451  0.0629 -0.6224 -0.1483
  530TMC3    C4 7867   4.249   0.444   1.193 -0.7608 -0.5906 -0.1267
  530TMC3    C5 7868   4.200   0.332   1.250  1.0186 -0.0507 -0.2258
  530TMC3    C6 7869   4.234   0.299   1.378  0.6512 -0.5502  0.6793
  530TMC3     C 7870   4.368   0.661   1.211  0.1052  0.3444  0.4809
  530TMC3     O 7871   4.385   0.747   1.298  0.6016 -0.1584  0.6061
  530TMC3     H 7872   4.412   0.561   1.462  0.8256 -1.1226  0.3132
  530TMC3    H1 7873   4.235   0.469   1.088 -1.6579 -1.5121 -0.2303
  530TMC3    H2 7874   4.201   0.205   1.421 -0.3634 -1.2255 -1.5916
  530TMC3    C7 7875   4.101   0.256   1.175  0.0935  0.2041  0.1106
  530TMC3    C8 7876   4.367   0.348   1.574  0.0114  0.2454  0.6291
  530TMC3    O1 7877   4.102   0.267   1.050 -0.7471 -0.1266 -0.1541
  530TMC3    O2 7878   4.383   0.431   1.661 -0.2620 -0.7374  0.0163
  531MPD2     C 7879   2.466   4.032  13.535  0.0820 -0.0909  0.1084
  531MPD2    C1 7880   2.357   3.981  13.588  0.0033  0.3312  0.6883
  531MPD2    C2 7881   2.275   3.892  13.512  0.2207  0.5728 -0.7809
  531MPD2    C3 7882   2.319   3.856  13.385 -0.4002  0.0295 -0.7088
  531MPD2    C4 7883   2.440   3.903  13.339  0.3187  0.3083 -0.2835
  531MPD2    C5 7884   2.516   3.992  13.413  0.0435 -0.4370  0.8034
  531MPD2     H 7885   2.181   3.854  13.548  0.5203 -0.7191 -1.3390
  531MPD2    H1 7886   2.485   3.867  13.247  0.3841 -0.5014  0.0606
  531MPD2    H2 7887   2.541   4.092  13.585 -0.4905  0.3988  0.3840
  531MPD2    H3 7888   2.614   4.028  13.387 -0.2849  0.7578  1.2189
  531MPD2     N 7889   2.233   3.773  13.309  0.1680 -0.0689 -0.6277
  531MPD2    H5 7890   2.145   3.749  13.352  2.5234 -2.1735  2.9964
  531MPD2    N1 7891   2.326   4.018  13.727  0.1349  0.0430  0.4772
  531MPD2    H7 7892   2.400   4.066  13.777 -0.1101  1.4333 -0.5020
  532TMC3    C1 7893   2.229   3.963  13.932  0.0762 -1.5539  0.6099
  532TMC3    C2 7894   2.124   3.887  13.980 -0.1408 -0.0766  0.0017
  532TMC3    C3 7895   2.154   3.786  14.065 -0.0436  0.3768 -0.4876
  532TMC3    C4 7896   2.358   3.952  13.977  0.2097 -0.1309 -0.3903
  532TMC3    C5 7897   2.378   3.849  14.064 -0.3347  0.7737  0.2603
  532TMC3    C6 7898   2.283   3.757  14.110  0.3135  0.1730  0.2921
  532TMC3     C 7899   2.215   3.972  13.789 -0.4549 -0.0343  0.5824
  532TMC3     O 7900   2.117   3.918  13.743  0.5704 -0.4285  0.1309
  532TMC3     H 7901   2.026   3.925  13.952  0.6097  1.1041 -1.0443
  532TMC3    H1 7902   2.445   4.009  13.946  0.5523 -1.0915 -1.1873
  532TMC3    H2 7903   2.305   3.671  14.172  0.9149  0.4831  0.5090
  532TMC3    C7 7904   2.519   3.806  14.072 -0.4040  0.3790  0.0675
  532TMC3    C8 7905   2.062   3.672  14.019  0.0286 -0.0954  0.2724
  532TMC3    O1 7906   2.567   3.799  14.183  0.1965  0.0526 -0.3698
  532TMC3    O2 7907   2.033   3.589  14.098  0.0366  0.0252 -0.0647
  533TMC3    C1 7908   3.307   0.616  14.517  0.5008  0.9422  0.6608
  533TMC3    C2 7909   3.415   0.695  14.520 -0.2372 -0.3274 -0.7013
  533TMC3    C3 7910   3.426   0.780  14.620  0.3178 -0.3716 -0.3105
  533TMC3    C4 7911   3.196   0.648  14.601  0.4728  0.2163 -0.0981
  533TMC3    C5 7912   3.217   0.731  14.709 -0.3240  0.2779 -0.3522
  533TMC3    C6 7913   3.334   0.810  14.714  0.0236  0.5178  0.3477
  533TMC3     C 7914   3.333   0.477  14.548  0.2330  0.0111  0.8003
  533TMC3     O 7915   3.401   0.449  14.646  0.1810  0.7232 -0.0110
  533TMC3     H 7916   3.511   0.658  14.485 -0.9058 -0.9562 -1.8898
  533TMC3    H1 7917   3.115   0.576  14.609  0.0740  0.8775  1.8830
  533TMC3    H2 7918   3.364   0.871  14.798  1.1423  0.3736  0.0490
  533TMC3    C7 7919   3.161   0.693  14.838 -0.0312 -0.0038 -0.7559
  533TMC3    C8 7920   3.550   0.844  14.641  0.2251 -0.4049  0.6949
  533TMC3    O1 7921   3.105   0.584  14.856  0.0006 -0.0192  0.3526
  533TMC3    O2 7922   3.619   0.815  14.742 -0.1569  0.1762  0.5159
  534MPD2     C 7923   1.603   0.361   1.948  0.4442  0.3701 -0.3398
  534MPD2    C1 7924   1.604   0.492   1.919 -0.9072  0.6114  0.2052
  534MPD2    C2 7925   1.482   0.559   1.882  0.0967  0.2286  0.1630
  534MPD2    C3 7926   1.360   0.491   1.896 -0.4208  0.0530 -0.2317
  534MPD2    C4 7927   1.362   0.364   1.958 -0.3373  0.5906 -0.8407
  534MPD2    C5 7928   1.482   0.304   1.976  0.5373  0.7446 -0.5615
  534MPD2     H 7929   1.492   0.664   1.857 -0.8327  0.3757  0.4324
  534MPD2    H1 7930   1.266   0.314   1.972 -0.5198  0.5609 -2.1614
  534MPD2    H2 7931   1.690   0.305   1.979 -0.2366 -1.4211 -1.6695
  534MPD2    H3 7932   1.481   0.203   2.014 -0.6484  0.4048 -1.4914
  534MPD2     N 7933   1.235   0.548   1.881  0.6164 -0.3153 -0.4735
  534MPD2    H5 7934   1.159   0.481   1.889 -0.7267  1.4921  1.5680
  534MPD2    N1 7935   1.726   0.561   1.890  0.5656  0.6131 -0.1126
  534MPD2    H7 7936   1.713   0.655   1.854  2.0134  0.9154  0.1445
  535TMC3    C1 7937   1.081   0.715   1.814  0.4219  0.4327  0.4503
  535TMC3    C2 7938   0.979   0.630   1.847 -0.5322 -0.2864 -0.6629
  535TMC3    C3 7939   0.851   0.677   1.828 -0.2419 -0.0081 -0.6933
  535TMC3    C4 7940   1.061   0.836   1.760 -0.4657 -0.1342  0.7132
  535TMC3    C5 7941   0.928   0.882   1.753  0.0413 -0.1548 -1.2029
  535TMC3    C6 7942   0.823   0.801   1.783 -0.1803 -0.1740 -0.0677
  535TMC3     C 7943   1.217   0.675   1.830 -0.3532 -0.5080 -0.1887
  535TMC3     O 7944   1.304   0.761   1.811 -0.0173  0.0370  0.0874
  535TMC3     H 7945   0.999   0.536   1.897  0.3907  1.5380  2.4239
  535TMC3    H1 7946   1.147   0.894   1.729  0.1600 -2.7940 -2.5554
  535TMC3    H2 7947   0.724   0.831   1.752  0.4689  1.5979 -0.4173
  535TMC3    C7 7948   0.909   0.977   1.645  0.2741  0.2851 -0.1021
  535TMC3    C8 7949   0.739   0.587   1.831 -0.1761  0.3713  0.0653
  535TMC3    O1 7950   0.981   0.970   1.547 -0.2377  0.6918 -0.2132
  535TMC3    O2 7951   0.648   0.608   1.751 -0.1618 -0.0756 -0.3434
  536MPD2     C 7952   0.303   4.371  16.116  0.5641  0.4140 -0.1942
  536MPD2    C1 7953   0.226   4.262  16.100 -0.0493  0.1892  0.0568
  536MPD2    C2 7954   0.180   4.227  15.972  0.2574  0.4020  0.2916
  536MPD2    C3 7955   0.195   4.319  15.869 -0.3184 -0.6387 -0.6943
  536MPD2    C4 7956   0.291   4.427  15.887  0.7472  0.5145 -0.6558
  536MPD2    C5 7957   0.343   4.448  16.010 -0.1133 -0.1691 -0.1068
  536MPD2     H 7958   0.121   4.136  15.966 -2.5117  2.4195 -2.9824
  536MPD2    H1 7959   0.312   4.500  15.810  0.7459  1.5870  0.3596
  536MPD2    H2 7960   0.346   4.396  16.212 -0.7272  0.6379  0.3252
  536MPD2    H3 7961   0.407   4.534  16.026 -1.7169  0.8718  0.7087
  536MPD2     N 7962   0.126   4.314  15.743  0.3949  0.4135  0.0280
  536MPD2    H5 7963   0.134   4.397  15.685 -0.5812  0.7463  0.3786
  536MPD2    N1 7964   0.194   4.185  16.216 -0.2557  0.8859  0.2099
  536MPD2    H7 7965   0.248   4.199  16.301 -1.3615 -1.5907  1.2990
  537TMC3    C1 7966   0.085   4.036  16.363 -0.5416 -0.3713  0.7283
  537TMC3    C2 7967   0.127   4.106  16.474  0.0299  0.3086 -0.2188
  537TMC3    C3 7968   0.070   4.070  16.596 -1.0303 -0.7586  0.2462
  537TMC3    C4 7969   0.003   3.930  16.377  0.4323 -0.4564 -0.0884
  537TMC3    C5 7970   4.701   3.884  16.503  0.4118 -0.4390  0.0770
  537TMC3    C6 7971   0.011   3.949  16.614  0.0871 -0.2916  0.6432
  537TMC3     C 7972   0.088   4.094  16.226  0.2858 -0.1248  0.7762
  537TMC3     O 7973   0.017   4.049  16.137  0.1785 -0.4208 -0.1896
  537TMC3     H 7974   0.193   4.191  16.466 -0.6766  0.9069  0.2922
  537TMC3    H1 7975   4.678   3.894  16.286  0.7495 -1.3103  0.0814
  537TMC3    H2 7976   4.687   3.931  16.711 -0.1937 -1.8723  0.2210
  537TMC3    C7 7977   4.589   3.797  16.517  0.2004  0.1510 -0.2715
  537TMC3    C8 7978   0.058   4.168  16.699  0.6501  0.1810 -0.0460
  537TMC3    O1 7979   4.513   3.792  16.424 -0.5124  0.5064  0.3458
  537TMC3    O2 7980   0.044   4.131  16.815  0.0373  0.5457 -0.1782
  538TMC3    C1 7981   1.124   2.796  11.057  0.0679 -0.2189 -1.1424
  538TMC3    C2 7982   1.209   2.700  11.030  0.5972 -0.4869 -0.1323
  538TMC3    C3 7983   1.200   2.629  10.915 -0.0832  0.2162  0.0804
  538TMC3    C4 7984   1.010   2.821  10.980 -0.5039 -0.0436  0.4091
  538TMC3    C5 7985   1.004   2.748  10.865 -0.0787  0.6989  0.0725
  538TMC3    C6 7986   1.091   2.649  10.830 -0.6308 -0.2233  0.3357
  538TMC3     C 7987   1.101   2.836  11.193  0.7446  0.6310  0.0766
  538TMC3     O 7988   0.985   2.852  11.226 -0.3640  0.1234 -0.2076
  538TMC3     H 7989   1.282   2.669  11.104 -0.4015  0.8595  1.4250
  538TMC3    H1 7990   0.921   2.875  11.009  0.7616 -0.3422  4.8632
  538TMC3    H2 7991   1.081   2.597  10.736  2.0820 -0.6490  0.2834
  538TMC3    C7 7992   0.882   2.777  10.800  0.3359 -0.4442  0.3186
  538TMC3    C8 7993   1.310   2.550  10.871 -0.4624  0.0089  0.0570
  538TMC3    O1 7994   0.832   2.686  10.732 -0.4563  0.4249  0.2476
  538TMC3    O2 7995   1.377   2.482  10.947  0.1268 -0.2690  0.3190
  539MPD2     C 7996   0.368   2.041  12.059  0.3883  0.1772 -0.5856
  539MPD2    C1 7997   0.434   2.074  11.941 -0.4612  0.8190  0.2622
  539MPD2    C2 7998   0.416   2.200  11.882  0.2699 -0.6301 -0.5602
  539MPD2    C3 7999   0.325   2.288  11.939  0.6483 -0.0821 -0.6154
  539MPD2    C4 8000   0.266   2.256  12.059  0.2590  0.2566  0.4695
  539MPD2    C5 8001   0.292   2.137  12.123 -0.4863  0.2814  0.7554
  539MPD2     H 8002   0.461   2.226  11.787 -1.0769  1.4841 -0.6388
  539MPD2    H1 8003   0.193   2.326  12.099  0.7749  1.3448 -0.4698
  539MPD2    H2 8004   0.389   1.949  12.112 -0.5230  0.6643  0.6124
  539MPD2    H3 8005   0.256   2.111  12.221 -1.3876 -0.3992  0.2445
  539MPD2     N 8006   0.285   2.411  11.879 -0.0126  0.2235  0.0034
  539MPD2    H5 8007   0.219   2.470  11.929  1.3964  0.1721  1.9183
  539MPD2    N1 8008   0.537   1.994  11.885  0.3792  0.3669  0.6834
  539MPD2    H7 8009   0.597   2.044  11.821  0.4908 -0.1871  0.3579
  540TMC3    C1 8010   0.304   2.599  11.736 -0.1501 -1.1044 -0.3199
  540TMC3    C2 8011   0.371   2.657  11.634  0.4770 -0.3094 -0.9660
  540TMC3    C3 8012   0.333   2.784  11.598  0.7508 -0.2374  0.5289
  540TMC3    C4 8013   0.201   2.661  11.805 -0.1043 -0.0459 -0.3316
  540TMC3    C5 8014   0.174   2.788  11.767  0.4716 -0.9438  0.3585
  540TMC3    C6 8015   0.239   2.854  11.664  0.3338 -0.1961  0.3797
  540TMC3     C 8016   0.340   2.459  11.761 -0.4131 -0.3000 -0.1120
  540TMC3     O 8017   0.410   2.404  11.680 -0.2868 -0.6891 -0.2240
  540TMC3     H 8018   0.449   2.610  11.576 -1.4142 -1.1684 -2.7999
  540TMC3    H1 8019   0.134   2.621  11.881 -0.3475 -0.2200 -0.6349
  540TMC3    H2 8020   0.211   2.949  11.619  0.8893  0.7959  2.1776
  540TMC3    C7 8021   0.066   2.854  11.832 -0.0582  0.2626 -0.6140
  540TMC3    C8 8022   0.357   2.824  11.462  0.2441 -0.7562  0.4060
  540TMC3    O1 8023   4.694   2.780  11.862 -0.2174 -0.2083  0.3298
  540TMC3    O2 8024   0.380   2.943  11.433  0.2172  0.2260  0.0591
  541MPD2     C 8025   4.032   3.950  13.138 -0.3726  0.3442 -0.7709
  541MPD2    C1 8026   4.039   3.835  13.059 -0.3356 -0.0364  0.1726
  541MPD2    C2 8027   4.019   3.846  12.919  0.0670  0.2184 -0.5674
  541MPD2    C3 8028   3.992   3.975  12.864  0.5708 -0.3789  0.7259
  541MPD2    C4 8029   3.981   4.083  12.959 -0.7060  0.2053 -0.5986
  541MPD2    C5 8030   4.020   4.070  13.088  0.9115  1.0621  0.1430
  541MPD2     H 8031   4.013   3.756  12.859 -0.5227 -0.8929  1.1471
  541MPD2    H1 8032   3.961   4.182  12.919 -0.4057  0.7405  0.5840
  541MPD2    H2 8033   4.062   3.942  13.242  3.0211  1.6912 -1.6225
  541MPD2    H3 8034   4.025   4.155  13.154  1.9802  0.2105  1.1661
  541MPD2     N 8035   3.966   4.003  12.726  0.3469 -0.4105 -0.2719
  541MPD2    H5 8036   3.944   4.096  12.690 -2.7663 -0.5190  1.3324
  541MPD2    N1 8037   4.068   3.710  13.125  1.0892  0.1596 -0.4481
  541MPD2    H7 8038   4.068   3.718  13.226 -1.4688  0.7368 -0.4868
  542TMC3    C1 8039   3.954   3.968  12.496  0.4859 -0.4965  0.0129
  542TMC3    C2 8040   3.994   3.896  12.382  0.3708  0.2700 -0.7876
  542TMC3    C3 8041   3.933   3.914  12.265  0.2259 -0.0674  0.2328
  542TMC3    C4 8042   3.855   4.059  12.486 -0.1455  0.3457 -0.1516
  542TMC3    C5 8043   3.809   4.087  12.364  0.2935 -0.1650 -0.2204
  542TMC3    C6 8044   3.841   4.014  12.253 -0.0247 -0.4813  0.3083
  542TMC3     C 8045   3.992   3.915  12.626 -0.2245 -0.6567  0.0280
  542TMC3     O 8046   4.028   3.798  12.630  0.3696  0.8761  0.1272
  542TMC3     H 8047   4.058   3.810  12.396  0.6355  0.0127 -3.4789
  542TMC3    H1 8048   3.799   4.104  12.567  1.0924  1.5982  0.0098
  542TMC3    H2 8049   3.808   4.042  12.153  2.0952 -0.8818 -0.5071
  542TMC3    C7 8050   3.733   4.213  12.362  0.3832 -0.2384 -0.0768
  542TMC3    C8 8051   3.957   3.832  12.148  0.3491 -0.2580  0.2839
  542TMC3    O1 8052   3.785   4.296  12.435  0.2139  0.2924 -0.2465
  542TMC3    O2 8053   3.866   3.825  12.063 -0.2276  0.7748  0.6360
  543TMC3    C1 8054   3.384   0.147  17.150  0.6769  0.0610  0.2101
  543TMC3    C2 8055   3.410   0.044  17.234 -0.0699 -0.6420 -0.4122
  543TMC3    C3 8056   3.316   0.014  17.330  0.2495  0.6210  0.1336
  543TMC3    C4 8057   3.276   0.227  17.144  0.2331 -0.0103 -0.4845
  543TMC3    C5 8058   3.183   0.190  17.244  0.7346 -0.2577 -0.1570
  543TMC3    C6 8059   3.198   0.090  17.338 -0.4954 -0.1374  0.4099
  543TMC3     C 8060   3.465   0.140  17.027 -0.1049  0.4401 -0.0706
  543TMC3     O 8061   3.529   0.040  17.001 -0.5448  0.2514 -0.0988
  543TMC3     H 8062   3.499   4.705  17.227  0.3495 -0.1131  0.4271
  543TMC3    H1 8063   3.255   0.305  17.072  1.5240 -0.0089 -0.8623
  543TMC3    H2 8064   3.116   0.058  17.401  0.1247 -0.2524  1.1628
  543TMC3    C7 8065   3.067   0.272  17.252 -0.5961  0.1110 -0.7877
  543TMC3    C8 8066   3.315   4.595  17.368  0.0678 -0.2047  0.4448
  543TMC3    O1 8067   3.064   0.382  17.194 -0.1444 -0.1100  0.2773
  543TMC3    O2 8068   3.366   4.526  17.281  0.2641  0.1180 -0.1263
  544MPD2     C 8069   3.185   4.139  17.575  0.5995  0.6766  0.5326
  544MPD2    C1 8070   3.282   4.168  17.485  0.2729 -0.2790 -0.2040
  544MPD2    C2 8071   3.307   4.302  17.449  0.5188  0.6208  0.3166
  544MPD2    C3 8072   3.237   4.413  17.510  0.4196  0.2917  0.7127
  544MPD2    C4 8073   3.151   4.376  17.613  0.2826  0.1202 -0.2978
  544MPD2    C5 8074   3.132   4.244  17.643 -0.0070  1.0381  0.4855
  544MPD2     H 8075   3.378   4.329  17.372  1.7174 -2.1017  0.4370
  544MPD2    H1 8076   3.105   4.449  17.679 -1.4623  0.4446 -1.8702
  544MPD2    H2 8077   3.169   4.041  17.619 -1.3726  0.5700 -0.4215
  544MPD2    H3 8078   3.061   4.222   0.032  1.3100 -2.4457  0.7088
  544MPD2     N 8079   3.251   4.549  17.483  0.0578 -0.5545  0.4184
  544MPD2    H5 8080   3.220   4.617  17.552  1.6287 -1.4966  2.0605
  544MPD2    N1 8081   3.356   4.062  17.422 -0.2734 -0.0107 -0.0458
  544MPD2    H7 8082   3.332   3.967  17.448 -1.2855  0.1461 -0.3740
  545TMC3    C1 8083   3.486   3.944  17.279  0.2266  0.3548 -0.4306
  545TMC3    C2 8084   3.562   3.939  17.165 -0.3696 -0.7104  1.3070
  545TMC3    C3 8085   3.573   3.815  17.101  0.1838  0.0089 -0.3605
  545TMC3    C4 8086   3.422   3.831  17.314 -1.0423  0.6945 -0.5239
  545TMC3    C5 8087   3.435   3.710  17.250  0.0468  0.3667  0.7148
  545TMC3    C6 8088   3.510   3.699  17.136  0.3446 -0.0690 -0.0672
  545TMC3     C 8089   3.445   4.074  17.320 -0.3016 -0.0160  0.7355
  545TMC3     O 8090   3.466   4.171  17.253 -0.3984  0.4209 -0.5720
  545TMC3     H 8091   3.607   4.035  17.139 -0.5313 -0.5998  1.4310
  545TMC3    H1 8092   3.376   3.815  17.411 -0.2879 -1.1364 -0.4622
  545TMC3    H2 8093   3.513   3.604  17.084 -1.6514 -1.3640  2.2259
  545TMC3    C7 8094   3.364   3.594  17.307  0.5260  0.3581 -1.3615
  545TMC3    C8 8095   3.647   3.804  16.978  0.4123  0.0963  0.2798
  545TMC3    O1 8096   3.275   3.617  17.390  1.0512 -0.6643  0.3856
  545TMC3    O2 8097   3.661   3.690  16.936  0.2998 -0.0302  0.0508
  546MPD2     C 8098   4.420   4.574  17.659 -0.7142  0.1250 -0.4162
  546MPD2    C1 8099   4.478   4.608  17.536  0.7888 -0.3837 -0.1282
  546MPD2    C2 8100   4.540   0.008  17.520 -0.7840  0.1212 -0.2288
  546MPD2    C3 8101   4.540   0.099  17.627 -0.0637  0.0370  0.6405
  546MPD2    C4 8102   4.487   0.061   0.062 -0.1182 -0.2934 -0.1542
  546MPD2    C5 8103   4.431   4.661   0.074 -0.1918  0.0544 -0.3065
  546MPD2     H 8104   4.577   0.044  17.424  1.6096 -0.2701  0.5434
  546MPD2    H1 8105   4.487   0.119   0.154 -0.3109  1.3860 -1.2157
  546MPD2    H2 8106   4.371   4.479  17.678  1.0341 -0.8088 -0.5744
  546MPD2    H3 8107   4.391   4.637   0.172 -0.6851 -1.1643 -0.8033
  546MPD2     N 8108   4.607   0.225  17.615  0.1071 -0.1376 -0.0958
  546MPD2    H5 8109   4.602   0.275   0.013  1.6288 -1.5161  0.7734
  546MPD2    N1 8110   4.471   4.507  17.434 -0.2858 -0.3647  0.7235
  546MPD2    H7 8111   4.445   4.415  17.468 -2.6782  0.3704  0.8896
  547TMC3    C1 8112   4.483   4.429  17.197  0.3560 -0.4492  0.5897
  547TMC3    C2 8113   4.455   4.448  17.067 -0.1810 -0.0211  0.5570
  547TMC3    C3 8114   4.476   4.346  16.982  0.2534  0.0654  0.1921
  547TMC3    C4 8115   4.537   4.309  17.239  0.7900  0.2326  0.6386
  547TMC3    C5 8116   4.569   4.208  17.148  0.2127 -0.2360  0.3393
  547TMC3    C6 8117   4.539   4.231  17.019 -0.1267  0.4119  1.2876
  547TMC3     C 8118   4.464   4.533  17.299  0.1302 -0.1334 -0.7059
  547TMC3     O 8119   4.472   4.646  17.257 -0.1101 -0.3686  0.1096
  547TMC3     H 8120   4.411   4.541  17.033 -0.0800 -0.7690 -1.6053
  547TMC3    H1 8121   4.576   4.298  17.339  0.8340  0.0933  0.6062
  547TMC3    H2 8122   4.547   4.151  16.946  1.3134  1.9011 -0.1946
  547TMC3    C7 8123   4.641   4.084  17.191 -0.2634 -0.3324 -0.2448
  547TMC3    C8 8124   4.409   4.351  16.857 -0.6748 -0.6608  0.6447
  547TMC3    O1 8125   4.620   4.043  17.301 -0.1912  0.2207  0.1418
  547TMC3    O2 8126   4.334   4.442  16.849  0.3953 -0.7828 -0.1675
  548MPD2     C 8127   4.362   0.922  12.157  0.2655  0.3026 -0.1640
  548MPD2    C1 8128   4.309   0.834  12.068  0.1898 -0.4663  0.0799
  548MPD2    C2 8129   4.395   0.729  12.027 -0.1172  0.0474 -0.9303
  548MPD2    C3 8130   4.521   0.710  12.092 -0.3225 -0.7760 -0.0194
  548MPD2    C4 8131   4.573   0.817  12.175  0.7463  0.8738 -0.3631
  548MPD2    C5 8132   4.487   0.916  12.208  0.3944 -0.2921 -0.5161
  548MPD2     H 8133   4.356   0.661  11.952  0.8654 -1.2803 -0.2460
  548MPD2    H1 8134   4.676   0.819  12.210  0.8356  0.1423 -0.5630
  548MPD2    H2 8135   4.299   1.000  12.199  1.3619  1.3202 -0.3781
  548MPD2    H3 8136   4.517   0.989  12.282 -0.4138 -1.6747  1.1626
  548MPD2     N 8137   4.582   0.585  12.080  0.1576 -0.1667 -0.1038
  548MPD2    H5 8138   4.531   0.524  12.016  1.0005  0.0268 -0.9649
  548MPD2    N1 8139   4.181   0.861  12.019 -0.6635  0.1609  0.4046
  548MPD2    H7 8140   4.130   0.943  12.049  1.1087  1.1656  0.6523
  549TMC3    C1 8141   3.967   0.811  11.933 -0.0589 -0.0247  0.2722
  549TMC3    C2 8142   3.927   0.936  11.918  0.6043  0.0532 -0.1972
  549TMC3    C3 8143   3.795   0.965  11.914 -0.1834  0.3214 -0.3820
  549TMC3    C4 8144   3.872   0.711  11.942  0.6510 -0.0987 -0.3269
  549TMC3    C5 8145   3.742   0.740  11.942 -0.2151  0.6696  0.8293
  549TMC3    C6 8146   3.697   0.870  11.918  0.5159 -0.2300  0.4000
  549TMC3     C 8147   4.104   0.776  11.950  0.0442  0.0763 -0.8455
  549TMC3     O 8148   4.136   0.675  11.896  0.8160 -0.3587  0.1505
  549TMC3     H 8149   4.009   1.007  11.926  3.0965 -2.5311 -2.6657
  549TMC3    H1 8150   3.919   0.619  11.974  2.3872  0.1729 -2.0759
  549TMC3    H2 8151   3.594   0.901  11.924  0.8559  1.0695 -0.3750
  549TMC3    C7 8152   3.653   0.663  12.020  0.1976  0.0582  0.2362
  549TMC3    C8 8153   3.737   1.097  11.934  0.8846 -0.0219  0.0862
  549TMC3    O1 8154   3.560   0.720  12.076 -0.0546  0.7556  0.0661
  549TMC3    O2 8155   3.628   1.112  11.882 -0.3644 -0.0908 -0.2303
  550TMC3    C1 8156   3.147   3.468  12.443  0.1086 -0.5228  0.4605
  550TMC3    C2 8157   3.030   3.455  12.519  0.1292 -0.4521  0.2271
  550TMC3    C3 8158   3.029   3.521  12.640 -0.7335  0.1744  0.3587
  550TMC3    C4 8159   3.250   3.544  12.495  0.6261  0.4898 -0.1864
  550TMC3    C5 8160   3.249   3.606  12.614 -0.2411  0.0845  0.1167
  550TMC3    C6 8161   3.137   3.590  12.690  0.1826 -0.4205  0.1237
  550TMC3     C 8162   3.163   3.424  12.308  0.8058 -0.1227 -0.2572
  550TMC3     O 8163   3.276   3.405  12.258 -0.2575 -0.3356 -0.4604
  550TMC3     H 8164   2.958   3.380  12.490 -0.0203  1.1278 -3.5771
  550TMC3    H1 8165   3.323   3.572  12.420  0.2371 -0.3354 -0.8768
  550TMC3    H2 8166   3.134   3.646  12.782  1.0963  0.0497 -0.1333
  550TMC3    C7 8167   3.274   3.746  12.585 -0.0138 -0.7156  0.2129
  550TMC3    C8 8168   2.909   3.573  12.687  0.4211  0.4545  0.2683
  550TMC3    O1 8169   3.374   3.786  12.528  0.6591 -0.4183  0.0215
  550TMC3    O2 8170   2.925   3.689  12.729  0.1294 -0.1291 -0.3017
  551TMC3    C1 8171   0.978   1.299  13.534 -0.0770  0.3271  0.2921
  551TMC3    C2 8172   1.084   1.339  13.460 -0.0833 -0.3058 -0.1572
  551TMC3    C3 8173   1.167   1.435  13.509  0.7141  0.9621 -0.4731
  551TMC3    C4 8174   0.945   1.361  13.652  0.2329 -0.5694  0.0533
  551TMC3    C5 8175   1.016   1.467  13.692 -0.3839  0.2350 -0.0023
  551TMC3    C6 8176   1.135   1.501  13.623  0.1916 -0.6404 -0.0191
  551TMC3     C 8177   0.881   1.225  13.456  0.0530  0.1317 -0.2486
  551TMC3     O 8178   0.910   1.161  13.355  0.2433 -0.1661  0.5064
  551TMC3     H 8179   1.098   1.305  13.359 -0.8380 -0.5971 -0.1643
  551TMC3    H1 8180   0.870   1.320  13.719 -0.6818  0.2101 -0.4828
  551TMC3    H2 8181   1.210   1.563  13.670  0.5257 -0.7659 -0.3824
  551TMC3    C7 8182   0.985   1.540  13.810 -0.5964 -0.3566  0.4474
  551TMC3    C8 8183   1.271   1.481  13.411  0.2169  0.2423 -0.2912
  551TMC3    O1 8184   0.944   1.478  13.904  0.0148 -0.1733  0.6999
  551TMC3    O2 8185   1.309   1.395  13.333  0.2922  0.4845  0.2467
  552MPD2     C 8186   2.247   3.281  14.459  0.4277  0.4108  0.2612
  552MPD2    C1 8187   2.322   3.305  14.342  0.3264  1.0588  0.1112
  552MPD2    C2 8188   2.456   3.331  14.351 -1.0295 -0.7610 -0.2038
  552MPD2    C3 8189   2.516   3.317  14.476 -0.2249 -0.5371  0.6414
  552MPD2    C4 8190   2.439   3.287  14.590 -0.5301 -0.1899  0.6373
  552MPD2    C5 8191   2.303   3.280  14.581 -0.2229  0.4878 -0.0764
  552MPD2     H 8192   2.514   3.332  14.260 -2.1989 -0.5783 -0.9560
  552MPD2    H1 8193   2.485   3.266  14.686  0.8432 -0.5052 -0.0879
  552MPD2    H2 8194   2.142   3.254  14.459  0.7022 -0.7063  2.1623
  552MPD2    H3 8195   2.244   3.258  14.669 -0.8615  0.1297 -0.5914
  552MPD2     N 8196   2.657   3.335  14.496  0.1821 -0.3838  0.2755
  552MPD2    H5 8197   2.705   3.311  14.582  0.8652 -3.3127 -0.9014
  552MPD2    N1 8198   2.253   3.298  14.214 -0.0995  0.0110  0.3523
  552MPD2    H7 8199   2.160   3.259  14.214  0.2152 -0.7375  0.5001
  553TMC3    C1 8200   2.233   3.304  13.982 -0.7651  0.2226  0.7686
  553TMC3    C2 8201   2.244   3.377  13.863 -0.0466 -0.2425 -1.0575
  553TMC3    C3 8202   2.235   3.316  13.743  0.6189 -0.5926 -0.3133
  553TMC3    C4 8203   2.208   3.174  13.973  0.2821 -0.1140 -0.1541
  553TMC3    C5 8204   2.213   3.102  13.854 -0.2538  0.0210 -0.3141
  553TMC3    C6 8205   2.234   3.177  13.739  0.7088 -0.5951  0.1194
  553TMC3     C 8206   2.296   3.361  14.098  0.5754 -0.6539  0.2272
  553TMC3     O 8207   2.387   3.441  14.078  0.2059  0.2615  0.0534
  553TMC3     H 8208   2.255   3.484  13.870 -0.2897 -0.3840  1.4235
  553TMC3    H1 8209   2.200   3.118  14.066  1.1510  0.0138 -0.0015
  553TMC3    H2 8210   2.237   3.123  13.646  0.2662  0.1180 -0.3049
  553TMC3    C7 8211   2.271   2.970  13.863  0.2232 -0.2309 -0.8082
  553TMC3    C8 8212   2.263   3.380  13.614  0.3023 -0.4055  0.1533
  553TMC3    O1 8213   2.240   2.904  13.961  0.0927  0.2795  0.4007
  553TMC3    O2 8214   2.317   3.486  13.632  0.5444 -0.1844  0.0554
  554TMC3    C1 8215   4.090   2.165  11.423  0.4452  0.4180  0.2586
  554TMC3    C2 8216   3.979   2.166  11.341  0.0150 -0.0038 -0.3540
  554TMC3    C3 8217   3.966   2.258  11.244  0.1724  0.3979  1.0288
  554TMC3    C4 8218   4.193   2.251  11.393 -0.7415 -0.1667 -0.0115
  554TMC3    C5 8219   4.177   2.339  11.295 -0.2956 -0.3850  0.0225
  554TMC3    C6 8220   4.063   2.343  11.217  0.0927  0.3240  0.4221
  554TMC3     C 8221   4.117   2.036  11.478 -0.6131  0.3718 -0.2485
  554TMC3     O 8222   4.072   1.947  11.409 -0.2308 -0.2157 -0.2749
  554TMC3     H 8223   3.905   2.092  11.369  2.1938 -1.8668  0.4176
  554TMC3    H1 8224   4.289   2.232  11.439 -1.6091 -1.6015  1.2311
  554TMC3    H2 8225   4.059   2.420  11.141  0.5340  1.0672  1.1422
  554TMC3    C7 8226   4.288   2.407  11.230  1.1046  0.4819  0.2378
  554TMC3    C8 8227   3.852   2.257  11.156 -0.0337  0.9482  0.2662
  554TMC3    O1 8228   4.277   2.407  11.106 -0.4132 -0.3543 -0.2283
  554TMC3    O2 8229   3.741   2.220  11.197 -0.2791 -0.0611 -0.3533
  555TMC3    C1 8230   3.751   1.767  14.977 -0.0751  0.3605  0.5285
  555TMC3    C2 8231   3.791   1.867  15.073  0.6679  0.2510  0.4921
  555TMC3    C3 8232   3.822   1.832  15.199 -0.4522  0.0947 -0.6790
  555TMC3    C4 8233   3.737   1.637  15.011 -0.2715 -0.2011  0.0968
  555TMC3    C5 8234   3.767   1.605  15.141  0.1569 -0.8434  0.6650
  555TMC3    C6 8235   3.810   1.698  15.237 -0.1064 -0.8508 -0.2951
  555TMC3     C 8236   3.750   1.813  14.841 -0.1766  0.5136 -0.0652
  555TMC3     O 8237   3.798   1.743  14.745 -0.0807 -0.5728  0.6064
  555TMC3     H 8238   3.828   1.964  15.040 -2.3267  0.5231 -2.0312
  555TMC3    H1 8239   3.698   1.577  14.930 -1.8588  4.1756 -2.4300
  555TMC3    H2 8240   3.827   1.656  15.335  0.5123  0.5100  0.1863
  555TMC3    C7 8241   3.751   1.464  15.184 -0.0981 -0.3596 -0.3877
  555TMC3    C8 8242   3.889   1.924  15.285  0.0533 -0.0419 -0.4788
  555TMC3    O1 8243   3.773   1.441  15.298 -0.0425 -0.0636  0.4665
  555TMC3    O2 8244   3.914   2.031  15.239 -0.2104 -0.2163  0.2421
  556MPD2     C 8245   1.297   3.481  10.241  0.8060  0.3085 -0.2902
  556MPD2    C1 8246   1.356   3.400  10.336  0.6060 -0.0613  0.3629
  556MPD2    C2 8247   1.397   3.277  10.295 -0.3020  0.0090  0.2278
  556MPD2    C3 8248   1.385   3.240  10.159  0.2685 -0.2215  0.0124
  556MPD2    C4 8249   1.326   3.328  10.065 -0.2975 -0.1395 -0.1612
  556MPD2    C5 8250   1.286   3.451  10.107 -0.3254 -0.1609 -0.0698
  556MPD2     H 8251   1.441   3.221  10.377  0.4175 -0.5982 -0.5781
  556MPD2    H1 8252   1.310   3.302   9.961  1.8019 -0.1494 -0.4728
  556MPD2    H2 8253   1.260   3.579  10.269  2.5012  0.6613  0.7219
  556MPD2    H3 8254   1.246   3.518  10.032 -2.8774  1.0113  2.3771
  556MPD2     N 8255   1.424   3.106  10.125  0.4275  0.2733 -0.0034
  556MPD2    H5 8256   1.454   3.048  10.203 -0.3198 -1.8521 -1.2972
  556MPD2    N1 8257   1.367   3.430  10.474 -0.1774  0.0054  0.0399
  556MPD2    H7 8258   1.420   3.366  10.532 -0.1782 -1.4571 -1.6068
  557TMC3    C1 8259   1.465   2.901  10.001 -0.3528 -0.0839 -0.1954
  557TMC3    C2 8260   1.416   2.809   9.913  0.1540  1.0100 -0.8444
  557TMC3    C3 8261   1.435   2.680   9.945 -0.3463  0.0905 -0.0833
  557TMC3    C4 8262   1.531   2.864  10.115  0.1916  0.0184  0.8222
  557TMC3    C5 8263   1.545   2.730  10.145 -0.4161 -0.9047 -0.0979
  557TMC3    C6 8264   1.495   2.635  10.062 -0.4200  0.4924 -0.3388
  557TMC3     C 8265   1.418   3.040  10.004 -0.2480  0.2478 -0.1610
  557TMC3     O 8266   1.350   3.075   9.903 -0.3801  0.2019  0.7474
  557TMC3     H 8267   1.354   2.843   9.831  1.0207 -0.7856 -2.2511
  557TMC3    H1 8268   1.588   2.941  10.166  3.4859  0.1615 -3.0612
  557TMC3    H2 8269   1.483   2.528  10.077 -1.5949  0.5265 -1.0154
  557TMC3    C7 8270   1.548   2.707  10.280  0.1223 -0.0033  0.2440
  557TMC3    C8 8271   1.341   2.597   9.880 -0.1593 -0.1131 -0.3609
  557TMC3    O1 8272   1.508   2.805  10.347  0.1482  0.6404  0.1501
  557TMC3    O2 8273   1.230   2.644   9.865  0.2886 -0.8685  0.2626
  558TMC3    C1 8274   4.182   1.487  10.322 -0.5077  0.7278 -0.5466
  558TMC3    C2 8275   4.062   1.460  10.387 -0.0826 -0.2561 -0.0057
  558TMC3    C3 8276   3.957   1.431  10.302 -0.1647 -0.1329 -0.1533
  558TMC3    C4 8277   4.191   1.504  10.186 -0.6845 -0.0878  0.0933
  558TMC3    C5 8278   4.083   1.473  10.115  0.7413 -0.1584  0.2558
  558TMC3    C6 8279   3.967   1.422  10.170 -0.6320 -0.2516  0.5160
  558TMC3     C 8280   4.315   1.482  10.391 -0.5839  0.2011  0.1333
  558TMC3     O 8281   4.413   1.528  10.334  0.1620 -0.6001  0.0443
  558TMC3     H 8282   4.051   1.466  10.494 -0.3492  2.8475 -0.1969
  558TMC3    H1 8283   4.280   1.546  10.140 -1.1092  1.1426  0.3850
  558TMC3    H2 8284   3.874   1.412  10.116 -0.6861  0.0525  0.5564
  558TMC3    C7 8285   4.121   1.430   9.977 -0.3421  0.5528 -0.2672
  558TMC3    C8 8286   3.838   1.366  10.351  0.2264  0.9807  0.5496
  558TMC3    O1 8287   4.227   1.465   9.933  0.1054  0.2835  0.6422
  558TMC3    O2 8288   3.731   1.365  10.292  0.0317 -0.1976  0.3102
  559MPD2     C 8289   4.203   1.830  10.489 -0.0774 -0.0964 -1.1330
  559MPD2    C1 8290   4.131   1.771  10.593  0.4439  0.3218 -0.3581
  559MPD2    C2 8291   4.204   1.735  10.701 -0.4063  0.4408 -0.1691
  559MPD2    C3 8292   4.336   1.763  10.718 -0.1942  0.0099 -0.4699
  559MPD2    C4 8293   4.406   1.825  10.620 -0.6782 -0.3481  0.6651
  559MPD2    C5 8294   4.336   1.863  10.504 -0.0202  0.1082 -0.4320
  559MPD2     H 8295   4.146   1.680  10.774 -0.1891 -1.4738 -1.4440
  559MPD2    H1 8296   4.513   1.841  10.616 -0.5160 -1.7294 -0.5284
  559MPD2    H2 8297   4.154   1.859  10.397  1.0369  1.2625 -1.3123
  559MPD2    H3 8298   4.390   1.909  10.421 -0.2609  0.5452 -0.3461
  559MPD2     N 8299   4.387   1.744  10.842 -0.7213 -0.1625  0.3867
  559MPD2    H5 8300   4.338   1.672  10.894 -2.4882  1.4826  0.9901
  559MPD2    N1 8301   3.990   1.740  10.586 -0.1874  0.0369  0.1289
  559MPD2    H7 8302   3.944   1.689  10.660 -1.9282  0.1941 -0.8390
  560TMC3    C1 8303   4.576   1.724  10.987  0.1564 -0.6977 -0.4686
  560TMC3    C2 8304   4.531   1.590  11.007  0.1783 -0.1515 -0.1326
  560TMC3    C3 8305   4.596   1.524  11.112 -0.0314  0.1614 -0.1608
  560TMC3    C4 8306   4.658   1.796  11.075  0.5416 -0.0179  0.4645
  560TMC3    C5 8307   4.717   1.718  11.174 -0.2626  0.1598  0.6134
  560TMC3    C6 8308   4.690   1.586  11.197  0.0610 -0.4583  0.1734
  560TMC3     C 8309   4.511   1.800  10.880  0.0808  0.6718  0.3873
  560TMC3     O 8310   4.555   1.911  10.853  0.3071  0.4384  0.4997
  560TMC3     H 8311   4.471   1.533  10.937  0.1287  0.0061 -0.2191
  560TMC3    H1 8312   4.685   1.899  11.057  0.4719  0.4540  3.0474
  560TMC3    H2 8313   0.019   1.525  11.271 -2.0038 -3.8591 -1.1866
  560TMC3    C7 8314   0.076   1.784  11.276  0.0601 -0.2785  1.0080
  560TMC3    C8 8315   4.558   1.387  11.122  0.2486 -0.2100  0.0587
  560TMC3    O1 8316   0.106   1.708  11.366 -0.2827  0.2509 -0.4695
  560TMC3    O2 8317   4.439   1.372  11.101 -0.0653  0.3757  0.5234
  561TMC3    C1 8318   2.225   0.622  11.610  0.5869  0.0325 -0.1356
  561TMC3    C2 8319   2.161   0.551  11.706 -0.3322  0.0393  0.2268
  561TMC3    C3 8320   2.104   0.630  11.802  0.4419  0.0032  0.1313
  561TMC3    C4 8321   2.224   0.760  11.597  0.6211 -0.0778 -0.6030
  561TMC3    C5 8322   2.145   0.835  11.687 -0.6490 -0.0317  0.2680
  561TMC3    C6 8323   2.087   0.771  11.792 -0.0252 -0.1109  0.2719
  561TMC3     C 8324   2.301   0.550  11.512  0.0017  0.1838  0.6299
  561TMC3     O 8325   2.258   0.442  11.480  0.1456 -0.5684  0.3918
  561TMC3     H 8326   2.181   0.446  11.726  2.2324  0.2115 -1.4485
  561TMC3    H1 8327   2.255   0.801  11.502  1.6887  1.4540  0.4083
  561TMC3    H2 8328   2.030   0.828  11.864 -2.4265  0.8829 -2.4100
  561TMC3    C7 8329   2.130   0.978  11.679  0.0036  0.0769 -1.0871
  561TMC3    C8 8330   2.040   0.550  11.911  0.2552  0.0132  1.2957
  561TMC3    O1 8331   2.038   1.029  11.739  0.1443 -0.6373  0.3776
  561TMC3    O2 8332   2.076   0.434  11.922  0.2376 -0.4203  0.5833
  562TMC3    C1 8333   3.225   2.308  16.321  0.0645 -0.3329 -0.0838
  562TMC3    C2 8334   3.131   2.380  16.251  0.6536  0.7397 -0.4251
  562TMC3    C3 8335   3.154   2.392  16.113  0.6484 -0.4030  0.0351
  562TMC3    C4 8336   3.334   2.254  16.270 -0.1238  0.4525 -0.4268
  562TMC3    C5 8337   3.356   2.270  16.131  0.5985 -0.0686  0.2987
  562TMC3    C6 8338   3.269   2.345  16.052 -0.7370  0.1499  0.2007
  562TMC3     C 8339   3.189   2.272  16.457 -0.1747 -1.4199 -0.4062
  562TMC3     O 8340   3.065   2.266  16.471  0.5478  0.6338  0.7767
  562TMC3     H 8341   3.039   2.405  16.301  0.6202  0.0572 -0.1484
  562TMC3    H1 8342   3.406   2.200  16.330  0.2380  2.4857  0.9599
  562TMC3    H2 8343   3.281   2.359  15.946 -0.0416 -0.4506  0.2011
  562TMC3    C7 8344   3.416   2.163  16.058  0.2274  0.5529 -0.5799
  562TMC3    C8 8345   3.044   2.447  16.042  0.3795  0.7598 -0.1178
  562TMC3    O1 8346   3.440   2.183  15.941 -0.1509 -0.0895  0.4619
  562TMC3    O2 8347   2.945   2.454  16.112  0.3013 -0.6983  0.4763
  563MPD2     C 8348   0.983   3.242  15.709 -0.1741  0.0766 -0.0768
  563MPD2    C1 8349   0.972   3.308  15.827  0.4127 -0.3149 -0.4484
  563MPD2    C2 8350   1.078   3.303  15.914 -0.6282 -0.2750  0.0359
  563MPD2    C3 8351   1.189   3.226  15.890 -0.0297 -0.1538  0.1564
  563MPD2    C4 8352   1.187   3.153  15.769  0.5431 -0.2638 -0.6365
  563MPD2    C5 8353   1.092   3.174  15.676 -0.1357  0.2096 -0.6957
  563MPD2     H 8354   1.078   3.362  16.005  0.7282 -2.1304  1.2206
  563MPD2    H1 8355   1.277   3.100  15.738  1.4830  0.8067  0.2945
  563MPD2    H2 8356   0.905   3.245  15.634  1.9158 -0.6698 -2.2907
  563MPD2    H3 8357   1.107   3.131  15.577 -0.9481  2.1352 -1.6383
  563MPD2     N 8358   1.296   3.219  15.986 -0.2135 -0.5661  0.0343
  563MPD2    H5 8359   1.288   3.278  16.068 -0.6383  0.6832 -0.8963
  563MPD2    N1 8360   0.858   3.391  15.853  0.5119  0.1554  0.3085
  563MPD2    H7 8361   0.783   3.393  15.784  0.6165 -0.2208  0.1821
  564TMC3    C1 8362   0.782   3.382  16.066 -0.0233 -0.6097  0.4246
  564TMC3    C2 8363   0.697   3.288  16.023  0.2851  0.6581  0.2781
  564TMC3    C3 8364   0.665   3.181  16.104 -0.2270 -0.1130 -0.2569
  564TMC3    C4 8365   0.863   3.365  16.175 -0.2454  0.5213 -0.7633
  564TMC3    C5 8366   0.846   3.245  16.244  0.3334  0.0141  0.5377
  564TMC3    C6 8367   0.741   3.158  16.213 -0.6925 -0.1550 -0.1820
  564TMC3     C 8368   0.845   3.475  15.968 -0.4582  0.4974 -0.9086
  564TMC3     O 8369   0.925   3.553  16.016  0.6627  0.3717 -0.5825
  564TMC3     H 8370   0.639   3.314  15.935  4.1667  0.6983 -2.2506
  564TMC3    H1 8371   0.932   3.440  16.211 -0.2947 -0.4095  1.2859
  564TMC3    H2 8372   0.722   3.070  16.272 -1.1008  0.2925  0.3597
  564TMC3    C7 8373   0.965   3.167  16.281 -0.6313  0.8323 -0.4123
  564TMC3    C8 8374   0.630   3.056  16.048  0.2618  0.3031 -0.7504
  564TMC3    O1 8375   1.075   3.215  16.312 -0.3267  0.7055  0.0033
  564TMC3    O2 8376   0.558   2.981  16.113 -0.2093 -0.4855  0.2836
  565TMC3    C1 8377   1.239   0.311   9.866  0.1304  0.3049  0.0775
  565TMC3    C2 8378   1.219   0.187   9.912 -0.1997  0.3046  0.3942
  565TMC3    C3 8379   1.099   0.129   9.888 -0.1294  0.6936  0.0371
  565TMC3    C4 8380   1.147   0.366   9.779 -0.3947 -0.3135 -0.5286
  565TMC3    C5 8381   1.031   0.303   9.753  0.5047 -0.0179 -0.4220
  565TMC3    C6 8382   1.001   0.182   9.809  0.3036  0.4278  0.0573
  565TMC3     C 8383   1.372   0.377   9.856 -0.3038  0.6065  0.7455
  565TMC3     O 8384   1.381   0.464   9.767 -0.0276 -0.1284 -0.1337
  565TMC3     H 8385   1.291   0.126   9.966 -0.9916  0.0244  1.1327
  565TMC3    H1 8386   1.167   0.468   9.748 -1.5224 -1.0789 -3.8291
  565TMC3    H2 8387   0.901   0.141   9.819 -0.6440  2.9282  0.6932
  565TMC3    C7 8388   0.937   0.383   9.674  0.4703 -0.1349  0.7109
  565TMC3    C8 8389   1.072   0.012   9.974 -0.1254  0.3329  0.1362
  565TMC3    O1 8390   0.980   0.482   9.613  0.7522  0.1213  0.1966
  565TMC3    O2 8391   1.121   0.003  10.083  0.3467 -0.3496 -0.5698
  566MPD2     C 8392   2.979   2.049  14.519 -0.1191  0.4978 -0.8126
  566MPD2    C1 8393   3.058   1.957  14.454  0.3933 -0.3151 -0.3719
  566MPD2    C2 8394   2.992   1.856  14.389 -0.8531  0.5702  0.2920
  566MPD2    C3 8395   2.851   1.850  14.375 -0.5496  0.0251 -0.5671
  566MPD2    C4 8396   2.776   1.942  14.432 -0.7804  0.3339 -0.1201
  566MPD2    C5 8397   2.844   2.046  14.499 -0.0516 -0.3082 -0.2125
  566MPD2     H 8398   3.052   1.782  14.337 -1.3229  0.9517 -0.8037
  566MPD2    H1 8399   2.668   1.947  14.422 -1.0329 -1.4016  1.5862
  566MPD2    H2 8400   3.023   2.127  14.581  0.3649 -2.8719  3.1130
  566MPD2    H3 8401   2.785   2.116  14.558 -1.0738 -1.5228  0.1919
  566MPD2     N 8402   2.786   1.755  14.293 -0.4572  0.6018  0.1156
  566MPD2    H5 8403   2.706   1.788  14.240  1.5225  1.6188 -2.2396
  566MPD2    N1 8404   3.201   1.952  14.449 -0.2856 -0.5034 -0.5849
  566MPD2    H7 8405   3.241   1.866  14.414  0.6004  1.0043 -3.2530
  567TMC3    C1 8406   3.400   2.018  14.392  0.0447  0.3473 -0.0870
  567TMC3    C2 8407   3.402   2.050  14.260  0.6297  0.6033 -0.0019
  567TMC3    C3 8408   3.481   1.967  14.180 -0.6407 -0.1113 -0.3200
  567TMC3    C4 8409   3.464   1.909  14.441 -0.0070 -0.1300  0.2319
  567TMC3    C5 8410   3.545   1.835  14.360 -0.1818  0.2793  0.4243
  567TMC3    C6 8411   3.557   1.866  14.227 -0.2118 -0.1657 -0.3921
  567TMC3     C 8412   3.282   2.062  14.469 -0.4442 -1.0619 -0.1059
  567TMC3     O 8413   3.262   2.178  14.496  0.9116 -0.0725  0.5977
  567TMC3     H 8414   3.341   2.134  14.229  0.0641 -0.0769 -0.7221
  567TMC3    H1 8415   3.449   1.887  14.546  2.6597 -0.2337  0.6015
  567TMC3    H2 8416   3.622   1.807  14.164 -0.2547 -0.9146  0.2599
  567TMC3    C7 8417   3.583   1.694  14.390  0.8037 -0.2153  0.1369
  567TMC3    C8 8418   3.488   2.000  14.037 -0.3533  0.3040  0.2854
  567TMC3    O1 8419   3.619   1.617  14.299 -0.6217 -0.2083  0.1300
  567TMC3    O2 8420   3.393   2.061  13.996  0.2075 -0.2877 -0.5356
  568MPD2     C 8421   1.136   1.771  16.554 -0.1038  0.7134  0.5667
  568MPD2    C1 8422   1.019   1.830  16.604  0.3563  0.5588  0.5892
  568MPD2    C2 8423   0.976   1.953  16.552  0.7557  0.0371 -0.1004
  568MPD2    C3 8424   1.025   1.998  16.432 -0.0428  0.2511  0.0752
  568MPD2    C4 8425   1.137   1.932  16.387  0.2422 -0.2852 -0.0691
  568MPD2    C5 8426   1.182   1.818  16.437  0.2259  0.5663 -0.2910
  568MPD2     H 8427   0.895   2.003  16.604 -1.2407 -0.4219 -2.7245
  568MPD2    H1 8428   1.193   1.967  16.302 -2.9268  0.7634 -1.7198
  568MPD2    H2 8429   1.177   1.680  16.596  2.1752  1.7903  0.7065
  568MPD2    H3 8430   1.270   1.766  16.401 -0.8791 -0.8657 -0.9502
  568MPD2     N 8431   0.970   2.116  16.368 -0.1804  0.2557  0.1372
  568MPD2    H5 8432   0.899   2.164  16.421  0.6703  2.2872 -0.5652
  568MPD2    N1 8433   0.964   1.764  16.718 -0.4324  0.4446 -0.0359
  568MPD2    H7 8434   0.995   1.671  16.745 -4.2092 -1.0991 -1.1039
  569TMC3    C1 8435   0.927   2.280  16.209 -0.2014  0.1451 -0.2974
  569TMC3    C2 8436   0.866   2.346  16.311  0.1124 -0.2410  0.4759
  569TMC3    C3 8437   0.750   2.409  16.286 -0.0329  0.1513  0.2966
  569TMC3    C4 8438   0.893   2.284  16.083 -0.2622 -0.1508 -0.4687
  569TMC3    C5 8439   0.777   2.366  16.052 -1.4387 -0.8035  0.4098
  569TMC3    C6 8440   0.704   2.424  16.154  0.3246  0.1037  0.0490
  569TMC3     C 8441   1.009   2.169  16.247  0.5218  0.1087  0.1419
  569TMC3     O 8442   1.077   2.118  16.157 -0.4915 -0.1498 -0.1472
  569TMC3     H 8443   0.910   2.341  16.410 -2.2408 -1.3081  1.4722
  569TMC3    H1 8444   0.956   2.247  16.003 -3.4390 -1.0560 -2.5797
  569TMC3    H2 8445   0.622   2.495  16.151 -0.4260 -0.7985 -0.7656
  569TMC3    C7 8446   0.800   2.452  15.938 -0.0467  0.2357  0.3786
  569TMC3    C8 8447   0.715   2.515  16.367  0.4273  0.2422  0.5883
  569TMC3    O1 8448   0.897   2.433  15.864 -0.6425  0.5685  0.0052
  569TMC3    O2 8449   0.597   2.532  16.387  0.4942 -0.4325  0.1310
  570TMC3    C1 8450   0.085   0.971  16.338  0.1612  0.6401 -0.2797
  570TMC3    C2 8451   0.139   0.982  16.215 -0.8369 -1.0828 -0.1862
  570TMC3    C3 8452   0.171   1.108  16.176 -0.3669  0.2271  0.3326
  570TMC3    C4 8453   0.050   1.078  16.416 -0.3748 -0.4923  0.0018
  570TMC3    C5 8454   0.091   1.198  16.374 -1.2268  0.5190  0.3697
  570TMC3    C6 8455   0.157   1.216  16.249 -0.6085 -0.0342 -0.6959
  570TMC3     C 8456   0.065   0.832  16.372  0.2100  0.1720 -0.5147
  570TMC3     O 8457   0.037   0.767  16.274 -0.1728 -0.4357  0.1040
  570TMC3     H 8458   0.168   0.893  16.161  1.1902 -2.0463  2.4623
  570TMC3    H1 8459   0.027   1.064  16.522  1.1469 -3.5185 -0.0483
  570TMC3    H2 8460   0.177   1.312  16.203 -0.3900  0.8893  1.3046
  570TMC3    C7 8461   0.097   1.302  16.472  0.4235  0.0477 -0.1805
  570TMC3    C8 8462   0.247   1.122  16.054  0.5781  0.4417  0.7057
  570TMC3    O1 8463   0.019   1.296  16.569 -0.3190 -0.0471  0.6882
  570TMC3    O2 8464   0.331   1.213  16.055 -0.0053  0.3666  0.3681
  571MPD2     C 8465   2.683   2.382  17.648 -0.0297  0.3144  0.2819
  571MPD2    C1 8466   2.673   2.448   0.083 -0.2028  0.0719  0.0228
  571MPD2    C2 8467   2.778   2.523   0.122  0.3278  0.6448  0.2656
  571MPD2    C3 8468   2.890   2.543   0.043  0.4479  0.3744  0.0755
  571MPD2    C4 8469   2.887   2.492  17.607  0.3314 -0.4245  0.0886
  571MPD2    C5 8470   2.788   2.407  17.561  0.4940  0.3781 -0.6375
  571MPD2     H 8471   2.774   2.559   0.224  2.8618  0.1369  0.5343
  571MPD2    H1 8472   2.962   2.517  17.533 -0.1793  1.0615  0.0680
  571MPD2    H2 8473   2.614   2.308  17.610 -0.6619  2.0482 -1.9414
  571MPD2    H3 8474   2.782   2.371  17.459  1.9352  2.5708 -1.4949
  571MPD2     N 8475   3.004   2.612   0.079  0.3185 -0.4039  0.3266
  571MPD2    H5 8476   3.069   2.641   0.006  0.0724 -0.7824 -0.0403
  571MPD2    N1 8477   2.559   2.427   0.160 -0.7320  0.7195 -0.1954
  571MPD2    H7 8478   2.504   2.347   0.132 -0.0025 -0.8019  2.6673
  572TMC3    C1 8479   3.163   2.705   0.234  0.0977  0.1629 -0.3108
  572TMC3    C2 8480   3.228   2.697   0.355 -0.2070  0.3670 -0.3365
  572TMC3    C3 8481   3.318   2.793   0.387 -0.1779 -0.2459 -0.3038
  572TMC3    C4 8482   3.187   2.803   0.139  0.1688 -0.2117 -0.6080
  572TMC3    C5 8483   3.283   2.898   0.176  0.5680 -0.1071 -0.1511
  572TMC3    C6 8484   3.344   2.897   0.305  0.0994 -0.6685  0.3693
  572TMC3     C 8485   3.049   2.625   0.213 -0.3730  0.5244 -0.0194
  572TMC3     O 8486   3.003   2.562   0.309 -0.9137  0.0916  0.1609
  572TMC3     H 8487   3.196   2.630   0.433  1.6874 -0.4548 -0.2594
  572TMC3    H1 8488   3.123   2.830   0.056 -1.8142 -0.4025  0.8552
  572TMC3    H2 8489   3.425   2.967   0.324 -0.7959 -0.7169  4.2455
  572TMC3    C7 8490   3.265   3.028   0.120 -0.1023 -0.2971  0.2124
  572TMC3    C8 8491   3.391   2.787   0.516 -0.0887  0.1624 -0.1834
  572TMC3    O1 8492   3.162   3.063   0.064 -0.0053 -0.2820 -0.7085
  572TMC3    O2 8493   3.453   2.889   0.546  0.1204 -0.3602  0.0053
  573MPD2     C 8494   3.577   2.427   0.548  0.8273 -0.4559  0.4862
  573MPD2    C1 8495   3.670   2.527   0.556  0.2368 -0.1050 -0.4602
  573MPD2    C2 8496   3.702   2.598   0.441 -0.6129 -0.0239  0.1420
  573MPD2    C3 8497   3.624   2.578   0.330  0.2965 -0.1082 -0.0747
  573MPD2    C4 8498   3.526   2.486   0.331  0.3467  0.7350  0.3202
  573MPD2    C5 8499   3.508   2.407   0.440 -0.4378  0.0317  0.3748
  573MPD2     H 8500   3.785   2.667   0.442  0.2476 -1.0557 -0.1710
  573MPD2    H1 8501   3.461   2.480   0.244  0.2586  0.2198  0.4222
  573MPD2    H2 8502   3.554   2.361   0.631 -2.1062 -0.0759 -0.0270
  573MPD2    H3 8503   3.433   2.329   0.433  0.3661 -0.5765 -1.4003
  573MPD2     N 8504   3.649   2.650   0.213 -0.1269  0.2255  0.0869
  573MPD2    H5 8505   3.585   2.635   0.136  0.8097 -2.1252 -0.2165
  573MPD2    N1 8506   3.745   2.538   0.674  0.0657 -0.2115  0.8858
  573MPD2    H7 8507   3.728   2.470   0.747  0.1537 -2.8057 -1.5275
  574TMC3    C1 8508   3.760   2.778   0.052 -0.6213 -0.6424  0.2395
  574TMC3    C2 8509   3.639   2.799  17.687  0.0513 -0.0189 -0.3423
  574TMC3    C3 8510   3.642   2.852  17.559 -0.1895  0.1452  0.3719
  574TMC3    C4 8511   3.878   2.814  17.673 -0.0413  0.1001  0.3161
  574TMC3    C5 8512   3.872   2.848  17.546 -0.0405 -0.2101  0.2695
  574TMC3    C6 8513   3.749   2.866  17.485  0.3022 -0.4338  0.2909
  574TMC3     C 8514   3.760   2.724   0.190  0.4210 -0.3185  0.2055
  574TMC3     O 8515   3.870   2.729   0.249 -0.1562  0.2182  0.2764
  574TMC3     H 8516   3.541   2.779   0.038  0.4740  0.9724  1.0824
  574TMC3    H1 8517   3.976   2.800   0.026 -0.8176  0.8255  2.3025
  574TMC3    H2 8518   3.737   2.884  17.379 -1.9066 -1.0348  0.4377
  574TMC3    C7 8519   3.979   2.917  17.470 -0.6257  0.3360  0.3336
  574TMC3    C8 8520   3.522   2.924  17.524  0.1287  0.1260 -0.3636
  574TMC3    O1 8521   3.965   2.928  17.350  0.6471  0.0284 -0.1151
  574TMC3    O2 8522   3.422   2.884  17.579  0.1633  1.3668  0.1672
  575TMC3    C1 8523   1.302   4.163  10.577 -0.1973  0.1102 -0.2087
  575TMC3    C2 8524   1.237   4.047  10.603 -0.9432  0.2616  0.4332
  575TMC3    C3 8525   1.113   4.027  10.545 -0.0467  0.4631 -0.3962
  575TMC3    C4 8526   1.254   4.270  10.508  0.0339  0.2169  0.3698
  575TMC3    C5 8527   1.122   4.247  10.458 -0.5713  1.0715 -0.6746
  575TMC3    C6 8528   1.060   4.123  10.465  0.2555  0.0248  0.3957
  575TMC3     C 8529   1.427   4.190  10.652 -0.3046 -0.5186  0.4688
  575TMC3     O 8530   1.414   4.138  10.765 -0.1666  0.1056  0.3152
  575TMC3     H 8531   1.285   3.963  10.651 -0.3639  0.7989  0.7825
  575TMC3    H1 8532   1.305   4.364  10.489 -0.0303  0.3822  0.9994
  575TMC3    H2 8533   0.960   4.114  10.423 -0.0849  2.9516  0.5415
  575TMC3    C7 8534   1.089   4.343  10.351  0.6290 -0.6374  0.6466
  575TMC3    C8 8535   1.056   3.897  10.558 -0.4010  0.0272 -0.1291
  575TMC3    O1 8536   1.154   4.448  10.339  0.1582  0.1651  0.3376
  575TMC3    O2 8537   0.971   3.862  10.482  0.9234 -0.3033 -0.7300
  576MPD2     C 8538   1.131   1.124  12.918  0.9035 -0.1662 -0.5871
  576MPD2    C1 8539   1.188   1.225  12.843 -0.3229  0.5613  0.1673
  576MPD2    C2 8540   1.159   1.356  12.880 -0.6586  0.7032 -0.3952
  576MPD2    C3 8541   1.093   1.388  12.997 -0.4192  0.2500  0.5778
  576MPD2    C4 8542   1.030   1.290  13.071  0.5674  0.4297  0.4088
  576MPD2    C5 8543   1.048   1.159  13.022  0.1415 -0.3573 -0.3359
  576MPD2     H 8544   1.200   1.434  12.817 -0.6825  0.2220 -1.0044
  576MPD2    H1 8545   0.966   1.302  13.158 -0.7858 -0.5248 -0.4533
  576MPD2    H2 8546   1.134   1.017  12.900 -1.3729 -0.5315  1.1589
  576MPD2    H3 8547   1.004   1.078  13.080 -1.9366  1.1100  0.1373
  576MPD2     N 8548   1.099   1.525  13.044  0.2672  0.2144  0.4465
  576MPD2    H5 8549   1.149   1.594  12.988  0.0762 -0.5199 -0.6334
  576MPD2    N1 8550   1.259   1.188  12.723 -0.3147 -0.0918 -0.0837
  576MPD2    H7 8551   1.265   1.260  12.651  3.1896  0.0763  0.3792
  577TMC3    C1 8552   1.344   1.047  12.543 -0.0401 -0.3566 -1.0601
  577TMC3    C2 8553   1.402   0.922  12.519 -0.6850  0.1479 -0.3588
  577TMC3    C3 8554   1.470   0.908  12.399  0.2469 -0.5426  0.0613
  577TMC3    C4 8555   1.336   1.146  12.446 -0.2440  0.0320  0.1615
  577TMC3    C5 8556   1.408   1.123  12.333 -0.2771 -0.2824 -0.2283
  577TMC3    C6 8557   1.474   1.008  12.303  0.4239  0.1941 -0.7759
  577TMC3     C 8558   1.299   1.060  12.683 -0.1242 -0.4717  0.2889
  577TMC3     O 8559   1.290   0.951  12.741 -0.5917 -0.5001  0.5355
  577TMC3     H 8560   1.385   0.840  12.588  4.0350 -0.6792 -0.1395
  577TMC3    H1 8561   1.300   1.246  12.464 -0.1126  0.0142  0.5183
  577TMC3    H2 8562   1.511   0.989  12.203  1.2131 -1.4309 -0.1800
  577TMC3    C7 8563   1.426   1.227  12.234  0.1097  0.1608 -0.3440
  577TMC3    C8 8564   1.519   0.777  12.372 -0.1297 -0.1507  0.3893
  577TMC3    O1 8565   1.534   1.221  12.178  0.0137  0.0699 -0.2466
  577TMC3    O2 8566   1.484   0.680  12.441  0.1679 -0.6168 -0.1295
  578MPD2     C 8567   4.705   0.777   1.197  0.1149  0.4822 -0.1580
  578MPD2    C1 8568   4.714   0.663   1.116  0.4359  0.1719 -0.8238
  578MPD2    C2 8569   4.716   0.541   1.181 -0.5525  0.0997 -0.0233
  578MPD2    C3 8570   4.717   0.528   1.321  0.0696  0.2437  0.3419
  578MPD2    C4 8571   0.007   0.645   1.398 -0.1067  0.7013 -0.1688
  578MPD2    C5 8572   4.716   0.766   1.336  0.4130  0.1158  0.3334
  578MPD2     H 8573   4.712   0.450   1.123  1.1819  1.1649 -1.8311
  578MPD2    H1 8574   0.013   0.639   1.506 -0.4220  1.4670 -0.1125
  578MPD2    H2 8575   4.698   0.876   1.154  0.6600  0.0571 -1.2387
  578MPD2    H3 8576   4.720   0.857   1.395 -0.2443  1.5033 -1.7648
  578MPD2     N 8577   0.014   0.397   1.374 -0.2599 -0.4893  0.2113
  578MPD2    H5 8578   0.033   0.325   1.305  0.0569 -0.4184  0.2220
  578MPD2    N1 8579   4.717   0.676   0.975  0.3223  0.0711 -0.3904
  578MPD2    H7 8580   4.711   0.774   0.950  1.4494  0.7942  2.1531
  579TMC3    C1 8581   0.049   0.226   1.553 -1.0064 -0.6977  0.1806
  579TMC3    C2 8582   0.111   0.220   1.677  0.0699  0.6575  0.0620
  579TMC3    C3 8583   0.186   0.108   1.698 -0.4026 -0.3592 -0.1372
  579TMC3    C4 8584   0.030   0.122   1.468 -0.2259  0.4960 -0.0077
  579TMC3    C5 8585   0.103   0.011   1.506 -0.4941 -0.0787 -0.0825
  579TMC3    C6 8586   0.176   4.720   1.618 -0.0148 -0.2416  0.6079
  579TMC3     C 8587   0.016   0.365   1.510  0.2155 -0.0076  0.4137
  579TMC3     O 8588   0.015   0.444   1.610  0.7652  0.2185  0.0088
  579TMC3     H 8589   0.114   0.304   1.745 -1.1118 -1.4987  2.7382
  579TMC3    H1 8590   4.707   0.144   1.371 -0.9124  2.0596  0.6848
  579TMC3    H2 8591   0.242   4.634   1.628  1.6939  1.0873  0.7234
  579TMC3    C7 8592   0.103   4.622   1.413  0.2858  0.2534  0.1505
  579TMC3    C8 8593   0.284   0.103   1.806  0.3199 -0.3840  0.0404
  579TMC3    O1 8594   0.202   4.549   1.420  0.3576  0.3224  0.3250
  579TMC3    O2 8595   0.327   4.718   1.836  0.0165 -1.1945  0.0983
  580TMC3    C1 8596   3.388   0.163  11.356  0.4220  0.3155  0.1092
  580TMC3    C2 8597   3.490   0.206  11.277  0.1590  0.3010 -0.7468
  580TMC3    C3 8598   3.603   0.133  11.248  0.3261  0.1105 -1.0492
  580TMC3    C4 8599   3.410   0.037  11.413  0.0998 -0.0180 -0.6305
  580TMC3    C5 8600   3.523   4.690  11.388 -0.4894 -0.2013 -0.1372
  580TMC3    C6 8601   3.615   0.009  11.297  0.1047  0.4589 -0.6075
  580TMC3     C 8602   3.329   0.260  11.455  0.4899 -0.8530  0.3087
  580TMC3     O 8603   3.321   0.215  11.567  0.1266  0.6025  0.0038
  580TMC3     H 8604   3.484   0.303  11.229 -1.6248  0.7118  0.2798
  580TMC3    H1 8605   3.348   4.722  11.493 -0.2574 -0.3846 -1.0820
  580TMC3    H2 8606   3.702   4.669  11.276  0.2059  1.1900 -2.3657
  580TMC3    C7 8607   3.574   4.610  11.504  0.2282  0.0029  0.1299
  580TMC3    C8 8608   3.725   0.200  11.276  0.8831 -0.2252  0.3710
  580TMC3    O1 8609   3.510   4.613  11.606 -0.0769 -0.4275 -0.5902
  580TMC3    O2 8610   3.830   0.145  11.253  0.5036 -0.1535  0.5696
  581MPD2     C 8611   1.876   4.588  14.743  0.5614  0.3763  0.6566
  581MPD2    C1 8612   1.846   4.666  14.847 -0.5942  0.0493 -0.0482
  581MPD2    C2 8613   1.727   0.012  14.857 -0.0015  0.7438 -0.1203
  581MPD2    C3 8614   1.624   4.710  14.772  0.0146 -0.4635 -0.3038
  581MPD2    C4 8615   1.652   4.623  14.663 -0.2015 -0.0699 -0.1439
  581MPD2    C5 8616   1.779   4.574  14.652 -0.0452  0.0036  0.3500
  581MPD2     H 8617   1.699   0.066  14.946  0.2483 -0.7815  0.8699
  581MPD2    H1 8618   1.574   4.590  14.596 -0.8207  2.2326 -0.5738
  581MPD2    H2 8619   1.971   4.536  14.734  0.7489  0.5959  1.3428
  581MPD2    H3 8620   1.799   4.506  14.570  0.6714 -0.1721  0.6654
  581MPD2     N 8621   1.496   0.038  14.796  0.2098 -0.2612  0.4890
  581MPD2    H5 8622   1.495   0.108  14.869 -1.0608  0.2675 -0.0567
  581MPD2    N1 8623   1.945   4.676  14.946 -0.2871  0.6079 -0.0899
  581MPD2    H7 8624   2.029   4.620  14.934 -1.1901 -0.3798 -1.8078
  582TMC3    C1 8625   2.046   4.721  15.148  0.1228  0.7286  0.6921
  582TMC3    C2 8626   2.020   0.033  15.280 -0.2965  0.2938  0.6310
  582TMC3    C3 8627   2.089   4.696  15.382  0.4884 -1.0509 -0.0167
  582TMC3    C4 8628   2.132   4.622  15.119  0.7913  0.4529 -0.1357
  582TMC3    C5 8629   2.192   4.560  15.224  0.4281  0.4831  0.0176
  582TMC3    C6 8630   2.180   4.598  15.353  0.0796  0.3999 -0.2623
  582TMC3     C 8631   1.947   0.040  15.053 -0.3880  0.5456 -0.4152
  582TMC3     O 8632   1.889   0.150  15.062 -0.7050  0.0196  0.6844
  582TMC3     H 8633   1.939   0.099  15.307 -1.3891 -2.0427  3.0708
  582TMC3    H1 8634   2.142   4.578  15.021 -0.1747 -0.4922  0.1910
  582TMC3    H2 8635   2.242   4.543  15.423 -0.8162 -0.7708 -0.3961
  582TMC3    C7 8636   2.232   4.424  15.215  0.2838  0.3628 -0.5585
  582TMC3    C8 8637   2.014   4.664  15.501  0.4331  0.2415 -0.2850
  582TMC3    O1 8638   2.349   4.400  15.254 -0.5695 -0.0863  0.4846
  582TMC3    O2 8639   1.893   4.659  15.493 -0.0321 -0.1705  0.3238
  583MPD2     C 8640   1.921   1.384  16.623 -0.3291 -0.2451  0.3125
  583MPD2    C1 8641   1.906   1.517  16.600 -0.1667  0.5774 -0.5662
  583MPD2    C2 8642   1.822   1.592  16.675  0.4333  0.3088  0.4131
  583MPD2    C3 8643   1.752   1.532  16.782  1.0174 -0.0267  0.5355
  583MPD2    C4 8644   1.758   1.396  16.804 -0.1332 -0.3358 -0.6872
  583MPD2    C5 8645   1.837   1.324  16.712  0.2864  0.0367  1.0092
  583MPD2     H 8646   1.817   1.699  16.661  2.2733  0.1460 -1.5525
  583MPD2    H1 8647   1.716   1.341  16.887  1.1512 -0.7350 -0.2972
  583MPD2    H2 8648   1.981   1.323  16.556 -1.5356  1.9918 -2.8256
  583MPD2    H3 8649   1.848   1.217  16.725  2.6411  0.6255  3.6667
  583MPD2     N 8650   1.685   1.621  16.867  0.6531 -0.1609  0.2275
  583MPD2    H5 8651   1.714   1.718  16.856 -0.8219  0.0442 -1.7233
  583MPD2    N1 8652   1.977   1.589  16.496  0.6905 -0.0468 -0.0658
  583MPD2    H7 8653   1.951   1.687  16.491 -0.2627 -0.2884  0.0975
  584TMC3    C1 8654   1.580   1.699  17.055 -0.7071  0.1804 -0.0582
  584TMC3    C2 8655   1.623   1.824  17.025 -0.0529 -0.1883  0.2282
  584TMC3    C3 8656   1.633   1.910  17.136  0.0831 -0.4360  0.0108
  584TMC3    C4 8657   1.552   1.663  17.184  0.9220 -1.3492  0.2297
  584TMC3    C5 8658   1.559   1.755  17.281  0.3014  0.8152  0.3240
  584TMC3    C6 8659   1.613   1.881  17.267  0.2816  0.0267  0.0943
  584TMC3     C 8660   1.606   1.581  16.975 -0.1406  0.4515  0.0228
  584TMC3     O 8661   1.542   1.476  16.982 -0.2312 -0.1280  0.4615
  584TMC3     H 8662   1.639   1.874  16.930  3.0016 -1.2947  0.1565
  584TMC3    H1 8663   1.536   1.559  17.210 -0.1219 -1.5228 -1.0841
  584TMC3    H2 8664   1.610   1.962  17.339 -1.3744  0.1244 -0.1028
  584TMC3    C7 8665   1.505   1.725  17.406 -0.5130  0.3397 -0.5212
  584TMC3    C8 8666   1.661   2.050  17.114 -0.0234  0.0275  0.2953
  584TMC3    O1 8667   1.539   1.801  17.496 -0.1057  0.2038 -0.0635
  584TMC3    O2 8668   1.609   2.097  17.014 -0.5064 -0.3991  0.5288
  585MPD2     C 8669   0.712   0.472   1.212  1.4607 -0.0655  0.2040
  585MPD2    C1 8670   0.702   0.507   1.081  0.2200 -0.3708  0.9146
  585MPD2    C2 8671   0.700   0.406   0.981 -0.4037  0.2690  0.0975
  585MPD2    C3 8672   0.727   0.271   1.013  0.8266 -0.1720  0.0216
  585MPD2    C4 8673   0.749   0.246   1.146  0.3103  0.1124  0.4119
  585MPD2    C5 8674   0.748   0.346   1.244 -0.0909 -0.5138  0.2690
  585MPD2     H 8675   0.688   0.430   0.876 -0.1212  0.1951  0.0488
  585MPD2    H1 8676   0.760   0.140   1.168  0.7787  0.0689 -0.0539
  585MPD2    H2 8677   0.715   0.550   1.288  0.9206 -0.1838  0.3500
  585MPD2    H3 8678   0.771   0.323   1.348  1.5590 -2.8092 -0.6014
  585MPD2     N 8679   0.740   0.168   0.913  0.1234  0.6840 -0.6610
  585MPD2    H5 8680   0.782   0.079   0.939 -1.5401  0.0087 -0.2771
  585MPD2    N1 8681   0.696   0.646   1.053  0.4023  0.5817  0.1929
  585MPD2    H7 8682   0.725   0.706   1.129  0.4110  0.9960 -0.1412
  586TMC3    C1 8683   0.731   0.075   0.691  0.4524  0.0977  0.5493
  586TMC3    C2 8684   0.782   4.678   0.723 -0.5035 -0.8941  0.5130
  586TMC3    C3 8685   0.813   4.582   0.636 -0.1153  0.2749 -0.2093
  586TMC3    C4 8686   0.693   0.098   0.559 -0.1637 -0.5115  0.2491
  586TMC3    C5 8687   0.718   4.717   0.469  0.6235 -0.0504 -0.1101
  586TMC3    C6 8688   0.769   4.598   0.509 -0.6840 -0.8095  0.6963
  586TMC3     C 8689   0.705   0.181   0.782  0.1143  0.1986  0.1724
  586TMC3     O 8690   0.648   0.270   0.724 -0.1617 -0.6181 -0.1893
  586TMC3     H 8691   0.814   4.661   0.825 -0.0610  1.3968  0.7601
  586TMC3    H1 8692   0.639   0.186   0.527  1.0754  0.1949  0.1259
  586TMC3    H2 8693   0.781   4.521   0.434  2.0926 -0.0764  0.4077
  586TMC3    C7 8694   0.647   0.002   0.344  0.4655 -0.4237 -0.0504
  586TMC3    C8 8695   0.877   4.467   0.691 -0.2683  0.3342  0.5984
  586TMC3    O1 8696   0.632   4.617   0.287  0.5661 -0.1065 -0.0540
  586TMC3    O2 8697   0.880   4.443   0.810 -0.1396  0.0892  0.2491
  587TMC3    C1 8698   3.327   3.897  16.239 -0.3145  0.8974  0.1465
  587TMC3    C2 8699   3.331   4.032  16.249  0.2242 -0.0387 -0.6891
  587TMC3    C3 8700   3.438   4.096  16.191 -0.4009 -0.5654 -0.4084
  587TMC3    C4 8701   3.421   3.824  16.164 -0.7549  0.4138  0.5959
  587TMC3    C5 8702   3.529   3.891  16.111  0.3785  0.1044  0.4273
  587TMC3    C6 8703   3.534   4.025  16.118 -0.5841  0.1965  0.0833
  587TMC3     C 8704   3.208   3.829  16.294 -0.2964 -0.4697  0.9785
  587TMC3     O 8705   3.182   3.714  16.252  0.1035  0.4099  0.2819
  587TMC3     H 8706   3.246   4.085  16.289  1.1482  0.1736  1.0009
  587TMC3    H1 8707   3.409   3.717  16.161  1.3786  0.1745  0.5199
  587TMC3    H2 8708   3.615   4.079  16.072  0.7806  0.7468  3.1437
  587TMC3    C7 8709   3.606   3.825  16.003  0.2296  0.2987  0.5122
  587TMC3    C8 8710   3.459   4.247  16.206  0.0521 -0.1481  0.3348
  587TMC3    O1 8711   3.710   3.878  15.967 -0.5569 -0.3313  0.2579
  587TMC3    O2 8712   3.557   4.301  16.150 -0.3058 -0.3972 -0.3166
  588TMC3    C1 8713   0.818   1.771   9.734 -1.3081 -0.5804 -0.6572
  588TMC3    C2 8714   0.754   1.645   9.733 -0.2419 -0.1213  0.6344
  588TMC3    C3 8715   0.822   1.537   9.787 -0.3073 -0.9065  0.0646
  588TMC3    C4 8716   0.952   1.776   9.773  0.0209 -0.2010 -0.1233
  588TMC3    C5 8717   1.014   1.663   9.815  0.6791 -0.6016  0.4096
  588TMC3    C6 8718   0.948   1.552   9.842  0.0300 -0.7721  0.2259
  588TMC3     C 8719   0.740   1.893   9.711 -0.0942 -0.3898 -0.3308
  588TMC3     O 8720   0.627   1.884   9.660  0.3319 -0.3746  0.4364
  588TMC3     H 8721   0.651   1.631   9.705 -0.2350 -1.4308  1.2325
  588TMC3    H1 8722   1.014   1.864   9.756  0.8531 -0.2409  2.8185
  588TMC3    H2 8723   1.006   1.478   9.896  0.3405 -1.5309 -1.1323
  588TMC3    C7 8724   1.130   1.689   9.893  0.1736  0.3886  0.0672
  588TMC3    C8 8725   0.746   1.411   9.808  0.3189 -0.3169 -0.5685
  588TMC3    O1 8726   1.231   1.618   9.882  0.0327  0.0248 -0.0314
  588TMC3    O2 8727   0.624   1.402   9.782  0.2563  0.4900 -0.3679
  589TMC3    C1 8728   4.325   3.454   1.360 -0.3388 -0.1290  0.5230
  589TMC3    C2 8729   4.409   3.454   1.469 -1.3305  0.0472  0.0724
  589TMC3    C3 8730   4.530   3.391   1.457 -0.4271 -0.4024 -0.4466
  589TMC3    C4 8731   4.358   3.381   1.249 -0.3507  0.4624  0.2531
  589TMC3    C5 8732   4.469   3.303   1.254  0.0764 -0.0853  0.5218
  589TMC3    C6 8733   4.557   3.305   1.353 -0.7257 -0.3337  0.3433
  589TMC3     C 8734   4.217   3.551   1.352  0.0604  0.1928  0.4081
  589TMC3     O 8735   4.130   3.518   1.273 -0.1169  0.1691  0.4290
  589TMC3     H 8736   4.395   3.512   1.559  1.7096  1.6394 -0.5103
  589TMC3    H1 8737   4.296   3.376   1.161  1.2432 -1.1171 -0.7800
  589TMC3    H2 8738   4.655   3.258   1.348  0.4860  2.0492  1.8784
  589TMC3    C7 8739   4.491   3.227   1.139 -0.1403 -0.5541 -0.0724
  589TMC3    C8 8740   4.627   3.409   1.564 -0.4642  0.6309  0.8429
  589TMC3    O1 8741   4.391   3.193   1.080 -0.1154 -0.4103  0.3464
  589TMC3    O2 8742   4.593   3.454   1.672 -0.1039 -0.1310  0.6101
  590MPD2     C 8743   4.540   2.463  16.735 -0.3240  1.2506 -0.9344
  590MPD2    C1 8744   4.500   2.521  16.616  0.5556  0.0380 -0.1521
  590MPD2    C2 8745   4.593   2.598  16.547 -0.5373  0.0013  0.0606
  590MPD2    C3 8746   0.005   2.608  16.582 -0.5561 -0.4929  0.5116
  590MPD2    C4 8747   0.041   2.549  16.702  0.5268 -0.3720  0.3470
  590MPD2    C5 8748   4.669   2.474  16.772  0.5656  0.3507 -0.8896
  590MPD2     H 8749   4.561   2.641  16.452  0.1736  0.7701  0.1714
  590MPD2    H1 8750   0.143   2.561  16.737  0.0191  1.7745  1.0665
  590MPD2    H2 8751   4.478   2.412  16.808  0.9531  3.7351  1.9036
  590MPD2    H3 8752   4.701   2.433  16.867 -0.4030 -0.1679 -0.7883
  590MPD2     N 8753   0.086   2.683  16.491 -0.0709 -0.3549 -0.2187
  590MPD2    H5 8754   0.041   2.721  16.409 -2.8148 -3.7539 -0.3087
  590MPD2    N1 8755   4.373   2.485  16.573 -0.0531 -0.4177 -0.3456
  590MPD2    H7 8756   4.315   2.426  16.631 -1.2037  1.8903  0.8633
  591TMC3    C1 8757   0.270   2.785  16.399 -0.1967  0.1883  0.0375
  591TMC3    C2 8758   0.331   2.723  16.293  0.0418  0.0145 -0.3800
  591TMC3    C3 8759   0.295   2.766  16.171 -0.7491 -0.0575  0.3024
  591TMC3    C4 8760   0.188   2.891  16.382  0.4567 -0.0893 -0.8515
  591TMC3    C5 8761   0.172   2.949  16.262  0.2494 -0.2296  0.0399
  591TMC3    C6 8762   0.223   2.882  16.151  0.0806 -0.8100 -0.2052
  591TMC3     C 8763   0.222   2.700  16.502  0.3002  0.2661  1.3719
  591TMC3     O 8764   0.299   2.667  16.593  0.5118 -0.4469 -0.3893
  591TMC3     H 8765   0.397   2.637  16.304  0.3120  0.1256 -1.1061
  591TMC3    H1 8766   0.138   2.935  16.468 -0.4076  1.4556 -2.1333
  591TMC3    H2 8767   0.165   2.891  16.060 -0.6976 -0.0459  0.3654
  591TMC3    C7 8768   0.084   3.058  16.247  0.3094 -0.2089 -0.8327
  591TMC3    C8 8769   0.364   2.720  16.059 -0.0844 -0.0668  0.2845
  591TMC3    O1 8770   0.013   3.086  16.343 -0.0735 -0.2273 -0.0735
  591TMC3    O2 8771   0.421   2.615  16.071 -0.2759  0.3934  0.4434
  592MPD2     C 8772   0.007   4.465  11.310 -0.2420  0.6858  0.7019
  592MPD2    C1 8773   4.683   4.529  11.417 -0.2917 -0.2907 -0.3787
  592MPD2    C2 8774   4.581   4.476  11.495  0.1894  0.2593  0.0946
  592MPD2    C3 8775   4.528   4.349  11.474 -0.0929 -0.3821 -0.0676
  592MPD2    C4 8776   4.577   4.283  11.365 -0.1579 -0.1385  0.4060
  592MPD2    C5 8777   4.673   4.342  11.287  0.1731  0.1127 -0.4990
  592MPD2     H 8778   4.558   4.518  11.592 -3.1579  1.9205 -1.4074
  592MPD2    H1 8779   4.532   4.187  11.339  1.1609 -0.7262  0.2971
  592MPD2    H2 8780   0.086   4.504  11.247 -2.3753  0.1463 -2.3367
  592MPD2    H3 8781   4.706   4.282  11.203  1.5780  0.4335 -0.1737
  592MPD2     N 8782   4.439   4.299  11.573  0.1483  0.4877 -0.4038
  592MPD2    H5 8783   4.417   4.369  11.643  0.8578 -1.5375  1.8260
  592MPD2    N1 8784   0.033   4.645  11.455  0.3259 -0.3238 -0.4099
  592MPD2    H7 8785   0.118   4.664  11.402 -0.3574 -2.1110 -2.1556
  593TMC3    C1 8786   0.105   0.105  11.581 -0.2610 -0.0246 -0.1858
  593TMC3    C2 8787   0.057   0.209  11.663 -0.2122  0.6578  0.5405
  593TMC3    C3 8788   0.141   0.312  11.680 -0.5618  0.0678  0.0594
  593TMC3    C4 8789   0.214   0.119  11.502 -0.3248 -0.2201  0.5465
  593TMC3    C5 8790   0.286   0.240  11.518  0.2257 -0.0193 -0.4205
  593TMC3    C6 8791   0.255   0.335  11.605  0.2263  0.6702 -1.0151
  593TMC3     C 8792   0.003   0.004  11.565  0.1778 -0.6950 -1.0234
  593TMC3     O 8793   4.615   0.011  11.612 -0.2628 -0.1455 -0.0682
  593TMC3     H 8794   4.686   0.199  11.716 -1.4167  0.9721 -1.5346
  593TMC3    H1 8795   0.243   0.047  11.427 -0.9955 -1.2313  1.2531
  593TMC3    H2 8796   0.309   0.426  11.627  1.4496 -0.4073  0.4775
  593TMC3    C7 8797   0.374   0.295  11.411 -0.4899 -0.0570 -0.7752
  593TMC3    C8 8798   0.070   0.431  11.727 -0.4312  0.1805  0.3602
  593TMC3    O1 8799   0.434   0.400  11.439 -0.8092  0.1900  0.0577
  593TMC3    O2 8800   4.670   0.439  11.698  0.7138 -0.1373 -0.1908
  594MPD2     C 8801   3.507   3.317  14.238 -0.6856  0.3414  1.1850
  594MPD2    C1 8802   3.428   3.425  14.260  0.2005  0.3098 -0.7399
  594MPD2    C2 8803   3.475   3.550  14.220 -0.5857 -0.8439  0.1972
  594MPD2    C3 8804   3.594   3.560  14.155 -0.0863  0.5756  0.6198
  594MPD2    C4 8805   3.662   3.444  14.116  0.4643  0.0076  0.9405
  594MPD2    C5 8806   3.613   3.325  14.160 -0.2464 -0.0588  0.5337
  594MPD2     H 8807   3.410   3.633  14.247  1.2695  0.4837  0.5232
  594MPD2    H1 8808   3.755   3.445  14.059 -0.4179  0.5861 -0.4880
  594MPD2    H2 8809   3.467   3.216  14.250  0.2184 -0.2286 -0.5727
  594MPD2    H3 8810   3.671   3.236  14.140 -0.5137  0.1887 -1.3127
  594MPD2     N 8811   3.654   3.687  14.140  0.9572  0.7158  0.1857
  594MPD2    H5 8812   3.591   3.765  14.159 -0.8517 -1.3383  2.5386
  594MPD2    N1 8813   3.307   3.393  14.325 -0.2361 -0.0924  0.3558
  594MPD2    H7 8814   3.291   3.293  14.339  0.9486 -0.4186 -0.6129
  595TMC3    C1 8815   4.007   3.990  14.146 -0.5262  0.2528  0.3969
  595TMC3    C2 8816   3.953   3.873  14.100  0.6949 -0.9001  0.4524
  595TMC3    C3 8817   3.820   3.849  14.132  0.3468  0.2708  0.0817
  595TMC3    C4 8818   3.945   4.069  14.238 -0.2547 -1.4989  0.1443
  595TMC3    C5 8819   3.829   4.030  14.289 -0.3911  0.1348  0.1907
  595TMC3    C6 8820   3.758   3.927  14.227 -0.1778  0.1506 -0.5446
  595TMC3     C 8821   4.148   4.008  14.121 -0.6626 -0.3478 -0.0263
  595TMC3     O 8822   4.213   4.060  14.207 -0.0274 -0.4209  0.2059
  595TMC3     H 8823   4.012   3.813  14.032  1.0958 -1.1981  1.0619
  595TMC3    H1 8824   4.005   4.153  14.270 -1.1687  0.2191 -2.6794
  595TMC3    H2 8825   3.667   3.887  14.271  0.9435 -2.2425 -0.3987
  595TMC3    C7 8826   3.784   4.077  14.417 -0.5065 -0.1106  0.1614
  595TMC3    C8 8827   3.778   3.716  14.098  0.0444 -0.0729 -0.0395
  595TMC3    O1 8828   3.668   4.062  14.452  0.1289  0.0576 -0.0876
  595TMC3    O2 8829   3.867   3.640  14.060  0.1576  0.6226 -0.5732
  596MPD2     C 8830   2.953   1.844  16.693  0.8993  0.2102 -0.5128
  596MPD2    C1 8831   2.820   1.847  16.651 -0.1585 -0.4346  0.4697
  596MPD2    C2 8832   2.793   1.803  16.523 -0.1488 -0.4774  0.3363
  596MPD2    C3 8833   2.887   1.745  16.438  0.7386  0.3500  0.0982
  596MPD2    C4 8834   3.011   1.742  16.487 -0.5249  0.0219  0.7285
  596MPD2    C5 8835   3.048   1.783  16.616 -0.1857  0.0726 -0.4482
  596MPD2     H 8836   2.690   1.811  16.488 -0.2518 -0.0391  0.7418
  596MPD2    H1 8837   3.086   1.707  16.417  0.0738  0.9444  0.9177
  596MPD2    H2 8838   2.980   1.881  16.791 -2.8149 -1.2417  1.0715
  596MPD2    H3 8839   3.150   1.780  16.652 -0.3821 -0.9975 -0.0054
  596MPD2     N 8840   2.840   1.699  16.313  0.8029 -0.2309 -0.2224
  596MPD2    H5 8841   2.754   1.737  16.275  2.2757  4.0466  0.7200
  596MPD2    N1 8842   2.712   1.899  16.735  0.1151  0.0975  0.2679
  596MPD2    H7 8843   2.620   1.913  16.693 -0.1426  0.1270  0.8407
  597TMC3    C1 8844   2.604   1.953  16.934 -0.6162  0.6940 -0.1592
  597TMC3    C2 8845   2.545   2.055  16.867  0.2007 -0.4561  0.6435
  597TMC3    C3 8846   2.413   2.078  16.896  0.6635 -0.0584 -0.2652
  597TMC3    C4 8847   2.549   1.880  17.033 -0.5116  0.1309 -0.4070
  597TMC3    C5 8848   2.414   1.907  17.060  0.2284  0.6224 -0.2091
  597TMC3    C6 8849   2.351   2.014  16.995 -0.1413 -0.1397  0.3273
  597TMC3     C 8850   2.730   1.920  16.873  0.2731  0.0794  0.2193
  597TMC3     O 8851   2.809   1.869  16.949  0.2375 -0.4273 -0.0546
  597TMC3     H 8852   2.593   2.110  16.787 -1.9196 -0.8630 -0.9097
  597TMC3    H1 8853   2.602   1.796  17.078  1.5926  1.9355  0.4916
  597TMC3    H2 8854   2.244   2.029  16.992  0.0706  1.0692 -0.6122
  597TMC3    C7 8855   2.339   1.814  17.145 -0.3934  0.0165 -0.1526
  597TMC3    C8 8856   2.373   2.220  16.872  0.3491 -0.9229 -0.1973
  597TMC3    O1 8857   2.236   1.865  17.189  0.3655 -0.0555  0.0054
  597TMC3    O2 8858   2.430   2.266  16.773  0.2581 -0.3064 -0.6970
  598TMC3    C1 8859   1.050   3.219  15.103 -0.4819 -0.2049 -0.0721
  598TMC3    C2 8860   0.978   3.107  15.129 -0.3760  0.1107  0.3743
  598TMC3    C3 8861   0.927   3.040  15.019  0.2032  0.2839 -0.2888
  598TMC3    C4 8862   1.070   3.280  14.978  0.4265 -0.6336 -0.0618
  598TMC3    C5 8863   1.020   3.211  14.873  0.7039  0.5794 -0.2758
  598TMC3    C6 8864   0.948   3.089  14.891  1.0335 -0.2932 -1.1426
  598TMC3     C 8865   1.063   3.302  15.224 -0.4157  0.3082 -0.1842
  598TMC3     O 8866   1.060   3.236  15.323 -0.3397 -1.2067  0.1516
  598TMC3     H 8867   0.983   3.053  15.223 -0.0417 -0.1418  0.2129
  598TMC3    H1 8868   1.141   3.362  14.983 -1.0610  0.5765  0.9821
  598TMC3    H2 8869   0.903   3.033  14.810 -2.1047  0.0978  0.3095
  598TMC3    C7 8870   1.052   3.246  14.739 -0.2105 -0.3707  0.2947
  598TMC3    C8 8871   0.833   2.935  15.052 -0.6011 -1.0566  0.2060
  598TMC3    O1 8872   1.059   3.156  14.656 -0.2626  0.0674 -0.6232
  598TMC3    O2 8873   0.828   2.892  15.167  0.2058 -0.2453 -0.6372
  599MPD2     C 8874   0.561   0.285  15.607  0.5203 -0.2298  0.0395
  599MPD2    C1 8875   0.652   0.314  15.712  0.6144  0.2508  0.1131
  599MPD2    C2 8876   0.612   0.400  15.809  0.2026 -0.0090 -0.3972
  599MPD2    C3 8877   0.486   0.464  15.806 -0.5148  0.1245  0.1245
  599MPD2    C4 8878   0.396   0.432  15.705 -0.4002  0.3524 -0.2013
  599MPD2    C5 8879   0.440   0.354  15.602  0.0213 -0.2836 -0.1217
  599MPD2     H 8880   0.674   0.416  15.896 -2.1416  2.8427  0.7552
  599MPD2    H1 8881   0.293   0.466  15.704 -0.5235  0.0048  0.7653
  599MPD2    H2 8882   0.587   0.217  15.527  1.4609 -1.3484  1.2813
  599MPD2    H3 8883   0.369   0.337  15.521  0.2732 -0.1341 -0.3761
  599MPD2     N 8884   0.444   0.544  15.911 -0.8106 -0.1534  0.2564
  599MPD2    H5 8885   0.346   0.564  15.927 -1.1947 -2.6250  0.9433
  599MPD2    N1 8886   0.779   0.255  15.726 -0.1710 -0.4644  0.4924
  599MPD2    H7 8887   0.833   0.286  15.807  0.8729 -1.9834  0.3745
  600TMC3    C1 8888   0.443   0.601  16.138  0.2068 -0.6010  0.4133
  600TMC3    C2 8889   0.362   0.497  16.180  0.5372 -0.0035 -0.3259
  600TMC3    C3 8890   0.319   0.496  16.314  0.5416  0.2017  0.1193
  600TMC3    C4 8891   0.476   0.707  16.218  0.1814  0.3488  0.3084
  600TMC3    C5 8892   0.423   0.709  16.344 -1.2500  0.2454 -0.3729
  600TMC3    C6 8893   0.360   0.602  16.398 -0.4743  0.3751 -0.0323
  600TMC3     C 8894   0.521   0.590  16.011 -0.2802  0.0207 -0.6941
  600TMC3     O 8895   0.644   0.596  16.033  0.5476  0.1719  0.0357
  600TMC3     H 8896   0.351   0.408  16.119  2.4920  1.7520 -3.2552
  600TMC3    H1 8897   0.550   0.773  16.173  0.7561 -0.8689 -0.5570
  600TMC3    H2 8898   0.334   0.591  16.503  0.2008  1.9973  0.3026
  600TMC3    C7 8899   0.429   0.830  16.421  0.4569 -0.3195  0.1864
  600TMC3    C8 8900   0.314   0.374  16.386  0.6620  0.4110  0.4434
  600TMC3    O1 8901   0.373   0.821  16.532  0.1686 -0.1732 -0.2557
  600TMC3    O2 8902   0.374   0.374  16.491  0.1898 -0.3899 -0.3127
  601MPD2     C 8903   3.392   3.527   0.135  0.2630  0.2151 -0.4224
  601MPD2    C1 8904   3.277   3.461   0.085 -0.5217 -0.2916  0.5095
  601MPD2    C2 8905   3.278   3.320   0.095  0.4221  0.3383  0.0842
  601MPD2    C3 8906   3.380   3.245   0.146  0.4746  0.2271 -0.1524
  601MPD2    C4 8907   3.487   3.317   0.196 -0.3370  0.2173 -0.0572
  601MPD2    C5 8908   3.491   3.458   0.198  0.1028 -0.7145  0.8074
  601MPD2     H 8909   3.186   3.276   0.058 -0.6253  2.3733  0.2842
  601MPD2    H1 8910   3.569   3.268   0.247 -1.9121  1.1999  3.3821
  601MPD2    H2 8911   3.399   3.635   0.121  2.2715  0.1366 -0.0886
  601MPD2    H3 8912   3.584   3.505   0.226  0.8731  0.0095 -2.9315
  601MPD2     N 8913   3.373   3.104   0.147 -0.6787 -0.3946 -0.4264
  601MPD2    H5 8914   3.460   3.058   0.172 -2.6689 -2.3965  2.9324
  601MPD2    N1 8915   3.172   3.526   0.019 -0.0385 -0.0622 -0.0566
  601MPD2    H7 8916   3.106   3.460  17.669  0.2952 -0.6108  0.2884
  602TMC3    C1 8917   3.035   3.694  17.614  0.4205 -0.3007 -0.2133
  602TMC3    C2 8918   2.982   3.819  17.639 -0.3508 -0.1173 -0.1310
  602TMC3    C3 8919   2.907   3.882  17.545 -0.3186 -0.1763  0.1439
  602TMC3    C4 8920   2.996   3.621  17.509  0.2153 -0.5818  0.2568
  602TMC3    C5 8921   2.917   3.685  17.418  0.3469  0.9467  0.3562
  602TMC3    C6 8922   2.870   3.815  17.434  0.1101 -0.8413 -0.3185
  602TMC3     C 8923   3.150   3.656   0.000 -0.3780 -0.2478  0.1447
  602TMC3     O 8924   3.201   3.745   0.067 -0.7141  0.0843  0.0831
  602TMC3     H 8925   2.999   3.863   0.045  1.3771 -0.1256 -0.4418
  602TMC3    H1 8926   3.037   3.525  17.482  0.4337 -1.0815  2.3441
  602TMC3    H2 8927   2.792   3.852  17.369  2.3335 -0.4037 -2.7459
  602TMC3    C7 8928   2.892   3.610  17.294 -0.1608  0.6368 -0.3880
  602TMC3    C8 8929   2.827   3.992  17.590  0.3229  0.0074 -0.2518
  602TMC3    O1 8930   2.973   3.522  17.275  0.8441 -0.1698 -0.8117
  602TMC3    O2 8931   2.789   3.995   0.013  0.6025 -0.0158  0.5814
  603TMC3    C1 8932   0.856   3.987  10.821  0.3750  0.0355  0.4425
  603TMC3    C2 8933   0.934   3.969  10.933  0.7137 -0.1835 -0.1700
  603TMC3    C3 8934   0.997   4.075  10.988 -0.4072 -0.3228 -0.3756
  603TMC3    C4 8935   0.851   4.107  10.756 -0.0390  0.2400  0.6441
  603TMC3    C5 8936   0.924   4.207  10.809 -0.4720  0.7946  0.8805
  603TMC3    C6 8937   0.979   4.201  10.936  0.3401 -0.0342  0.5412
  603TMC3     C 8938   0.754   3.892  10.791 -0.7058 -0.2961  0.0528
  603TMC3     O 8939   0.703   3.899  10.680  0.8871 -0.2065 -0.4667
  603TMC3     H 8940   0.955   3.872  10.976  0.4900 -0.3385 -0.4064
  603TMC3    H1 8941   0.804   4.109  10.658  0.1709  1.5327  0.5752
  603TMC3    H2 8942   1.053   4.275  10.966  2.7677 -2.4247  0.4793
  603TMC3    C7 8943   0.931   4.334  10.731 -0.0677 -0.0299  0.7935
  603TMC3    C8 8944   1.047   4.038  11.115  0.1034  0.6555 -0.3591
  603TMC3    O1 8945   1.010   4.422  10.766  0.5437 -0.3395  0.1454
  603TMC3    O2 8946   1.112   3.932  11.126 -0.1377  0.2111 -0.0370
  604MPD2     C 8947   2.132   2.861  16.267  0.3871 -0.3927 -0.6650
  604MPD2    C1 8948   2.036   2.759  16.267  0.0797 -0.6376  0.5423
  604MPD2    C2 8949   2.038   2.664  16.168  0.2184 -0.2497 -0.1034
  604MPD2    C3 8950   2.129   2.678  16.066  0.0308  0.4973 -0.1407
  604MPD2    C4 8951   2.219   2.780  16.060 -0.8912  0.1431  0.2943
  604MPD2    C5 8952   2.220   2.872  16.164  0.1652 -0.4523  0.9153
  604MPD2     H 8953   1.961   2.588  16.163  0.0256  0.0186 -1.2631
  604MPD2    H1 8954   2.292   2.791  15.980 -0.1528 -1.7838  0.6835
  604MPD2    H2 8955   2.134   2.938  16.343  0.4653 -0.3089 -0.7536
  604MPD2    H3 8956   2.296   2.949  16.157  1.6974 -2.0116  0.7852
  604MPD2     N 8957   2.131   2.580  15.962  0.0298 -0.8743  0.3276
  604MPD2    H5 8958   2.053   2.516  15.957 -0.4493 -0.1463 -1.6957
  604MPD2    N1 8959   1.927   2.758  16.366  0.2194  0.0481  0.5410
  604MPD2    H7 8960   1.925   2.826  16.442 -1.9742 -1.1231  1.5212
  605TMC3    C1 8961   1.733   2.690  16.479 -0.2096 -0.3020 -0.0887
  605TMC3    C2 8962   1.788   2.769  16.575 -0.0809  0.3209  0.0352
  605TMC3    C3 8963   1.700   2.857  16.643 -0.2385  0.1757  0.3401
  605TMC3    C4 8964   1.601   2.705  16.440 -0.1059 -0.6803 -0.0990
  605TMC3    C5 8965   1.514   2.784  16.514 -0.0888 -0.1912 -0.2825
  605TMC3    C6 8966   1.561   2.863  16.621  0.4964 -0.0035  0.1490
  605TMC3     C 8967   1.822   2.675  16.365 -0.8118 -0.7897 -0.2707
  605TMC3     O 8968   1.788   2.592  16.283 -0.0344 -0.1256 -0.4091
  605TMC3     H 8969   1.891   2.758  16.605 -0.0700 -1.3445 -0.5799
  605TMC3    H1 8970   1.565   2.643  16.359  1.5065 -0.8046 -0.7053
  605TMC3    H2 8971   1.491   2.934  16.666  0.4532 -1.1060  1.8096
  605TMC3    C7 8972   1.377   2.810  16.469  0.3473  0.2855  0.3674
  605TMC3    C8 8973   1.773   2.962  16.718 -0.1155  0.2478  0.2178
  605TMC3    O1 8974   1.306   2.879  16.539  0.3670 -0.1681  1.0129
  605TMC3    O2 8975   1.892   2.938  16.739  0.1419 -0.0555 -0.2520
  606TMC3    C1 8976   3.202   0.584  17.445  0.1292 -0.5334 -0.6395
  606TMC3    C2 8977   3.329   0.576  17.499 -0.0156 -0.7918 -0.4754
  606TMC3    C3 8978   3.342   0.498  17.606 -0.0141  0.9829 -0.6213
  606TMC3    C4 8979   3.097   0.516  17.496 -0.2305 -0.5103 -0.0001
  606TMC3    C5 8980   3.118   0.437  17.604 -0.0516  0.1906 -0.1007
  606TMC3    C6 8981   3.240   0.432  17.668 -0.6952  0.4675 -0.3600
  606TMC3     C 8982   3.188   0.659  17.321 -0.0261 -0.1293  0.3229
  606TMC3     O 8983   3.283   0.676  17.248 -0.0558 -0.4896  0.4100
  606TMC3     H 8984   3.414   0.617  17.445 -0.0213 -1.9478 -1.3571
  606TMC3    H1 8985   3.006   0.491  17.442 -0.8676 -0.3383  0.9801
  606TMC3    H2 8986   3.258   0.377   0.068 -0.7217 -0.9240 -1.2013
  606TMC3    C7 8987   3.010   0.379  17.681 -0.5291 -0.2022 -0.2894
  606TMC3    C8 8988   3.474   0.527  17.671  0.0222  0.3164 -0.1401
  606TMC3    O1 8989   3.041   0.284   0.056  0.3056 -0.0428  0.3616
  606TMC3    O2 8990   3.543   0.624  17.643  0.0646 -0.0855 -0.0743
  607MPD2     C 8991   4.620   4.033  11.830 -0.0325 -0.1612 -0.4338
  607MPD2    C1 8992   4.704   4.087  11.922 -0.2649  0.3334  0.2445
  607MPD2    C2 8993   0.026   4.003  12.020  0.4373  0.3790 -0.2385
  607MPD2    C3 8994   4.708   3.872  12.037  0.4001 -0.2516 -0.2202
  607MPD2    C4 8995   4.611   3.820  11.945  0.3458  0.0099  0.1776
  607MPD2    C5 8996   4.567   3.908  11.854 -0.1270 -0.2155  0.2951
  607MPD2     H 8997   0.110   4.044  12.076  0.6542 -0.4602  0.0461
  607MPD2    H1 8998   4.586   3.715  11.946  1.6006 -0.2852  0.3846
  607MPD2    H2 8999   4.595   4.091  11.743  0.3277  0.4958 -0.1041
  607MPD2    H3 9000   4.502   3.868  11.776 -0.1309  1.2054 -0.4232
  607MPD2     N 9001   0.044   3.792  12.140  0.3333 -0.5318 -0.3073
  607MPD2    H5 9002   0.116   3.840  12.194 -2.2942  0.4817  2.2979
  607MPD2    N1 9003   0.023   4.219  11.932 -0.3691 -0.7854 -0.0787
  607MPD2    H7 9004   0.072   4.237  12.019  0.1837 -0.0737 -0.5337
  608TMC3    C1 9005   0.037   4.449  11.892  0.2243  1.1966  0.0216
  608TMC3    C2 9006   0.055   4.457  12.028  0.2596  0.5790 -0.2098
  608TMC3    C3 9007   0.168   4.520  12.082  0.0652 -0.6296 -0.9487
  608TMC3    C4 9008   0.123   4.511  11.811  0.7981  0.3812 -0.5315
  608TMC3    C5 9009   0.233   4.572  11.867  0.4709 -0.2941 -0.1241
  608TMC3    C6 9010   0.256   4.580  11.998 -0.3196 -0.3198 -0.1900
  608TMC3     C 9011   0.002   4.325  11.844 -0.1353 -0.9079 -0.7713
  608TMC3     O 9012   4.697   4.312  11.725 -0.8464 -0.2272  0.0746
  608TMC3     H 9013   4.718   4.400  12.099 -1.0591  0.5796 -1.3066
  608TMC3    H1 9014   0.112   4.496  11.704  0.9458 -0.5235 -0.4111
  608TMC3    H2 9015   0.357   4.597  12.035 -0.3654  0.9424 -0.6482
  608TMC3    C7 9016   0.343   4.601  11.779  0.8427 -0.3142 -0.0157
  608TMC3    C8 9017   0.198   4.492  12.227 -0.4622  0.8587  0.4963
  608TMC3    O1 9018   0.336   4.573  11.662  0.7003 -0.1893  0.1673
  608TMC3    O2 9019   0.167   4.582  12.304 -0.0984  0.2250 -0.0806
  609TMC3    C1 9020   3.092   2.047   9.116 -0.7721 -0.5179  0.2834
  609TMC3    C2 9021   3.093   1.949   9.014 -0.1532 -0.3331  0.6158
  609TMC3    C3 9022   3.204   1.873   9.012  0.7676  0.3112  0.4510
  609TMC3    C4 9023   3.200   2.066   9.195 -0.6413 -0.1856 -0.1399
  609TMC3    C5 9024   3.310   1.986   9.182 -0.1800 -0.6083  0.5804
  609TMC3    C6 9025   3.315   1.894   9.089  0.4141  0.3709  0.0476
  609TMC3     C 9026   2.969   2.123   9.152 -0.4676 -0.2661  0.7810
  609TMC3     O 9027   2.990   2.214   9.232  0.1959  0.2456  0.7202
  609TMC3     H 9028   3.010   1.925   8.949  1.2255  0.0165 -1.2580
  609TMC3    H1 9029   3.199   2.131   9.282 -0.9280  0.6367 -0.7639
  609TMC3    H2 9030   3.399   1.826   9.078 -0.0706 -0.0669 -0.9598
  609TMC3    C7 9031   3.436   2.006   9.266 -0.2665 -0.4927 -0.1031
  609TMC3    C8 9032   3.184   1.737   8.963 -0.1190 -0.0308 -0.5195
  609TMC3    O1 9033   3.415   2.080   9.361  0.3073  0.3585  0.4304
  609TMC3    O2 9034   3.075   1.681   8.987  0.0851 -0.1582  0.6950
  610TMC3    C1 9035   0.577   4.196  12.539  0.1681  0.1875 -0.5281
  610TMC3    C2 9036   0.571   4.211  12.403  0.3698  0.6829  0.6059
  610TMC3    C3 9037   0.627   4.118  12.322  0.0912 -0.3918  0.2154
  610TMC3    C4 9038   0.628   4.083  12.597  0.4266 -0.7268 -0.4682
  610TMC3    C5 9039   0.694   3.999  12.511  0.6085  0.5992  0.8089
  610TMC3    C6 9040   0.699   4.013  12.376  0.2674 -0.5635  0.3465
  610TMC3     C 9041   0.506   4.291  12.633  0.1504 -0.5220 -0.4783
  610TMC3     O 9042   0.478   4.245  12.747 -0.0559  0.1542  0.2099
  610TMC3     H 9043   0.525   4.298  12.358 -0.9394 -0.1211  0.4012
  610TMC3    H1 9044   0.616   4.050  12.699 -2.3912  1.7776  0.0177
  610TMC3    H2 9045   0.742   3.927  12.324  0.3177  0.8399 -1.9351
  610TMC3    C7 9046   0.815   3.950  12.573  0.4779 -0.0148  0.1998
  610TMC3    C8 9047   0.621   4.135  12.180  0.7156 -0.4169 -0.7919
  610TMC3    O1 9048   0.872   3.853  12.523  0.3311  0.4306  0.3553
  610TMC3    O2 9049   0.547   4.225  12.139  0.8799  0.0506  0.4072
  611MPD2     C 9050   0.214   3.778  10.157  1.1931  0.0545  0.4955
  611MPD2    C1 9051   0.120   3.879  10.139  0.0909 -0.6397  0.5142
  611MPD2    C2 9052   0.165   4.004  10.099  0.1348  0.9242  0.3073
  611MPD2    C3 9053   0.296   4.027  10.063  0.3700 -0.3212  0.3907
  611MPD2    C4 9054   0.393   3.927  10.089 -0.2982  0.5048  0.5917
  611MPD2    C5 9055   0.346   3.813  10.140 -0.4066 -0.1055 -0.0250
  611MPD2     H 9056   0.087   4.077  10.084 -1.4632 -0.9431 -0.5473
  611MPD2    H1 9057   0.496   3.946  10.062 -1.8940  2.1601 -4.3030
  611MPD2    H2 9058   0.178   3.678  10.180  0.8405  0.3912  1.4153
  611MPD2    H3 9059   0.417   3.732  10.147 -1.6289 -1.0762  1.0168
  611MPD2     N 9060   0.339   4.152  10.013  0.6785 -0.7825  0.8992
  611MPD2    H5 9061   0.437   4.177  10.028  0.4418  0.7852 -0.1268
  611MPD2    N1 9062   4.697   3.849  10.163  0.0281 -0.0076  0.0634
  611MPD2    H7 9063   4.666   3.759  10.199  0.3796 -0.1439  0.0253
  612TMC3    C1 9064   0.326   4.389   9.969 -1.3137  0.4812  0.0486
  612TMC3    C2 9065   0.444   4.415  10.035 -0.0283 -0.1760  0.3457
  612TMC3    C3 9066   0.483   4.542  10.032  0.4302 -0.2525  1.2055
  612TMC3    C4 9067   0.247   4.485   9.916  0.5087  0.4680  0.2218
  612TMC3    C5 9068   0.295   4.613   9.911 -0.3363 -0.1389 -0.1765
  612TMC3    C6 9069   0.414   4.640   9.965  0.1019 -0.2168  0.1879
  612TMC3     C 9070   0.261   4.257   9.982  0.2044  0.0642 -0.5493
  612TMC3     O 9071   0.148   4.248   9.935 -0.4366 -0.1628 -0.5593
  612TMC3     H 9072   0.469   4.332  10.101  0.8407 -0.0835  0.1245
  612TMC3    H1 9073   0.155   4.459   9.865  0.3622  0.5485  0.4466
  612TMC3    H2 9074   0.461   0.014   9.949 -0.4098 -0.4658 -2.8086
  612TMC3    C7 9075   0.215   0.003   9.861 -0.2259  0.0385 -0.0607
  612TMC3    C8 9076   0.583   4.591  10.131 -0.1195 -0.1233  0.8339
  612TMC3    O1 9077   0.268   0.112   9.856  0.2628 -0.6136  0.5422
  612TMC3    O2 9078   0.604   4.712  10.110 -0.0012  0.5448 -0.2475
  613MPD2     C 9079   3.529   1.866  16.618  0.1384  0.5385  0.3553
  613MPD2    C1 9080   3.627   1.778  16.572  0.1657 -0.4041 -0.2157
  613MPD2    C2 9081   3.620   1.639  16.600 -0.2840  0.3237  0.7193
  613MPD2    C3 9082   3.509   1.594  16.672 -0.5237 -0.0359 -0.3085
  613MPD2    C4 9083   3.418   1.680  16.718 -0.8161 -0.3669  0.1995
  613MPD2    C5 9084   3.424   1.816  16.698  0.5632 -0.6919 -0.3448
  613MPD2     H 9085   3.708   1.576  16.588 -0.0183  1.0526 -1.1615
  613MPD2    H1 9086   3.332   1.649  16.776  1.2941 -1.4130  2.8138
  613MPD2    H2 9087   3.523   1.972  16.599  1.0112  0.2029 -1.8703
  613MPD2    H3 9088   3.344   1.877  16.738 -0.4681  0.2785 -3.8335
  613MPD2     N 9089   3.485   1.455  16.706 -0.0101 -0.7063  0.0343
  613MPD2    H5 9090   3.421   1.441  16.783 -0.8001 -0.2809 -0.5445
  613MPD2    N1 9091   3.739   1.806  16.492  0.6522 -0.4567  0.0631
  613MPD2    H7 9092   3.809   1.738  16.466 -1.5235 -2.6679 -0.0557
  614TMC3    C1 9093   3.876   1.904  16.346 -0.1966  0.3415 -0.2141
  614TMC3    C2 9094   3.960   1.797  16.367  0.0785  0.2734  0.0997
  614TMC3    C3 9095   4.020   1.728  16.265 -0.3511  0.1575 -0.1808
  614TMC3    C4 9096   3.858   1.944  16.215  0.3717 -1.0595  0.2078
  614TMC3    C5 9097   3.919   1.875  16.114  0.7437 -0.5660  0.4396
  614TMC3    C6 9098   4.002   1.769  16.135  0.4271  0.2735  0.2250
  614TMC3     C 9099   3.770   1.924  16.440 -0.3550  0.3504  0.0651
  614TMC3     O 9100   3.721   2.034  16.447 -0.2131 -0.3202 -0.0514
  614TMC3     H 9101   3.982   1.764  16.468  1.0012 -3.3970 -1.2851
  614TMC3    H1 9102   3.791   2.027  16.194  1.3885 -0.3618 -0.2762
  614TMC3    H2 9103   4.040   1.717  16.048 -1.0726  1.4622 -1.1572
  614TMC3    C7 9104   3.947   1.961  16.002 -0.6665 -0.0954  0.3971
  614TMC3    C8 9105   4.009   1.586  16.282 -0.2937 -0.1787 -0.0397
  614TMC3    O1 9106   3.950   2.083  16.026  0.0081 -0.9771 -0.3003
  614TMC3    O2 9107   3.936   1.547  16.370 -0.7409 -0.1927 -0.3890
  615MPD2     C 9108   3.152   2.969  16.241 -0.1261 -0.1478 -0.2680
  615MPD2    C1 9109   3.211   2.990  16.117  0.4912  0.3552  0.5278
  615MPD2    C2 9110   3.148   2.949  15.999  0.2472  0.1567  0.3818
  615MPD2    C3 9111   3.018   2.909  15.994 -0.3083  0.8387  0.0206
  615MPD2    C4 9112   2.952   2.917  16.115  0.4269  0.0551 -0.6155
  615MPD2    C5 9113   3.017   2.937  16.232 -0.0088 -0.0954  0.2134
  615MPD2     H 9114   3.194   2.963  15.902 -0.7156  0.4280 -0.0347
  615MPD2    H1 9115   2.847   2.893  16.118  0.4318  0.0414 -0.5601
  615MPD2    H2 9116   3.206   2.986  16.333  1.8731 -0.2896 -1.4201
  615MPD2    H3 9117   2.957   2.927  16.321 -0.4125 -0.0083 -0.0452
  615MPD2     N 9118   2.947   2.862  15.878 -0.3697  0.1752  0.0650
  615MPD2    H5 9119   2.846   2.855  15.886 -0.2489  1.2670  2.8998
  615MPD2    N1 9120   3.343   3.037  16.124 -0.2619  0.4184  0.1477
  615MPD2    H7 9121   3.372   3.055  16.219 -0.0696 -0.7647  0.3006
  616TMC3    C1 9122   3.560   3.094  16.055  0.1037  0.2773  0.1033
  616TMC3    C2 9123   3.602   3.081  16.183  0.2126  0.0235  0.8257
  616TMC3    C3 9124   3.726   3.117  16.218 -0.2507  0.5316  0.2087
  616TMC3    C4 9125   3.640   3.147  15.956  0.3566 -0.1185  0.3116
  616TMC3    C5 9126   3.763   3.183  15.997  0.5346 -0.1542 -0.5605
  616TMC3    C6 9127   3.808   3.161  16.126  0.4603  0.1923  0.1024
  616TMC3     C 9128   3.428   3.073  16.020 -0.5590  0.0240  0.0136
  616TMC3     O 9129   3.400   3.093  15.902 -0.1036 -0.0344  0.8926
  616TMC3     H 9130   3.541   3.035  16.260  3.0082 -0.3031  2.8641
  616TMC3    H1 9131   3.608   3.172  15.855  1.7386  1.2300  0.2036
  616TMC3    H2 9132   3.901   3.215  16.145  0.3239  0.0975  1.0539
  616TMC3    C7 9133   3.863   3.242  15.909 -0.0221  0.6145  0.3359
  616TMC3    C8 9134   3.761   3.122  16.359  0.5120  0.1622  0.2834
  616TMC3    O1 9135   3.951   3.318  15.953  0.0857 -0.0801 -0.2365
  616TMC3    O2 9136   3.670   3.102  16.435 -0.4595  0.3265  0.7454
  617MPD2     C 9137   1.524   1.560  14.031 -0.2562 -0.7671  0.3118
  617MPD2    C1 9138   1.501   1.496  14.151  0.1408  0.3301  0.2805
  617MPD2    C2 9139   1.379   1.436  14.175 -0.3995  0.2539  0.4077
  617MPD2    C3 9140   1.288   1.420  14.071 -0.3089 -0.0012 -0.2641
  617MPD2    C4 9141   1.317   1.481  13.942  0.3485  0.5891 -0.0377
  617MPD2    C5 9142   1.434   1.557  13.924  0.3488  0.3463  0.5255
  617MPD2     H 9143   1.362   1.397  14.274 -1.8859  0.3416  0.1933
  617MPD2    H1 9144   1.245   1.465  13.862 -2.3559 -0.1585  2.5406
  617MPD2    H2 9145   1.608   1.624  14.008  1.8479 -3.5494  0.2584
  617MPD2    H3 9146   1.461   1.607  13.832  1.5021  0.9952  1.2192
  617MPD2     N 9147   1.162   1.354  14.088  0.1832  0.0630 -0.2287
  617MPD2    H5 9148   1.084   1.382  14.030  0.0093  0.0231 -0.0131
  617MPD2    N1 9149   1.596   1.501  14.260  0.4641 -0.6265 -0.3294
  617MPD2    H7 9150   1.584   1.449  14.346  0.1187 -1.2593 -0.7602
  618TMC3    C1 9151   1.792   1.579  14.382  0.6479  0.0237  0.0387
  618TMC3    C2 9152   1.810   1.450  14.421  0.5731 -0.1580  0.0767
  618TMC3    C3 9153   1.929   1.405  14.462  0.1496  0.2735 -0.4785
  618TMC3    C4 9154   1.892   1.670  14.387  1.0456 -0.2325  0.3281
  618TMC3    C5 9155   2.013   1.619  14.427  0.1137 -0.0800  0.6741
  618TMC3    C6 9156   2.038   1.485  14.463 -0.1131  0.5658 -0.1976
  618TMC3     C 9157   1.693   1.591  14.270  0.3787  0.2310 -0.2518
  618TMC3     O 9158   1.712   1.693  14.202  0.2815 -0.3412 -0.3410
  618TMC3     H 9159   1.733   1.374  14.415  0.1946  0.1514  0.9804
  618TMC3    H1 9160   1.881   1.775  14.362  3.0720 -0.0212  0.3168
  618TMC3    H2 9161   2.131   1.447  14.502 -0.8759  0.3408  1.3912
  618TMC3    C7 9162   2.119   1.711  14.444  0.9242  0.0389 -0.1780
  618TMC3    C8 9163   1.936   1.262  14.450 -0.8802 -0.3909  0.7837
  618TMC3    O1 9164   2.091   1.817  14.501 -0.3342 -0.4696  0.2439
  618TMC3    O2 9165   1.846   1.197  14.500 -0.1592  0.0682 -0.0890
  619MPD2     C 9166   3.077   3.046  13.350 -0.0339 -0.3482 -0.2795
  619MPD2    C1 9167   2.951   3.100  13.338  0.2255  0.5836  0.8967
  619MPD2    C2 9168   2.841   3.021  13.359  0.5865  0.1981  0.8679
  619MPD2    C3 9169   2.858   2.889  13.394  0.1513 -0.2444  0.4544
  619MPD2    C4 9170   2.986   2.846  13.418  0.0272  0.2617 -0.3301
  619MPD2    C5 9171   3.094   2.918  13.378 -0.1491  0.1909  0.3503
  619MPD2     H 9172   2.741   3.062  13.346  1.3609  1.8457  0.1940
  619MPD2    H1 9173   3.007   2.744  13.447 -1.3324  0.0252 -0.1641
  619MPD2    H2 9174   3.175   3.093  13.342  0.1864 -0.9041 -0.9276
  619MPD2    H3 9175   3.196   2.886  13.391  0.7571  3.3329  1.1027
  619MPD2     N 9176   2.749   2.801  13.431  0.3038 -0.1254  1.0899
  619MPD2    H5 9177   2.770   2.718  13.485  1.5428 -0.1186  0.6368
  619MPD2    N1 9178   2.931   3.233  13.298 -0.5905 -0.1695  0.3255
  619MPD2    H7 9179   2.836   3.250  13.266 -0.3363 -3.1382 -1.9907
  620TMC3    C1 9180   2.980   3.457  13.250  0.2600 -0.4808  0.4487
  620TMC3    C2 9181   2.893   3.474  13.149 -0.0306 -0.8495 -0.5380
  620TMC3    C3 9182   2.781   3.561  13.159 -0.0809  0.5090  0.0250
  620TMC3    C4 9183   2.959   3.532  13.362 -0.1579  0.1404 -0.4202
  620TMC3    C5 9184   2.858   3.626  13.366  0.0665  0.0741  0.3934
  620TMC3    C6 9185   2.770   3.644  13.268  0.0092  0.1228  0.8158
  620TMC3     C 9186   3.035   3.326  13.284  0.8726  0.1991  0.2850
  620TMC3     O 9187   3.145   3.332  13.338 -0.1870  0.2074  0.1442
  620TMC3     H 9188   2.893   3.400  13.069  1.5851 -3.2125  1.6720
  620TMC3    H1 9189   3.033   3.502  13.435 -0.9164  0.2963  0.4193
  620TMC3    H2 9190   2.694   3.722  13.271 -1.0803 -0.9746  1.7594
  620TMC3    C7 9191   2.819   3.679  13.494  0.2393 -0.0950 -0.2460
  620TMC3    C8 9192   2.658   3.492  13.125  0.7551 -0.1824 -0.2007
  620TMC3    O1 9193   2.722   3.753  13.493  0.0724  0.0361 -0.2726
  620TMC3    O2 9194   2.656   3.409  13.035 -0.2803  0.2689  0.0045
  621MPD2     C 9195   2.696   2.847  10.705 -0.3013 -0.1809 -0.0879
  621MPD2    C1 9196   2.748   2.795  10.580  0.1685 -0.7301 -0.1015
  621MPD2    C2 9197   2.714   2.863  10.461 -0.5397 -0.0963  0.2518
  621MPD2    C3 9198   2.608   2.955  10.460 -0.1581 -0.1932 -0.1835
  621MPD2    C4 9199   2.564   3.000  10.582 -0.7661  0.2101 -0.3061
  621MPD2    C5 9200   2.611   2.954  10.697  0.1424 -0.5215 -0.0394
  621MPD2     H 9201   2.759   2.832  10.368 -0.0591 -1.5087  0.9499
  621MPD2    H1 9202   2.495   3.084  10.588  0.3701  0.8334  3.7519
  621MPD2    H2 9203   2.722   2.798  10.799 -0.8361 -0.6836 -0.1996
  621MPD2    H3 9204   2.565   2.994  10.787 -1.0336 -0.6869 -0.5601
  621MPD2     N 9205   2.559   3.002  10.336  0.1310  0.1310 -0.3102
  621MPD2    H5 9206   2.599   2.954  10.256 -1.4515  0.2990 -1.2145
  621MPD2    N1 9207   2.839   2.687  10.576  0.4013  0.0034 -0.3541
  621MPD2    H7 9208   2.887   2.668  10.489 -0.2028  1.2866 -0.9637
  622TMC3    C1 9209   2.930   2.480  10.638 -0.4380 -0.3954  0.4888
  622TMC3    C2 9210   2.884   2.364  10.696  0.5712 -0.0228 -0.2285
  622TMC3    C3 9211   2.881   2.255  10.614  0.1529 -0.7722  0.4198
  622TMC3    C4 9212   2.971   2.475  10.506  0.5071  0.1829  0.0108
  622TMC3    C5 9213   2.984   2.363  10.430  0.7300  0.2986  0.3697
  622TMC3    C6 9214   2.923   2.253  10.488  0.1696  0.2623 -0.2170
  622TMC3     C 9215   2.845   2.591  10.672 -0.2586  0.5432 -0.3335
  622TMC3     O 9216   2.786   2.584  10.776 -0.6308  0.2834  0.1919
  622TMC3     H 9217   2.853   2.350  10.799  0.8472  4.0424  0.4262
  622TMC3    H1 9218   3.025   2.559  10.463 -2.3490  2.2778  0.5184
  622TMC3    H2 9219   2.896   2.172  10.421 -0.0010 -1.0697  1.4876
  622TMC3    C7 9220   2.954   2.379  10.288  0.1272 -0.4008  0.0394
  622TMC3    C8 9221   2.766   2.166  10.640  0.2676 -0.0309  0.0385
  622TMC3    O1 9222   2.908   2.495  10.265 -0.2839  0.0739  0.3042
  622TMC3    O2 9223   2.758   2.056  10.586 -0.2965  0.4147 -0.0687
  623MPD2     C 9224   2.058   3.230  16.033 -0.2034  0.0310  0.0040
  623MPD2    C1 9225   2.000   3.203  16.156  0.3526 -0.1476  0.6714
  623MPD2    C2 9226   2.064   3.242  16.274 -0.0825 -0.0085  0.0374
  623MPD2    C3 9227   2.193   3.288  16.264 -0.2163  1.5421 -0.1411
  623MPD2    C4 9228   2.255   3.300  16.141 -0.1822  0.0122  0.1866
  623MPD2    C5 9229   2.182   3.276  16.029  0.4195 -0.1299  0.0041
  623MPD2     H 9230   2.018   3.223  16.370 -0.6732  2.6186  0.2823
  623MPD2    H1 9231   2.357   3.330  16.123 -0.9578  0.9113 -2.7590
  623MPD2    H2 9232   2.000   3.199  15.947  0.4070 -0.9792 -0.0341
  623MPD2    H3 9233   2.226   3.292  15.931  0.1606  0.5892  0.0034
  623MPD2     N 9234   2.257   3.327  16.387 -0.1836 -0.2907  0.1283
  623MPD2    H5 9235   2.201   3.319  16.472 -0.3712  0.4501  0.0717
  623MPD2    N1 9236   1.873   3.138  16.150  0.1738  0.0500  0.1645
  623MPD2    H7 9237   1.828   3.132  16.059 -0.0769  2.3871  0.1561
  624TMC3    C1 9238   2.533   3.271  16.712 -0.3963  0.0645  0.2649
  624TMC3    C2 9239   2.428   3.280  16.796 -0.4218  0.4895  0.1700
  624TMC3    C3 9240   2.318   3.356  16.757 -0.5463  0.2129 -0.3535
  624TMC3    C4 9241   2.539   3.324  16.589 -0.1258 -1.1548  0.4960
  624TMC3    C5 9242   2.418   3.381  16.548 -0.0872 -0.0065  0.2544
  624TMC3    C6 9243   2.315   3.404  16.627 -0.3234 -0.7236 -0.0240
  624TMC3     C 9244   2.646   3.187  16.758 -0.0378  0.4097  0.4897
  624TMC3     O 9245   2.631   3.110  16.846  0.0296  0.0502 -0.3810
  624TMC3     H 9246   2.436   3.242  16.897  1.1253 -0.1676 -0.1963
  624TMC3    H1 9247   2.622   3.323  16.519  1.4518 -0.8423  2.3897
  624TMC3    H2 9248   2.235   3.471  16.598 -1.7841 -0.4676  4.5979
  624TMC3    C7 9249   2.388   3.370  16.408 -0.3257  0.6460  0.6421
  624TMC3    C8 9250   2.194   3.305  16.812 -0.6532  0.5041  0.0851
  624TMC3    O1 9251   2.486   3.372  16.331 -0.0597 -0.0829 -0.0450
  624TMC3    O2 9252   2.192   3.191  16.862 -0.1107  0.2639  0.3890
  625MPD2     C 9253   2.720   3.619   0.626  0.0342 -0.2313  0.1377
  625MPD2    C1 9254   2.748   3.746   0.664  0.5836  0.2023  0.5583
  625MPD2    C2 9255   2.863   3.766   0.744 -0.5603 -0.7533  0.0404
  625MPD2    C3 9256   2.951   3.662   0.767 -0.0625  0.3280  0.3933
  625MPD2    C4 9257   2.919   3.543   0.727 -0.9579  0.1138  0.6827
  625MPD2    C5 9258   2.807   3.519   0.656  0.4070  0.1220 -0.1197
  625MPD2     H 9259   2.890   3.868   0.770  2.4844 -1.3404 -0.7638
  625MPD2    H1 9260   2.979   3.454   0.745  0.3141  0.7474 -0.5117
  625MPD2    H2 9261   2.634   3.603   0.561 -0.6690 -1.0256  1.2753
  625MPD2    H3 9262   2.789   3.423   0.609  1.1266 -0.1558  0.1684
  625MPD2     N 9263   3.083   3.700   0.805  0.3505 -0.2229 -0.4458
  625MPD2    H5 9264   3.109   3.798   0.814  0.8691 -0.4930  1.0256
  625MPD2    N1 9265   2.675   3.860   0.637 -0.1422  0.5310 -0.1628
  625MPD2    H7 9266   2.705   3.946   0.683  1.3508 -0.8299  1.3835
  626TMC3    C1 9267   2.483   3.983   0.560 -0.3826 -0.0880  0.6135
  626TMC3    C2 9268   2.412   4.016   0.449  0.1383 -0.6858  0.6235
  626TMC3    C3 9269   2.324   4.122   0.450 -0.4209  0.0582  0.2656
  626TMC3    C4 9270   2.448   4.042   0.683  0.3927 -0.1393 -0.8717
  626TMC3    C5 9271   2.350   4.138   0.685 -0.2604 -0.6381 -0.3904
  626TMC3    C6 9272   2.291   4.184   0.563 -0.1644  0.4872  0.3044
  626TMC3     C 9273   2.562   3.859   0.555  0.3977 -0.9947  0.6024
  626TMC3     O 9274   2.544   3.788   0.455 -0.1358  0.0446 -0.6457
  626TMC3     H 9275   2.441   3.968   0.356  0.3525  0.0140  0.3325
  626TMC3    H1 9276   2.504   4.011   0.770  1.0211  0.8687 -0.9123
  626TMC3    H2 9277   2.227   4.272   0.559  0.9071  1.2227 -0.8742
  626TMC3    C7 9278   2.289   4.171   0.811  0.0387  0.2965 -0.8465
  626TMC3    C8 9279   2.251   4.132   0.335 -0.2653 -0.3942  0.2171
  626TMC3    O1 9280   2.359   4.162   0.910  0.5135 -0.1391 -0.0960
  626TMC3    O2 9281   2.177   4.231   0.329 -0.2388  0.6346 -0.8241
  627MPD2     C 9282   0.772   0.051  14.350  0.1379 -0.0360  0.3820
  627MPD2    C1 9283   0.823   4.695  14.446 -0.1560  0.4440 -0.3012
  627MPD2    C2 9284   0.768   4.576  14.464  0.1637  0.8721 -0.2552
  627MPD2    C3 9285   0.651   4.535  14.399 -0.3981 -0.6450  0.6929
  627MPD2    C4 9286   0.600   4.623  14.298 -0.7783 -0.8013  0.0024
  627MPD2    C5 9287   0.666   0.020  14.273 -0.6699  0.2673 -0.2068
  627MPD2     H 9288   0.810   4.512  14.541 -1.6920 -1.3318 -1.0740
  627MPD2    H1 9289   0.525   4.581  14.233  0.0680  1.1678 -2.2390
  627MPD2    H2 9290   0.809   0.150  14.326  2.7372 -0.8551  0.9935
  627MPD2    H3 9291   0.628   0.092  14.200 -2.5104 -0.3244  0.1645
  627MPD2     N 9292   0.607   4.403  14.430  0.3324  0.9604  0.2921
  627MPD2    H5 9293   0.638   4.362  14.518  2.4287  1.6740 -0.1034
  627MPD2    N1 9294   0.928   0.009  14.527 -0.1855  0.4905  0.0500
  627MPD2    H7 9295   0.961   4.648  14.576  0.1161  0.2176 -0.6194
  628TMC3    C1 9296   1.069   0.158  14.644  0.0577  0.2930  0.2124
  628TMC3    C2 9297   1.149   0.052  14.693  0.5411 -0.1088  0.5460
  628TMC3    C3 9298   1.261   0.090  14.763  0.4691  0.4265  1.0308
  628TMC3    C4 9299   1.092   0.292  14.667  0.0892  0.6499  0.5941
  628TMC3    C5 9300   1.213   0.320  14.724  0.2144  0.0029 -0.0996
  628TMC3    C6 9301   1.292   0.223  14.793  0.3754  0.2388  1.1335
  628TMC3     C 9302   0.967   0.140  14.547 -0.5883 -0.3828  0.1926
  628TMC3     O 9303   0.922   0.237  14.495  0.5427 -0.4507 -0.0308
  628TMC3     H 9304   1.128   4.669  14.675 -0.5314  0.2160 -0.0985
  628TMC3    H1 9305   1.008   0.360  14.657  2.5847  3.5416 -0.9238
  628TMC3    H2 9306   1.391   0.249  14.828  0.6942  0.5653  0.0025
  628TMC3    C7 9307   1.253   0.456  14.737  0.4466  0.0772 -0.3389
  628TMC3    C8 9308   1.379   4.721  14.736  0.3493 -0.6683 -0.2935
  628TMC3    O1 9309   1.349   0.476  14.809  0.0516  0.0560  0.1389
  628TMC3    O2 9310   1.355   4.634  14.657 -0.5938  0.1715 -0.6871
  629MPD2     C 9311   4.129   3.148  16.718  0.9919 -0.4059  0.0496
  629MPD2    C1 9312   4.178   3.190  16.597  0.2628 -0.0760  0.1241
  629MPD2    C2 9313   4.099   3.185  16.490 -0.4383  0.6150 -0.6017
  629MPD2    C3 9314   3.968   3.148  16.496  0.2537 -0.1064 -0.2643
  629MPD2    C4 9315   3.912   3.117  16.619 -0.6594 -0.7408 -0.2665
  629MPD2    C5 9316   3.993   3.118  16.731  0.5485  0.3634  0.1132
  629MPD2     H 9317   4.134   3.209  16.390  0.2254  0.7906 -0.3263
  629MPD2    H1 9318   3.807   3.092  16.629 -0.5515 -0.8110  0.6435
  629MPD2    H2 9319   4.194   3.139  16.805 -0.9668 -0.9798  1.4594
  629MPD2    H3 9320   3.949   3.074  16.820 -1.6065  1.4615 -0.4110
  629MPD2     N 9321   3.896   3.138  16.375  0.2107 -0.0167  0.1852
  629MPD2    H5 9322   3.939   3.168  16.289 -0.3245  2.0286  0.6291
  629MPD2    N1 9323   4.313   3.222  16.580 -0.0576 -0.6293  0.3504
  629MPD2    H7 9324   4.370   3.226  16.663 -1.3375 -1.1738  1.2490
  630TMC3    C1 9325   4.514   3.284  16.493  0.3911 -0.0792  0.0396
  630TMC3    C2 9326   4.578   3.383  16.429 -0.6650  1.0662  0.4512
  630TMC3    C3 9327   4.701   3.428  16.461 -0.5284 -0.1210  0.1209
  630TMC3    C4 9328   4.579   3.226  16.602 -0.2871 -0.2271  0.2144
  630TMC3    C5 9329   4.710   3.258  16.630  0.2647 -0.4991 -0.1274
  630TMC3    C6 9330   0.043   3.361  16.565  0.4861  0.2574 -0.5478
  630TMC3     C 9331   4.380   3.248  16.461 -0.3573  0.9375 -0.3833
  630TMC3     O 9332   4.343   3.247  16.347  0.1618 -0.0692 -0.8944
  630TMC3     H 9333   4.529   3.421  16.339  0.6077  0.6348 -0.4277
  630TMC3    H1 9334   4.549   3.133  16.649 -0.0148  0.6663  2.1739
  630TMC3    H2 9335   0.137   3.397  16.604  0.2669  0.5827 -0.3170
  630TMC3    C7 9336   0.040   3.216  16.765  0.4404 -0.6948  0.0658
  630TMC3    C8 9337   0.057   3.522  16.384  0.1692 -0.3107  0.0788
  630TMC3    O1 9338   0.006   3.106  16.806 -0.5447  0.2391  0.1157
  630TMC3    O2 9339   0.163   3.556  16.444  0.0345 -0.0623  0.5086
  631MPD2     C 9340   2.198   3.261  15.678 -0.1744 -0.3216  0.0002
  631MPD2    C1 9341   2.319   3.319  15.659 -0.8769 -0.0170 -0.2357
  631MPD2    C2 9342   2.425   3.243  15.639  0.0564  0.3713 -0.6906
  631MPD2    C3 9343   2.425   3.103  15.636  0.3878  0.0393 -0.0011
  631MPD2    C4 9344   2.311   3.044  15.679 -0.8249 -0.9543  1.0057
  631MPD2    C5 9345   2.199   3.128  15.684 -0.3768 -0.3698  0.0320
  631MPD2     H 9346   2.521   3.289  15.619  0.2114 -0.2112 -1.2758
  631MPD2    H1 9347   2.298   2.937  15.683 -0.4598 -0.9893  1.2156
  631MPD2    H2 9348   2.106   3.317  15.676 -0.4266 -0.6781  1.7640
  631MPD2    H3 9349   2.100   3.091  15.709 -0.2243  0.3053  1.6473
  631MPD2     N 9350   2.546   3.038  15.607  0.3887 -0.0519  0.4011
  631MPD2    H5 9351   2.621   3.097  15.571  0.1721 -0.0414 -0.0300
  631MPD2    N1 9352   2.314   3.465  15.652  0.0623  0.0586  0.3612
  631MPD2    H7 9353   2.225   3.510  15.632  0.4182  0.5799 -0.0460
  632TMC3    C1 9354   2.377   3.666  15.594  0.2773  0.0688 -0.9949
  632TMC3    C2 9355   2.257   3.725  15.632 -0.2628  1.1249  0.4479
  632TMC3    C3 9356   2.212   3.836  15.568  0.3683  0.0873 -0.0059
  632TMC3    C4 9357   2.453   3.726  15.499  0.2573  0.4843 -0.7481
  632TMC3    C5 9358   2.402   3.839  15.439  0.0296 -0.4740 -0.0277
  632TMC3    C6 9359   2.287   3.898  15.473 -1.3673 -0.8915  0.2048
  632TMC3     C 9360   2.421   3.547  15.644  0.0223 -0.2739 -0.1944
  632TMC3     O 9361   2.535   3.512  15.627  0.1447 -0.2070  0.1816
  632TMC3     H 9362   2.217   3.684  15.724  2.3443  0.0668  1.1225
  632TMC3    H1 9363   2.548   3.678  15.478 -0.9632 -2.1022 -0.2862
  632TMC3    H2 9364   2.240   3.963  15.401 -1.3215  0.3766  1.3101
  632TMC3    C7 9365   2.447   3.860  15.302  1.1695 -0.6923  0.4751
  632TMC3    C8 9366   2.072   3.862  15.584 -0.8520 -0.1124 -0.0291
  632TMC3    O1 9367   2.389   3.931  15.225 -0.3461  0.4685  0.3212
  632TMC3    O2 9368   2.011   3.793  15.661 -0.4607 -0.5081  0.0572
  633MPD2     C 9369   2.002   1.247  17.388  0.0237  0.1999 -0.0744
  633MPD2    C1 9370   2.075   1.181  17.291  0.0704 -0.1983 -0.2200
  633MPD2    C2 9371   2.124   1.057  17.309  0.2849  0.1275 -0.5887
  633MPD2    C3 9372   2.078   0.986  17.418  0.4419  0.4649  1.6616
  633MPD2    C4 9373   1.994   1.045  17.511 -0.0197  0.0730 -0.2519
  633MPD2    C5 9374   1.948   1.171  17.494  0.4355  0.5331  0.9004
  633MPD2     H 9375   2.183   1.008  17.233  1.2002 -0.2221  0.3532
  633MPD2    H1 9376   1.953   0.990  17.595 -1.4567 -1.5549 -2.0290
  633MPD2    H2 9377   1.974   1.351  17.377 -0.5815  0.2267  1.6295
  633MPD2    H3 9378   1.871   1.198  17.565 -0.5283 -1.6954  0.6889
  633MPD2     N 9379   2.103   0.848  17.437 -0.1041  0.5191 -0.1109
  633MPD2    H5 9380   2.072   0.807  17.525  1.0014 -0.6584 -0.2696
  633MPD2    N1 9381   2.114   1.249  17.169  1.4044 -0.0384 -0.2670
  633MPD2    H7 9382   2.191   1.205  17.119 -0.4604 -2.4913 -0.9868
  634TMC3    C1 9383   2.131   1.416  17.003 -0.4056 -0.2709  0.1914
  634TMC3    C2 9384   2.190   1.319  16.924 -0.0737  0.3106  0.0097
  634TMC3    C3 9385   2.242   1.362  16.802  0.0453 -0.2187 -0.6437
  634TMC3    C4 9386   2.122   1.545  16.964  0.2121 -0.0096 -0.4132
  634TMC3    C5 9387   2.165   1.575  16.838  0.1260 -0.1652 -0.6637
  634TMC3    C6 9388   2.234   1.491  16.761 -0.0293  0.2185 -0.1523
  634TMC3     C 9389   2.058   1.368  17.120 -0.6013  0.3521 -0.3228
  634TMC3     O 9390   1.960   1.431  17.156  1.3386  0.2246 -0.0149
  634TMC3     H 9391   2.168   1.213  16.932 -0.9378  0.4864 -0.0607
  634TMC3    H1 9392   2.067   1.615  17.026  1.6809  3.0762 -2.6066
  634TMC3    H2 9393   2.300   1.526  16.683 -0.6695  0.9482 -0.3661
  634TMC3    C7 9394   2.150   1.713  16.791 -0.3136  0.4855 -0.3634
  634TMC3    C8 9395   2.315   1.262  16.727 -0.5702  0.1338  0.0431
  634TMC3    O1 9396   2.191   1.728  16.678  0.1977  0.2973 -0.2557
  634TMC3    O2 9397   2.351   1.163  16.794 -0.1225 -0.0639 -0.4920
  635TMC3    C1 9398   2.389   2.448   0.323  0.2599 -0.8741  0.3511
  635TMC3    C2 9399   2.303   2.372   0.252 -0.2845  0.8459  0.1424
  635TMC3    C3 9400   2.194   2.312   0.317  0.1398  0.1710 -0.1186
  635TMC3    C4 9401   2.361   2.492   0.447  0.6215  0.3226  0.0131
  635TMC3    C5 9402   2.253   2.439   0.511 -0.1133 -0.1376  0.0390
  635TMC3    C6 9403   2.171   2.338   0.449 -0.4964 -0.1866  0.1600
  635TMC3     C 9404   2.512   2.504   0.265 -0.0971  0.3700 -0.2114
  635TMC3     O 9405   2.557   2.604   0.315 -0.1064  0.6839  0.4910
  635TMC3     H 9406   2.318   2.323   0.156  1.7355  0.4352  0.6785
  635TMC3    H1 9407   2.431   2.560   0.494  1.2872 -0.5170  0.2384
  635TMC3    H2 9408   2.093   2.289   0.506 -1.4168  0.4535 -0.5548
  635TMC3    C7 9409   2.249   2.474   0.648  0.0424  0.2661 -0.1731
  635TMC3    C8 9410   2.099   2.244   0.228 -0.3114  0.9689 -0.2738
  635TMC3    O1 9411   2.348   2.535   0.693 -0.2500  0.1659  0.2595
  635TMC3    O2 9412   2.114   2.266   0.110 -0.2133  0.0894 -0.3525
  636MPD2     C 9413   3.569   1.928  15.963 -0.3835  0.2089  0.4520
  636MPD2    C1 9414   3.520   1.943  16.089  0.3496 -0.1176 -0.4946
  636MPD2    C2 9415   3.540   1.839  16.181 -0.3552  0.2241 -0.2422
  636MPD2    C3 9416   3.591   1.719  16.137 -0.3828  0.4294  0.3850
  636MPD2    C4 9417   3.635   1.705  16.007  0.3483 -0.0731  0.3907
  636MPD2    C5 9418   3.631   1.816  15.922 -0.5042  0.0299 -0.2793
  636MPD2     H 9419   3.496   1.847  16.280  0.9351 -0.1781  0.3733
  636MPD2    H1 9420   3.675   1.618  15.955  0.2776  0.9039 -1.2968
  636MPD2    H2 9421   3.565   2.006  15.888  0.4776 -0.4747 -0.3039
  636MPD2    H3 9422   3.662   1.808  15.819 -0.3038 -0.7045 -0.1663
  636MPD2     N 9423   3.585   1.609  16.220  0.0756 -0.7596  0.2170
  636MPD2    H5 9424   3.537   1.611  16.310  0.2820 -0.7934  0.3287
  636MPD2    N1 9425   3.454   2.058  16.135 -0.2237  0.5021  0.2133
  636MPD2    H7 9426   3.418   2.061  16.229  0.9189 -0.0295  0.6629
  637TMC3    C1 9427   3.603   1.381  16.283  0.0705 -0.0985  0.5440
  637TMC3    C2 9428   3.560   1.421  16.412 -0.0019 -0.6715 -0.2279
  637TMC3    C3 9429   3.609   1.351  16.522 -0.8208 -0.0585 -0.4020
  637TMC3    C4 9430   3.686   1.279  16.259  0.1507 -0.8537  0.2542
  637TMC3    C5 9431   3.730   1.213  16.368  0.3841  0.1328  0.4426
  637TMC3    C6 9432   3.697   1.249  16.497  0.3494  0.2258 -0.0013
  637TMC3     C 9433   3.629   1.482  16.186 -0.1520 -0.2906 -0.1047
  637TMC3     O 9434   3.668   1.438  16.078  0.4947 -0.0326 -0.2251
  637TMC3     H 9435   3.472   1.484  16.410 -0.1944 -0.8849  1.7521
  637TMC3    H1 9436   3.716   1.246  16.160  0.3836  0.4861 -0.1268
  637TMC3    H2 9437   3.742   1.199  16.582 -2.9933 -2.0116  0.4610
  637TMC3    C7 9438   3.814   1.091  16.350 -0.3098 -0.7263 -0.2821
  637TMC3    C8 9439   3.559   1.349  16.657 -0.7812  0.2941  0.1856
  637TMC3    O1 9440   3.767   0.994  16.410 -0.3180  0.8125  0.3413
  637TMC3    O2 9441   3.553   1.236  16.699 -0.4867  0.2725 -0.2201
  638MPD2     C 9442   3.303   0.833  15.151 -0.5829  0.3153  0.0385
  638MPD2    C1 9443   3.238   0.740  15.075 -0.2789  0.4302 -0.1368
  638MPD2    C2 9444   3.225   0.613  15.120 -0.0617 -0.5688  0.2768
  638MPD2    C3 9445   3.261   0.577  15.249  0.0185 -0.0995  0.7559
  638MPD2    C4 9446   3.312   0.672  15.327  0.2994  0.8554  0.3256
  638MPD2    C5 9447   3.326   0.801  15.280  0.9543 -0.1985 -0.6544
  638MPD2     H 9448   3.201   0.530  15.055  0.6421 -0.7964  0.3182
  638MPD2    H1 9449   3.326   0.645  15.431 -0.2090 -1.5027 -0.2119
  638MPD2    H2 9450   3.316   0.928  15.101  0.5304 -0.3768 -0.9948
  638MPD2    H3 9451   3.370   0.870  15.351  1.3456 -0.2292 -0.8629
  638MPD2     N 9452   3.236   0.449  15.292 -0.1049 -0.4742  0.8483
  638MPD2    H5 9453   3.191   0.380  15.233 -0.9271 -2.3427  3.6668
  638MPD2    N1 9454   3.206   0.779  14.944 -0.0766  0.1174 -0.2396
  638MPD2    H7 9455   3.229   0.874  14.919  1.0813 -0.0773  0.0967
  639TMC3    C1 9456   3.267   0.250  15.402 -0.6757  0.6645 -0.0076
  639TMC3    C2 9457   3.144   0.217  15.364  0.0527  0.1758 -0.0010
  639TMC3    C3 9458   3.123   0.082  15.361 -0.3655  0.4876  0.4447
  639TMC3    C4 9459   3.376   0.169  15.435 -0.0170  0.4121 -0.1291
  639TMC3    C5 9460   3.347   0.033  15.421 -0.2407 -0.4357  0.5486
  639TMC3    C6 9461   3.223   4.716  15.382  0.1269  0.1011 -0.0639
  639TMC3     C 9462   3.297   0.391  15.399  0.1915  0.1377  0.5411
  639TMC3     O 9463   3.392   0.431  15.466 -0.1548 -0.4346  0.1694
  639TMC3     H 9464   3.068   0.284  15.326  0.2117 -1.6208 -3.4834
  639TMC3    H1 9465   3.474   0.208  15.460  0.3418 -0.4231 -0.2265
  639TMC3    H2 9466   3.200   4.612  15.363  0.2163  0.1043 -0.1894
  639TMC3    C7 9467   3.448   4.674  15.373 -0.4890 -0.1824  0.5529
  639TMC3    C8 9468   3.042   0.029  15.251 -0.9969  0.1481  0.6197
  639TMC3    O1 9469   3.424   4.553  15.382 -0.1438  0.0297 -0.0241
  639TMC3    O2 9470   3.101   4.690  15.162  0.0172 -0.3307  0.0151
  640MPD2     C 9471   2.944   3.325   9.982  0.1286 -0.2755  0.6203
  640MPD2    C1 9472   2.963   3.347   9.848  0.2063  1.4778 -0.7876
  640MPD2    C2 9473   2.971   3.476   9.800 -0.4825  0.1026  0.1632
  640MPD2    C3 9474   2.953   3.586   9.884 -0.4404  1.0501  0.5152
  640MPD2    C4 9475   2.933   3.562  10.023 -0.1365  0.2371  0.0673
  640MPD2    C5 9476   2.922   3.432  10.063 -0.1506  0.2076  0.6730
  640MPD2     H 9477   3.005   3.499   9.700 -1.9347 -1.2158 -0.6448
  640MPD2    H1 9478   2.921   3.640  10.096  0.7955 -1.8455  2.4469
  640MPD2    H2 9479   2.930   3.229  10.032  0.8108 -0.8936 -0.3715
  640MPD2    H3 9480   2.910   3.414  10.169  1.0957 -1.8844  0.4609
  640MPD2     N 9481   2.973   3.713   9.828 -0.5119  0.2378  0.3550
  640MPD2    H5 9482   2.970   3.716   9.727  1.9060 -3.2341  0.2225
  640MPD2    N1 9483   2.985   3.234   9.765 -0.0320 -0.4916 -0.6079
  640MPD2    H7 9484   3.005   3.150   9.817  1.2802  0.6229  0.6811
  641TMC3    C1 9485   3.053   3.111   9.579 -0.6727  0.2849 -0.0104
  641TMC3    C2 9486   3.143   3.033   9.651 -0.3784  0.0005  1.0081
  641TMC3    C3 9487   3.212   2.931   9.589  0.9876 -0.5320 -0.3210
  641TMC3    C4 9488   3.026   3.082   9.447 -0.0149 -0.0516  0.4406
  641TMC3    C5 9489   3.082   2.968   9.396  0.1325 -0.3200  0.0883
  641TMC3    C6 9490   3.174   2.888   9.465 -0.2813  0.4115  0.3097
  641TMC3     C 9491   3.002   3.235   9.632  0.2146  0.3662  0.0855
  641TMC3     O 9492   2.968   3.325   9.549  0.0324  0.0157 -0.4378
  641TMC3     H 9493   3.166   3.051   9.756  2.4351  1.5122  0.1502
  641TMC3    H1 9494   2.954   3.136   9.387 -0.9928  0.5459  2.1493
  641TMC3    H2 9495   3.215   2.795   9.428 -0.0751  0.4990  0.3207
  641TMC3    C7 9496   3.048   2.946   9.254  0.4195 -0.2199  0.3857
  641TMC3    C8 9497   3.320   2.852   9.650 -0.5183 -0.1821 -0.0513
  641TMC3    O1 9498   3.022   3.046   9.186 -0.0134  0.3832 -0.9828
  641TMC3    O2 9499   3.369   2.756   9.586  0.4270  0.8753 -0.7569
  642TMC3    C1 9500   0.024   0.416  12.115 -0.6361 -1.1594 -0.5140
  642TMC3    C2 9501   0.155   0.396  12.143 -0.1507  0.7531  0.2074
  642TMC3    C3 9502   0.200   0.268  12.133  0.6524 -0.5014  0.5672
  642TMC3    C4 9503   4.660   0.321  12.064  0.6978  0.3104  0.0928
  642TMC3    C5 9504   4.711   0.195  12.063 -0.1241 -0.0328 -0.4006
  642TMC3    C6 9505   0.117   0.165  12.097  0.1268 -0.2712 -0.1685
  642TMC3     C 9506   4.701   0.553  12.137 -0.1904 -0.0663 -0.5747
  642TMC3     O 9507   0.044   0.609  12.224 -0.0420 -1.0579 -0.2085
  642TMC3     H 9508   0.226   0.478  12.153  2.5021 -1.5713  0.5915
  642TMC3    H1 9509   4.556   0.347  12.048 -0.2412 -3.3848  0.0760
  642TMC3    H2 9510   0.157   0.065  12.111  0.5043 -0.1510 -0.3977
  642TMC3    C7 9511   4.608   0.096  12.080  0.8531 -0.9364 -0.4200
  642TMC3    C8 9512   0.346   0.239  12.137  0.1942  0.1212  0.3633
  642TMC3    O1 9513   4.516   0.097  12.000 -0.0044  0.0223  0.1061
  642TMC3    O2 9514   0.378   0.135  12.086 -0.0523  1.0479 -0.2279
  643TMC3    C1 9515   4.414   3.630  17.511  0.3875 -1.0248 -0.7720
  643TMC3    C2 9516   4.344   3.681  17.409 -0.6621  0.5850  0.1074
  643TMC3    C3 9517   4.404   3.695  17.285  0.3426  0.5934 -0.0833
  643TMC3    C4 9518   4.545   3.604  17.498 -0.5440 -0.0721 -0.0501
  643TMC3    C5 9519   4.607   3.627  17.379  0.1759 -0.3092 -0.1174
  643TMC3    C6 9520   4.532   3.654  17.266  0.4438 -0.1055  0.1747
  643TMC3     C 9521   4.351   3.656  17.632 -0.3861  0.2827 -0.8393
  643TMC3     O 9522   4.273   3.754  17.630  0.2438 -0.1740 -0.2588
  643TMC3     H 9523   4.239   3.706  17.420 -0.1757  2.7201  0.0594
  643TMC3    H1 9524   4.615   3.595  17.580 -1.0755  0.2311  0.4411
  643TMC3    H2 9525   4.568   3.664  17.164  1.0435  1.0170  0.5034
  643TMC3    C7 9526   0.018   3.563  17.365  0.5548 -0.3078 -0.1857
  643TMC3    C8 9527   4.364   3.803  17.202  0.1981  0.6669 -0.0788
  643TMC3    O1 9528   0.031   3.468  17.440  0.2857 -0.7337  0.2380
  643TMC3    O2 9529   4.396   3.796  17.084  0.3324  0.2174  0.5307
  644MPD2     C 9530   4.310   4.619   9.921  0.1850 -0.6389  0.0595
  644MPD2    C1 9531   4.198   4.573   9.995 -0.0219  0.7781 -0.3553
  644MPD2    C2 9532   4.130   4.663  10.073  0.7371  0.2210  0.6852
  644MPD2    C3 9533   4.158   0.073  10.070  0.5888  0.2306  0.5394
  644MPD2    C4 9534   4.272   0.117   9.999 -0.4147  0.1884 -0.5103
  644MPD2    C5 9535   4.342   0.027   9.925 -0.3491 -0.0262  0.1780
  644MPD2     H 9536   4.054   4.630  10.142  0.5492 -2.1814 -0.6938
  644MPD2    H1 9537   4.309   0.219  10.003  2.0987 -0.6944 -1.3639
  644MPD2    H2 9538   4.373   4.545   9.873 -0.8547 -1.3347 -0.2162
  644MPD2    H3 9539   4.433   0.066   9.881 -0.2767  1.2909  1.4953
  644MPD2     N 9540   4.084   0.158  10.155 -0.6806 -0.3458  0.6211
  644MPD2    H5 9541   3.999   0.121  10.196  1.7844 -3.9373  2.4477
  644MPD2    N1 9542   4.161   4.430   9.983  0.5197  0.5128  0.3774
  644MPD2    H7 9543   4.226   4.381   9.923 -0.7272  0.9515 -1.3298
  645TMC3    C1 9544   4.018   0.361  10.241 -0.0658  0.3595 -0.4432
  645TMC3    C2 9545   4.055   0.482  10.291 -0.8999  0.4792 -0.2111
  645TMC3    C3 9546   3.960   0.552  10.362 -0.1587 -0.2962 -0.7341
  645TMC3    C4 9547   3.889   0.312  10.249 -0.5460  0.5159 -0.0396
  645TMC3    C5 9548   3.794   0.386  10.319 -0.5198 -0.1256  0.7496
  645TMC3    C6 9549   3.832   0.504  10.378 -0.5005 -0.7499 -0.2077
  645TMC3     C 9550   4.118   0.287  10.175 -0.6245 -0.7310  0.1636
  645TMC3     O 9551   4.214   0.355  10.143  0.1924 -0.5627 -0.1813
  645TMC3     H 9552   4.154   0.524  10.292 -1.8991  2.8649 -1.8512
  645TMC3    H1 9553   3.858   0.219  10.202 -2.7162  1.3079 -0.1995
  645TMC3    H2 9554   3.762   0.566  10.433 -2.4614 -3.0512 -0.1429
  645TMC3    C7 9555   3.655   0.348  10.343  0.5827 -0.6401  0.3089
  645TMC3    C8 9556   4.002   0.655  10.455 -0.2946  0.8913  0.2320
  645TMC3    O1 9557   3.598   0.395  10.440 -0.1807  0.1980  0.5126
  645TMC3    O2 9558   3.921   0.719  10.518 -0.5379  0.6002  0.0977
  646MPD2     C 9559   3.358   4.162  14.680  0.2191  0.1384 -0.4639
  646MPD2    C1 9560   3.253   4.130  14.756 -0.4748 -0.6250 -0.0970
  646MPD2    C2 9561   3.133   4.189  14.720  0.1413  0.6116  0.1409
  646MPD2    C3 9562   3.117   4.283  14.616  0.0732 -0.6443 -0.1870
  646MPD2    C4 9563   3.223   4.314  14.537  0.2547  0.5406  0.2061
  646MPD2    C5 9564   3.340   4.248  14.568 -0.9200  0.9103  0.2104
  646MPD2     H 9565   3.046   4.161  14.779 -0.1662  2.1947  0.4372
  646MPD2    H1 9566   3.228   4.393  14.463  0.8991  1.0306  0.7761
  646MPD2    H2 9567   3.456   4.119  14.696  0.9078  1.6139 -0.7516
  646MPD2    H3 9568   3.430   4.273  14.513 -0.6711  1.6138  0.9503
  646MPD2     N 9569   2.995   4.352  14.599  0.3195  0.4704  0.1430
  646MPD2    H5 9570   2.921   4.330  14.665  1.8546 -1.0057  1.3827
  646MPD2    N1 9571   3.279   4.037  14.857  0.4117 -0.0901 -0.2951
  646MPD2    H7 9572   3.372   3.997  14.846  0.5651 -0.2352  1.7033
  647TMC3    C1 9573   3.240   3.862  14.990 -0.4936  0.8425 -0.8819
  647TMC3    C2 9574   3.176   3.803  15.098 -0.0025 -0.1135 -0.1524
  647TMC3    C3 9575   3.237   3.697  15.162  0.0430  0.3338  0.1704
  647TMC3    C4 9576   3.356   3.801  14.931  0.3798 -0.3293  0.1212
  647TMC3    C5 9577   3.407   3.698  15.004  0.0099 -0.4831  0.3946
  647TMC3    C6 9578   3.351   3.633  15.116  0.0899 -1.0734  0.4722
  647TMC3     C 9579   3.193   3.987  14.943  0.1174 -0.0958 -0.0568
  647TMC3     O 9580   3.095   4.043  14.995 -0.1879 -0.1814 -0.2373
  647TMC3     H 9581   3.093   3.858  15.142 -0.5843 -0.3780 -0.9422
  647TMC3    H1 9582   3.401   3.833  14.838  1.0780  0.8243  0.8523
  647TMC3    H2 9583   3.409   3.557  15.168  0.7089 -0.1015  1.2058
  647TMC3    C7 9584   3.545   3.653  14.979  0.0104 -0.1250 -0.7692
  647TMC3    C8 9585   3.174   3.660  15.290 -0.2090  0.4660 -0.0242
  647TMC3    O1 9586   3.579   3.537  15.005  0.3189  0.4504  0.9388
  647TMC3    O2 9587   3.079   3.730  15.326 -0.1064 -0.0415 -0.2920
  648TMC3    C1 9588   2.882   1.582  16.108 -0.3198 -0.6972  0.7733
  648TMC3    C2 9589   2.932   1.465  16.056 -0.2878 -0.4697  0.3333
  648TMC3    C3 9590   2.913   1.453  15.923  0.0704 -0.5946 -0.3256
  648TMC3    C4 9591   2.787   1.660  16.043 -0.2629 -0.4159  0.6139
  648TMC3    C5 9592   2.771   1.630  15.915  0.0428 -0.2862  0.0333
  648TMC3    C6 9593   2.836   1.531  15.846 -0.2236 -0.1821 -0.3262
  648TMC3     C 9594   2.917   1.606  16.247 -0.1685  0.5131 -0.4198
  648TMC3     O 9595   2.996   1.526  16.292  0.7043 -0.1673 -1.6046
  648TMC3     H 9596   2.992   1.405  16.123  2.5223  0.4717 -1.3303
  648TMC3    H1 9597   2.732   1.739  16.093 -0.6968 -2.0505  2.7210
  648TMC3    H2 9598   2.824   1.515  15.740  1.3682 -0.7531 -0.4261
  648TMC3    C7 9599   2.669   1.700  15.841  0.1903  0.1493 -0.2462
  648TMC3    C8 9600   2.946   1.325  15.869  0.1342  0.3064 -0.0570
  648TMC3    O1 9601   2.618   1.651  15.738  0.6888 -0.3670  0.0163
  648TMC3    O2 9602   2.963   1.309  15.751  0.3036 -0.2903  0.6553
  649TMC3    C1 9603   1.442   2.959  12.905  1.1266  0.7366 -0.7865
  649TMC3    C2 9604   1.564   2.985  12.844  0.9806  0.0835  0.2255
  649TMC3    C3 9605   1.667   2.947  12.924  0.2701 -0.8911 -0.1791
  649TMC3    C4 9606   1.423   2.884  13.014 -0.0625  0.3629  0.0257
  649TMC3    C5 9607   1.536   2.842  13.078  0.1269  0.6464  0.3173
  649TMC3    C6 9608   1.662   2.877  13.033 -0.5961 -0.4118  0.0555
  649TMC3     C 9609   1.322   3.030  12.860  0.3257 -0.3717  0.0611
  649TMC3     O 9610   1.238   3.069  12.940 -0.5118 -0.3525  0.2680
  649TMC3     H 9611   1.590   3.034  12.751  1.7062 -1.3045 -0.3079
  649TMC3    H1 9612   1.325   2.865  13.056  0.4458 -0.8539  0.6502
  649TMC3    H2 9613   1.747   2.844  13.092  0.5053  0.6232 -0.9743
  649TMC3    C7 9614   1.533   2.767  13.208 -0.5121  0.0026  0.0030
  649TMC3    C8 9615   1.803   2.940  12.862  0.5506  0.1874 -0.1600
  649TMC3    O1 9616   1.418   2.748  13.246  0.6118  0.8165 -0.7248
  649TMC3    O2 9617   1.876   2.854  12.905  0.0049 -0.0556  0.5260
  650TMC3    C1 9618   4.041   4.510  12.341  0.1511 -0.1835  0.5895
  650TMC3    C2 9619   3.967   4.623  12.362  0.3980  0.5908  0.1137
  650TMC3    C3 9620   3.854   4.639  12.287  0.0876  0.3540 -0.1297
  650TMC3    C4 9621   4.011   4.427  12.239 -0.1158 -0.4940  0.4009
  650TMC3    C5 9622   3.913   4.460  12.154 -0.3527 -0.0325 -0.6681
  650TMC3    C6 9623   3.820   4.558  12.177  0.8601 -0.3135 -0.2629
  650TMC3     C 9624   4.100   4.453  12.456  0.2745 -0.1747  0.2165
  650TMC3     O 9625   4.102   4.519  12.557 -0.3039 -0.9023  0.6150
  650TMC3     H 9626   3.976   4.687  12.449 -1.6263  0.0426  0.7280
  650TMC3    H1 9627   4.081   4.354  12.200 -0.4130 -1.4252  1.6097
  650TMC3    H2 9628   3.733   4.570  12.112 -2.0439 -2.1254  3.2816
  650TMC3    C7 9629   3.904   4.383  12.031  0.0052  0.0147 -0.6490
  650TMC3    C8 9630   3.766   0.028  12.325 -0.5565  0.3755  0.5182
  650TMC3    O1 9631   3.986   4.288  12.018  0.3198 -0.4995  0.2215
  650TMC3    O2 9632   3.776   0.062  12.446  0.4069 -0.0904  0.5529
  651MPD2     C 9633   3.293   1.240  11.042  0.1134  0.4638 -0.5677
  651MPD2    C1 9634   3.226   1.352  11.004  0.1871  0.7850  0.1995
  651MPD2    C2 9635   3.286   1.434  10.909  0.2819  0.2272  0.8180
  651MPD2    C3 9636   3.416   1.413  10.867  0.4218  0.2495  0.5065
  651MPD2    C4 9637   3.485   1.295  10.906  0.0113 -0.0926 -0.0002
  651MPD2    C5 9638   3.415   1.210  10.989  0.9945  0.2186  0.3218
  651MPD2     H 9639   3.229   1.519  10.872  2.1115  0.8751 -0.5261
  651MPD2    H1 9640   3.574   1.262  10.853  1.0358 -0.0598  1.6977
  651MPD2    H2 9641   3.243   1.159  11.094 -0.3706  0.1509 -1.5138
  651MPD2    H3 9642   3.460   1.114  11.014 -0.9834 -1.2439 -1.7736
  651MPD2     N 9643   3.483   1.515  10.802  0.2325 -0.2095  0.3160
  651MPD2    H5 9644   3.428   1.595  10.772 -1.2895 -0.2521  2.9680
  651MPD2    N1 9645   3.095   1.391  11.047 -0.6321  0.0778 -1.2224
  651MPD2    H7 9646   3.052   1.463  10.990 -1.3742 -1.0379 -2.0903
  652TMC3    C1 9647   3.772   1.740  10.517 -0.9982  0.2968  0.2845
  652TMC3    C2 9648   3.747   1.633  10.591 -0.7613 -0.1921 -0.1244
  652TMC3    C3 9649   3.634   1.634  10.676 -0.9337 -1.2708  0.5052
  652TMC3    C4 9650   3.696   1.857  10.517 -0.6046 -0.1069 -0.9559
  652TMC3    C5 9651   3.596   1.856  10.605 -0.2166 -0.5696  0.4997
  652TMC3    C6 9652   3.568   1.751  10.689  0.2339 -0.0433  0.0369
  652TMC3     C 9653   3.909   1.773  10.483  0.5516  0.0670 -0.1293
  652TMC3     O 9654   3.921   1.870  10.410 -0.5365  0.3369 -0.4610
  652TMC3     H 9655   3.812   1.546  10.585  0.4374  0.7648 -1.0223
  652TMC3    H1 9656   3.723   1.938  10.451  1.5784  0.1190  0.1818
  652TMC3    H2 9657   3.480   1.751  10.751 -0.3868  1.2323 -0.8489
  652TMC3    C7 9658   3.518   1.979  10.625  0.0644 -0.1693  0.4573
  652TMC3    C8 9659   3.616   1.515  10.765  0.5449  0.3884 -0.1249
  652TMC3    O1 9660   3.465   1.998  10.735  0.2313 -0.5941  0.1074
  652TMC3    O2 9661   3.713   1.453  10.799  0.0980  0.0701 -0.1203
  653MPD2     C 9662   1.680   1.150   0.272 -0.4381 -0.3163 -0.5389
  653MPD2    C1 9663   1.669   1.213   0.147 -0.4745 -0.0976 -0.0525
  653MPD2    C2 9664   1.593   1.149   0.052  0.6931 -0.1401 -0.7480
  653MPD2    C3 9665   1.558   1.012   0.069  1.0113  0.0982  0.4108
  653MPD2    C4 9666   1.565   0.954   0.196  0.1728  0.2580 -0.9690
  653MPD2    C5 9667   1.622   1.027   0.297 -0.2004  0.6181 -0.4300
  653MPD2     H 9668   1.568   1.194  17.647 -2.0071  0.8837  0.4326
  653MPD2    H1 9669   1.522   0.859   0.224 -2.1256  1.2916 -0.9371
  653MPD2    H2 9670   1.736   1.196   0.353  0.3464 -0.8601 -0.7712
  653MPD2    H3 9671   1.631   0.988   0.397  0.4091  0.3804 -0.5796
  653MPD2     N 9672   1.508   0.939  17.646 -0.3193  0.4501 -0.6770
  653MPD2    H5 9673   1.496   0.990  17.559 -2.3214 -2.0267 -1.8608
  653MPD2    N1 9674   1.725   1.344   0.114  0.1309 -0.4312  0.3257
  653MPD2    H7 9675   1.716   1.376   0.018 -0.8936 -1.4850  0.0739
  654TMC3    C1 9676   1.399   0.776  17.524  0.0171 -0.4646  0.1215
  654TMC3    C2 9677   1.331   0.873  17.461 -0.0701 -0.4369 -0.4760
  654TMC3    C3 9678   1.262   0.829  17.348 -0.0071  0.1758 -0.1110
  654TMC3    C4 9679   1.398   0.639  17.489 -0.3046 -0.5733  0.2520
  654TMC3    C5 9680   1.317   0.603  17.387  0.2574  0.3390  0.8904
  654TMC3    C6 9681   1.250   0.696  17.318 -0.2442 -0.0652 -0.3072
  654TMC3     C 9682   1.462   0.808  17.649  0.4265  0.1695 -0.5152
  654TMC3     O 9683   1.474   0.720   0.041 -0.2734 -0.2128  0.1853
  654TMC3     H 9684   1.337   0.981  17.476  0.0446 -0.4044 -0.7448
  654TMC3    H1 9685   1.434   0.563  17.557 -0.4542  0.5540  1.6106
  654TMC3    H2 9686   1.165   0.668  17.258 -1.8564  0.9982  1.4699
  654TMC3    C7 9687   1.270   0.468  17.373  0.2838 -0.3735 -0.0004
  654TMC3    C8 9688   1.189   0.919  17.263  0.3782 -0.0621 -0.4155
  654TMC3    O1 9689   1.148   0.448  17.380 -0.4297  0.1397 -0.1336
  654TMC3    O2 9690   1.140   1.014  17.323 -0.1277 -0.1415  0.1653
  655MPD2     C 9691   3.278   1.433  15.946  0.1969  1.1737 -0.1383
  655MPD2    C1 9692   3.293   1.533  15.850  0.2074  0.2146 -0.3092
  655MPD2    C2 9693   3.326   1.496  15.719 -0.0273  0.4956  0.0670
  655MPD2    C3 9694   3.354   1.368  15.678 -1.4222  0.2761  0.5269
  655MPD2    C4 9695   3.337   1.274  15.772 -0.2849 -0.8080  0.7791
  655MPD2    C5 9696   3.307   1.300  15.905  0.1476  0.2224  0.6742
  655MPD2     H 9697   3.333   1.572  15.642  0.7855  0.8458  0.4881
  655MPD2    H1 9698   3.349   1.169  15.751  2.3127 -0.8713  2.4192
  655MPD2    H2 9699   3.260   1.454  16.051  0.4007 -3.2403  0.7602
  655MPD2    H3 9700   3.307   1.223  15.981  0.8465  0.2573  0.7040
  655MPD2     N 9701   3.395   1.332  15.547  0.1578  0.2629  0.4693
  655MPD2    H5 9702   3.428   1.237  15.529  2.4607  1.1918 -0.2908
  655MPD2    N1 9703   3.257   1.666  15.869  0.2136 -0.9687  0.2744
  655MPD2    H7 9704   3.268   1.727  15.789 -0.2284 -0.1600  0.8352
  656TMC3    C1 9705   3.194   1.863  15.993 -0.6453  0.2349 -0.2837
  656TMC3    C2 9706   3.130   1.905  16.107 -0.0267  0.3145 -0.7887
  656TMC3    C3 9707   3.047   2.019  16.099 -0.3293  0.0746  0.5376
  656TMC3    C4 9708   3.174   1.925  15.872  0.6243  0.8175  0.0412
  656TMC3    C5 9709   3.086   2.026  15.866  0.0839  0.3414 -0.5827
  656TMC3    C6 9710   3.016   2.070  15.973 -0.4433  0.4445  0.9572
  656TMC3     C 9711   3.221   1.721  15.992  0.1193  0.5070  0.5845
  656TMC3     O 9712   3.214   1.667  16.099  0.3357  0.3209 -0.1010
  656TMC3     H 9713   3.123   1.854  16.203  1.2201  2.5646  0.5128
  656TMC3    H1 9714   3.221   1.889  15.781 -0.1967 -4.1130  1.5475
  656TMC3    H2 9715   2.946   2.153  15.968 -1.4796 -0.5862 -1.5749
  656TMC3    C7 9716   3.042   2.050  15.730  0.2007  0.3342 -0.1712
  656TMC3    C8 9717   2.918   2.004  16.168 -0.4417  0.5006  0.1728
  656TMC3    O1 9718   3.118   2.030  15.638  0.0854  0.6321  0.2279
  656TMC3    O2 9719   2.839   1.949  16.093 -0.9521  0.3169 -0.2448
  657TMC3    C1 9720   1.804   1.038  15.474  0.3048 -0.6494 -0.0300
  657TMC3    C2 9721   1.860   1.055  15.597 -0.6033  0.4602 -0.4603
  657TMC3    C3 9722   1.972   1.146  15.605  0.0351  0.2612 -0.3210
  657TMC3    C4 9723   1.858   1.106  15.361 -0.0560  0.0007  0.3741
  657TMC3    C5 9724   1.968   1.188  15.378  0.1795 -0.0214 -0.1448
  657TMC3    C6 9725   2.028   1.210  15.500 -0.2746  0.6860  0.6703
  657TMC3     C 9726   1.758   0.905  15.439  0.1356  0.1513  0.2217
  657TMC3     O 9727   1.705   0.873  15.334  0.2120 -0.0233  0.4997
  657TMC3     H 9728   1.819   1.004  15.683 -2.2329  3.1647  0.3764
  657TMC3    H1 9729   1.823   1.082  15.261  0.7278  1.9286 -0.3829
  657TMC3    H2 9730   2.123   1.262  15.502  0.7807 -1.2107  0.0322
  657TMC3    C7 9731   1.957   1.307  15.299  0.2864  0.2485  1.1490
  657TMC3    C8 9732   2.044   1.144  15.724 -0.2881  0.3096 -0.0815
  657TMC3    O1 9733   2.037   1.393  15.321 -0.2393  0.0732 -0.0364
  657TMC3    O2 9734   2.164   1.163  15.727  0.3475  0.4593 -0.5684
  658MPD2     C 9735   3.486   1.304  14.713  0.5021 -0.4139 -0.4021
  658MPD2    C1 9736   3.468   1.420  14.778 -0.5257  0.2761  0.1938
  658MPD2    C2 9737   3.503   1.541  14.720 -0.6225 -0.1016 -0.3998
  658MPD2    C3 9738   3.547   1.539  14.586  0.4622 -0.0860 -0.1260
  658MPD2    C4 9739   3.564   1.421  14.519  0.5160 -0.4390  0.9431
  658MPD2    C5 9740   3.530   1.304  14.586  0.1648 -0.2687  0.3217
  658MPD2     H 9741   3.494   1.634  14.775 -0.5663 -0.6880  0.6031
  658MPD2    H1 9742   3.582   1.425  14.412  0.3421 -0.7913  0.9019
  658MPD2    H2 9743   3.465   1.208  14.758  2.1042 -0.3213  0.5223
  658MPD2    H3 9744   3.547   1.212  14.531 -3.4032 -0.2989 -0.7255
  658MPD2     N 9745   3.569   1.668  14.530 -0.3697  0.3222 -0.4152
  658MPD2    H5 9746   3.548   1.751  14.584  0.9585  0.3078  0.1083
  658MPD2    N1 9747   3.418   1.405  14.906  0.2406 -0.1520  0.0202
  658MPD2    H7 9748   3.400   1.309  14.932 -1.9049  0.4322  0.6683
  659TMC3    C1 9749   3.338   1.445  15.118  0.4830  0.9754 -1.4062
  659TMC3    C2 9750   3.425   1.463  15.227 -0.2696  0.9680  0.9373
  659TMC3    C3 9751   3.417   1.365  15.321  0.6716 -0.0214  0.0186
  659TMC3    C4 9752   3.277   1.326  15.086 -0.1155 -0.3271  0.1494
  659TMC3    C5 9753   3.260   1.236  15.190 -0.3854 -0.8788 -0.0228
  659TMC3    C6 9754   3.339   1.250  15.304  0.0221 -1.0116 -0.1591
  659TMC3     C 9755   3.390   1.506  14.999 -0.1718  0.2196  0.2750
  659TMC3     O 9756   3.412   1.628  15.000  0.0300 -0.3718 -0.6046
  659TMC3     H 9757   3.488   1.549  15.243  1.7136 -0.2647 -0.2872
  659TMC3    H1 9758   3.202   1.327  15.008 -1.9141  1.6951  1.9161
  659TMC3    H2 9759   3.333   1.173  15.380  2.0720  0.3248  1.3754
  659TMC3    C7 9760   3.127   1.200  15.226  0.5937 -0.4137 -0.7674
  659TMC3    C8 9761   3.435   1.417  15.456  0.5739  0.0277 -0.2493
  659TMC3    O1 9762   3.112   1.181  15.346  0.4144  0.5577 -0.4698
  659TMC3    O2 9763   3.452   1.538  15.465  0.2053  0.2988  0.7648
  660MPD2     C 9764   0.861   0.951  12.647  0.4573  0.3690  0.0161
  660MPD2    C1 9765   0.728   0.933  12.635  0.0660  0.0384 -0.3385
  660MPD2    C2 9766   0.659   0.867  12.736  0.5646 -0.1062  0.1916
  660MPD2    C3 9767   0.727   0.827  12.844  0.7172  0.0060 -0.5681
  660MPD2    C4 9768   0.859   0.837  12.856  0.5958  0.9105  0.0378
  660MPD2    C5 9769   0.927   0.898  12.753  0.0810  0.4083  0.5434
  660MPD2     H 9770   0.552   0.874  12.726  0.4790  0.2580  1.3811
  660MPD2    H1 9771   0.915   0.786  12.933 -1.2231  0.2242  0.8961
  660MPD2    H2 9772   0.914   1.001  12.566  0.4733 -1.0801 -0.8657
  660MPD2    H3 9773   1.034   0.904  12.769  0.4748 -0.3307 -1.8180
  660MPD2     N 9774   0.675   0.771  12.960 -0.3058  0.2991  0.2983
  660MPD2    H5 9775   0.727   0.750  13.044 -0.3472  2.0537  0.7722
  660MPD2    N1 9776   0.669   0.988  12.517  0.0544  0.3962 -0.0078
  660MPD2    H7 9777   0.739   1.028  12.455  0.4380 -0.3256 -0.0394
  661TMC3    C1 9778   0.521   1.016  12.339 -0.7694 -0.4514 -0.0473
  661TMC3    C2 9779   0.613   1.110  12.293  0.4092  0.6375 -0.3099
  661TMC3    C3 9780   0.586   1.189  12.181  0.0387 -0.2496  1.0072
  661TMC3    C4 9781   0.407   0.995  12.265 -0.2170  0.8607  0.7175
  661TMC3    C5 9782   0.392   1.065  12.150  0.3288  0.2757  0.0813
  661TMC3    C6 9783   0.475   1.165  12.109  0.0952  0.3702 -0.6108
  661TMC3     C 9784   0.541   0.963  12.472  1.1181  0.2281 -0.3484
  661TMC3     O 9785   0.453   0.898  12.527 -0.4795  0.0853  0.5914
  661TMC3     H 9786   0.702   1.138  12.347  1.7022 -2.1854 -0.9688
  661TMC3    H1 9787   0.332   0.925  12.299  1.4400 -0.5769  1.4132
  661TMC3    H2 9788   0.447   1.218  12.019 -1.1637 -0.3538 -0.6379
  661TMC3    C7 9789   0.285   1.032  12.056  0.1408 -0.1116 -0.5161
  661TMC3    C8 9790   0.697   1.238  12.110  0.1543  0.3798  0.7425
  661TMC3    O1 9791   0.238   1.127  11.998 -0.7330 -0.1545  0.9421
  661TMC3    O2 9792   0.806   1.216  12.158 -0.1907  0.0983 -0.1153
  662MPD2     C 9793   1.273   4.142   0.654 -0.4513  0.0108  0.2412
  662MPD2    C1 9794   1.255   4.208   0.531 -0.3801 -0.1576  0.0938
  662MPD2    C2 9795   1.154   4.307   0.515  0.3424 -0.1115 -0.3816
  662MPD2    C3 9796   1.070   4.326   0.625  0.7890  0.1040  0.1767
  662MPD2    C4 9797   1.097   4.256   0.746  0.4180  0.3317 -0.1492
  662MPD2    C5 9798   1.187   4.161   0.759 -0.6987  0.3213  0.4876
  662MPD2     H 9799   1.138   4.355   0.420 -0.7851  2.6870  1.2244
  662MPD2    H1 9800   1.028   4.269   0.829 -0.1525  1.1051 -0.7411
  662MPD2    H2 9801   1.357   4.078   0.680 -0.6507 -1.0493 -1.7418
  662MPD2    H3 9802   1.206   4.115   0.855  1.6014  0.8449  0.2797
  662MPD2     N 9803   0.963   4.418   0.600  0.7620 -0.9590 -0.1545
  662MPD2    H5 9804   0.938   4.449   0.506  0.2087 -0.6486  0.0955
  662MPD2    N1 9805   1.344   4.181   0.420  0.8541  0.0279  0.0356
  662MPD2    H7 9806   1.331   4.231   0.333 -0.2062 -0.0153  0.1696
  663TMC3    C1 9807   1.481   4.050   0.281 -0.0687  0.5745 -0.3737
  663TMC3    C2 9808   1.396   4.058   0.170  1.0213  0.0656  0.8479
  663TMC3    C3 9809   1.427   3.986   0.055 -0.0477 -0.8011 -0.1402
  663TMC3    C4 9810   1.600   3.989   0.273 -0.1794 -0.1932  0.0675
  663TMC3    C5 9811   1.639   3.935   0.155  0.8501 -0.3061  0.2087
  663TMC3    C6 9812   1.552   3.931   0.046 -0.5802  0.5100 -0.0539
  663TMC3     C 9813   1.429   4.073   0.407  0.1999  0.0307 -0.0919
  663TMC3     O 9814   1.461   3.987   0.494  0.0954 -0.0043 -0.2189
  663TMC3     H 9815   1.301   4.109   0.179  0.2619 -1.7598  3.3677
  663TMC3    H1 9816   1.651   3.975   0.368 -0.2442  1.9488  0.4226
  663TMC3    H2 9817   1.582   3.890  17.641  0.3859 -2.6179  1.5843
  663TMC3    C7 9818   1.724   3.819   0.178  0.4391  0.2254  0.0360
  663TMC3    C8 9819   1.337   3.878   0.023 -0.2514 -0.1156  0.0471
  663TMC3    O1 9820   1.814   3.822   0.262 -0.0364  0.1235  0.0371
  663TMC3    O2 9821   1.397   3.784  17.664  0.2448  0.6097  0.1226
  664MPD2     C 9822   4.173   2.682  17.171 -0.7870 -0.1487  0.1961
  664MPD2    C1 9823   4.235   2.764  17.262 -0.6769  0.3880 -0.4948
  664MPD2    C2 9824   4.247   2.721  17.389  0.7158  0.1341 -0.1398
  664MPD2    C3 9825   4.169   2.619  17.446  0.1747 -0.2650 -0.1758
  664MPD2    C4 9826   4.092   2.550  17.360  0.5343 -0.3326 -0.7050
  664MPD2    C5 9827   4.098   2.580  17.230  1.1322 -0.7674 -0.4740
  664MPD2     H 9828   4.317   2.771  17.454 -0.2624  0.2041  0.8447
  664MPD2    H1 9829   4.032   2.464  17.388  1.8076 -0.9471  0.1678
  664MPD2    H2 9830   4.187   2.697  17.064  1.9516  1.9809  0.8516
  664MPD2    H3 9831   4.046   2.511  17.164 -0.5956 -1.3815  1.5343
  664MPD2     N 9832   4.178   2.592  17.586  0.2723  0.5210 -0.4409
  664MPD2    H5 9833   4.250   2.641  17.638  2.2824 -2.9691  0.0568
  664MPD2    N1 9834   4.314   2.873  17.229 -0.1435 -0.1794  0.4976
  664MPD2    H7 9835   4.368   2.917  17.303 -1.9108  1.8627  0.5632
  665TMC3    C1 9836   4.102   2.531   0.118  0.0870  0.0392 -0.0439
  665TMC3    C2 9837   4.024   2.446   0.196  0.0974 -1.0782 -0.8660
  665TMC3    C3 9838   4.022   2.465   0.335 -0.3327 -0.2732  0.7512
  665TMC3    C4 9839   4.172   2.635   0.172  0.1784 -0.1749 -0.0900
  665TMC3    C5 9840   4.174   2.649   0.306  0.2634  0.0104  0.0136
  665TMC3    C6 9841   4.098   2.564   0.386 -0.0188 -0.1689  0.4589
  665TMC3     C 9842   4.088   2.517  17.662  0.3560  0.0488  0.1018
  665TMC3     O 9843   3.994   2.448  17.616  0.0449  0.4944  0.1906
  665TMC3     H 9844   3.954   2.385   0.141 -1.1868 -0.8003  0.4501
  665TMC3    H1 9845   4.218   2.711   0.110  1.5691 -0.1311  1.0148
  665TMC3    H2 9846   4.105   2.579   0.493 -1.3494  0.9052  0.3853
  665TMC3    C7 9847   4.257   2.756   0.358 -0.4356  0.3582 -0.0524
  665TMC3    C8 9848   3.967   2.369   0.433 -0.2032  0.3099 -0.0698
  665TMC3    O1 9849   4.359   2.786   0.300  0.5896 -0.0535  0.0916
  665TMC3    O2 9850   3.998   2.390   0.551  0.1896  0.2971 -0.2147
  666TMC3    C1 9851   2.475   3.132  10.167  0.2365  0.1665 -0.0153
  666TMC3    C2 9852   2.536   3.041  10.085  0.2520 -0.4075  0.8627
  666TMC3    C3 9853   2.560   3.088   9.957 -0.6564 -0.2450  0.2064
  666TMC3    C4 9854   2.440   3.260  10.130  0.3282  0.2489 -0.2176
  666TMC3    C5 9855   2.465   3.304  10.004  0.1245 -0.6175 -0.5024
  666TMC3    C6 9856   2.521   3.213   9.914  0.0510  0.2521  0.3162
  666TMC3     C 9857   2.471   3.106  10.311  0.0403  0.6452 -0.3123
  666TMC3     O 9858   2.407   3.172  10.393  0.4086  0.2866 -0.2939
  666TMC3     H 9859   2.570   2.943  10.117  2.6157  0.8239  2.1368
  666TMC3    H1 9860   2.395   3.326  10.203  0.6166  1.8165 -1.4631
  666TMC3    H2 9861   2.554   3.232   9.812  2.1116  0.4452  1.0350
  666TMC3    C7 9862   2.515   3.449  10.005 -0.0992  0.2321 -0.1837
  666TMC3    C8 9863   2.656   3.005   9.885 -1.0307 -0.7493 -0.5892
  666TMC3    O1 9864   2.506   3.505  10.114 -0.2914  0.0535  0.0138
  666TMC3    O2 9865   2.738   2.960   9.961 -0.1403  0.2682 -0.3874
  667MPD2     C 9866   0.461   3.304  14.175  0.1487  0.4910 -0.5911
  667MPD2    C1 9867   0.532   3.224  14.264  0.8982  0.1504  0.0030
  667MPD2    C2 9868   0.503   3.086  14.267 -0.2324 -0.0247  0.5266
  667MPD2    C3 9869   0.398   3.035  14.176 -0.3266 -0.2120 -0.7777
  667MPD2    C4 9870   0.331   3.128  14.097  0.6119  0.3727  0.6853
  667MPD2    C5 9871   0.352   3.261  14.107  0.0611 -0.1789  0.4936
  667MPD2     H 9872   0.567   3.016  14.321 -1.5030  0.0328  2.1029
  667MPD2    H1 9873   0.251   3.090  14.034 -0.5989  0.7991  1.9594
  667MPD2    H2 9874   0.467   3.412  14.170 -0.2633  0.5831  0.9185
  667MPD2    H3 9875   0.292   3.333  14.052 -2.0448 -0.6306  2.2036
  667MPD2     N 9876   0.366   2.900  14.149 -0.7325  0.3038  0.3454
  667MPD2    H5 9877   0.291   2.885  14.082  0.7059  0.1178 -1.2300
  667MPD2    N1 9878   0.633   3.277  14.348 -0.2348  0.0586  0.4855
  667MPD2    H7 9879   0.649   3.223  14.432  0.4292 -1.7590 -0.7875
  668TMC3    C1 9880   0.752   3.452  14.461  0.4935  0.3794 -0.0882
  668TMC3    C2 9881   0.782   3.587  14.455  0.4637 -0.2844  0.5285
  668TMC3    C3 9882   0.777   3.655  14.575 -0.3654 -0.2490  0.6131
  668TMC3    C4 9883   0.730   3.389  14.582 -0.9386 -0.6432 -0.3703
  668TMC3    C5 9884   0.728   3.468  14.690  0.0793 -0.7285  0.4543
  668TMC3    C6 9885   0.758   3.604  14.691 -0.7447  0.6185 -0.5553
  668TMC3     C 9886   0.695   3.397  14.334 -0.6621  0.1674  0.6024
  668TMC3     O 9887   0.688   3.465  14.234  0.0237  0.3390 -0.3504
  668TMC3     H 9888   0.801   3.637  14.361  0.0379 -1.2531 -0.0834
  668TMC3    H1 9889   0.728   3.280  14.587 -1.6704 -0.7356 -2.7498
  668TMC3    H2 9890   0.738   3.667  14.777 -2.0034  0.2262 -0.5592
  668TMC3    C7 9891   0.714   3.417  14.825 -0.5863  0.6313 -1.1212
  668TMC3    C8 9892   0.808   3.793  14.590 -0.1612 -0.0195 -0.2149
  668TMC3    O1 9893   0.763   3.484  14.914 -0.3545 -0.1944 -0.3056
  668TMC3    O2 9894   0.870   3.830  14.691 -0.1102  0.4425 -0.0811
  669TMC3    C1 9895   3.036   3.248  14.575 -0.2618  0.3611  0.1832
  669TMC3    C2 9896   2.902   3.257  14.535  0.3120  1.0542 -0.1631
  669TMC3    C3 9897   2.880   3.353  14.440 -0.2553 -0.4162  0.1588
  669TMC3    C4 9898   3.134   3.327  14.518 -0.0909  0.2139  0.3608
  669TMC3    C5 9899   3.099   3.415  14.415  0.0582  0.1036 -0.1161
  669TMC3    C6 9900   2.976   3.428  14.374 -0.2543 -0.0413 -0.1666
  669TMC3     C 9901   3.066   3.147  14.681 -0.4062  0.4900 -0.1539
  669TMC3     O 9902   2.974   3.078  14.722 -0.3633  0.3200 -0.1889
  669TMC3     H 9903   2.831   3.180  14.563  2.4061 -0.6786  0.4168
  669TMC3    H1 9904   3.231   3.338  14.565 -0.4301  0.1977  1.0715
  669TMC3    H2 9905   2.948   3.495  14.293  0.5505 -0.5760 -0.9000
  669TMC3    C7 9906   3.207   3.486  14.352 -0.5209 -0.1232  0.2828
  669TMC3    C8 9907   2.741   3.369  14.393  0.7218  0.4902  0.4868
  669TMC3    O1 9908   3.183   3.586  14.286  0.0412 -0.8317  0.3004
  669TMC3    O2 9909   2.729   3.419  14.287 -0.4077 -0.8340 -0.0787
  670MPD2     C 9910   1.350   1.170  13.769 -0.3647  0.2812  0.2460
  670MPD2    C1 9911   1.458   1.167  13.855 -0.4435  0.5532  0.6421
  670MPD2    C2 9912   1.451   1.079  13.967 -0.3121 -0.4352  0.6364
  670MPD2    C3 9913   1.337   1.005  13.986 -0.1035 -0.4169  0.7037
  670MPD2    C4 9914   1.226   1.016  13.901  0.0614  0.1447 -0.4434
  670MPD2    C5 9915   1.240   1.097  13.794 -0.3149 -0.8167 -0.2017
  670MPD2     H 9916   1.535   1.070  14.035 -0.3466  0.7475  0.8435
  670MPD2    H1 9917   1.136   0.955  13.899  1.2969 -1.7063  1.1534
  670MPD2    H2 9918   1.350   1.236  13.683  2.4413  2.1326  1.6523
  670MPD2    H3 9919   1.157   1.084  13.726  0.8381  0.2796 -1.8231
  670MPD2     N 9920   1.339   0.916  14.096 -0.0532 -0.3996  0.4762
  670MPD2    H5 9921   1.422   0.907  14.153  0.3963 -3.5284 -0.6297
  670MPD2    N1 9922   1.579   1.248  13.833 -0.2134 -0.0829 -0.1470
  670MPD2    H7 9923   1.653   1.246  13.902 -0.0399  1.2741 -0.3052
  671TMC3    C1 9924   1.271   0.772  14.267  0.5021 -0.4661 -0.2503
  671TMC3    C2 9925   1.396   0.806  14.309 -0.1411  0.2076  0.7238
  671TMC3    C3 9926   1.483   0.717  14.359 -0.1165  0.2783 -0.3883
  671TMC3    C4 9927   1.236   0.644  14.272  0.4964  0.3534  0.6009
  671TMC3    C5 9928   1.329   0.548  14.311  0.4094  0.0576  0.6937
  671TMC3    C6 9929   1.449   0.585  14.363  0.4699 -0.4756  0.1106
  671TMC3     C 9930   1.231   0.839  14.144  0.0873 -0.0030  0.2583
  671TMC3     O 9931   1.120   0.806  14.098 -0.0107 -0.1379 -0.8954
  671TMC3     H 9932   1.405   0.911  14.335 -0.8051  0.1173  1.3087
  671TMC3    H1 9933   1.146   0.607  14.225 -0.1596  1.2805  1.1187
  671TMC3    H2 9934   1.522   0.507  14.384  1.0292  0.0789  0.2287
  671TMC3    C7 9935   1.323   0.421  14.240  0.1666  0.4301 -0.7676
  671TMC3    C8 9936   1.616   0.735  14.312  0.1173 -0.1408 -0.0783
  671TMC3    O1 9937   1.422   0.391  14.170  0.5086 -0.1789 -0.6795
  671TMC3    O2 9938   1.647   0.635  14.250  0.2931  0.2677  0.3614
  672MPD2     C 9939   2.217   1.282   1.244 -0.2740 -0.2255 -0.0115
  672MPD2    C1 9940   2.227   1.154   1.200  0.3915 -0.3739 -0.6034
  672MPD2    C2 9941   2.347   1.108   1.147  0.2299  0.5224  0.2148
  672MPD2    C3 9942   2.451   1.197   1.131  0.3451  0.7070  0.2634
  672MPD2    C4 9943   2.439   1.327   1.180 -0.1214  0.1888 -0.1520
  672MPD2    C5 9944   2.322   1.362   1.241 -0.0692  0.2054 -0.3372
  672MPD2     H 9945   2.353   1.007   1.108 -0.9908  0.8854 -0.9248
  672MPD2    H1 9946   2.514   1.405   1.167  0.0443 -0.2734 -1.8775
  672MPD2    H2 9947   2.135   1.319   1.304 -0.1416 -0.8421  0.5506
  672MPD2    H3 9948   2.319   1.464   1.276 -1.8416  0.5361 -1.4740
  672MPD2     N 9949   2.570   1.161   1.054 -0.5496  0.0324  0.0906
  672MPD2    H5 9950   2.641   1.233   1.045  0.2228 -0.7279  0.0859
  672MPD2    N1 9951   2.118   1.059   1.206 -0.0646  0.6272  1.3699
  672MPD2    H7 9952   2.132   0.964   1.174  1.2994  1.2496  0.1041
  673TMC3    C1 9953   1.902   0.981   1.257  0.2365 -0.4355  0.1966
  673TMC3    C2 9954   1.940   0.860   1.311  0.9270 -0.0177 -0.2032
  673TMC3    C3 9955   1.839   0.761   1.314 -0.5780 -0.8335 -0.3252
  673TMC3    C4 9956   1.784   0.993   1.188  0.2277 -0.1099 -0.1979
  673TMC3    C5 9957   1.693   0.896   1.193  0.3515  0.6623 -0.4796
  673TMC3    C6 9958   1.719   0.779   1.255 -0.3620  1.0849 -0.1225
  673TMC3     C 9959   1.995   1.094   1.244 -0.0980 -0.0373  0.2875
  673TMC3     O 9960   1.949   1.211   1.229 -0.7228  0.3949  0.7024
  673TMC3     H 9961   2.033   0.857   1.367 -0.1075 -0.5437  1.4758
  673TMC3    H1 9962   1.756   1.095   1.165 -0.6003 -0.7253 -1.9178
  673TMC3    H2 9963   1.644   0.700   1.260 -0.6935  1.2960 -1.9701
  673TMC3    C7 9964   1.588   0.883   1.094  0.4759  0.1245  0.1663
  673TMC3    C8 9965   1.853   0.650   1.402 -0.9194  0.6042  0.6537
  673TMC3    O1 9966   1.508   0.791   1.095  0.1608  0.5895  0.1802
  673TMC3    O2 9967   1.745   0.602   1.439 -0.4225  0.1465  0.4551
  674MPD2     C 9968   0.972   0.974   0.191  0.1030 -0.8988 -0.3383
  674MPD2    C1 9969   1.014   0.869   0.271  0.0914 -0.4873  0.9279
  674MPD2    C2 9970   0.965   0.868   0.402 -0.0036 -0.1444  0.2741
  674MPD2    C3 9971   0.878   0.971   0.439  0.4902  0.4054  0.1009
  674MPD2    C4 9972   0.847   1.082   0.360  0.1176  0.1214 -0.0145
  674MPD2    C5 9973   0.895   1.081   0.233  0.1671 -0.8277 -0.2868
  674MPD2     H 9974   0.993   0.792   0.474 -0.3714 -1.8781 -1.4136
  674MPD2    H1 9975   0.764   1.147   0.388  0.0215  0.2508 -0.5984
  674MPD2    H2 9976   0.996   0.980   0.086  0.5850  0.5520 -0.1511
  674MPD2    H3 9977   0.861   1.162   0.169 -0.8948  0.5602  2.0224
  674MPD2     N 9978   0.839   0.964   0.575 -0.3730  0.1491 -0.1798
  674MPD2    H5 9979   0.874   0.887   0.631 -4.1885 -0.6417  1.1452
  674MPD2    N1 9980   1.096   0.757   0.240 -0.1953  0.0568 -0.2901
  674MPD2    H7 9981   1.096   0.691   0.317 -2.2599 -2.2212 -2.2132
  675TMC3    C1 9982   1.210   0.580   0.136 -0.9356 -0.0994  0.1408
  675TMC3    C2 9983   1.250   0.537   0.263  0.4638 -0.0788  0.6903
  675TMC3    C3 9984   1.267   0.403   0.284 -0.7187  0.5824 -0.7349
  675TMC3    C4 9985   1.191   0.489   0.034 -0.2243 -0.0136 -0.7069
  675TMC3    C5 9986   1.210   0.355   0.058 -0.0095 -0.5623  0.6589
  675TMC3    C6 9987   1.251   0.311   0.183  0.1452  0.3494 -0.0986
  675TMC3     C 9988   1.159   0.717   0.121  0.1473 -1.0139  0.4489
  675TMC3     O 9989   1.142   0.764   0.007 -0.2754  0.0237  1.1519
  675TMC3     H 9990   1.273   0.614   0.336 -1.5086  3.0260 -1.9552
  675TMC3    H1 9991   1.157   0.526  17.629  0.5194  0.3260 -0.8363
  675TMC3    H2 9992   1.256   0.205   0.204  0.2646 -0.1748 -2.8745
  675TMC3    C7 9993   1.174   0.250  17.658  0.1086 -0.3468  0.5622
  675TMC3    C8 9994   1.190   0.382   0.407 -0.0045 -0.0870  0.2513
  675TMC3    O1 9995   1.248   0.152  17.663 -0.3063 -0.4209 -0.0279
  675TMC3    O2 9996   1.108   0.469   0.432  0.1688  0.6116  0.2217
  676MPD2     C 9997   4.146   3.873  11.039 -0.1722  0.1280 -0.6801
  676MPD2    C1 9998   4.022   3.821  11.018  0.1870  0.6455  0.0956
  676MPD2    C2 9999   4.009   3.682  11.026 -0.9077  0.5943  0.1853
  676MPD2    C310000   4.113   3.592  11.045  0.5854 -0.7682  0.3817
  676MPD2    C410001   4.227   3.651  11.070  0.7120 -0.2509  0.1879
  676MPD2    C510002   4.250   3.786  11.069 -0.0932 -0.0791 -0.3439
  676MPD2     H10003   3.910   3.645  11.000 -0.4473 -1.6797  1.7111
  676MPD2    H110004   4.319   3.594  11.081  1.0353  0.3058  0.3808
  676MPD2    H210005   4.161   3.979  11.050 -2.8820  0.3712  0.7373
  676MPD2    H310006   4.343   3.835  11.097 -0.2586  1.1151 -1.8786
  676MPD2     N10007   4.100   3.455  11.045  0.2904  0.0888 -0.6536
  676MPD2    H510008   4.189   3.408  11.054  0.1753 -0.0281 -0.1447
  676MPD2    N110009   3.909   3.895  10.995  0.3622  0.3100  0.5150
  676MPD2    H710010   3.820   3.846  11.005  1.5635 -2.2779 -1.8507
  677TMC3    C110011   3.779   4.098  11.009 -0.0180 -0.3487  0.7283
  677TMC3    C210012   3.722   4.051  11.125  0.4357  0.2631 -0.2028
  677TMC3    C310013   3.685   4.133  11.229 -0.0668  0.7229 -0.6975
  677TMC3    C410014   3.801   4.230  10.991  0.4424 -0.8022 -0.5497
  677TMC3    C510015   3.775   4.314  11.093 -0.1426 -0.1679  0.1954
  677TMC3    C610016   3.706   4.266  11.207 -0.6276  0.2207  0.4781
  677TMC3     C10017   3.901   4.031  10.980  0.1714 -0.0587  0.0297
  677TMC3     O10018   3.993   4.104  10.947 -0.3546 -0.7582 -0.1257
  677TMC3     H10019   3.712   3.948  11.157  0.2053 -0.5377 -2.8272
  677TMC3    H110020   3.849   4.262  10.900  0.5144 -0.3839 -0.3643
  677TMC3    H210021   3.688   4.339  11.285  0.7729  1.1819 -0.0982
  677TMC3    C710022   3.883   4.404  11.124 -0.1423  0.0989  0.3874
  677TMC3    C810023   3.723   4.078  11.353 -0.3163 -0.0283 -0.4947
  677TMC3    O110024   3.862   4.503  11.190 -0.0468 -0.0948 -0.2136
  677TMC3    O210025   3.815   3.996  11.350 -0.5262 -0.0724  0.4136
  678MPD2     C10026   0.391   3.423   1.723 -0.5908  0.2180  0.0582
  678MPD2    C110027   0.389   3.413   1.587 -0.5366 -0.1640 -0.0187
  678MPD2    C210028   0.272   3.413   1.520 -0.2912  0.9670  0.0738
  678MPD2    C310029   0.157   3.406   1.594  0.0444 -0.7804 -0.2405
  678MPD2    C410030   0.153   3.434   1.734 -0.4467 -0.0424 -0.2515
  678MPD2    C510031   0.279   3.431   1.797  0.0300  0.5445 -0.4243
  678MPD2     H10032   0.275   3.405   1.412  1.2599  0.7792  0.1311
  678MPD2    H110033   0.064   3.451   1.794 -0.7379 -0.9332 -0.4379
  678MPD2    H210034   0.486   3.418   1.776  0.4638 -0.6110 -1.9301
  678MPD2    H310035   0.285   3.445   1.905  0.9099  1.2259 -0.5598
  678MPD2     N10036   0.036   3.404   1.517  0.3837 -0.3596  0.4778
  678MPD2    H510037   0.043   3.395   1.417 -1.2974 -0.7960  0.3913
  678MPD2    N110038   0.509   3.418   1.507  0.2826  0.2889 -0.6608
  678MPD2    H710039   0.502   3.422   1.406 -1.2023  1.2941 -0.5135
  679TMC3    C110040   0.936   3.373   1.348  0.1346  0.1536 -0.3724
  679TMC3    C210041   0.850   3.354   1.454 -0.5002  0.3845  0.6281
  679TMC3    C310042   0.731   3.409   1.437  0.1348 -0.1699  0.2613
  679TMC3    C410043   0.904   3.433   1.229 -0.2921  0.4426  0.3630
  679TMC3    C510044   0.770   3.475   1.221  0.1899  0.1892  0.1525
  679TMC3    C610045   0.681   3.456   1.318  0.4879 -0.1771  0.2383
  679TMC3     C10046   1.069   3.311   1.347 -0.8516 -0.7809  0.0930
  679TMC3     O10047   1.141   3.338   1.254 -0.4708 -0.9380 -0.1975
  679TMC3     H10048   0.886   3.315   1.549  1.1685 -2.4177 -1.1578
  679TMC3    H110049   0.975   3.439   1.147 -0.6636  0.6405  0.0583
  679TMC3    H210050   0.584   3.504   1.307  0.9354  0.2793 -1.7683
  679TMC3    C710051   0.728   3.563   1.118  0.0623 -0.1214 -0.4842
  679TMC3    C810052   0.638   3.412   1.552 -0.6422  0.0634  0.1720
  679TMC3    O110053   0.612   3.562   1.081  0.5276 -0.3307  0.1217
  679TMC3    O210054   0.692   3.403   1.661 -0.3314  0.6111 -0.2104
  680MPD2     C10055   1.031   3.005  13.811  0.0411 -0.0008 -0.2728
  680MPD2    C110056   1.142   2.942  13.852  0.4694  0.6126 -0.4681
  680MPD2    C210057   1.256   3.014  13.880 -0.2003 -0.0872  0.3497
  680MPD2    C310058   1.254   3.152  13.849  0.4401  0.0961 -0.2055
  680MPD2    C410059   1.145   3.210  13.805  0.7139 -0.1931  0.6294
  680MPD2    C510060   1.031   3.138  13.787  0.2371 -0.4137  0.5544
  680MPD2     H10061   1.346   2.959  13.904 -0.0174  0.3293  0.6181
  680MPD2    H110062   1.136   3.316  13.786 -3.3723 -0.9920 -2.0974
  680MPD2    H210063   0.938   2.950  13.801 -0.9410  1.3948  1.0757
  680MPD2    H310064   0.945   3.192  13.753 -0.0099  0.0590  1.9115
  680MPD2     N10065   1.369   3.230  13.876 -0.5168  0.0142 -0.2915
  680MPD2    H510066   1.367   3.330  13.855 -1.1999  0.0386 -0.1079
  680MPD2    N110067   1.142   2.802  13.877 -0.3873  0.0566 -0.2547
  680MPD2    H710068   1.236   2.767  13.893 -1.2357 -3.6787 -3.4547
  681TMC3    C110069   1.077   2.571  13.866  0.1226  0.3494  0.2772
  681TMC3    C210070   1.035   2.489  13.968  0.0570  0.0797 -0.7888
  681TMC3    C310071   1.131   2.391  14.001  0.4506 -0.2405  0.0381
  681TMC3    C410072   1.197   2.562  13.804  0.4053 -0.3690  0.0242
  681TMC3    C510073   1.288   2.466  13.843 -0.0467 -0.3654  0.0156
  681TMC3    C610074   1.248   2.372  13.940 -0.1480 -0.2841 -0.2096
  681TMC3     C10075   1.038   2.713  13.893 -0.8674  0.0357 -0.5757
  681TMC3     O10076   0.917   2.733  13.922  0.4311 -0.6041  0.9220
  681TMC3     H10077   0.941   2.491  14.024  0.5353  0.0565  0.0195
  681TMC3    H110078   1.226   2.633  13.728  0.1652 -0.2924  0.0053
  681TMC3    H210079   1.305   2.284  13.967 -0.3203 -0.3549 -0.0761
  681TMC3    C710080   1.418   2.452  13.777 -0.1680 -0.2233  0.8930
  681TMC3    C810081   1.100   2.317  14.124  0.1665 -0.3211  0.1154
  681TMC3    O110082   1.500   2.381  13.836  0.1740 -0.3700 -0.0308
  681TMC3    O210083   0.981   2.295  14.146  0.3281  0.5088  0.1676
  682MPD2     C10084   2.555   4.632  10.472 -0.1339 -0.1599 -0.6691
  682MPD2    C110085   2.629   4.525  10.522  0.3531 -0.6720 -0.2662
  682MPD2    C210086   2.640   4.507  10.660 -0.5052  0.0921 -0.2651
  682MPD2    C310087   2.553   4.576  10.746 -0.4961  0.5492 -0.3957
  682MPD2    C410088   2.474   4.677  10.692 -0.6471 -0.2879  0.2163
  682MPD2    C510089   2.476   4.703  10.556 -1.1480 -0.5787  0.7488
  682MPD2     H10090   2.704   4.426  10.691  1.5035  0.9524 -2.1301
  682MPD2    H110091   2.413   0.022  10.751  1.4195  1.3580  0.5085
  682MPD2    H210092   2.546   4.654  10.366  1.0696  2.7080 -0.1565
  682MPD2    H310093   2.416   0.062  10.516  0.8106  0.4994 -0.0483
  682MPD2     N10094   2.556   4.567  10.886  0.2347 -0.4872 -0.0642
  682MPD2    H510095   2.474   4.606  10.932 -1.4516 -2.7228 -1.1781
  682MPD2    N110096   2.690   4.430  10.435  0.7056  0.0871 -0.4936
  682MPD2    H710097   2.745   4.353  10.471 -1.7680 -1.0468  0.8935
  683TMC3    C110098   2.663   4.415  11.316 -0.0813 -0.5958 -0.1507
  683TMC3    C210099   2.553   4.341  11.340 -0.1281  0.4569 -0.2796
  683TMC3    C310100   2.467   4.322  11.236  0.3024  0.7332 -0.4301
  683TMC3    C410101   2.681   4.485  11.200  0.0851  0.2675  0.0552
  683TMC3    C510102   2.591   4.473  11.096 -0.0426  0.1987  0.4698
  683TMC3    C610103   2.483   4.387  11.114  0.2723 -0.0659  0.0402
  683TMC3     C10104   2.755   4.457  11.422 -0.3230  0.0530 -0.5591
  683TMC3     O10105   2.843   4.541  11.403 -0.9579 -0.0657  0.1771
  683TMC3     H10106   2.543   4.282  11.430  0.3587  0.9723  0.1116
  683TMC3    H110107   2.771   4.539  11.170  0.1188 -0.0673 -0.4425
  683TMC3    H210108   2.425   4.363  11.025  0.4813  1.5060 -0.5352
  683TMC3    C710109   2.645   4.493  10.963  0.6938  0.0095 -0.3837
  683TMC3    C810110   2.345   4.251  11.251  0.5855 -0.5021  0.3119
  683TMC3    O110111   2.751   4.431  10.941  0.1839 -0.2205 -0.4850
  683TMC3    O210112   2.258   4.276  11.169 -0.1288 -0.5703  0.9240
  684MPD2     C10113   1.347   3.431  16.652  0.2195 -0.3294 -0.1338
  684MPD2    C110114   1.340   3.428  16.520  0.0472  0.2982  0.1135
  684MPD2    C210115   1.352   3.539  16.445 -0.0577 -0.2852 -0.5571
  684MPD2    C310116   1.386   3.656  16.505  0.2765 -0.4376  0.0525
  684MPD2    C410117   1.404   3.657  16.640 -0.0795  0.4992  0.0741
  684MPD2    C510118   1.372   3.552  16.716  1.2021  0.3412  0.1176
  684MPD2     H10119   1.369   3.528  16.338 -0.6213  0.9484 -0.7676
  684MPD2    H110120   1.432   3.740  16.704  1.3246  0.4620 -0.5090
  684MPD2    H210121   1.336   3.342  16.712  0.2418 -0.7536 -0.7615
  684MPD2    H310122   1.383   3.556  16.824 -1.6931 -0.7834  0.4490
  684MPD2     N10123   1.426   3.772  16.432 -0.2773 -0.3058 -0.3499
  684MPD2    H510124   1.487   3.844  16.470 -1.4480  0.9097 -0.7837
  684MPD2    N110125   1.343   3.309  16.443  0.6206  0.0000 -0.6404
  684MPD2    H710126   1.323   3.314  16.343  0.4030  1.2420 -0.5442
  685TMC3    C110127   1.456   3.121  16.364  0.5448 -0.4546 -0.2038
  685TMC3    C210128   1.391   3.136  16.244 -0.0813 -0.0778  0.1827
  685TMC3    C310129   1.465   3.120  16.121  0.0908  0.6748  0.1741
  685TMC3    C410130   1.590   3.095  16.364 -0.6075 -0.2284  0.0376
  685TMC3    C510131   1.661   3.082  16.246 -0.4741  0.0653  0.0027
  685TMC3    C610132   1.601   3.089  16.125 -0.1479 -0.6125 -0.3551
  685TMC3     C10133   1.400   3.189  16.482 -0.3973  0.1723 -0.1144
  685TMC3     O10134   1.441   3.160  16.598 -0.0074  0.3032 -0.2297
  685TMC3     H10135   1.284   3.156  16.239  0.2172  1.7157  0.9964
  685TMC3    H110136   1.636   3.093  16.462 -2.4136  2.4366  0.9352
  685TMC3    H210137   1.653   3.088  16.029  0.6550 -1.3282  0.0895
  685TMC3    C710138   1.802   3.097  16.262 -0.6289  0.1649  0.8116
  685TMC3    C810139   1.398   3.128  15.988  0.1251 -0.1604 -0.3461
  685TMC3    O110140   1.839   3.077  16.375 -0.3355  0.4985 -0.2553
  685TMC3    O210141   1.448   3.076  15.891  0.3703 -0.1711  0.7473
  686MPD2     C10142   2.719   3.411  15.380 -0.0189 -0.2240  0.5636
  686MPD2    C110143   2.781   3.321  15.471  0.5801 -0.1765  0.9405
  686MPD2    C210144   2.840   3.204  15.430 -1.2983 -0.1621  0.1912
  686MPD2    C310145   2.830   3.162  15.302 -0.1437  0.0020  0.0814
  686MPD2    C410146   2.793   3.260  15.209 -0.1228 -0.1704  0.1710
  686MPD2    C510147   2.729   3.379  15.245  0.1172  0.7822 -0.2496
  686MPD2     H10148   2.903   3.148  15.498 -2.7538 -3.6210 -1.3125
  686MPD2    H110149   2.789   3.232  15.105  2.1041 -2.9696  0.8401
  686MPD2    H210150   2.660   3.491  15.423 -0.6260 -0.2444 -0.2292
  686MPD2    H310151   2.680   3.437  15.168  1.6891 -0.6448 -2.3317
  686MPD2     N10152   2.894   3.044  15.252 -0.2977  0.1536  0.5260
  686MPD2    H510153   2.917   3.044  15.153 -1.7425 -0.8858  0.1866
  686MPD2    N110154   2.758   3.354  15.607  0.1466 -0.2694  0.3495
  686MPD2    H710155   2.704   3.437  15.631 -2.5228 -1.2175 -2.3160
  687TMC3    C110156   2.894   2.889  15.444  0.0326  0.8048 -0.3433
  687TMC3    C210157   2.763   2.914  15.465 -0.3324 -0.0889  0.2780
  687TMC3    C310158   2.714   2.869  15.586  0.5177 -0.3196 -0.7946
  687TMC3    C410159   2.970   2.814  15.529 -0.2633  0.4624 -0.4265
  687TMC3    C510160   2.921   2.788  15.655 -0.8128  0.0893 -0.7088
  687TMC3    C610161   2.786   2.807  15.679  0.4566 -0.3397 -0.9869
  687TMC3     C10162   2.961   2.951  15.333 -0.0079  0.4539 -0.1723
  687TMC3     O10163   3.060   2.891  15.297  0.7794  1.1896  0.2468
  687TMC3     H10164   2.696   2.964  15.395 -0.7840  0.7528  1.3067
  687TMC3    H110165   3.074   2.807  15.496 -0.1967  2.2276 -0.5667
  687TMC3    H210166   2.734   2.780  15.770  1.7434 -1.6962 -0.6653
  687TMC3    C710167   3.006   2.841  15.755 -0.0076 -0.3231 -0.6406
  687TMC3    C810168   2.578   2.909  15.624 -0.7170 -0.4448  0.3298
  687TMC3    O110169   3.122   2.861  15.724  0.5043 -0.0215  0.2739
  687TMC3    O210170   2.513   2.821  15.678  0.7290 -0.0031  0.0738
  688MPD2     C10171   2.290   1.412  17.458  0.2453  0.5125 -0.9061
  688MPD2    C110172   2.209   1.522  17.436 -0.7900  0.2302  0.4913
  688MPD2    C210173   2.245   1.608  17.334  0.4546  0.6591  0.2945
  688MPD2    C310174   2.347   1.591  17.252 -0.4062 -0.0391  0.6809
  688MPD2    C410175   2.409   1.467  17.258  0.1543  0.7011  0.0364
  688MPD2    C510176   2.388   1.387  17.368 -0.0551  0.0397 -0.4611
  688MPD2     H10177   2.198   1.706  17.333 -0.6065  0.1186 -3.3263
  688MPD2    H110178   2.491   1.446  17.190  2.3029 -0.8018  3.1292
  688MPD2    H210179   2.272   1.337  17.534  0.8156  0.1907 -1.0926
  688MPD2    H310180   2.448   1.298  17.380  1.5922  1.0032 -1.5059
  688MPD2     N10181   2.390   1.689  17.159  0.4113  0.1829  0.4472
  688MPD2    H510182   2.469   1.666  17.100 -0.6512 -0.8304 -0.5975
  688MPD2    N110183   2.105   1.548  17.528 -0.2219 -0.3426  0.2559
  688MPD2    H710184   2.096   1.482  17.604  0.9696 -0.8365 -0.0306
  689TMC3    C110185   1.924   1.654  17.629  0.7213 -0.0412 -0.8876
  689TMC3    C210186   1.968   1.748   0.027 -0.0540  0.9514 -0.2302
  689TMC3    C310187   1.951   1.746   0.159  0.8080 -0.1066 -0.1371
  689TMC3    C410188   1.877   1.533  17.682 -0.6417  0.4514 -0.3687
  689TMC3    C510189   1.875   1.525   0.128 -0.5555 -0.1890  0.0509
  689TMC3    C610190   1.896   1.632   0.214 -0.4880  0.2309  0.2925
  689TMC3     C10191   2.009   1.643  17.513 -0.4147 -0.0254 -0.6194
  689TMC3     O10192   1.993   1.727  17.429 -0.5267  0.0540  0.3581
  689TMC3     H10193   2.011   1.839  17.677  1.3451  0.0338 -0.8196
  689TMC3    H110194   1.864   1.445  17.620 -1.5733 -0.5862  1.3132
  689TMC3    H210195   1.893   1.619   0.322  1.1716 -1.7260  0.1071
  689TMC3    C710196   1.817   1.409   0.189 -0.1145  1.0472 -0.1454
  689TMC3    C810197   2.064   1.811   0.226  0.2436 -0.0084  0.2986
  689TMC3    O110198   1.863   1.376   0.300  0.5545  0.7227 -0.6265
  689TMC3    O210199   2.154   1.855   0.152  0.3484 -0.6373  0.8508
  690MPD2     C10200   4.313   3.883  15.513 -0.8883 -0.0527 -0.0092
  690MPD2    C110201   4.235   3.915  15.409  0.3359  0.0449  0.0995
  690MPD2    C210202   4.288   3.988  15.302 -0.3156  0.3295 -0.2209
  690MPD2    C310203   4.421   4.026  15.306  0.0586 -0.0868  0.8989
  690MPD2    C410204   4.497   3.998  15.422  0.3259 -0.8142  0.1654
  690MPD2    C510205   4.441   3.926  15.519 -0.2694 -0.5301  0.0543
  690MPD2     H10206   4.233   4.009  15.211 -0.7727  0.9562  0.2031
  690MPD2    H110207   4.603   4.006  15.442  0.0219  0.6245  1.2123
  690MPD2    H210208   4.289   3.816  15.595  1.8834 -1.7530 -0.5603
  690MPD2    H310209   4.498   3.897  15.607  2.6837 -1.1558 -2.1014
  690MPD2     N10210   4.477   4.086  15.189  0.2527 -0.0774  0.6098
  690MPD2    H510211   4.414   4.100  15.110 -2.1671 -1.0715  2.3672
  690MPD2    N110212   4.113   3.857  15.386 -0.1108 -0.0172 -0.1866
  690MPD2    H710213   4.087   3.866  15.289  0.2754 -0.1453 -0.3007
  691TMC3    C110214   3.922   3.739  15.402 -0.4049  0.1073 -0.0027
  691TMC3    C210215   3.800   3.763  15.450 -0.0543 -0.3668 -0.2894
  691TMC3    C310216   3.696   3.691  15.399 -1.0145 -0.0977  0.0481
  691TMC3    C410217   3.941   3.649  15.302 -0.5045 -0.1629  0.0692
  691TMC3    C510218   3.838   3.589  15.239  0.4366 -0.1251  0.4858
  691TMC3    C610219   3.712   3.619  15.288 -0.4762  0.1961 -0.1432
  691TMC3     C10220   4.037   3.789  15.475 -0.4741  0.2656 -0.4009
  691TMC3     O10221   4.040   3.769  15.596 -0.0278 -0.4430 -0.9597
  691TMC3     H10222   3.800   3.822  15.541 -1.1355  0.8311 -1.0792
  691TMC3    H110223   4.042   3.632  15.267 -1.1234 -0.3220 -1.6595
  691TMC3    H210224   3.623   3.567  15.254 -0.2254  0.0771 -0.6195
  691TMC3    C710225   3.853   3.460  15.174  0.1126  0.5052 -0.1450
  691TMC3    C810226   3.563   3.723  15.448  0.2507  0.0085 -0.1187
  691TMC3    O110227   3.950   3.451  15.101 -0.1795  0.0446 -0.1503
  691TMC3    O210228   3.469   3.659  15.395 -0.2578  0.4005  0.2719
  692TMC3    C110229   0.935   0.081  15.732  0.9973 -0.4349  0.4104
  692TMC3    C210230   0.928   0.071  15.870 -0.0088 -0.7124  0.9538
  692TMC3    C310231   0.999   4.701  15.935  0.0962  0.5170  0.1138
  692TMC3    C410232   1.010   4.713  15.667 -1.0159  0.4646  0.3489
  692TMC3    C510233   1.087   4.630  15.739  0.2079 -0.4849  0.3168
  692TMC3    C610234   1.107   4.646  15.870  0.5337  0.4109 -0.2150
  692TMC3     C10235   0.831   0.151  15.653 -0.3629  0.0249  0.9681
  692TMC3     O10236   0.787   0.098  15.553 -0.1803 -0.8472 -0.0436
  692TMC3     H10237   0.839   0.109  15.919  1.5297  2.2076  1.4650
  692TMC3    H110238   1.001   4.702  15.559  0.3399 -1.5838  0.4530
  692TMC3    H210239   1.163   4.570  15.924 -0.0142  0.7371  0.7985
  692TMC3    C710240   1.202   4.584  15.668  0.1818  0.6985  0.1955
  692TMC3    C810241   1.028   0.003  16.072 -0.0125 -0.7122  0.1528
  692TMC3    O110242   1.228   4.632  15.559 -0.1412  0.3119  0.1970
  692TMC3    O210243   1.085   4.636  16.133  0.8941 -0.3543 -0.1141
  693MPD2     C10244   0.554   3.090  10.563  0.2652  0.4669  0.1234
  693MPD2    C110245   0.540   2.962  10.603 -0.9205  0.9644 -0.0109
  693MPD2    C210246   0.641   2.911  10.687  0.1189 -0.2454  0.0814
  693MPD2    C310247   0.761   2.975  10.713  0.7038  0.0240  0.2063
  693MPD2    C410248   0.776   3.106  10.666 -0.0717 -0.3567 -0.4696
  693MPD2    C510249   0.673   3.156  10.594  0.8059 -0.4548 -0.0745
  693MPD2     H10250   0.623   2.821  10.746  0.9327  0.4340  1.3651
  693MPD2    H110251   0.863   3.167  10.688 -0.2867 -0.0055 -0.5945
  693MPD2    H210252   0.482   3.137  10.497 -2.3835  0.2850  2.8829
  693MPD2    H310253   0.684   3.256  10.553 -1.7886 -0.4123 -0.6897
  693MPD2     N10254   0.867   2.908  10.787 -0.0064 -0.3298 -1.0125
  693MPD2    H510255   0.945   2.965  10.817  2.1176 -3.7943  0.0307
  693MPD2    N110256   0.421   2.884  10.585  0.8467  0.6015 -0.2802
  693MPD2    H710257   0.349   2.926  10.526  0.1537 -1.0954 -0.6454
  694TMC3    C110258   0.248   2.727  10.610 -0.4337  0.3593  0.7371
  694TMC3    C210259   0.218   2.611  10.547  0.3799 -0.0495  0.0536
  694TMC3    C310260   0.118   2.532  10.605  0.2140  0.1154  0.1062
  694TMC3    C410261   0.187   2.756  10.733  0.3187  0.5461  0.9421
  694TMC3    C510262   0.088   2.674  10.786  0.4509 -0.0331  0.5821
  694TMC3    C610263   0.049   2.557  10.721  0.0791  0.5371 -0.5400
  694TMC3     C10264   0.393   2.759  10.627 -0.6556 -0.3166 -0.1808
  694TMC3     O10265   0.457   2.670  10.678 -0.0228  0.1664  0.2314
  694TMC3     H10266   0.284   2.588  10.464  0.8801  0.3042  0.3491
  694TMC3    H110267   0.239   2.841  10.775  1.2478 -0.4083  1.7453
  694TMC3    H210268   4.682   2.501  10.747 -0.3533  1.4433 -0.0443
  694TMC3    C710269   0.065   2.699  10.926  0.2028  0.6267 -0.1966
  694TMC3    C810270   0.044   2.447  10.515  0.1692  0.0077 -0.2546
  694TMC3    O110271   0.140   2.786  10.980 -0.0740 -0.4157 -0.2058
  694TMC3    O210272   4.687   2.367  10.572 -0.1891  0.0657  0.0946
  695MPD2     C10273   2.032   0.632  13.339  0.5590  0.3180  0.1217
  695MPD2    C110274   2.010   0.576  13.462  0.4790  0.5012  0.3380
  695MPD2    C210275   1.889   0.510  13.484  0.1207 -0.3050  0.4432
  695MPD2    C310276   1.784   0.513  13.390  0.3159 -0.2166  0.9033
  695MPD2    C410277   1.808   0.578  13.266  0.3954 -0.2565  1.0838
  695MPD2    C510278   1.936   0.629  13.246 -0.0826 -0.2945  0.4600
  695MPD2     H10279   1.891   0.456  13.578 -0.1150 -1.8046 -0.4075
  695MPD2    H110280   1.743   0.597  13.181  1.3847 -0.2151  0.3316
  695MPD2    H210281   2.121   0.689  13.313  0.1516 -0.3447 -2.6869
  695MPD2    H310282   1.947   0.678  13.150 -0.3654 -0.5134  0.3154
  695MPD2     N10283   1.649   0.468  13.424 -0.5719 -0.0675 -0.2315
  695MPD2    H510284   1.633   0.446  13.522 -0.8329 -1.6310 -0.6250
  695MPD2    N110285   2.103   0.587  13.568  0.3841 -0.1762 -0.4095
  695MPD2    H710286   2.076   0.540  13.654 -1.9801  1.0546 -0.4788
  696TMC3    C110287   1.421   0.409  13.396  0.0003  0.1586  0.0044
  696TMC3    C210288   1.430   0.360  13.525  0.8883 -0.6333  0.1442
  696TMC3    C310289   1.307   0.348  13.584  0.6713  0.4562 -0.3402
  696TMC3    C410290   1.302   0.449  13.330  0.6260  0.2633 -0.8788
  696TMC3    C510291   1.192   0.438  13.411  0.4188  0.2512  0.6655
  696TMC3    C610292   1.187   0.389  13.541  0.3428 -0.2115  0.2310
  696TMC3     C10293   1.539   0.473  13.342 -0.5375 -0.4785 -0.1884
  696TMC3     O10294   1.527   0.524  13.230 -0.0191 -0.3668  0.6214
  696TMC3     H10295   1.524   0.337  13.573  1.8623  0.4432 -1.2667
  696TMC3    H110296   1.302   0.507  13.239  2.9866  1.9796  0.2114
  696TMC3    H210297   1.096   0.368  13.596  1.0838  0.4990  1.7150
  696TMC3    C710298   1.105   0.557  13.406  0.2244  0.3803  0.3992
  696TMC3    C810299   1.311   0.308  13.727 -0.5170 -0.3575 -0.5973
  696TMC3    O110300   1.078   0.607  13.297  0.3895  0.5429 -0.3880
  696TMC3    O210301   1.412   0.329  13.792  0.0429  0.5305 -0.5459
  697MPD2     C10302   1.085   1.845  15.621  0.4097  0.1629  0.1302
  697MPD2    C110303   1.022   1.796  15.507  0.3624  0.2477  0.4374
  697MPD2    C210304   1.014   1.866  15.395 -0.2671 -0.2885  0.1753
  697MPD2    C310305   1.069   1.994  15.389 -0.7109 -0.8073 -0.3244
  697MPD2    C410306   1.123   2.049  15.506  0.2288 -0.6141 -0.2352
  697MPD2    C510307   1.129   1.972  15.613  0.2520 -0.9291 -0.7890
  697MPD2     H10308   0.958   1.823  15.312  0.3539  0.9126 -0.8653
  697MPD2    H110309   1.153   2.153  15.507 -1.5329 -0.1004 -1.1951
  697MPD2    H210310   1.096   1.788  15.713  0.8503  0.1593  0.0753
  697MPD2    H310311   1.163   2.014  15.707 -2.0588  0.2290 -0.4496
  697MPD2     N10312   1.038   2.078  15.271  0.0407  0.1812  0.1229
  697MPD2    H510313   0.992   2.030  15.194  1.1052  1.2570 -1.1824
  697MPD2    N110314   0.963   1.666  15.511  0.3208 -0.5304 -0.1190
  697MPD2    H710315   0.933   1.627  15.422 -2.3448 -3.2295  1.9131
  698TMC3    C110316   1.044   2.271  15.127 -0.7174  0.4177  0.0989
  698TMC3    C210317   1.029   2.408  15.119  0.3501  0.8184  0.2225
  698TMC3    C310318   0.955   2.462  15.020  0.5574  0.7559  0.1981
  698TMC3    C410319   0.976   2.192  15.041  0.2662  0.4793  0.5727
  698TMC3    C510320   0.895   2.248  14.949  1.1313  0.3104  0.4564
  698TMC3    C610321   0.881   2.386  14.932 -0.2032  0.0600 -0.3572
  698TMC3     C10322   1.073   2.211  15.263  0.6863 -0.3631 -0.3108
  698TMC3     O10323   1.102   2.286  15.355  0.0441  0.8359 -0.1654
  698TMC3     H10324   1.074   2.482  15.184 -0.6926  0.4163  1.3759
  698TMC3    H110325   1.004   2.089  15.022  0.1262  0.8989 -1.8169
  698TMC3    H210326   0.814   2.432  14.861 -0.5142  2.5045  1.5028
  698TMC3    C710327   0.834   2.168  14.843  0.6561  0.1248  0.7726
  698TMC3    C810328   0.971   2.600  14.974 -0.7726 -0.4523 -0.0031
  698TMC3    O110329   0.777   2.233  14.755  0.3237  0.0937  0.3406
  698TMC3    O210330   0.896   2.636  14.885  0.3485 -0.4293  0.6102
  699TMC3    C110331   0.505   0.693  13.105  0.0489  0.1246  0.0034
  699TMC3    C210332   0.607   0.635  13.178  0.4837  0.1784 -0.3587
  699TMC3    C310333   0.599   0.634  13.312  0.4168  0.2895  0.3408
  699TMC3    C410334   0.392   0.747  13.159 -0.1312  0.0251 -0.0850
  699TMC3    C510335   0.394   0.750  13.294  0.1212 -0.0765 -0.4654
  699TMC3    C610336   0.506   0.713  13.371  0.1354  0.0975  0.7738
  699TMC3     C10337   0.540   0.736  12.971 -0.5872 -0.9083  0.1772
  699TMC3     O10338   0.444   0.767  12.902 -1.0956  0.1236 -0.4742
  699TMC3     H10339   0.673   0.568  13.125  1.1483  0.3393  0.2597
  699TMC3    H110340   0.315   0.793  13.097  0.9668  0.1392 -1.3824
  699TMC3    H210341   0.501   0.724  13.478 -0.9008 -1.2127  0.8628
  699TMC3    C710342   0.269   0.730  13.360  0.0721  0.1541 -0.2347
  699TMC3    C810343   0.629   0.515  13.398  0.4431  0.3788  0.2778
  699TMC3    O110344   0.266   0.764  13.479 -0.4925  0.4361 -0.0649
  699TMC3    O210345   0.585   0.503  13.513 -0.1374  0.1127  0.3512
  700TMC3    C110346   4.718   2.364  17.367 -0.1777  0.4460  0.0108
  700TMC3    C210347   0.043   2.242  17.335 -0.2270  0.3239  0.2611
  700TMC3    C310348   0.159   2.205  17.404  0.0453 -0.3592  0.3728
  700TMC3    C410349   0.034   2.439  17.476 -0.3513  0.5264 -0.4871
  700TMC3    C510350   0.149   2.401  17.529 -0.5339 -0.4893  0.2967
  700TMC3    C610351   0.214   2.282  17.504 -0.7669  0.5702  0.0531
  700TMC3     C10352   4.662   2.437  17.253  0.2900  0.2579  0.8551
  700TMC3     O10353   4.593   2.377  17.176  0.1461 -0.1154  0.3538
  700TMC3     H10354   0.010   2.190  17.246 -3.6974  1.5361  0.8533
  700TMC3    H110355   4.719   2.540  17.489  0.8259  0.7341  1.2311
  700TMC3    H210356   0.304   2.256  17.559 -0.0604  1.9559 -0.4529
  700TMC3    C710357   0.191   2.474  17.643  0.1403 -0.0644 -0.8804
  700TMC3    C810358   0.234   2.089  17.357 -0.2583  0.1011 -0.1703
  700TMC3    O110359   0.311   2.464  17.673  0.0040  0.8569  0.2353
  700TMC3    O210360   0.356   2.095  17.363  0.2429  0.3119 -0.6423
  701TMC3    C110361   0.149   1.350  15.757  0.9390  0.4639 -0.8286
  701TMC3    C210362   0.116   1.287  15.639 -0.2089  0.4228 -0.4959
  701TMC3    C310363   0.212   1.298  15.540 -0.6460  0.8930 -0.2868
  701TMC3    C410364   0.265   1.418  15.782  0.1942  0.1815 -0.0040
  701TMC3    C510365   0.361   1.419  15.681  0.4506 -0.5702 -0.5878
  701TMC3    C610366   0.334   1.359  15.563  0.5048  0.4984 -0.0568
  701TMC3     C10367   0.055   1.344  15.870  0.7097  0.3773  0.1308
  701TMC3     O10368   4.683   1.272  15.851  0.1943  0.2599 -1.0198
  701TMC3     H10369   0.022   1.238  15.617 -0.0901 -0.6236  1.3547
  701TMC3    H110370   0.299   1.460  15.876 -0.3261 -2.1222  1.2196
  701TMC3    H210371   0.404   1.359  15.481  0.2711 -3.0000 -0.2629
  701TMC3    C710372   0.464   1.521  15.669  0.2824 -0.4565  0.0972
  701TMC3    C810373   0.187   1.223  15.416  0.3025  0.1853  0.4410
  701TMC3    O110374   0.486   1.547  15.552 -0.6273  0.5827 -0.2054
  701TMC3    O210375   0.286   1.193  15.359 -0.3777 -0.7604 -0.6880
  702MPD2     C10376   4.342   3.140  10.521 -0.8490 -0.6160 -0.3695
  702MPD2    C110377   4.254   3.237  10.563  0.5879  0.9200  0.0027
  702MPD2    C210378   4.263   3.354  10.501 -0.7620 -0.2341 -0.7409
  702MPD2    C310379   4.360   3.388  10.411 -0.0745  0.1761 -0.8283
  702MPD2    C410380   4.453   3.293  10.380 -0.3270  0.1846 -0.6720
  702MPD2    C510381   4.438   3.170  10.434  0.0333 -0.1914  0.2992
  702MPD2     H10382   4.179   3.417  10.527 -0.8136 -1.6252  2.4575
  702MPD2    H110383   4.527   3.298  10.301 -0.6333  0.0346 -0.9695
  702MPD2    H210384   4.343   3.042  10.567  1.8382 -0.8848 -0.9926
  702MPD2    H310385   4.510   3.092  10.409  1.2177  1.1284 -0.3761
  702MPD2     N10386   4.369   3.515  10.343 -0.0272 -0.6288 -1.0392
  702MPD2    H510387   4.450   3.539  10.286  1.1536 -0.5502  0.6703
  702MPD2    N110388   4.149   3.219  10.656  0.3589  0.3956  0.2934
  702MPD2    H710389   4.098   3.301  10.688 -0.6075  0.7137 -2.0786
  703TMC3    C110390   4.299   3.740  10.286 -0.2012  0.0551 -0.2178
  703TMC3    C210391   4.216   3.843  10.323 -0.3539  0.1230  0.4259
  703TMC3    C310392   4.260   3.970  10.303 -0.3123 -0.0107  0.3626
  703TMC3    C410393   4.423   3.765  10.229  0.1912 -0.4337 -0.0512
  703TMC3    C510394   4.466   3.896  10.218  0.4749 -0.2576  0.2867
  703TMC3    C610395   4.384   3.999  10.256 -0.0329  0.0720  0.4498
  703TMC3     C10396   4.273   3.612  10.351  0.0791  0.0219 -0.0929
  703TMC3     O10397   4.157   3.596  10.389  0.3521 -0.4801 -0.5596
  703TMC3     H10398   4.124   3.815  10.373  0.2460 -1.5590  0.5644
  703TMC3    H110399   4.492   3.693  10.187  2.3453  0.9521  1.0761
  703TMC3    H210400   4.419   4.101  10.243  0.2072 -0.1127 -0.3492
  703TMC3    C710401   4.589   3.938  10.152 -0.4060  0.3399  0.6263
  703TMC3    C810402   4.190   4.084  10.361  0.3166 -0.1720  0.1625
  703TMC3    O110403   4.590   4.051  10.108 -0.1833 -0.6973  0.2744
  703TMC3    O210404   4.236   4.194  10.335 -0.1410 -0.1662  0.0471
  704TMC3    C110405   2.054   2.259  12.771  0.7749  0.1968  0.2745
  704TMC3    C210406   2.160   2.262  12.686 -0.2916  0.8077 -0.2896
  704TMC3    C310407   2.290   2.258  12.729 -0.6055  0.4856 -0.0125
  704TMC3    C410408   2.085   2.247  12.901 -0.2845 -0.1132  0.2748
  704TMC3    C510409   2.210   2.210  12.942 -0.1398 -0.9333  0.1725
  704TMC3    C610410   2.319   2.228  12.862  0.0849 -0.0686 -0.1938
  704TMC3     C10411   1.941   2.167  12.735  0.5513  0.4172 -0.4336
  704TMC3     O10412   1.849   2.155  12.815 -0.5099 -0.0949  0.3211
  704TMC3     H10413   2.138   2.275  12.581 -1.4667 -0.5176 -0.1992
  704TMC3    H110414   2.002   2.241  12.970 -0.4544 -0.8441  0.0074
  704TMC3    H210415   2.418   2.189  12.884  0.7306  1.6289 -0.0863
  704TMC3    C710416   2.206   2.073  12.984  0.1384  0.2137  0.1686
  704TMC3    C810417   2.385   2.205  12.632 -0.3245  0.0112  0.7815
  704TMC3    O110418   2.301   2.008  12.936  0.4341 -0.6752 -0.2833
  704TMC3    O210419   2.339   2.166  12.528 -0.3857 -0.2278  0.4412
  705MPD2     C10420   1.255   4.139  16.581  0.6817  0.6364  0.1879
  705MPD2    C110421   1.193   4.245  16.518  0.8727 -0.2842  0.0371
  705MPD2    C210422   1.075   4.294  16.570 -1.0441  0.0211 -0.2603
  705MPD2    C310423   1.013   4.229  16.674 -0.1100  0.0700  0.5247
  705MPD2    C410424   1.075   4.127  16.742 -0.8207 -0.3402 -0.0499
  705MPD2    C510425   1.191   4.077  16.690  0.2126 -0.3848 -0.3385
  705MPD2     H10426   1.051   4.391  16.529 -0.4549 -0.3383 -1.4552
  705MPD2    H110427   1.031   4.072  16.825 -1.5732 -0.0906 -0.2851
  705MPD2    H210428   1.351   4.097  16.554  0.9670  0.8672  0.8425
  705MPD2    H310429   1.247   4.002  16.744 -1.0675 -1.7852 -0.9541
  705MPD2     N10430   0.894   4.269  16.743  0.5833 -0.0271 -0.7643
  705MPD2    H510431   0.867   4.209  16.820  1.8013  0.6518  0.1951
  705MPD2    N110432   1.252   4.313  16.409 -0.0248 -0.4763  0.9322
  705MPD2    H710433   1.188   4.381  16.368 -1.0187 -1.7254  0.4003
  706TMC3    C110434   1.579   4.432  16.084 -0.3069 -0.0459  0.3581
  706TMC3    C210435   1.507   4.538  16.031 -0.1640  0.1862  0.5758
  706TMC3    C310436   1.403   4.571  16.105 -0.3625 -0.0079  0.6977
  706TMC3    C410437   1.530   4.338  16.177  0.4508 -0.4800  1.0998
  706TMC3    C510438   1.410   4.368  16.232 -0.5802 -0.0084 -0.6445
  706TMC3    C610439   1.355   4.489  16.204  0.4199  0.5198 -0.8187
  706TMC3     C10440   1.722   4.416  16.057 -0.6147  0.1998 -0.3455
  706TMC3     O10441   1.782   4.336  16.124 -0.4418 -0.6832 -0.0876
  706TMC3     H10442   1.555   4.621  15.979  0.4861 -0.5453 -0.0101
  706TMC3    H110443   1.587   4.254  16.215  0.3732 -0.6676  0.8027
  706TMC3    H210444   1.260   4.515  16.252  0.0434 -2.1858 -0.1341
  706TMC3    C710445   1.371   4.283  16.344  0.2681 -0.4565  0.2509
  706TMC3    C810446   1.374   4.715  16.117  0.2439  0.3072  0.1027
  706TMC3    O110447   1.459   4.205  16.382  0.3570 -0.4163 -0.3798
  706TMC3    O210448   1.367   0.059  16.015  0.2046 -1.0159  0.4612
  707TMC3    C110449   3.611   2.809   1.777 -0.1445 -0.7443  0.4721
  707TMC3    C210450   3.643   2.681   1.802 -0.2764 -0.5015 -0.0610
  707TMC3    C310451   3.562   2.613   1.883  0.1981  0.1439 -0.5906
  707TMC3    C410452   3.498   2.868   1.837  0.1149 -0.6439  0.2125
  707TMC3    C510453   3.424   2.795   1.928 -0.1972  0.6079  0.3057
  707TMC3    C610454   3.458   2.666   1.953  0.1873  0.1860 -0.0888
  707TMC3     C10455   3.657   2.851   1.646  0.3418 -0.0023  0.4394
  707TMC3     O10456   3.769   2.817   1.617 -0.4234  0.2607 -0.2373
  707TMC3     H10457   3.738   2.642   1.766 -0.8715 -2.4084  0.4539
  707TMC3    H110458   3.485   2.975   1.823  0.5303 -0.3000  2.4580
  707TMC3    H210459   3.398   2.606   2.020 -0.0232 -0.1031 -0.5327
  707TMC3    C710460   3.342   2.866   2.033 -0.0743 -0.7627 -0.0517
  707TMC3    C810461   3.599   2.474   1.888  0.0635  0.0486 -0.1877
  707TMC3    O110462   3.345   2.810   2.144  0.4072 -0.1904  0.1063
  707TMC3    O210463   3.591   2.421   1.999  0.3683  0.5998  0.6175
  708MPD2     C10464   0.220   3.087  13.753 -0.2382 -0.3235  0.1883
  708MPD2    C110465   0.097   3.156  13.760 -0.0074  1.3740 -0.1923
  708MPD2    C210466   4.706   3.088  13.810 -0.1135  0.1828 -0.8801
  708MPD2    C310467   4.716   2.956  13.841 -0.3652 -0.0069  0.1477
  708MPD2    C410468   0.108   2.888  13.818  0.6825 -0.3565 -0.3617
  708MPD2    C510469   0.223   2.950  13.767 -0.0903 -0.0208  1.1304
  708MPD2     H10470   4.610   3.138  13.815 -0.0982  0.0586  0.6629
  708MPD2    H110471   0.107   2.780  13.829  1.4361 -0.3154  0.0714
  708MPD2    H210472   0.306   3.128  13.701  0.4994  0.4845  2.0597
  708MPD2    H310473   0.308   2.890  13.738 -0.9360 -1.0501  0.7634
  708MPD2     N10474   4.603   2.902  13.911  0.4309  0.1914  0.0281
  708MPD2    H510475   4.630   2.818  13.961  0.2448  0.1098 -0.0097
  708MPD2    N110476   0.085   3.290  13.704 -0.3563  0.9383 -0.0308
  708MPD2    H710477   0.172   3.320  13.661 -0.0051  1.3294  0.9468
  709TMC3    C110478   4.714   3.491  13.635  0.1660  0.5652  0.7852
  709TMC3    C210479   0.039   3.460  13.513  0.3413 -0.0755  0.0369
  709TMC3    C310480   4.676   3.466  13.404  0.9395  0.2914 -1.1428
  709TMC3    C410481   4.602   3.564  13.644  0.1047  0.1685  0.1145
  709TMC3    C510482   4.509   3.562  13.541 -0.3497 -0.3821  0.0881
  709TMC3    C610483   4.547   3.517  13.413  0.0170 -1.2776 -0.1157
  709TMC3     C10484   4.704   3.376  13.720  0.0966 -0.6782  0.0097
  709TMC3     O10485   4.596   3.356  13.770 -0.3491 -0.7989 -0.1375
  709TMC3     H10486   0.136   3.412  13.500  0.6511  0.6702 -0.3624
  709TMC3    H110487   4.558   3.583  13.741 -1.0387 -0.3416 -0.3060
  709TMC3    H210488   4.468   3.489  13.345 -0.8744  1.1986 -0.0980
  709TMC3    C710489   4.370   3.555  13.578 -0.2807 -0.4597  0.3297
  709TMC3    C810490   4.708   3.370  13.298  0.2859  0.4727 -0.8368
  709TMC3    O110491   4.287   3.625  13.522 -0.0988  0.2149  0.3855
  709TMC3    O210492   0.040   3.262  13.331  0.4417  0.8173  0.0983
  710TMC3    C110493   0.419   4.000   0.392 -0.1763 -0.1308  0.7291
  710TMC3    C210494   0.515   3.981   0.297 -0.3819  0.4487  0.1803
  710TMC3    C310495   0.613   3.889   0.320  0.1334 -0.4657  0.3744
  710TMC3    C410496   0.417   3.918   0.504  0.0830 -0.7062 -0.3744
  710TMC3    C510497   0.515   3.826   0.519  0.2508  0.0592  0.0931
  710TMC3    C610498   0.615   3.811   0.430  0.6986 -0.3687  0.5026
  710TMC3     C10499   0.316   4.097   0.356  0.2035  0.6009 -0.1856
  710TMC3     O10500   0.300   4.135   0.240  0.3522  0.2809 -0.8090
  710TMC3     H10501   0.535   4.039   0.207  1.0534  0.8624  0.7659
  710TMC3    H110502   0.338   3.929   0.578 -1.2417 -1.5022 -1.6680
  710TMC3    H210503   0.704   3.754   0.452  0.0448 -1.8783 -0.7252
  710TMC3    C710504   0.548   3.805   0.658 -0.0062  0.6321 -0.2053
  710TMC3    C810505   0.737   3.894   0.243  0.2024 -0.7582  0.2814
  710TMC3    O110506   0.495   3.703   0.704 -0.7011 -0.1011  0.5866
  710TMC3    O210507   0.756   3.998   0.177  0.4193 -0.3697  0.4696
  711TMC3    C110508   0.574   0.717  14.913 -0.2321 -0.0138 -0.0811
  711TMC3    C210509   0.557   0.787  15.031 -0.4841  0.3467 -0.1853
  711TMC3    C310510   0.666   0.789  15.115  0.7346 -0.2707 -0.0325
  711TMC3    C410511   0.692   0.660  14.868  0.2038 -0.9069  0.7405
  711TMC3    C510512   0.792   0.668  14.957  0.1776  0.2181  0.2897
  711TMC3    C610513   0.784   0.725  15.082  0.1275  0.7964 -0.3999
  711TMC3     C10514   0.457   0.717  14.829 -0.3114 -0.8058 -0.0064
  711TMC3     O10515   0.352   0.738  14.890  0.1168  0.5519  0.7520
  711TMC3     H10516   0.481   0.862  15.051  0.6907  0.9420  2.0681
  711TMC3    H110517   0.704   0.603  14.776  1.3258 -0.1854  0.4381
  711TMC3    H210518   0.872   0.717  15.145  0.1069  1.2102 -0.3189
  711TMC3    C710519   0.892   0.565  14.943 -0.3298 -0.3359 -0.0858
  711TMC3    C810520   0.646   0.812  15.249  0.5572 -0.5490  0.0557
  711TMC3    O110521   1.000   0.587  14.999  0.8221 -0.0208  0.0926
  711TMC3    O210522   0.535   0.844  15.296 -0.0214 -0.6152 -0.0294
  712MPD2     C10523   2.686   2.156  14.054  0.1222 -0.4491 -0.4137
  712MPD2    C110524   2.589   2.120  13.956  0.7879  0.1886  0.2127
  712MPD2    C210525   2.582   2.203  13.842  0.1714  0.0373  0.2258
  712MPD2    C310526   2.652   2.313  13.820 -0.6720  0.1531  1.1097
  712MPD2    C410527   2.737   2.351  13.921  0.0563  0.4981 -0.1303
  712MPD2    C510528   2.764   2.263  14.021  0.7960 -0.3427  0.5310
  712MPD2     H10529   2.501   2.169  13.779  0.9164 -0.6551 -0.3607
  712MPD2    H110530   2.809   2.432  13.909 -1.3961  1.4138 -2.6855
  712MPD2    H210531   2.698   2.103  14.148  1.9116 -1.0926 -1.0205
  712MPD2    H310532   2.837   2.289  14.097  1.0443 -0.5651  0.3717
  712MPD2     N10533   2.627   2.403  13.714  0.2526 -0.5639  0.2678
  712MPD2    H510534   2.682   2.489  13.716  1.1926 -1.1843  0.6798
  712MPD2    N110535   2.489   2.026  13.969 -0.4610  0.5724 -0.0300
  712MPD2    H710536   2.412   2.027  13.903 -1.0351 -0.4870  0.6220
  713TMC3    C110537   2.473   2.532  13.592  0.3527  0.0564  0.2612
  713TMC3    C210538   2.566   2.611  13.534 -0.2990  0.0457 -0.6246
  713TMC3    C310539   2.521   2.728  13.477  0.2923 -0.0915 -0.4149
  713TMC3    C410540   2.342   2.562  13.601 -0.0144  0.4750  0.1548
  713TMC3    C510541   2.306   2.685  13.563 -0.2577  0.3055  0.4254
  713TMC3    C610542   2.386   2.769  13.491 -0.7635 -0.2236  0.7634
  713TMC3     C10543   2.518   2.397  13.632  0.1726  0.2915 -0.4581
  713TMC3     O10544   2.433   2.311  13.615  0.0255  0.2591 -0.1740
  713TMC3     H10545   2.669   2.578  13.524 -0.1637 -0.1279  1.4112
  713TMC3    H110546   2.279   2.479  13.634 -0.4736  0.1919 -1.4454
  713TMC3    H210547   2.340   2.857  13.448 -0.5295 -0.8027 -0.6749
  713TMC3    C710548   2.170   2.737  13.576  0.2488 -1.1053  0.9996
  713TMC3    C810549   2.612   2.828  13.421  0.6225  0.4000 -0.0132
  713TMC3    O110550   2.124   2.825  13.507 -0.5048 -0.0964  0.1531
  713TMC3    O210551   2.554   2.926  13.375  0.7030 -0.0638 -0.2314
  714MPD2     C10552   4.569   4.709   1.884  0.0370 -0.9881 -0.0550
  714MPD2    C110553   4.558   4.646   1.762  0.2045 -0.2177 -0.7310
  714MPD2    C210554   4.490   0.001   1.665 -0.1644  0.2740  0.3078
  714MPD2    C310555   4.450   0.136   1.683 -0.5541 -0.2759 -0.8157
  714MPD2    C410556   4.467   0.189   1.808 -0.7802  0.8336  0.5584
  714MPD2    C510557   4.520   0.115   1.905 -0.0953  0.2196 -0.1023
  714MPD2     H10558   4.481   4.679   1.566  2.9072 -0.1382  0.2249
  714MPD2    H110559   4.432   0.287   1.837 -0.7020  1.0963 -0.2465
  714MPD2    H210560   4.614   4.660   1.970  0.0744  1.5128  1.3541
  714MPD2    H310561   4.526   0.151   2.007  0.4540  0.7145 -0.3107
  714MPD2     N10562   4.389   0.210   1.580 -0.3226 -1.0841  0.7927
  714MPD2    H510563   4.378   0.157   1.494 -1.6671  0.2657  0.1265
  714MPD2    N110564   4.596   4.514   1.749 -0.0460  0.2945  0.2704
  714MPD2    H710565   4.643   4.472   1.828 -1.1674 -0.4694  0.5475
  715TMC3    C110566   4.633   4.306   1.646 -0.0594  0.0044  0.2254
  715TMC3    C210567   4.579   4.208   1.570 -0.3009  0.4048  0.0702
  715TMC3    C310568   4.651   4.091   1.559 -0.3020 -0.2073 -0.5302
  715TMC3    C410569   0.035   4.301   1.712 -0.3935  0.6820 -0.3563
  715TMC3    C510570   0.102   4.183   1.693 -0.4540  0.3263 -0.4110
  715TMC3    C610571   0.054   4.076   1.621  0.9282 -0.0226 -0.2359
  715TMC3     C10572   4.562   4.429   1.647 -0.2490 -0.3032  0.3866
  715TMC3     O10573   4.480   4.446   1.559  0.2586 -0.3545 -0.4913
  715TMC3     H10574   4.481   4.210   1.524 -0.8117 -1.4400  1.0594
  715TMC3    H110575   0.089   4.383   1.756  1.6931  0.2235 -2.0852
  715TMC3    H210576   0.113   3.989   1.593  2.1248  0.3399  1.1677
  715TMC3    C710577   0.238   4.198   1.687  0.4597 -0.2893 -0.8620
  715TMC3    C810578   4.608   3.994   1.460  0.5785  0.4471 -0.5128
  715TMC3    O110579   0.289   4.310   1.690  0.2404 -0.1104  0.2145
  715TMC3    O210580   4.694   3.910   1.435 -0.7367 -0.4923 -0.2470
  716MPD2     C10581   3.446   2.889   9.990  0.7130  0.1776 -0.5796
  716MPD2    C110582   3.437   2.828   9.867 -0.3865 -0.3901 -0.2078
  716MPD2    C210583   3.513   2.714   9.847 -0.6639  0.1620  0.1959
  716MPD2    C310584   3.596   2.663   9.951  0.5144  0.9237  0.2586
  716MPD2    C410585   3.603   2.732  10.066 -0.1036  0.4596 -0.2128
  716MPD2    C510586   3.529   2.846  10.083  0.4041 -0.4955 -0.3517
  716MPD2     H10587   3.513   2.667   9.749  0.2953  0.8073 -0.1214
  716MPD2    H110588   3.669   2.704  10.147  0.9648 -1.4335 -1.7263
  716MPD2    H210589   3.381   2.968  10.026  0.7540  0.5401 -1.2829
  716MPD2    H310590   3.532   2.893  10.181  1.8340 -0.0220 -0.6279
  716MPD2     N10591   3.677   2.555   9.916 -0.2352  0.5703  0.3296
  716MPD2    H510592   3.661   2.521   9.822 -0.6024  1.7692 -0.0353
  716MPD2    N110593   3.344   2.891   9.777 -0.0560 -0.2029 -0.1657
  716MPD2    H710594   3.306   2.981   9.806  1.2909  1.1560 -2.6130
  717TMC3    C110595   3.839   2.374   9.927 -1.3270 -0.0409  0.4230
  717TMC3    C210596   3.778   2.295   9.840 -0.3588  0.4120  0.4246
  717TMC3    C310597   3.846   2.212   9.761 -0.2513 -0.3487  0.1407
  717TMC3    C410598   3.977   2.364   9.950 -0.1119  0.2169 -0.1159
  717TMC3    C510599   4.051   2.277   9.868  0.7060 -0.0438 -0.5472
  717TMC3    C610600   3.981   2.204   9.773  0.0362  0.1341  0.3549
  717TMC3     C10601   3.779   2.495   9.985  0.1619  0.3976 -0.3509
  717TMC3     O10602   3.828   2.537  10.086  0.1768 -0.1743  0.0494
  717TMC3     H10603   3.672   2.275   9.839 -0.1537 -0.7205  1.5836
  717TMC3    H110604   4.023   2.427  10.025 -4.0529  1.1117  1.5573
  717TMC3    H210605   4.040   2.138   9.709  2.5818  0.3793  2.4412
  717TMC3    C710606   4.200   2.276   9.876 -0.7049  0.1566  0.0711
  717TMC3    C810607   3.778   2.157   9.650 -1.0170  0.6099 -0.1095
  717TMC3    O110608   4.259   2.352   9.954 -0.2191  0.1618 -0.4746
  717TMC3    O210609   3.659   2.146   9.661 -0.6843 -0.0892  0.3152
  718MPD2     C10610   3.596   2.639  13.049 -0.6259  0.4334  0.5065
  718MPD2    C110611   3.503   2.589  12.962 -0.7946 -0.0066 -0.0114
  718MPD2    C210612   3.522   2.457  12.913 -0.0996  1.2302 -0.0191
  718MPD2    C310613   3.622   2.381  12.956  0.1793 -0.0927  0.0261
  718MPD2    C410614   3.716   2.429  13.043  0.5527  0.0353  0.1284
  718MPD2    C510615   3.697   2.556  13.097  0.4719 -0.5248  0.8620
  718MPD2     H10616   3.447   2.407  12.853 -0.6325  1.9132  0.0671
  718MPD2    H110617   3.796   2.367  13.082  1.1852  1.6184  1.3432
  718MPD2    H210618   3.581   2.739  13.087 -0.0467  1.5206 -2.1242
  718MPD2    H310619   3.775   2.587  13.165  1.3434  1.3358 -0.9886
  718MPD2     N10620   3.610   2.243  12.914  0.5235 -0.0317  0.1861
  718MPD2    H510621   3.531   2.216  12.856 -1.0708  0.6097  2.0641
  718MPD2    N110622   3.391   2.663  12.906 -0.3790  0.1270  0.3944
  718MPD2    H710623   3.328   2.613  12.843  1.2100  0.5010 -1.4756
  719TMC3    C110624   3.259   2.834  12.834 -0.6374 -0.0738 -0.5178
  719TMC3    C210625   3.181   2.731  12.799 -0.4102 -0.8236 -0.0485
  719TMC3    C310626   3.169   2.690  12.668 -0.0987 -0.1014  0.4634
  719TMC3    C410627   3.315   2.911  12.737 -0.0502 -0.4082 -0.7910
  719TMC3    C510628   3.289   2.885  12.609  1.2402 -0.5442 -0.3513
  719TMC3    C610629   3.228   2.764  12.567 -0.3094  0.0733  0.2291
  719TMC3     C10630   3.353   2.795  12.936  0.4884  0.1686 -0.4807
  719TMC3     O10631   3.414   2.883  12.997  0.3039 -0.2539 -0.2615
  719TMC3     H10632   3.137   2.671  12.878  2.6725 -1.9655  0.7842
  719TMC3    H110633   3.373   2.999  12.762 -1.5031 -0.4483  2.6709
  719TMC3    H210634   3.223   2.730  12.464  0.9057 -0.6705  0.4167
  719TMC3    C710635   3.371   2.954  12.515  1.1185 -0.5968  0.1433
  719TMC3    C810636   3.187   2.547  12.657  0.7170  0.4766 -0.9319
  719TMC3    O110637   3.429   2.883  12.434 -0.3878  0.3431 -0.1244
  719TMC3    O210638   3.231   2.497  12.759 -0.3784 -0.1856  0.6603
  720MPD2     C10639   1.827   3.920  14.181 -0.1622 -0.1631 -0.1148
  720MPD2    C110640   1.878   4.045  14.145 -0.7255  0.0047  0.0567
  720MPD2    C210641   2.000   4.083  14.190 -0.6932 -0.0459  0.8448
  720MPD2    C310642   2.062   4.003  14.286 -0.1111 -0.1620  0.5956
  720MPD2    C410643   2.002   3.884  14.329  0.3603 -0.1489  0.4927
  720MPD2    C510644   1.886   3.842  14.272  0.0109 -1.0641  0.1746
  720MPD2     H10645   2.055   4.174  14.167 -3.1896  0.7748 -1.8803
  720MPD2    H110646   2.052   3.816  14.397  0.5479  0.9441  1.4570
  720MPD2    H210647   1.736   3.880  14.137 -0.0005 -2.8819  2.0076
  720MPD2    H310648   1.849   3.742  14.292  2.0450 -1.7216  0.6202
  720MPD2     N10649   2.189   4.045  14.338 -0.2348 -0.4305 -0.4064
  720MPD2    H510650   2.227   4.134  14.307 -0.3014 -0.9316 -1.9107
  720MPD2    N110651   1.808   4.128  14.065 -0.4458  0.4565 -0.0761
  720MPD2    H710652   1.736   4.090  14.005 -1.8768  0.7862  1.4183
  721TMC3    C110653   2.393   4.035  14.456  0.8458 -0.1421  0.8519
  721TMC3    C210654   2.452   3.982  14.572 -0.4654 -0.9086 -0.5201
  721TMC3    C310655   2.589   3.981  14.572 -0.0652  0.2815 -0.2985
  721TMC3    C410656   2.470   4.077  14.352  0.0666 -0.2543 -1.1545
  721TMC3    C510657   2.607   4.066  14.356 -0.8529 -0.0247  0.4123
  721TMC3    C610658   2.669   4.015  14.464  0.5496  0.3514  0.2262
  721TMC3     C10659   2.260   3.973  14.433  0.7162  0.1734 -0.0337
  721TMC3     O10660   2.232   3.878  14.506 -0.5541  0.5573 -0.4644
  721TMC3     H10661   2.388   3.958  14.657 -0.1027  2.4660  0.7199
  721TMC3    H110662   2.429   4.095  14.253 -0.2155 -1.0481 -1.1817
  721TMC3    H210663   2.777   4.007  14.470  0.2939 -1.9121  1.7352
  721TMC3    C710664   2.686   4.088  14.238  0.6585 -0.1677  0.4919
  721TMC3    C810665   2.669   3.919  14.682 -0.3965  0.6444  0.3650
  721TMC3    O110666   2.799   4.044  14.240  0.0607  0.2942 -0.2133
  721TMC3    O210667   2.780   3.872  14.654 -0.5454 -0.2327 -0.2793
  722MPD2     C10668   0.969   2.719  13.543  0.2966 -0.0030 -0.1885
  722MPD2    C110669   0.980   2.837  13.469  0.3942 -0.7936  0.5815
  722MPD2    C210670   0.873   2.889  13.405  0.2035 -0.4276  0.0201
  722MPD2    C310671   0.753   2.821  13.416  0.6903 -0.6100 -0.8910
  722MPD2    C410672   0.734   2.715  13.508 -0.0207 -0.9298 -0.3746
  722MPD2    C510673   0.850   2.668  13.568 -0.6013  0.0333 -0.0552
  722MPD2     H10674   0.880   2.986  13.358 -0.1856 -0.0328  0.7676
  722MPD2    H110675   0.642   2.660  13.524  0.6452 -1.9019  0.1209
  722MPD2    H210676   1.056   2.671  13.586  0.6872  1.9714  1.2220
  722MPD2    H310677   0.847   2.581  13.632 -3.9635  0.4636  0.4022
  722MPD2     N10678   0.650   2.864  13.324  0.0472 -0.1144  0.0019
  722MPD2    H510679   0.681   2.929  13.253  0.4130 -1.6276 -1.2224
  722MPD2    N110680   1.101   2.920  13.471 -0.0427  0.3208 -0.0110
  722MPD2    H710681   1.091   3.007  13.420  4.2678  0.1714 -1.1559
  723TMC3    C110682   0.457   2.847  13.190 -0.4916  0.2736  0.4699
  723TMC3    C210683   0.390   2.752  13.121  0.3567  0.3466  0.3801
  723TMC3    C310684   0.336   2.793  13.004  0.3328 -0.0161  0.4017
  723TMC3    C410685   0.471   2.977  13.141  0.6458  0.6006 -0.2589
  723TMC3    C510686   0.417   3.004  13.016 -0.1686 -0.6517 -0.2781
  723TMC3    C610687   0.345   2.914  12.943 -0.5275  0.0575  0.1679
  723TMC3     C10688   0.526   2.802  13.311  0.3443  0.6411 -0.3718
  723TMC3     O10689   0.464   2.720  13.377 -0.0759  0.0376 -0.1917
  723TMC3     H10690   0.373   2.655  13.165  1.9268  0.5566  1.4429
  723TMC3    H110691   0.515   3.059  13.196  0.5675 -0.3850  1.2732
  723TMC3    H210692   0.286   2.938  12.856 -0.5018 -0.9600 -0.1277
  723TMC3    C710693   0.421   3.143  12.972  0.1102  0.6503 -0.7505
  723TMC3    C810694   0.243   2.701  12.937  0.2096  0.0220 -0.5069
  723TMC3    O110695   0.456   3.221  13.058  0.1389  0.3471  0.1755
  723TMC3    O210696   0.135   2.738  12.890 -0.3485  0.0665 -0.5281
  724TMC3    C110697   0.593   0.793   9.785 -0.2102  0.0873  0.4831
  724TMC3    C210698   0.659   0.721   9.881 -0.3057  0.2957 -0.1868
  724TMC3    C310699   0.795   0.705   9.876 -0.0081  0.0669 -0.0544
  724TMC3    C410700   0.662   0.857   9.685  0.1955  0.7042  0.0659
  724TMC3    C510701   0.802   0.838   9.683  0.3114  0.4864  0.1057
  724TMC3    C610702   0.866   0.765   9.778  0.7612  0.1109  0.6669
  724TMC3     C10703   0.444   0.810   9.801  0.1959 -0.1598  0.0569
  724TMC3     O10704   0.393   0.741   9.888 -0.2063  1.3550  0.6652
  724TMC3     H10705   0.604   0.672   9.960 -1.5308  3.9410  1.2067
  724TMC3    H110706   0.599   0.916   9.619 -3.4992 -0.3908  2.6107
  724TMC3    H210707   0.969   0.735   9.760  0.2670 -1.0696 -0.1742
  724TMC3    C710708   0.883   0.888   9.572  0.3745 -0.4193 -0.2283
  724TMC3    C810709   0.853   0.614   9.981 -0.0672 -0.3630 -0.2110
  724TMC3    O110710   0.998   0.915   9.586 -0.4286  0.0121 -0.0252
  724TMC3    O210711   0.774   0.561  10.051  0.0295 -0.8946 -0.1820
  725TMC3    C110712   2.506   4.204  13.110 -0.5713  0.4844 -0.1147
  725TMC3    C210713   2.371   4.199  13.115  0.9146 -0.6569  0.1884
  725TMC3    C310714   2.303   4.116  13.035 -0.2107  0.1835 -0.1104
  725TMC3    C410715   2.575   4.123  13.019 -0.4192 -0.3846 -0.5031
  725TMC3    C510716   2.494   4.033  12.944 -0.1322 -0.4745 -0.5789
  725TMC3    C610717   2.361   4.023  12.956 -0.0604 -0.1555  0.8082
  725TMC3     C10718   2.577   4.310  13.171  0.4536  0.4441 -0.0041
  725TMC3     O10719   2.523   4.419  13.198  0.0623  0.0176 -0.1376
  725TMC3     H10720   2.322   4.282  13.165 -1.2079 -1.2311 -0.9634
  725TMC3    H110721   2.682   4.102  13.021  0.1850  2.6126 -0.3238
  725TMC3    H210722   2.301   3.954  12.898 -0.3111 -0.2093  1.1314
  725TMC3    C710723   2.566   3.927  12.869  0.4606  0.3286  0.3836
  725TMC3    C810724   2.193   4.182  12.977 -0.3115  0.0342  0.5459
  725TMC3    O110725   2.669   3.951  12.806 -0.4145  0.3216 -0.2786
  725TMC3    O210726   2.092   4.185  13.048 -0.2924 -0.4790  0.3471
  726MPD2     C10727   0.717   1.101  10.445  0.1831 -0.5029 -0.0373
  726MPD2    C110728   0.593   1.141  10.408 -0.3580  1.0036  0.2240
  726MPD2    C210729   0.484   1.075  10.455  0.1416  0.0449  0.5170
  726MPD2    C310730   0.493   0.968  10.548  0.2667  0.7312  0.1582
  726MPD2    C410731   0.621   0.934  10.592  0.3382  0.3718  0.4756
  726MPD2    C510732   0.731   1.003  10.543  0.2162 -0.0263 -1.1573
  726MPD2     H10733   0.392   1.120  10.419 -0.5540  0.5350  2.9352
  726MPD2    H110734   0.630   0.843  10.650  1.7426 -0.7653 -1.5419
  726MPD2    H210735   0.811   1.145  10.413 -0.0581 -0.1990 -0.3166
  726MPD2    H310736   0.834   0.980  10.569 -0.3558 -1.4066 -0.1155
  726MPD2     N10737   0.385   0.892  10.604  0.5699 -0.2228  0.1383
  726MPD2    H510738   0.403   0.822  10.675  1.9873  0.4385  0.4311
  726MPD2    N110739   0.564   1.250  10.315 -0.2557  0.0303 -0.0033
  726MPD2    H710740   0.466   1.265  10.293  0.1819 -0.0329 -2.0023
  727TMC3    C110741   0.618   1.440  10.186  0.0028  0.0681 -0.1161
  727TMC3    C210742   0.697   1.546  10.189  0.0907 -0.0196 -0.0589
  727TMC3    C310743   0.660   1.652  10.112 -0.4935 -0.1119  1.6712
  727TMC3    C410744   0.493   1.446  10.128  0.0941 -0.0192 -0.8623
  727TMC3    C510745   0.461   1.557  10.064 -0.3575 -0.3526 -0.6835
  727TMC3    C610746   0.543   1.665  10.047 -0.2666 -0.3742  0.1057
  727TMC3     C10747   0.662   1.335  10.278 -0.7512 -0.0416 -0.5409
  727TMC3     O10748   0.775   1.357  10.319  0.0806  0.4622  0.1437
  727TMC3     H10749   0.792   1.557  10.240  0.3204  0.0927 -0.5044
  727TMC3    H110750   0.434   1.355  10.120  0.3844 -0.5661  3.4009
  727TMC3    H210751   0.509   1.753   9.995 -0.1704  0.2599  1.1172
  727TMC3    C710752   0.342   1.538   9.985 -0.3372  0.3605  0.1365
  727TMC3    C810753   0.746   1.769  10.136  0.4436  0.0714  0.2810
  727TMC3    O110754   0.229   1.557  10.029  0.3464  0.5233  0.2146
  727TMC3    O210755   0.833   1.793  10.054  0.1669  0.1331  0.1874
  728TMC3    C110756   4.623   4.188  15.046 -0.6797  0.1657  0.2538
  728TMC3    C210757   0.030   4.235  15.019  0.4392  0.2672  0.3408
  728TMC3    C310758   0.050   4.311  14.906  0.2572 -0.1763 -0.3509
  728TMC3    C410759   4.513   4.245  14.984 -0.3775 -0.1930  0.6227
  728TMC3    C510760   4.544   4.348  14.894  0.2895 -0.3361  0.2062
  728TMC3    C610761   4.671   4.380  14.852  0.1280  0.0592 -0.1917
  728TMC3     C10762   4.607   4.116  15.168  0.0811  0.2405  0.3806
  728TMC3     O10763   4.702   4.096  15.240  0.3362 -0.3846 -0.4769
  728TMC3     H10764   0.117   4.196  15.072  0.8073 -1.7749 -1.8041
  728TMC3    H110765   4.413   4.204  14.988 -1.0936  1.4314 -1.0026
  728TMC3    H210766   4.680   4.415  14.750  0.4097  0.1505 -0.1350
  728TMC3    C710767   4.427   4.414  14.840 -0.2195  0.1190 -0.0065
  728TMC3    C810768   0.195   4.346  14.880  0.7006 -0.3949 -0.0774
  728TMC3    O110769   4.321   4.358  14.861 -0.4662  0.1195  0.0031
  728TMC3    O210770   0.287   4.278  14.927 -0.2175 -0.6810 -0.0987
  729MPD2     C10771   2.267   0.145  16.843 -0.3919  0.0727 -0.2584
  729MPD2    C110772   2.292   0.279  16.854 -0.3267  0.0946  0.5984
  729MPD2    C210773   2.251   0.351  16.968  0.6273  0.5939  0.2418
  729MPD2    C310774   2.180   0.283  17.066  0.2077 -0.2265  0.5284
  729MPD2    C410775   2.152   0.150  17.053 -0.7329  0.1159 -0.1167
  729MPD2    C510776   2.195   0.085  16.942  0.5479 -0.0124  0.4140
  729MPD2     H10777   2.281   0.455  16.977  2.0465 -0.0434  2.9147
  729MPD2    H110778   2.112   0.098  17.140  2.4803  0.0771  1.3452
  729MPD2    H210779   2.299   0.086  16.758  1.4153  2.1984 -1.0117
  729MPD2    H310780   2.171   4.701  16.938 -1.1069  0.3871 -0.2501
  729MPD2     N10781   2.146   0.350  17.185 -0.1740 -0.1807  0.0762
  729MPD2    H510782   2.165   0.449  17.182  2.0926 -0.6627 -1.4047
  729MPD2    N110783   2.356   0.338  16.741  0.4012 -0.3161  0.1113
  729MPD2    H710784   2.383   0.283  16.660 -2.8660 -0.5961 -0.7825
  730TMC3    C110785   2.095   0.407  17.400 -0.3188  0.7676 -0.3399
  730TMC3    C210786   2.145   0.380  17.522  0.3999  0.2606 -0.7717
  730TMC3    C310787   2.198   0.488  17.584 -0.6667  0.6760 -0.1772
  730TMC3    C410788   2.098   0.527  17.335  0.0820 -0.2130 -0.2967
  730TMC3    C510789   2.165   0.626  17.401  0.4267 -0.0035  0.5521
  730TMC3    C610790   2.212   0.612  17.525  0.2937 -0.5572  0.7885
  730TMC3     C10791   2.111   0.298  17.309 -0.1026 -0.4736 -0.2437
  730TMC3     O10792   2.098   0.178  17.346  0.2892 -1.1626  0.4181
  730TMC3     H10793   2.156   0.279  17.559 -1.0926  1.1780  2.2268
  730TMC3    H110794   2.040   0.554  17.247 -0.2585 -0.4652 -0.1476
  730TMC3    H210795   2.269   0.683  17.583  0.5080  0.5809 -0.8202
  730TMC3    C710796   2.153   0.756  17.347  0.9590  0.6344 -0.4224
  730TMC3    C810797   2.282   0.460   0.009  0.5097 -0.3646  0.2967
  730TMC3    O110798   2.148   0.761  17.225  0.0777 -0.8718 -0.1348
  730TMC3    O210799   2.241   0.365   0.072 -0.2212 -0.3105 -0.0283
  731MPD2     C10800   1.988   4.176  12.567 -0.1834  0.3479  1.2438
  731MPD2    C110801   2.107   4.098  12.582  0.2732 -0.6627  0.3865
  731MPD2    C210802   2.102   3.996  12.674  0.3283  0.3297 -0.2008
  731MPD2    C310803   1.989   3.989  12.761 -0.0385  0.0246 -0.3417
  731MPD2    C410804   1.888   4.082  12.750  0.0540  0.0723  0.3303
  731MPD2    C510805   1.887   4.181  12.656  0.6194 -0.1429 -0.5655
  731MPD2     H10806   2.179   3.923  12.696 -0.4071 -0.4321 -0.1606
  731MPD2    H110807   1.797   4.083  12.809  0.4111  0.0627  0.8776
  731MPD2    H210808   1.990   4.241  12.481 -2.7734  0.7405  1.4995
  731MPD2    H310809   1.808   4.254  12.645  0.2719 -0.3235  0.6930
  731MPD2     N10810   1.991   3.883  12.853 -0.6746  0.3476  0.4740
  731MPD2    H510811   2.066   3.815  12.841 -0.5033  0.4565  0.9335
  731MPD2    N110812   2.213   4.118  12.493  0.0622  0.5012  0.6835
  731MPD2    H710813   2.210   4.202  12.437  0.7140 -0.4183 -0.7370
  732TMC3    C110814   2.416   4.082  12.386  0.0183  0.2002  0.5640
  732TMC3    C210815   2.349   4.094  12.266 -0.3142  0.1394  0.4808
  732TMC3    C310816   2.431   4.110  12.156 -0.4631  0.3309  0.6398
  732TMC3    C410817   2.546   4.110  12.405 -0.3385 -0.1135 -0.2046
  732TMC3    C510818   2.615   4.130  12.291 -0.6956 -0.0924  0.8307
  732TMC3    C610819   2.564   4.138  12.164 -0.6518 -0.2774  0.5893
  732TMC3     C10820   2.327   4.037  12.486 -0.2746 -0.5237  0.7323
  732TMC3     O10821   2.369   3.953  12.569 -0.0492  0.3810  0.0996
  732TMC3     H10822   2.253   4.044  12.264  0.6809 -1.6782 -0.7603
  732TMC3    H110823   2.593   4.095  12.502  0.5886  1.0936 -0.4526
  732TMC3    H210824   2.611   4.173  12.072  0.8858 -3.7158  0.0689
  732TMC3    C710825   2.761   4.144  12.300 -0.6491  0.8101 -0.4917
  732TMC3    C810826   2.369   4.102  12.024 -0.2279 -0.2914 -1.1917
  732TMC3    O110827   2.821   4.179  12.198  0.7007  0.3697 -0.7386
  732TMC3    O210828   2.446   4.092  11.925  0.6351  0.0194 -0.1277
  733TMC3    C110829   3.571   1.801  12.859 -0.4214 -0.3670 -0.3357
  733TMC3    C210830   3.644   1.897  12.928  0.4151  0.1851  0.0807
  733TMC3    C310831   3.644   2.021  12.869  0.3302  0.5675  0.3438
  733TMC3    C410832   3.533   1.826  12.733  0.4984 -0.4748  0.4912
  733TMC3    C510833   3.549   1.946  12.673  0.2291  0.0298  0.4594
  733TMC3    C610834   3.601   2.047  12.747 -0.0950 -0.0542 -0.5657
  733TMC3     C10835   3.456   1.750  12.928 -0.2641 -0.6878  0.1653
  733TMC3     O10836   3.358   1.712  12.868  0.9308 -0.2803 -0.1297
  733TMC3     H10837   3.674   1.885  13.032 -0.4369 -0.2844  0.2741
  733TMC3    H110838   3.472   1.756  12.678  0.6427 -0.3645  0.1878
  733TMC3    H210839   3.627   2.139  12.695 -1.8064  1.0197  0.4947
  733TMC3    C710840   3.452   1.970  12.566  0.7848 -0.0327 -0.3210
  733TMC3    C810841   3.689   2.138  12.948  0.4266  1.2027 -0.4402
  733TMC3    O110842   3.434   1.894  12.471 -0.0633  0.1123  0.0145
  733TMC3    O210843   3.784   2.122  13.022 -0.0747 -0.5123  0.8262
  734MPD2     C10844   0.178   4.127  12.556  0.6007  0.2634  0.2949
  734MPD2    C110845   0.243   4.075  12.449 -0.0869 -0.4554 -0.5522
  734MPD2    C210846   0.266   4.162  12.340  0.0218 -0.7157 -0.2553
  734MPD2    C310847   0.236   4.290  12.356  0.1332  0.7856  0.0302
  734MPD2    C410848   0.176   4.346  12.469 -0.3502  0.0939  0.1679
  734MPD2    C510849   0.154   4.258  12.572 -0.5824 -0.8084 -0.5018
  734MPD2     H10850   0.307   4.123  12.248 -0.8666  0.8108 -1.2969
  734MPD2    H110851   0.162   4.451  12.491 -3.1303 -0.2422 -0.0385
  734MPD2    H210852   0.162   4.074  12.649  1.1547  0.3340  0.4323
  734MPD2    H310853   0.123   4.295  12.669 -0.6710  0.9720 -1.2187
  734MPD2     N10854   0.244   4.361  12.238  0.3635  0.2956  0.1716
  734MPD2    H510855   0.271   4.317  12.151 -0.0090 -1.0271  0.7280
  734MPD2    N110856   0.276   3.930  12.456  0.3198 -0.1437 -0.4639
  734MPD2    H710857   0.257   3.872  12.537  0.8923  0.1318 -0.1324
  735TMC3    C110858   0.309   3.737  12.337 -0.2797  0.5979  0.3299
  735TMC3    C210859   0.170   3.717  12.336  0.6009  0.0739 -0.6111
  735TMC3    C310860   0.133   3.620  12.252 -0.1126  0.1206  0.3171
  735TMC3    C410861   0.405   3.665  12.272 -0.0855  0.1598 -0.3943
  735TMC3    C510862   0.358   3.559  12.203  0.1392  0.1833  0.4086
  735TMC3    C610863   0.222   3.538  12.196  0.4423 -0.3648 -0.3646
  735TMC3     C10864   0.352   3.869  12.360 -0.8598  0.1780 -0.2040
  735TMC3     O10865   0.402   3.918  12.259  0.2860  0.0611 -0.2844
  735TMC3     H10866   0.108   3.788  12.389  0.4376 -1.6409  1.5340
  735TMC3    H110867   0.508   3.697  12.273 -0.5918  1.8307 -0.8524
  735TMC3    H210868   0.190   3.453  12.137  1.8237  0.0518 -1.7484
  735TMC3    C710869   0.445   3.443  12.170  0.0820 -0.3290  0.8693
  735TMC3    C810870   0.029   3.659  12.165 -0.2398  0.0755 -1.3818
  735TMC3    O110871   0.392   3.339  12.130 -0.0872  0.3797 -0.0312
  735TMC3    O210872   4.674   3.576  12.111  0.5809  0.1305 -0.3637
  736MPD2     C10873   0.677   3.251  12.133  0.4666 -0.9584  0.1637
  736MPD2    C110874   0.684   3.392  12.132 -0.1125  1.1807 -0.2945
  736MPD2    C210875   0.804   3.454  12.101  0.3275 -0.0860  0.5587
  736MPD2    C310876   0.915   3.375  12.069  0.2673 -0.4390 -0.6672
  736MPD2    C410877   0.913   3.245  12.096 -0.9147  0.1181  0.4073
  736MPD2    C510878   0.795   3.176  12.125  0.1725 -0.4520  0.3148
  736MPD2     H10879   0.804   3.563  12.099 -0.3697 -0.1550 -3.5555
  736MPD2    H110880   1.000   3.185  12.070 -1.3405 -1.1372  1.8737
  736MPD2    H210881   0.586   3.200  12.163  0.1631 -0.6794 -0.2856
  736MPD2    H310882   0.794   3.069  12.142  1.0877 -0.6296 -0.7829
  736MPD2     N10883   1.038   3.435  12.026  0.4759 -0.1849  0.4726
  736MPD2    H510884   1.116   3.372  12.012  1.3798  1.2181 -0.8293
  736MPD2    N110885   0.579   3.477  12.165 -0.0973  0.1276 -0.6320
  736MPD2    H710886   0.610   3.573  12.177 -0.7070  0.5125 -2.1843
  737TMC3    C110887   1.181   3.622  11.957  0.1383 -0.6995 -0.1934
  737TMC3    C210888   1.180   3.750  11.910  0.3662  1.0921  0.4679
  737TMC3    C310889   1.248   3.785  11.796 -0.0095 -0.3972 -0.0322
  737TMC3    C410890   1.251   3.534  11.881 -0.2067 -0.5639 -0.3226
  737TMC3    C510891   1.314   3.564  11.764 -0.2192  0.3360 -0.9250
  737TMC3    C610892   1.312   3.692  11.722  0.1078 -0.0456 -0.4481
  737TMC3     C10893   1.058   3.571  12.017 -0.1675  1.3019  0.0537
  737TMC3     O10894   0.980   3.663  12.047 -0.1880 -0.0017 -0.3718
  737TMC3     H10895   1.120   3.828  11.956 -0.5155  0.3206  0.6273
  737TMC3    H110896   1.257   3.434  11.921 -0.1855 -0.6713 -0.5915
  737TMC3    H210897   1.347   3.717  11.623 -4.1462  0.2171 -1.8993
  737TMC3    C710898   1.307   3.450  11.674 -0.2925  0.3129 -0.4583
  737TMC3    C810899   1.229   3.918  11.745  1.3799  0.2234 -0.7545
  737TMC3    O110900   1.220   3.367  11.698  0.7758 -0.0333 -0.0547
  737TMC3    O210901   1.223   4.010  11.831  0.5591  0.3275 -0.4901
  738MPD2     C10902   1.138   2.755  14.808  0.4390 -0.1220 -0.0270
  738MPD2    C110903   1.155   2.751  14.946  0.6986  0.4682  0.5968
  738MPD2    C210904   1.249   2.837  15.006 -0.1828  0.9750  0.5451
  738MPD2    C310905   1.304   2.935  14.930 -1.1232  0.1875 -0.0345
  738MPD2    C410906   1.282   2.939  14.794 -0.6859 -0.5208 -0.3940
  738MPD2    C510907   1.205   2.850  14.735  0.2631 -0.3759  0.0233
  738MPD2     H10908   1.275   2.842  15.111 -0.5460 -1.4597  0.7622
  738MPD2    H110909   1.336   3.013  14.736  0.2542 -0.2868  0.7757
  738MPD2    H210910   1.082   2.684  14.748 -0.6869  1.1480 -0.4830
  738MPD2    H310911   1.178   2.845  14.631 -1.1065  2.0092  0.2704
  738MPD2     N10912   1.406   3.030  14.974  0.1517 -0.7371  0.5471
  738MPD2    H510913   1.434   3.098  14.903 -0.1261  0.2632  1.3846
  738MPD2    N110914   1.082   2.661  15.018 -0.2078  0.3435  0.1629
  738MPD2    H710915   1.127   2.632  15.105 -0.9537 -2.9931 -0.5558
  739TMC3    C110916   1.602   3.116  15.061  0.4851 -1.0082  0.1315
  739TMC3    C210917   1.650   3.147  14.932  0.7168  0.1364 -0.1929
  739TMC3    C310918   1.754   3.225  14.921 -0.0673  0.8971  0.5819
  739TMC3    C410919   1.648   3.171  15.176 -0.1690 -0.6474  0.1030
  739TMC3    C510920   1.740   3.272  15.158  0.9022 -0.2607 -0.5515
  739TMC3    C610921   1.795   3.294  15.035 -0.5102  0.2739 -0.2752
  739TMC3     C10922   1.489   3.030  15.081  0.0469  0.0283 -0.0646
  739TMC3     O10923   1.455   2.980  15.187 -0.1281  0.1847 -0.1090
  739TMC3     H10924   1.599   3.109  14.844  2.0590  0.1825 -0.9954
  739TMC3    H110925   1.609   3.145  15.273 -0.5073  2.7571  0.8603
  739TMC3    H210926   1.868   3.373  15.028  0.0644 -0.1025  1.4702
  739TMC3    C710927   1.797   3.336  15.282 -0.1224  0.8931  0.0997
  739TMC3    C810928   1.792   3.266  14.783 -0.1622  0.1326 -0.3559
  739TMC3    O110929   1.905   3.394  15.280 -0.6090 -0.3166 -0.8229
  739TMC3    O210930   1.745   3.201  14.690  0.0111 -0.6478  0.1047
  740TMC3    C110931   2.035   4.604  14.236 -0.2125  0.8915  0.8842
  740TMC3    C210932   2.081   4.560  14.361 -0.2618 -0.1870 -0.2514
  740TMC3    C310933   2.182   4.473  14.364 -0.6243 -0.0822 -0.0998
  740TMC3    C410934   2.102   4.576  14.121 -0.4682 -0.1845  0.2919
  740TMC3    C510935   2.201   4.488  14.128 -0.6111  0.5333  0.1000
  740TMC3    C610936   2.241   4.429  14.245  0.1145  0.2050 -0.0395
  740TMC3     C10937   1.903   4.660  14.217  0.8836  0.7847 -0.5329
  740TMC3     O10938   1.884   0.012  14.124 -0.4291  0.6597  0.1742
  740TMC3     H10939   2.024   4.568  14.452 -1.6708 -1.2540 -1.0574
  740TMC3    H110940   2.071   4.614  14.024 -1.1464 -1.3393  0.0554
  740TMC3    H210941   2.316   4.352  14.256  0.0762  0.3238  1.0713
  740TMC3    C710942   2.220   4.398  14.007  0.0447  0.3053 -0.2150
  740TMC3    C810943   2.234   4.419  14.485  0.5872 -0.4443  0.0822
  740TMC3    O110944   2.251   4.284  14.029 -0.1529 -0.1714  0.4246
  740TMC3    O210945   2.282   4.305  14.481 -0.0254 -0.6053 -0.2782
  741TMC3    C110946   1.488   3.558  14.520  0.5869  0.5208 -0.2467
  741TMC3    C210947   1.473   3.458  14.429  0.1117 -0.4885 -0.3082
  741TMC3    C310948   1.441   3.331  14.478 -0.1293 -0.6800 -0.1728
  741TMC3    C410949   1.467   3.542  14.651 -0.1904  0.0507  0.4171
  741TMC3    C510950   1.454   3.416  14.698  0.3002 -0.3707 -0.5035
  741TMC3    C610951   1.439   3.305  14.611 -0.0417  0.4074  0.5856
  741TMC3     C10952   1.515   3.692  14.476  0.4532 -0.1102  0.4334
  741TMC3     O10953   1.557   3.768  14.566 -0.6289 -0.1529  0.2644
  741TMC3     H10954   1.460   3.481  14.324  1.5961 -2.0841 -0.8339
  741TMC3    H110955   1.487   3.628  14.714 -1.4731  0.0596  0.8089
  741TMC3    H210956   1.398   3.211  14.648  0.4739  0.2505  0.7520
  741TMC3    C710957   1.440   3.388  14.840 -0.6123 -0.1587  0.0816
  741TMC3    C810958   1.398   3.232  14.380  0.5215  0.0743 -0.1223
  741TMC3    O110959   1.388   3.284  14.862 -0.6274 -0.2251 -0.2496
  741TMC3    O210960   1.361   3.277  14.276 -0.6723  0.0640  0.4775
  742TMC3    C110961   1.376   1.600  15.693  0.8668 -0.0021  0.1757
  742TMC3    C210962   1.322   1.614  15.566 -0.0069  0.2240 -0.4591
  742TMC3    C310963   1.403   1.683  15.480 -0.0315 -0.0068  0.0629
  742TMC3    C410964   1.505   1.640  15.720  0.9211 -0.1400  0.0283
  742TMC3    C510965   1.589   1.694  15.625  0.0321  0.2378  0.1300
  742TMC3    C610966   1.532   1.713  15.505 -1.1437 -0.0452  0.3496
  742TMC3     C10967   1.318   1.496  15.780  0.1838 -0.7692 -0.7437
  742TMC3     O10968   1.321   1.527  15.900 -1.0674 -0.2863  0.4215
  742TMC3     H10969   1.216   1.602  15.546  0.2680 -0.6236 -1.3573
  742TMC3    H110970   1.531   1.616  15.822  0.0465  1.3494  0.5850
  742TMC3    H210971   1.596   1.746  15.423 -0.8239  1.1932  1.1094
  742TMC3    C710972   1.735   1.680  15.644  0.4345  0.1156 -0.0362
  742TMC3    C810973   1.348   1.713  15.348 -0.4946 -0.0304 -0.6622
  742TMC3    O110974   1.803   1.629  15.559 -0.0964  0.3578 -0.0249
  742TMC3    O210975   1.261   1.636  15.312 -0.1420  0.2556  0.0904
  743MPD2     C10976   3.502   1.522   1.203 -0.4595 -0.4020  0.0663
  743MPD2    C110977   3.551   1.608   1.112 -1.0901  0.1464  0.1647
  743MPD2    C210978   3.659   1.572   1.034 -0.5346 -0.0746 -0.5087
  743MPD2    C310979   3.721   1.451   1.063 -0.6887  0.8155  0.0487
  743MPD2    C410980   3.677   1.368   1.166 -0.1343 -0.0909 -0.1571
  743MPD2    C510981   3.561   1.396   1.231  0.5598  0.0739 -0.1529
  743MPD2     H10982   3.699   1.629   0.950 -0.5192  2.2509  1.0708
  743MPD2    H110983   3.721   1.273   1.193 -3.2297 -1.5554 -0.2483
  743MPD2    H210984   3.408   1.544   1.253 -1.4502 -0.9725 -1.5570
  743MPD2    H310985   3.529   1.336   1.316 -2.5595  0.7373 -0.8803
  743MPD2     N10986   3.843   1.422   0.994 -0.1044  0.2435 -0.0998
  743MPD2    H510987   3.872   1.493   0.926  2.2813 -0.5007  0.1440
  743MPD2    N110988   3.493   1.737   1.102 -0.3237  0.2150  0.4871
  743MPD2    H710989   3.437   1.764   1.183  0.6057 -2.0159  1.8868
  744TMC3    C110990   3.503   1.964   1.052  0.8660  0.3078  0.3752
  744TMC3    C210991   3.570   2.008   1.170  0.4320  0.0406 -0.4054
  744TMC3    C310992   3.634   2.131   1.177 -0.2436  0.1936  0.3116
  744TMC3    C410993   3.509   2.054   0.946 -0.1925 -0.1583 -1.2422
  744TMC3    C510994   3.580   2.173   0.961 -0.1150  0.0156 -0.1380
  744TMC3    C610995   3.639   2.213   1.072 -0.0131 -0.5240  0.4292
  744TMC3     C10996   3.541   1.833   1.014 -0.1904 -0.0418  0.2643
  744TMC3     O10997   3.575   1.820   0.895  0.0284 -0.0324 -0.5899
  744TMC3     H10998   3.573   1.949   1.260 -0.2546 -0.5813 -0.7910
  744TMC3    H110999   3.432   2.052   0.870  0.2800 -0.8396 -1.6959
  744TMC3    H211000   3.719   2.287   1.068 -1.0218  0.4996 -0.7083
  744TMC3    C711001   3.667   2.190   0.852  0.2115  0.4659  0.1293
  744TMC3    C811002   3.668   2.178   1.308 -0.0842  0.2851  0.3598
  744TMC3    O111003   3.697   2.308   0.824 -0.1289 -0.1954  0.3003
  744TMC3    O211004   3.689   2.299   1.312  0.1005 -0.4500 -0.3335
  745TMC3    C111005   2.336   1.912  14.085 -0.3322  0.8538  0.1912
  745TMC3    C211006   2.255   1.978  14.172  1.1485 -0.2166  0.1478
  745TMC3    C311007   2.124   1.941  14.151  0.1453  0.2541  0.4456
  745TMC3    C411008   2.303   1.830  13.983 -0.5393 -0.2674 -0.9499
  745TMC3    C511009   2.169   1.807  13.964 -0.9879  0.3769 -0.3314
  745TMC3    C611010   2.078   1.855  14.051 -0.7715 -0.0086  0.2131
  745TMC3     C11011   2.474   1.955  14.083 -0.2524  0.1711  0.7267
  745TMC3     O11012   2.534   1.955  14.187 -0.7635 -0.2652  0.0139
  745TMC3     H11013   2.291   2.023  14.264  0.3334  0.6406  0.0444
  745TMC3    H111014   2.377   1.796  13.912  1.8582 -0.6205  1.7138
  745TMC3    H211015   1.972   1.841  14.032 -0.6100 -1.9135  0.7249
  745TMC3    C711016   2.115   1.754  13.840  0.2165  0.1025  1.0663
  745TMC3    C811017   2.025   2.026  14.210 -0.6700 -0.1706 -0.3114
  745TMC3    O111018   2.007   1.790  13.805  0.4819 -0.4436 -0.5560
  745TMC3    O211019   1.914   1.977  14.214  0.0836 -0.0367  0.2383
  746TMC3    C111020   4.023   3.243  11.029  0.6077 -0.4159  0.1575
  746TMC3    C211021   4.095   3.213  10.911 -0.2357  0.2155 -0.0100
  746TMC3    C311022   4.044   3.112  10.831 -1.0820 -0.2415  0.4025
  746TMC3    C411023   3.910   3.168  11.046  0.0127 -0.1622  0.0359
  746TMC3    C511024   3.861   3.073  10.961  0.1107 -0.3763 -0.1523
  746TMC3    C611025   3.932   3.027  10.857 -0.2483  0.2443 -0.9420
  746TMC3     C11026   3.990   3.382  11.045 -0.3277 -0.5992 -0.1432
  746TMC3     O11027   3.871   3.418  11.047 -0.1058  0.6804  0.2445
  746TMC3     H11028   4.195   3.251  10.895  0.6110 -1.8513  0.3244
  746TMC3    H111029   3.839   3.210  11.117 -0.4191 -2.0990  0.7436
  746TMC3    H211030   3.893   2.965  10.777 -2.4689  2.0018 -1.2431
  746TMC3    C711031   3.722   3.068  10.945 -1.4315  0.4113 -1.0911
  746TMC3    C811032   4.109   3.095  10.700 -0.1006 -0.2048 -0.1828
  746TMC3    O111033   3.680   3.072  10.829  0.0594  0.8913  0.2287
  746TMC3    O211034   4.157   2.982  10.684 -0.1951 -0.3061  0.0876
  747TMC3    C111035   1.403   3.573  10.656  0.0530  0.0908  0.0028
  747TMC3    C211036   1.422   3.469  10.740 -0.1644 -0.4262  0.2167
  747TMC3    C311037   1.468   3.493  10.870  0.4354 -0.7013 -0.3580
  747TMC3    C411038   1.428   3.702  10.698  0.2059  0.3868  0.0505
  747TMC3    C511039   1.489   3.723  10.816  0.3586 -0.0705 -0.4660
  747TMC3    C611040   1.502   3.624  10.901  0.1385 -0.0778 -0.3114
  747TMC3     C11041   1.343   3.557  10.525  0.0321  0.0564  0.4093
  747TMC3     O11042   1.302   3.659  10.470 -0.4402  0.3741 -0.4155
  747TMC3     H11043   1.365   3.381  10.714  1.9778 -1.8937  0.4873
  747TMC3    H111044   1.403   3.790  10.640 -1.9131  0.7562  1.5319
  747TMC3    H211045   1.535   3.657  10.999 -0.1512  3.2283 -1.3030
  747TMC3    C711046   1.472   3.846  10.877  0.6411  0.0675 -0.4973
  747TMC3    C811047   1.443   3.385  10.965 -0.6782  0.2646 -1.0565
  747TMC3    O111048   1.357   3.887  10.886 -0.3408 -0.7963 -0.3178
  747TMC3    O211049   1.407   3.276  10.927  0.2773  0.1649 -0.3480
  748MPD2     C11050   2.589   3.923   1.506 -0.1013 -0.0951 -0.4779
  748MPD2    C111051   2.655   3.808   1.526 -0.1215 -0.0173 -1.0655
  748MPD2    C211052   2.792   3.804   1.517 -0.5568 -0.6674  0.5899
  748MPD2    C311053   2.862   3.919   1.479 -0.1927  0.2657 -0.4023
  748MPD2    C411054   2.794   4.041   1.455 -0.6438  0.2406 -0.2888
  748MPD2    C511055   2.653   4.037   1.469  0.3447 -0.1621  0.5309
  748MPD2     H11056   2.851   3.717   1.544  0.6006 -0.2897 -0.6847
  748MPD2    H111057   2.840   4.133   1.421 -0.5803 -0.4077 -1.9777
  748MPD2    H211058   2.480   3.925   1.502 -0.1505  0.5100  1.2032
  748MPD2    H311059   2.592   4.123   1.444  0.3705 -0.0981  0.6925
  748MPD2     N11060   3.000   3.902   1.464  0.0728  0.7521  0.5310
  748MPD2    H511061   3.033   3.809   1.487 -2.3997 -0.9886 -2.8887
  748MPD2    N111062   2.575   3.692   1.564 -0.7613 -0.3493  0.1783
  748MPD2    H711063   2.481   3.716   1.594 -0.9760  0.5965 -1.2422
  749TMC3    C111064   3.233   3.944   1.429  0.6152 -0.0505  0.2222
  749TMC3    C211065   3.265   3.829   1.496 -0.4361  0.6065 -0.0225
  749TMC3    C311066   3.394   3.777   1.482  0.1592  0.4256  0.3247
  749TMC3    C411067   3.326   4.004   1.341  0.1107 -0.8255  0.6747
  749TMC3    C511068   3.449   3.949   1.338  0.3774  0.6466  0.5566
  749TMC3    C611069   3.493   3.839   1.413 -0.3316 -0.0699 -0.4417
  749TMC3     C11070   3.096   3.993   1.422  0.5700  0.5454  0.5372
  749TMC3     O11071   3.086   4.107   1.380  0.1020 -0.4869  0.7732
  749TMC3     H11072   3.200   3.789   1.574 -1.4856  0.1935 -1.1026
  749TMC3    H111073   3.293   4.085   1.277 -0.2186  0.2247  2.1642
  749TMC3    H211074   3.597   3.810   1.410 -0.0291  1.0105 -0.2555
  749TMC3    C711075   3.538   4.000   1.236 -0.0106  0.1254 -0.0651
  749TMC3    C811076   3.426   3.660   1.552 -0.3676 -0.1423  0.3966
  749TMC3    O111077   3.524   4.112   1.198 -0.1544 -0.1651  0.0200
  749TMC3    O211078   3.364   3.631   1.654 -0.0426  0.2076  0.4991
  750MPD2     C11079   4.389   0.617  11.228 -0.2393  0.1118 -0.1205
  750MPD2    C111080   4.254   0.595  11.234 -0.9568 -0.0626 -0.6661
  750MPD2    C211081   4.204   0.474  11.183  0.6111  0.0265 -0.1676
  750MPD2    C311082   4.285   0.374  11.132 -0.8274 -0.4010 -0.0960
  750MPD2    C411083   4.413   0.405  11.109  0.2691 -0.2266 -0.1945
  750MPD2    C511084   4.464   0.528  11.153 -0.2153 -0.2871 -0.6266
  750MPD2     H11085   4.096   0.458  11.185  0.3216  1.9867 -0.0094
  750MPD2    H111086   4.477   0.333  11.060  3.4646  1.4779  1.5173
  750MPD2    H211087   4.423   0.708  11.275  1.2765 -1.2219  1.3607
  750MPD2    H311088   4.566   0.557  11.133 -0.7445  1.5414 -0.7035
  750MPD2     N11089   4.246   0.251  11.078 -0.2733 -0.1521  0.5912
  750MPD2    H511090   4.318   0.189  11.043 -0.8716  0.5127 -1.8468
  750MPD2    N111091   4.167   0.698  11.275 -0.0096  0.0087 -0.8586
  750MPD2    H711092   4.213   0.777  11.318  2.2552 -0.5424 -2.2672
  751TMC3    C111093   4.105   0.094  10.972  0.3946  0.4909  0.0250
  751TMC3    C211094   3.966   0.059  10.963  0.6178  0.8654  0.2285
  751TMC3    C311095   3.941   4.688  10.870  0.0178  0.2675  0.0469
  751TMC3    C411096   4.206   0.043  10.900 -0.2071  0.2317 -0.2136
  751TMC3    C511097   4.167   4.659  10.815  0.2366 -0.7230  0.0512
  751TMC3    C611098   4.035   4.622  10.804  0.5188  0.3498  0.1127
  751TMC3     C11099   4.123   0.218  11.041 -0.6140 -0.5244  0.0422
  751TMC3     O11100   4.022   0.278  11.069  0.2543 -0.0984  0.0819
  751TMC3     H11101   3.886   0.099  11.024  1.0767  1.2244  0.5854
  751TMC3    H111102   4.308   0.077  10.905  0.2273 -1.2328  0.7515
  751TMC3    H211103   4.003   4.557  10.724  0.8044 -1.6379  1.6119
  751TMC3    C711104   4.272   4.575  10.764  1.0434  0.2068 -0.0031
  751TMC3    C811105   3.809   4.622  10.871  0.4507  0.0396  0.2303
  751TMC3    O111106   4.385   4.618  10.756 -0.0155  0.1259 -0.0576
  751TMC3    O211107   3.800   4.511  10.826  0.0782  0.2808  0.1873
  752TMC3    C111108   3.065   4.487  17.091  0.2212 -0.0841  0.0115
  752TMC3    C211109   3.098   4.355  17.095  0.1803 -0.5308 -0.3334
  752TMC3    C311110   3.063   4.279  17.209  0.0996 -0.2106  0.3824
  752TMC3    C411111   3.013   4.547  17.201  0.0904 -0.2892 -0.0668
  752TMC3    C511112   2.978   4.467  17.307  0.2745 -0.1162 -0.9045
  752TMC3    C611113   2.994   4.332  17.318  0.2779 -0.8448  0.2277
  752TMC3     C11114   3.120   4.571  16.990  0.3760 -0.4714 -0.3063
  752TMC3     O11115   3.226   4.538  16.937 -0.2283 -0.0303 -0.5184
  752TMC3     H11116   3.148   4.302  17.015 -1.5959 -1.9534 -0.5106
  752TMC3    H111117   2.994   4.654  17.204  1.1352 -0.0824 -0.4640
  752TMC3    H211118   2.959   4.268  17.398 -0.4566 -1.5797 -0.6766
  752TMC3    C711119   2.904   4.538  17.413 -0.4267 -0.1464  0.1045
  752TMC3    C811120   3.074   4.134  17.208 -0.1285  1.0205 -0.4514
  752TMC3    O111121   2.893   4.662  17.408 -0.5395 -0.0497  0.3300
  752TMC3    O211122   2.997   4.066  17.276  0.2529  0.1503 -0.6226
  753TMC3    C111123   0.137   1.501  13.303  0.0012 -0.0217 -0.3291
  753TMC3    C211124   0.211   1.475  13.421 -0.2890 -0.0131  0.3573
  753TMC3    C311125   0.171   1.354  13.482 -0.1516 -0.0726 -0.2889
  753TMC3    C411126   0.040   1.419  13.258 -0.2095 -0.4716  0.5280
  753TMC3    C511127   0.025   1.297  13.314  0.2673  0.4326 -0.1724
  753TMC3    C611128   0.085   1.262  13.426 -0.3339  0.0772 -0.7933
  753TMC3     C11129   0.130   1.639  13.245  0.0750 -0.3462  0.3218
  753TMC3     O11130   0.029   1.669  13.179 -0.9737 -0.1805  0.4047
  753TMC3     H11131   0.270   1.549  13.473 -1.9570  0.0882  2.1207
  753TMC3    H111132   0.006   1.432  13.156  4.3822 -4.2298 -1.4721
  753TMC3    H211133   0.061   1.167  13.471  0.8569  0.6068  0.9374
  753TMC3    C711134   4.649   1.196  13.262 -0.0350 -0.9558 -0.0033
  753TMC3    C811135   0.203   1.326  13.619  0.0221 -0.6338 -0.1631
  753TMC3    O111136   4.653   1.085  13.311 -0.2154  0.4960 -0.2778
  753TMC3    O211137   0.162   1.220  13.663 -0.2329 -0.0495  0.4454
  754MPD2     C11138   3.432   0.226  12.704 -0.0203  0.2110 -0.9368
  754MPD2    C111139   3.451   0.217  12.836 -0.5282 -0.0918  0.1679
  754MPD2    C211140   3.342   0.226  12.921 -0.2484  0.3843  0.4770
  754MPD2    C311141   3.223   0.266  12.873 -0.6177 -0.1914 -0.4039
  754MPD2    C411142   3.212   0.292  12.739 -0.3232 -0.0261 -0.0939
  754MPD2    C511143   3.315   0.274  12.655 -0.5832 -0.5845  0.2368
  754MPD2     H11144   3.355   0.207  13.027  1.7697 -0.8517  0.0055
  754MPD2    H111145   3.114   0.313  12.697  0.1016  0.7189 -0.7092
  754MPD2    H211146   3.518   0.214  12.639  0.6687 -0.4558  0.1036
  754MPD2    H311147   3.299   0.309  12.553  1.0658 -1.6851 -0.3945
  754MPD2     N11148   3.112   0.275  12.959 -0.4144  0.2066 -0.1904
  754MPD2    H511149   3.121   0.219  13.043  1.8162 -1.0607 -1.2830
  754MPD2    N111150   3.574   0.181  12.888 -0.6185 -0.1728  0.3379
  754MPD2    H711151   3.632   0.127  12.825 -0.6217 -0.4797  0.5979
  755MPD2     C11152   2.718   1.037  13.432  0.0108  0.1589 -0.2225
  755MPD2    C111153   2.724   0.933  13.523  0.0065  0.3649  0.0710
  755MPD2    C211154   2.730   0.804  13.472 -0.4313  0.0873 -0.5209
  755MPD2    C311155   2.736   0.778  13.333 -0.3965 -0.7327  0.3126
  755MPD2    C411156   2.736   0.889  13.250 -0.6105  0.1189  0.1195
  755MPD2    C511157   2.725   1.015  13.299 -0.1847 -0.0068 -0.6405
  755MPD2     H11158   2.730   0.719  13.539  0.4725 -0.3410 -1.0613
  755MPD2    H111159   2.740   0.881  13.142  2.9324  0.2055  0.2542
  755MPD2    H211160   2.710   1.140  13.464  1.5211 -0.2362  1.3793
  755MPD2    H311161   2.718   1.104  13.237 -2.5434 -2.3517 -3.7029
  755MPD2     N11162   2.768   0.656  13.273  0.0823  0.0848  0.0832
  755MPD2    H511163   2.751   0.646  13.173  1.0189 -0.5237 -0.0191
  755MPD2    N111164   2.716   0.945  13.662 -0.6815  0.1354  0.8252
  755MPD2    H711165   2.742   0.859  13.709 -0.7446 -0.7363 -0.7261
  756MPD2     C11166   4.116   1.352   9.686 -0.2406  0.2092  0.7027
  756MPD2    C111167   4.032   1.304   9.778 -0.8630 -0.3906  0.3515
  756MPD2    C211168   3.955   1.203   9.734  0.3729 -0.7241 -0.7383
  756MPD2    C311169   3.956   1.153   9.599  0.1380  0.3860  0.0474
  756MPD2    C411170   4.041   1.214   9.504  0.5081  0.7081  0.2462
  756MPD2    C511171   4.132   1.302   9.558 -0.1903  0.2117 -0.0783
  756MPD2     H11172   3.872   1.161   9.790  0.7033 -0.1730  0.1656
  756MPD2    H111173   4.065   1.169   9.408  1.6836 -1.9528  1.7844
  756MPD2    H211174   4.174   1.442   9.707  2.4360 -1.1015 -1.1057
  756MPD2    H311175   4.208   1.336   9.489 -1.1272  1.2742 -0.5947
  756MPD2     N11176   3.883   1.039   9.572 -1.0213  0.7481  0.3242
  756MPD2    H511177   3.825   1.003   9.647 -0.8810  1.5508  0.8261
  756MPD2    N111178   4.020   1.360   9.908 -0.1854 -0.1827  0.6397
  756MPD2    H711179   3.933   1.329   9.951 -1.4805 -0.1957 -1.9760
  757MPD2     C11180   3.629   0.082   9.294  0.2770  0.2023 -0.3142
  757MPD2    C111181   3.526   0.155   9.361  0.2700  0.5986 -0.6589
  757MPD2    C211182   3.534   0.297   9.366  0.0009 -0.9334 -0.0473
  757MPD2    C311183   3.640   0.359   9.294  0.4731 -0.0525 -0.5145
  757MPD2    C411184   3.725   0.288   9.219 -0.4857  0.0709 -0.0130
  757MPD2    C511185   3.721   0.152   9.216 -0.0571 -0.3719  0.3945
  757MPD2     H11186   3.471   0.367   9.421  0.2284  1.0864 -2.3390
  757MPD2    H111187   3.790   0.342   9.151  1.2802 -0.3038  1.3659
  757MPD2    H211188   3.628   4.696   9.293 -0.1682  0.2021 -0.1278
  757MPD2    H311189   3.800   0.095   9.168 -0.4146 -0.7928  0.3025
  757MPD2     N11190   3.630   0.495   9.304  0.1853  0.3647 -0.1961
  757MPD2    H511191   3.570   0.533   9.377  1.6992  0.9629  0.7216
  757MPD2    N111192   3.419   0.087   9.425  0.1426 -0.3883 -0.1271
  757MPD2    H711193   3.421   4.708   9.431  2.3999 -0.3597 -0.1285
  758MPD2     C11194   3.962   4.422  15.586 -0.1403 -0.1164 -0.0212
  758MPD2    C111195   4.060   4.386  15.670 -0.4571 -0.8300 -0.5272
  758MPD2    C211196   4.036   4.402  15.803  0.1221 -0.0364 -0.3282
  758MPD2    C311197   3.911   4.449  15.851 -0.7100  0.5844  0.3401
  758MPD2    C411198   3.816   4.477  15.757  0.2831 -0.1627  0.7402
  758MPD2    C511199   3.839   4.468  15.624  0.1752  0.2835  0.3421
  758MPD2     H11200   4.110   4.381  15.880 -0.9033  1.4949  1.0759
  758MPD2    H111201   3.716   4.510  15.784  0.1898 -0.2483  0.5066
  758MPD2    H211202   3.978   4.413  15.479 -1.9081  0.3966 -0.3377
  758MPD2    H311203   3.763   4.485  15.549 -0.7262  0.4238  1.2902
  758MPD2     N11204   3.893   4.456  15.992 -0.2770  0.4601 -0.7849
  758MPD2    H511205   3.974   4.444  16.052  0.2293  0.8468 -1.3860
  758MPD2    N111206   4.174   4.332  15.609  0.1253  0.1123 -0.1951
  758MPD2    H711207   4.170   4.320  15.508 -2.0926  1.2843 -0.2431
  759MPD2     C11208   2.563   2.686  10.195  0.0939  0.2472  0.6377
  759MPD2    C111209   2.434   2.724  10.163 -0.3109 -0.2955  0.1161
  759MPD2    C211210   2.409   2.732  10.031  0.2404 -0.6253 -0.2534
  759MPD2    C311211   2.499   2.697   9.930  0.1581 -0.2250 -0.1043
  759MPD2    C411212   2.627   2.657   9.972 -0.1780  0.4579  0.7809
  759MPD2    C511213   2.660   2.668  10.105  0.0500  0.3310 -0.3607
  759MPD2     H11214   2.313   2.766   9.994 -0.7129 -1.2316  1.6323
  759MPD2    H111215   2.700   2.638   9.894 -1.3894 -1.3773  0.0937
  759MPD2    H211216   2.589   2.670  10.299 -0.5194 -1.8154  0.4805
  759MPD2    H311217   2.759   2.643  10.138  0.7423  1.2529 -1.7133
  759MPD2     N11218   2.451   2.702   9.799 -0.2855 -0.0434  0.1088
  759MPD2    H511219   2.362   2.746   9.782  0.1825  0.6223 -0.6410
  759MPD2    N111220   2.320   2.744  10.250 -0.4224 -0.4412 -0.4128
  759MPD2    H711221   2.227   2.746  10.210 -1.1671 -3.8993  1.1242
  760MPD2     C11222   2.155   0.812  12.160 -1.1785 -0.6334  0.5538
  760MPD2    C111223   2.289   0.784  12.130 -0.4661  0.1740 -0.1933
  760MPD2    C211224   2.333   0.664  12.178 -0.0837 -0.6283 -0.0481
  760MPD2    C311225   2.261   0.587  12.272 -0.6767 -0.2029 -0.2297
  760MPD2    C411226   2.140   0.633  12.313 -0.3026  0.3203 -0.4358
  760MPD2    C511227   2.076   0.738  12.253 -0.7578 -0.7187  0.1039
  760MPD2     H11228   2.432   0.629  12.152 -0.0784  0.1338 -1.0407
  760MPD2    H111229   2.086   0.571  12.384  0.0416 -0.0330 -0.4812
  760MPD2    H211230   2.107   0.897  12.113  3.3452 -0.7668 -4.3554
  760MPD2    H311231   1.970   0.758  12.262 -1.0117 -1.6452 -0.8788
  760MPD2     N11232   2.305   0.474  12.333  0.4028 -0.1070  0.0925
  760MPD2    H511233   2.238   0.421  12.388  1.1930 -0.7448  0.4532
  760MPD2    N111234   2.368   0.859  12.038  0.4223 -0.3630  0.0172
  760MPD2    H711235   2.456   0.826  11.998  0.4373 -1.7414  1.2033
  761MPD2     C11236   3.300   4.652  10.963  0.5490  0.4487 -0.0113
  761MPD2    C111237   3.383   4.554  10.908 -0.3412  0.2211 -0.2271
  761MPD2    C211238   3.517   4.579  10.887  0.3491  0.0536 -1.4038
  761MPD2    C311239   3.578   4.698  10.914 -0.0299 -0.4861  0.3829
  761MPD2    C411240   3.492   0.078  10.958 -0.4842  0.5184 -0.0169
  761MPD2    C511241   3.359   0.053  10.985  0.0452  0.0959  0.1100
  761MPD2     H11242   3.572   4.492  10.855  0.5748  0.0706 -1.0630
  761MPD2    H111243   3.532   0.173  10.992  0.2874 -0.0804  0.7316
  761MPD2    H211244   3.200   4.633  10.999  0.7561 -1.3087 -0.3201
  761MPD2    H311245   3.308   0.138  11.029 -2.6864 -1.9773  0.9787
  761MPD2     N11246   3.714   4.716  10.905 -0.3155  0.5015 -0.3946
  761MPD2    H511247   3.752   0.084  10.933  0.8283 -0.1280  0.0664
  761MPD2    N111248   3.324   4.429  10.872 -0.4356  0.6282 -0.1771
  761MPD2    H711249   3.228   4.416  10.902 -0.1175  1.3991  1.2354
  762MPD2     C11250   3.783   4.307  10.579 -0.0431  0.7275 -0.2405
  762MPD2    C111251   3.774   4.175  10.617 -0.4216 -0.0313 -0.0599
  762MPD2    C211252   3.872   4.084  10.565  0.2991 -0.0650 -0.0889
  762MPD2    C311253   3.983   4.135  10.498 -0.2363 -0.2384 -0.4225
  762MPD2    C411254   3.984   4.269  10.464 -0.0215  0.3291 -0.2439
  762MPD2    C511255   3.888   4.351  10.509 -0.1341 -0.1978  0.1203
  762MPD2     H11256   3.866   3.976  10.576 -0.7167  0.0757  0.7118
  762MPD2    H111257   4.067   4.312  10.409  0.4111  1.3446  1.2162
  762MPD2    H211258   3.716   4.387  10.606  0.6921  1.3512 -0.2498
  762MPD2    H311259   3.887   4.456  10.482  0.2891 -0.0475  0.6859
  762MPD2     N11260   4.082   4.049  10.442  0.8109  0.1216 -0.0670
  762MPD2    H511261   4.080   3.949  10.459  3.4717  0.2987  1.3111
  762MPD2    N111262   3.652   4.139  10.682 -0.0829 -0.6569  0.2530
  762MPD2    H711263   3.575   4.205  10.687  1.4761  0.9916  2.6435
  763MPD2     C11264   0.671   4.412  16.163  0.0347 -0.3043  0.2383
  763MPD2    C111265   0.680   4.524  16.086  0.0128 -0.5121  0.3905
  763MPD2    C211266   0.662   4.656  16.136 -0.1415  0.7141  0.2057
  763MPD2    C311267   0.656   4.668  16.273 -0.4370 -0.1653  0.4649
  763MPD2    C411268   0.671   4.556  16.347 -0.2362  0.6356  0.1319
  763MPD2    C511269   0.673   4.428  16.300 -0.2508  0.5619 -0.1201
  763MPD2     H11270   0.662   0.021  16.071 -1.9419  0.5588 -0.0258
  763MPD2    H111271   0.691   4.568  16.453  0.2340 -2.6189  0.4246
  763MPD2    H211272   0.681   4.317  16.113  2.5309  0.3227 -0.4334
  763MPD2    H311273   0.687   4.348  16.371  1.7239  2.2260  1.3615
  763MPD2     N11274   0.659   0.075  16.340 -0.5663 -0.6915 -0.3960
  763MPD2    H511275   0.649   0.079  16.441  0.8042  1.0732 -0.3323
  763MPD2    N111276   0.687   4.510  15.941 -0.3217  0.1482  1.4328
  763MPD2    H711277   0.663   4.589  15.881  0.7971 -0.8461 -0.3316
  764MPD2     C11278   4.192   1.478  17.616  0.8193  0.3661 -0.2764
  764MPD2    C111279   4.157   1.373  17.540 -0.5432 -0.5652  0.4147
  764MPD2    C211280   4.141   1.245  17.593  0.5987  0.1342 -0.7039
  764MPD2    C311281   4.168   1.228   0.039  0.0564 -0.2146  0.7623
  764MPD2    C411282   4.198   1.337   0.116  0.3282 -0.8388  0.1076
  764MPD2    C511283   4.219   1.457   0.057 -0.0021  0.3908  0.1025
  764MPD2     H11284   4.099   1.163  17.535 -1.8831  0.9958 -0.0971
  764MPD2    H111285   4.216   1.337   0.223  1.6790  0.0079 -0.1228
  764MPD2    H211286   4.215   1.577  17.579 -0.1695  1.1804  1.2688
  764MPD2    H311287   4.260   1.543   0.110  1.1836 -0.4433  0.5425
  764MPD2     N11288   4.149   1.106   0.103 -0.3504 -0.4041  0.0805
  764MPD2    H511289   4.116   1.031   0.043 -1.0989 -0.5753  0.6907
  764MPD2    N111290   4.143   1.385  17.397 -0.6370  0.0887 -0.4460
  764MPD2    H711291   4.104   1.302  17.353 -0.1744  0.0879 -0.8475
  765MPD2     C11292   3.250   3.919  15.811 -0.0273  0.5483  0.5643
  765MPD2    C111293   3.354   4.006  15.787 -0.3579  0.4354  1.1953
  765MPD2    C211294   3.454   3.978  15.694 -0.1280 -0.5982 -0.1629
  765MPD2    C311295   3.452   3.857  15.627  0.2601  0.3886 -0.7228
  765MPD2    C411296   3.354   3.766  15.663 -0.1635 -0.3813  0.2412
  765MPD2    C511297   3.255   3.799  15.748  0.2351  0.5013 -0.5351
  765MPD2     H11298   3.530   4.052  15.674  0.2250 -1.3520 -1.5709
  765MPD2    H111299   3.354   3.670  15.612  1.0806 -1.2533  1.8868
  765MPD2    H211300   3.163   3.930  15.875  0.4767 -1.9354  1.6526
  765MPD2    H311301   3.178   3.728  15.773 -2.1649  3.7102  1.2059
  765MPD2     N11302   3.556   3.833  15.533 -0.3217 -0.1467 -0.0966
  765MPD2    H511303   3.637   3.893  15.551 -2.2398  2.1779  0.7808
  765MPD2    N111304   3.342   4.126  15.858  0.3262 -0.2505 -0.3829
  765MPD2    H711305   3.259   4.144  15.913 -1.4875 -1.0543 -2.8520
  766MPD2     C11306   2.846   4.400  15.587  0.5074  0.3189 -0.0120
  766MPD2    C111307   2.975   4.433  15.569 -0.4044 -0.3465  0.1735
  766MPD2    C211308   3.031   4.415  15.444  0.1297 -0.3801 -0.8062
  766MPD2    C311309   2.962   4.384  15.335  0.4422  0.8600  0.4273
  766MPD2    C411310   2.825   4.370  15.350  0.3785 -0.7749  0.3476
  766MPD2    C511311   2.772   4.378  15.476 -0.0941  0.6967  0.8107
  766MPD2     H11312   3.139   4.424  15.436  0.0692  1.0923  0.0393
  766MPD2    H111313   2.761   4.339  15.268  0.1263  0.5770  0.0193
  766MPD2    H211314   2.795   4.391  15.682 -1.3279  2.4735 -0.7862
  766MPD2    H311315   2.666   4.360  15.492 -0.2210  0.6449 -0.0881
  766MPD2     N11316   3.017   4.363  15.209  0.2125  0.4870 -0.3170
  766MPD2    H511317   2.951   4.363  15.132  0.9288  0.9699 -0.9280
  766MPD2    N111318   3.061   4.451  15.677 -0.1440  0.4309  0.6409
  766MPD2    H711319   3.159   4.440  15.654 -0.2708  0.1531  0.2326
  767MPD2     C11320   2.707   0.170  15.196 -0.2434 -0.4099  0.2228
  767MPD2    C111321   2.815   0.094  15.159 -0.2107  0.0748  0.6600
  767MPD2    C211322   2.824   0.028  15.033 -0.0214 -0.6964 -0.4093
  767MPD2    C311323   2.727   0.045  14.935 -0.1301  0.0563 -0.2630
  767MPD2    C411324   2.615   0.121  14.971  0.3166  0.7936  0.0290
  767MPD2    C511325   2.610   0.183  15.098 -0.1519  0.1763  0.9139
  767MPD2     H11326   2.904   4.691  14.990  0.6780  0.1351 -0.2645
  767MPD2    H111327   2.525   0.137  14.912  0.4403 -0.3137 -0.4417
  767MPD2    H211328   2.695   0.209  15.297 -0.4276 -0.5304  0.2464
  767MPD2    H311329   2.525   0.244  15.124 -0.5530  0.0212 -0.0267
  767MPD2     N11330   2.740   4.709  14.809  0.6720  0.0617  0.0493
  767MPD2    H511331   2.822   4.649  14.798  0.2043 -0.3688 -1.1423
  767MPD2    N111332   2.918   0.092  15.259  0.3557  0.0187  0.2213
  767MPD2    H711333   2.893   0.144  15.342 -3.5989 -2.1945  0.4242
  768MPD2     C11334   3.381   2.767  10.437 -0.3179 -0.0598 -0.3306
  768MPD2    C111335   3.329   2.799  10.560 -0.1211  0.3768 -0.2508
  768MPD2    C211336   3.390   2.742  10.670  0.8176  0.4262 -0.2397
  768MPD2    C311337   3.501   2.667  10.660  0.5264  0.9385 -0.6215
  768MPD2    C411338   3.555   2.631  10.536 -0.3644 -0.3737  0.1177
  768MPD2    C511339   3.496   2.687  10.425  0.8634 -0.1885 -0.3973
  768MPD2     H11340   3.358   2.790  10.762 -1.6094  1.2030 -1.4870
  768MPD2    H111341   3.647   2.573  10.529 -0.4733 -0.2980 -1.8909
  768MPD2    H211342   3.345   2.797  10.340  0.9554  1.4866 -0.3304
  768MPD2    H311343   3.544   2.661  10.332 -1.8725 -1.9302 -1.3110
  768MPD2     N11344   3.579   2.639  10.777 -0.2156 -0.0877  0.5540
  768MPD2    H511345   3.671   2.606  10.750 -0.8924 -1.5951  0.1383
  768MPD2    N111346   3.212   2.881  10.583 -0.8979 -0.0873  0.4443
  768MPD2    H711347   3.188   2.886  10.681  0.6285  0.1685  0.8015
  769MPD2     C11348   4.590   1.091  15.047 -0.9034 -0.2579  0.5072
  769MPD2    C111349   4.542   1.204  15.101 -0.2649  0.3011 -0.1621
  769MPD2    C211350   4.609   1.255  15.208  0.4300  0.7325 -0.1327
  769MPD2    C311351   0.007   1.199  15.248  0.3924 -0.3034 -0.4596
  769MPD2    C411352   0.059   1.089  15.188  0.3140 -0.0059 -0.3294
  769MPD2    C511353   4.709   1.037  15.085 -0.9678  0.0996  0.4838
  769MPD2     H11354   4.576   1.344  15.259 -1.2258 -1.0303  1.8382
  769MPD2    H111355   0.149   1.038  15.219 -0.1929 -0.2032  0.8121
  769MPD2    H211356   4.533   1.045  14.967 -1.7216  2.9910 -0.7647
  769MPD2    H311357   0.015   0.940  15.047  0.0765  1.6562 -2.7742
  769MPD2     N11358   0.060   1.247  15.368  0.3058 -0.0387  0.3148
  769MPD2    H511359   0.006   1.308  15.428  2.1457  1.9816 -0.0846
  769MPD2    N111360   4.417   1.254  15.056 -0.1773 -0.2496 -0.4111
  769MPD2    H711361   4.359   1.198  14.995 -1.8790 -0.0471  1.0333
  770MPD2     C11362   4.017   0.693  15.377  0.1208  0.1308 -0.3665
  770MPD2    C111363   4.066   0.689  15.251  0.7073 -0.1998  0.4495
  770MPD2    C211364   4.082   0.814  15.181  0.0668  0.1271 -0.1544
  770MPD2    C311365   4.045   0.934  15.243  0.2359 -1.1258  0.3248
  770MPD2    C411366   3.986   0.933  15.362  0.4654 -0.2295  0.4008
  770MPD2    C511367   3.984   0.815  15.432 -0.4082 -0.0795 -0.2745
  770MPD2     H11368   4.113   0.824  15.078  0.0543  1.3689 -0.0344
  770MPD2    H111369   3.942   1.022  15.404 -1.0916 -0.6053 -0.4461
  770MPD2    H211370   4.023   0.608  15.444  1.2270 -0.5994 -1.3945
  770MPD2    H311371   3.949   0.817  15.535  1.4521  2.4306  0.3198
  770MPD2     N11372   4.062   1.049  15.166  0.2444 -0.6319  0.0696
  770MPD2    H511373   4.097   1.032  15.072  0.2908 -1.1542  0.1765
  770MPD2    N111374   4.109   0.566  15.198 -1.0004 -0.4445  0.0950
  770MPD2    H711375   4.073   0.483  15.245 -3.5646  1.2895  1.2250
  771MPD2     C11376   0.140   3.992  13.685  0.1913  0.2949  0.5188
  771MPD2    C111377   0.149   4.099  13.597  0.6818 -0.6557 -0.1173
  771MPD2    C211378   0.125   4.082  13.466  0.0376  0.3601  0.3660
  771MPD2    C311379   0.108   3.960  13.402  0.0132  0.4066 -0.6295
  771MPD2    C411380   0.114   3.851  13.486  0.2672  0.0120 -0.7317
  771MPD2    C511381   0.125   3.866  13.622  0.1765  0.7520 -0.3643
  771MPD2     H11382   0.120   4.171  13.405 -0.4346  1.0075  1.3572
  771MPD2    H111383   0.122   3.751  13.444  0.5615  0.3074 -1.3670
  771MPD2    H211384   0.167   3.992  13.790 -0.4363  2.3102  0.6850
  771MPD2    H311385   0.130   3.777  13.684 -0.7239  0.4558 -0.7166
  771MPD2     N11386   0.083   3.962  13.268  0.2866  0.4089  0.1890
  771MPD2    H511387   0.096   4.044  13.210  0.7614  0.5864  0.5538
  771MPD2    N111388   0.200   4.231  13.629 -0.0133 -0.4562  0.9394
  771MPD2    H711389   0.202   4.304  13.559 -2.0703 -1.9261 -0.6479
  772MPD2     C11390   4.503   0.090  13.805  0.5741 -0.2947 -0.4329
  772MPD2    C111391   4.529   4.678  13.823  0.7273 -0.1660 -0.2187
  772MPD2    C211392   4.422   4.594  13.862  0.3513 -0.4996  0.3965
  772MPD2    C311393   4.298   4.639  13.893  0.1580  0.9413 -0.5296
  772MPD2    C411394   4.273   0.047  13.865 -0.2287 -0.3965  0.0782
  772MPD2    C511395   4.371   0.135  13.817 -0.2243 -0.2611  0.0400
  772MPD2     H11396   4.442   4.488  13.874  2.1876 -0.1198  0.7236
  772MPD2    H111397   4.177   0.095  13.883 -0.5334 -0.7549 -0.5896
  772MPD2    H211398   4.580   0.157  13.768  0.0162 -0.3910 -1.7517
  772MPD2    H311399   4.346   0.241  13.812 -0.6280 -0.3514  0.0980
  772MPD2     N11400   4.184   4.567  13.934  0.9407  0.1971  0.6785
  772MPD2    H511401   4.103   4.624  13.952  1.2506  1.6192 -2.3919
  772MPD2    N111402   4.647   4.621  13.778 -1.0631  0.1538 -0.5495
  772MPD2    H711403   4.659   4.523  13.802  0.7090  0.1892 -1.2912
  773MPD2     C11404   4.142   4.452   0.412 -0.6302  0.6043  0.0524
  773MPD2    C111405   4.157   4.380   0.298 -0.1489  0.4671 -0.2334
  773MPD2    C211406   4.218   4.252   0.304  0.0037 -0.4146 -0.1574
  773MPD2    C311407   4.273   4.205   0.418  0.1052 -0.6693  0.7716
  773MPD2    C411408   4.271   4.284   0.527  0.6414 -0.1879 -0.1463
  773MPD2    C511409   4.204   4.407   0.523 -0.1041  0.2290 -0.0077
  773MPD2     H11410   4.222   4.194   0.213  1.7940  0.6219 -0.7268
  773MPD2    H111411   4.308   4.248   0.622  1.3201 -0.6870 -0.5978
  773MPD2    H211412   4.087   4.545   0.425 -0.5581  1.1348 -3.3412
  773MPD2    H311413   4.182   4.452   0.618 -0.2889  0.5943 -0.2246
  773MPD2     N11414   4.317   4.073   0.410  0.4104 -0.0602 -0.4972
  773MPD2    H511415   4.312   4.033   0.317 -1.3531  1.4579 -1.0496
  773MPD2    N111416   4.107   4.419   0.173 -0.4613  0.3876 -0.0069
  773MPD2    H711417   4.139   4.361   0.097  1.9638 -1.5297  2.5173
  774MPD2     C11418   3.586   3.978  13.186 -0.1393 -0.3909  0.4892
  774MPD2    C111419   3.480   4.042  13.232  0.6175 -0.7865 -0.8680
  774MPD2    C211420   3.477   4.183  13.226  0.1138  0.4024 -0.5946
  774MPD2    C311421   3.576   4.248  13.153  0.2316  1.2604 -0.3493
  774MPD2    C411422   3.676   4.172  13.089  0.5466  0.3975  0.4873
  774MPD2    C511423   3.677   4.042  13.108 -0.0910 -0.4136 -0.3451
  774MPD2     H11424   3.401   4.244  13.273  1.9881  1.8203  0.6488
  774MPD2    H111425   3.758   4.210  13.029  0.8212 -0.2482  0.4447
  774MPD2    H211426   3.605   3.872  13.199  0.0719 -0.1346  2.2573
  774MPD2    H311427   3.757   3.983  13.064  0.1448 -1.5745  1.6412
  774MPD2     N11428   3.566   4.389  13.147  0.7408  0.2663 -0.7802
  774MPD2    H511429   3.503   4.432  13.213  1.5352 -1.1219  0.8959
  774MPD2    N111430   3.389   3.964  13.302  0.2598  0.1837 -0.3883
  774MPD2    H711431   3.421   3.870  13.326  2.1320  0.7747 -0.5703
  775MPD2     C11432   0.219   0.920  15.753 -0.2525  0.5290  0.0375
  775MPD2    C111433   0.276   1.007  15.839  0.8410  0.1762  0.0396
  775MPD2    C211434   0.391   1.067  15.808 -0.5312 -0.6910  0.1820
  775MPD2    C311435   0.451   1.046  15.682 -0.0404 -0.1472 -0.5416
  775MPD2    C411436   0.383   0.969  15.590 -0.4362 -0.1791  0.0034
  775MPD2    C511437   0.267   0.913  15.625  0.1725  0.5416  0.0097
  775MPD2     H11438   0.437   1.139  15.874  0.0739  0.1192 -1.1129
  775MPD2    H111439   0.423   0.970  15.489 -2.5374 -2.3409 -0.8511
  775MPD2    H211440   0.132   0.861  15.781 -0.3164  0.0799 -1.1060
  775MPD2    H311441   0.214   0.859  15.547  0.7910 -1.7300  1.1401
  775MPD2     N11442   0.566   1.108  15.637  0.3153 -0.2057 -0.2693
  775MPD2    H511443   0.568   1.094  15.536 -0.4065  0.6941 -0.4098
  775MPD2    N111444   0.212   1.028  15.962  0.8590  0.2173  0.4079
  775MPD2    H711445   0.125   0.978  15.978 -0.1168  1.4378 -1.0328
  776MPD2     C11446   4.388   1.220  11.525  0.1552 -0.7452  0.9303
  776MPD2    C111447   4.275   1.248  11.455  0.6280  0.2158 -0.6613
  776MPD2    C211448   4.259   1.377  11.402  0.5784 -0.0949  0.5484
  776MPD2    C311449   4.357   1.474  11.411 -0.3111 -0.5666  0.4096
  776MPD2    C411450   4.471   1.439  11.472 -0.6142  0.2412  0.1355
  776MPD2    C511451   4.491   1.313  11.520 -0.0198 -0.1930 -1.0506
  776MPD2     H11452   4.160   1.405  11.366  0.3897 -1.0901  0.3061
  776MPD2    H111453   4.557   1.499  11.497 -0.6009  0.2903 -0.0259
  776MPD2    H211454   4.393   1.123  11.573 -3.0532 -1.8596 -0.9626
  776MPD2    H311455   4.588   1.292  11.564 -1.3000  0.2070  1.9766
  776MPD2     N11456   4.358   1.606  11.375 -0.0779  0.0850 -0.3265
  776MPD2    H511457   4.444   1.659  11.391 -1.0222  1.0905  1.4198
  776MPD2    N111458   4.172   1.147  11.445  0.5714 -0.2386 -0.0269
  776MPD2    H711459   4.204   1.052  11.461 -1.5513 -1.1047 -0.9926
  777MPD2     C11460   4.396   3.110   0.713  0.6398  0.2051 -0.3757
  777MPD2    C111461   4.273   3.061   0.752  0.0446 -0.1030 -0.2900
  777MPD2    C211462   4.211   2.967   0.665  0.2965 -0.3862 -0.0113
  777MPD2    C311463   4.266   2.916   0.549  0.0731  0.2005 -0.4433
  777MPD2    C411464   4.399   2.961   0.525 -0.4999  0.3046 -0.7499
  777MPD2    C511465   4.458   3.070   0.597  0.4004 -0.3415  0.5162
  777MPD2     H11466   4.107   2.938   0.678  0.5928 -1.0650  0.7917
  777MPD2    H111467   4.454   2.926   0.439  0.3635 -2.1565  0.7955
  777MPD2    H211468   4.443   3.171   0.789  1.8921  2.0498 -2.6324
  777MPD2    H311469   4.560   3.100   0.579  0.0401  0.2575 -0.5197
  777MPD2     N11470   4.200   2.822   0.466 -0.7875 -0.4568 -0.1060
  777MPD2    H511471   4.107   2.791   0.492  0.0645 -1.7735  1.3197
  777MPD2    N111472   4.218   3.098   0.881  0.4794  0.4885  0.4602
  777MPD2    H711473   4.279   3.144   0.947  0.4956  0.5806  0.3827
  778MPD2     C11474   0.851   4.080  14.530  1.3020 -0.8972 -0.1110
  778MPD2    C111475   0.824   3.986  14.439 -0.4630 -0.0278  0.3892
  778MPD2    C211476   0.825   4.024  14.308  0.3076 -0.5331 -0.8024
  778MPD2    C311477   0.850   4.149  14.261  0.5933 -0.4658  0.2704
  778MPD2    C411478   0.872   4.239  14.359 -0.3098  0.4562  0.0649
  778MPD2    C511479   0.873   4.208  14.493  0.2020  0.8180  0.7805
  778MPD2     H11480   0.813   3.946  14.234  0.5541 -0.3421 -1.0413
  778MPD2    H111481   0.877   4.345  14.337  0.3701  0.6111  0.9738
  778MPD2    H211482   0.857   4.055  14.635 -3.7473  1.0329  0.6196
  778MPD2    H311483   0.886   4.284  14.569 -0.9180  2.3033 -0.5280
  778MPD2     N11484   0.855   4.186  14.123 -0.4094 -0.6154 -0.2912
  778MPD2    H511485   0.831   4.115  14.055  3.4396  0.1264 -2.4374
  778MPD2    N111486   0.785   3.856  14.466  0.4198 -0.2645 -0.3444
  778MPD2    H711487   0.741   3.805  14.390 -0.2434  1.1869 -0.9239
  779MPD2     C11488   0.493   2.416  13.790 -0.1445 -0.2062 -0.2991
  779MPD2    C111489   0.592   2.423  13.889  0.0449  0.2887  0.0715
  779MPD2    C211490   0.629   2.553  13.927  0.1093  0.4449 -0.5763
  779MPD2    C311491   0.586   2.663  13.862  0.4205  0.0223  0.1016
  779MPD2    C411492   0.497   2.648  13.760 -0.2046  0.1143 -0.4993
  779MPD2    C511493   0.448   2.524  13.723  0.3539 -0.3931  0.0174
  779MPD2     H11494   0.706   2.570  14.002 -2.7038 -3.5917  3.1887
  779MPD2    H111495   0.486   2.725  13.685 -0.0409 -0.0448 -0.6871
  779MPD2    H211496   0.448   2.323  13.757  0.2081 -0.7533  0.7495
  779MPD2    H311497   0.370   2.519  13.648 -0.1411  0.5470  0.4696
  779MPD2     N11498   0.646   2.786  13.898 -0.3554  0.1566  0.3404
  779MPD2    H511499   0.716   2.782  13.972 -0.4566 -0.4466  0.4033
  779MPD2    N111500   0.653   2.319  13.955  0.6580 -0.3313  0.5545
  779MPD2    H711501   0.695   2.337  14.046  0.0477 -0.4688  0.8698
  780MPD2     C11502   0.006   2.351   1.048 -0.5977 -0.5369  0.4279
  780MPD2    C111503   0.031   2.254   0.947  0.4119 -0.7085  0.0768
  780MPD2    C211504   0.109   2.298   0.834 -0.2838 -0.0389 -0.5462
  780MPD2    C311505   0.171   2.423   0.833  0.4394 -0.0419 -0.0041
  780MPD2    C411506   0.157   2.507   0.939 -0.0963  0.8953  0.3208
  780MPD2    C511507   0.065   2.472   1.040  0.0934 -0.1992 -0.1436
  780MPD2     H11508   0.122   2.238   0.745 -0.4836 -1.8005  0.5883
  780MPD2    H111509   0.202   2.605   0.942  0.4295  0.6878 -0.9463
  780MPD2    H211510   4.656   2.326   1.125  0.1413  0.0880  1.3183
  780MPD2    H311511   0.025   2.548   1.105 -1.2968  1.0233 -2.4516
  780MPD2     N11512   0.264   2.454   0.729 -0.0366  0.5173  0.1333
  780MPD2    H511513   0.285   2.380   0.663  0.2757  0.5549  0.1879
  780MPD2    N111514   4.697   2.126   0.965 -0.0451  0.6365  0.0557
  780MPD2    H711515   4.650   2.109   1.053 -1.8809 -1.2221 -1.2904
  781MPD2     C11516   1.114   0.279  11.998  0.0264  0.3021 -0.7830
  781MPD2    C111517   1.158   0.149  12.020  1.0900  0.0785  0.2238
  781MPD2    C211518   1.188   0.072  11.906 -0.2930  0.0284 -0.3553
  781MPD2    C311519   1.181   0.128  11.779  0.1421  0.2257  0.2399
  781MPD2    C411520   1.123   0.250  11.772 -0.6556  0.7677 -0.1661
  781MPD2    C511521   1.098   0.334  11.877 -0.7587  0.1424 -0.0387
  781MPD2     H11522   1.206   4.688  11.907  0.9483  0.2514  0.9148
  781MPD2    H111523   1.109   0.285  11.671 -2.2731 -0.1040 -0.2506
  781MPD2    H211524   1.098   0.338  12.088  0.0975 -0.6042 -0.1768
  781MPD2    H311525   1.065   0.436  11.859 -0.1466  0.4394  0.5536
  781MPD2     N11526   1.202   0.057  11.658  0.0361  0.2633 -0.9443
  781MPD2    H511527   1.185   0.120  11.580  0.1774  1.8128  0.2659
  781MPD2    N111528   1.177   0.086  12.142  0.9935  0.1201 -0.4163
  781MPD2    H711529   1.200   4.710  12.126  2.2026  0.3469 -0.0642
  782MPD2     C11530   4.717   0.077  10.124 -0.1064 -0.3488 -0.0241
  782MPD2    C111531   0.055   0.042  10.241 -0.2085  1.3164 -0.5288
  782MPD2    C211532   0.092   0.137  10.333  0.1199 -0.4699 -0.2016
  782MPD2    C311533   0.075   0.270  10.307  0.0220  0.1477 -0.0839
  782MPD2    C411534   0.012   0.308  10.186  0.3080  0.2236 -0.0965
  782MPD2    C511535   4.687   0.210  10.101 -0.8097  0.0646 -0.6920
  782MPD2     H11536   0.137   0.100  10.425 -0.3352  0.6109  0.4604
  782MPD2    H111537   0.001   0.411  10.154  1.0029  0.6542  1.0545
  782MPD2    H211538   4.680   0.005  10.052 -1.9529  1.5340 -0.9568
  782MPD2    H311539   4.633   0.244  10.013  0.6371 -1.9354 -2.3425
  782MPD2     N11540   0.108   0.376  10.400 -0.2065  0.5357 -0.4383
  782MPD2    H511541   0.159   0.358  10.486  0.8187  0.6214 -1.0265
  782MPD2    N111542   0.089   4.628  10.276  0.0802 -0.7783 -0.5050
  782MPD2    H711543   0.129   4.619  10.369  0.8246 -0.7097 -0.8147
  783MPD2     C11544   4.237   4.217  10.754 -0.4780  0.4211  0.5140
  783MPD2    C111545   4.298   4.335  10.725  0.3849  0.1500  0.0056
  783MPD2    C211546   4.407   4.344  10.645 -0.4963  0.1045  0.1894
  783MPD2    C311547   4.475   4.227  10.608 -0.9060  0.1384  0.1438
  783MPD2    C411548   4.427   4.107  10.653  0.0180 -0.1638 -0.7683
  783MPD2    C511549   4.311   4.103  10.721 -0.3896  0.5048 -0.3892
  783MPD2     H11550   4.449   4.440  10.619 -2.1881  1.3902  2.1016
  783MPD2    H111551   4.472   4.015  10.616 -1.4312 -1.3540  0.4440
  783MPD2    H211552   4.135   4.212  10.788 -0.7143 -0.1827 -0.2669
  783MPD2    H311553   4.270   4.004  10.743 -0.8848  0.5181 -1.2555
  783MPD2     N11554   4.583   4.238  10.519 -0.0679  0.8097  0.5370
  783MPD2    H511555   4.584   4.332  10.479  0.1407  0.0250 -1.2855
  783MPD2    N111556   4.223   4.449  10.754  1.0381  0.0660  0.2363
  783MPD2    H711557   4.130   4.426  10.787  1.0735 -0.8891 -0.3362
  784MPD2     C11558   2.120   0.292   1.645 -0.0991 -0.4044  0.1596
  784MPD2    C111559   2.207   0.365   1.565  0.5606  0.0451  0.0819
  784MPD2    C211560   2.155   0.473   1.494  0.7344  0.5501  0.4160
  784MPD2    C311561   2.019   0.501   1.492 -0.3593 -0.0882  0.4876
  784MPD2    C411562   1.935   0.415   1.559  0.3746  0.1796  0.5123
  784MPD2    C511563   1.986   0.326   1.637  0.0101 -0.0033  0.3735
  784MPD2     H11564   2.222   0.537   1.438  0.2509 -0.6756 -1.5505
  784MPD2    H111565   1.828   0.430   1.564  0.4103  0.4558  0.4498
  784MPD2    H211566   2.139   0.202   1.703 -2.2065 -1.4389 -0.7502
  784MPD2    H311567   1.913   0.274   1.699 -1.8548  0.6012 -1.3139
  784MPD2     N11568   1.982   0.608   1.417  0.2343  0.0148 -0.2305
  784MPD2    H511569   2.048   0.647   1.351  1.9975 -0.1791  1.3960
  784MPD2    N111570   2.349   0.343   1.570 -0.5142 -0.3993 -0.1615
  784MPD2    H711571   2.399   0.403   1.504  0.9799 -1.2372  0.1982
  785MPD2     C11572   2.457   3.556  10.925  0.0930 -0.5805 -0.3692
  785MPD2    C111573   2.335   3.609  10.898 -0.0984  0.5484  0.6463
  785MPD2    C211574   2.238   3.528  10.837  0.7644 -0.6490 -0.1035
  785MPD2    C311575   2.269   3.400  10.803 -0.3686 -0.0541 -0.0824
  785MPD2    C411576   2.395   3.346  10.829  0.4937  0.6946 -0.5602
  785MPD2    C511577   2.485   3.424  10.898 -0.1095  0.6071  0.1478
  785MPD2     H11578   2.137   3.563  10.818 -0.4727 -3.9007  0.5202
  785MPD2    H111579   2.413   3.246  10.793  0.9954  0.7501 -0.4635
  785MPD2    H211580   2.538   3.616  10.967 -0.0179  0.9549 -2.3451
  785MPD2    H311581   2.585   3.381  10.898 -0.3077  0.1536 -0.4140
  785MPD2     N11582   2.155   3.327  10.768  0.7822 -0.3738 -0.0073
  785MPD2    H511583   2.066   3.377  10.768  0.9889  0.0434  3.0857
  785MPD2    N111584   2.296   3.746  10.916  0.1487  0.2947 -0.5143
  785MPD2    H711585   2.198   3.764  10.896 -0.8042 -0.4462  3.3460
  786MPD2     C11586   1.279   2.011  14.938  0.5185  0.3621  0.1475
  786MPD2    C111587   1.226   1.886  14.961 -0.4066 -0.0383  0.6862
  786MPD2    C211588   1.262   1.829  15.081 -0.0363 -0.1241  0.0209
  786MPD2    C311589   1.346   1.893  15.176  0.3274  0.0534 -0.7635
  786MPD2    C411590   1.392   2.017  15.146  1.8034 -0.1540 -0.3313
  786MPD2    C511591   1.357   2.073  15.030 -0.1003 -0.8034  0.2635
  786MPD2     H11592   1.230   1.728  15.104  0.2908 -0.0703  0.7205
  786MPD2    H111593   1.448   2.083  15.211  0.3949  0.0768  0.6433
  786MPD2    H211594   1.244   2.066  14.851 -0.5625 -3.8601 -2.0769
  786MPD2    H311595   1.383   2.176  15.009 -0.8263 -0.3882  1.4710
  786MPD2     N11596   1.389   1.833  15.298 -0.5167  0.0707 -0.0765
  786MPD2    H511597   1.459   1.888  15.347 -0.5321 -0.7972  0.9045
  786MPD2    N111598   1.148   1.809  14.875 -0.1565  0.2582  0.2277
  786MPD2    H711599   1.102   1.728  14.916 -0.9484 -0.2420 -1.6691
  787MPD2     C11600   1.237   1.260  15.021 -0.0077 -0.4115  0.2043
  787MPD2    C111601   1.266   1.263  14.883 -0.1563  0.2530 -0.0928
  787MPD2    C211602   1.379   1.200  14.833 -0.0254 -0.1731 -0.1141
  787MPD2    C311603   1.468   1.143  14.926  0.1045  0.4666  0.3591
  787MPD2    C411604   1.444   1.150  15.057  0.1177  0.7845  0.2635
  787MPD2    C511605   1.329   1.204  15.107  0.5225  0.0503 -0.3600
  787MPD2     H11606   1.394   1.189  14.726 -0.8222  1.6519 -0.3983
  787MPD2    H111607   1.506   1.107  15.135 -0.4768  2.4222  1.6301
  787MPD2    H211608   1.149   1.303  15.066  1.6109  0.8128  2.1913
  787MPD2    H311609   1.311   1.201  15.214 -2.1803 -0.3190 -0.8429
  787MPD2     N11610   1.572   1.070  14.877 -0.0068  0.5078 -0.3588
  787MPD2    H511611   1.589   1.054  14.778 -0.8472 -4.7990  0.3632
  787MPD2    N111612   1.171   1.335  14.804 -0.2409 -0.2555  0.1169
  787MPD2    H711613   1.095   1.383  14.852 -1.7035 -2.0369 -0.3890
  788MPD2     C11614   3.614   4.242   0.813 -0.8859 -0.3193  0.3231
  788MPD2    C111615   3.631   4.143   0.717 -0.4739  0.1330  0.1244
  788MPD2    C211616   3.688   4.176   0.592  0.4607  0.4225  0.0576
  788MPD2    C311617   3.710   4.311   0.556  0.7709 -0.5039 -0.0742
  788MPD2    C411618   3.684   4.408   0.656  0.2053  0.7820 -0.5606
  788MPD2    C511619   3.643   4.373   0.784  0.4889  0.3338  0.4248
  788MPD2     H11620   3.697   4.097   0.518 -0.3878 -1.6692  2.1597
  788MPD2    H111621   3.711   4.510   0.629  0.4143  0.8854  0.0333
  788MPD2    H211622   3.566   4.223   0.908 -1.8402  0.9013  0.0832
  788MPD2    H311623   3.628   4.459   0.848 -1.0898 -0.9037  1.7444
  788MPD2     N11624   3.743   4.356   0.431 -0.0487  0.1045  0.1588
  788MPD2    H511625   3.749   4.457   0.424 -4.2062  0.3182  0.0275
  788MPD2    N111626   3.590   4.014   0.740  0.9557 -0.0233 -0.2566
  788MPD2    H711627   3.638   3.938   0.694  1.9785  0.6895 -0.3580
  789MPD2     C11628   3.371   4.537  16.211 -0.1526 -1.1108  0.7661
  789MPD2    C111629   3.323   4.435  16.297  0.2281 -0.0505 -0.1818
  789MPD2    C211630   3.219   4.467  16.378 -0.7573 -0.6971  0.1961
  789MPD2    C311631   3.164   4.594  16.381  0.5504  0.9463  0.2498
  789MPD2    C411632   3.217   4.694  16.305 -0.1569  0.3285  0.3664
  789MPD2    C511633   3.323   4.668  16.225  0.7543 -0.5516  0.7567
  789MPD2     H11634   3.166   4.392  16.435 -1.1353  0.7781  1.7628
  789MPD2    H111635   3.178   0.073  16.306 -1.7954 -0.3059  0.7748
  789MPD2    H211636   3.451   4.522  16.139 -0.8779 -1.0621 -0.0440
  789MPD2    H311637   3.363   0.028  16.167  1.3885 -0.2729  1.5833
  789MPD2     N11638   3.058   4.623  16.474  0.0637 -0.2760 -0.0650
  789MPD2    H511639   3.016   4.715  16.469  1.1682  0.0407 -3.7391
  789MPD2    N111640   3.359   4.302  16.283 -0.0070 -0.5094 -0.3104
  789MPD2    H711641   3.314   4.237  16.345 -0.9676  0.7960  0.3742
  790MPD2     C11642   4.115   1.907  13.715 -0.3761  0.1244 -0.1546
  790MPD2    C111643   4.134   1.774  13.683  0.2152 -0.5614  0.7711
  790MPD2    C211644   4.122   1.735  13.554  0.2738 -0.1816 -0.4684
  790MPD2    C311645   4.098   1.825  13.449 -0.3527  0.1051 -0.2317
  790MPD2    C411646   4.081   1.958  13.479 -0.5775 -0.1991 -0.8896
  790MPD2    C511647   4.086   2.001  13.613 -0.2969  0.2231  0.0493
  790MPD2     H11648   4.141   1.632  13.523 -1.3075 -0.8633  0.8492
  790MPD2    H111649   4.055   2.030  13.402  0.9375 -0.0536 -1.2591
  790MPD2    H211650   4.120   1.935  13.820 -1.8343 -2.9187  0.7189
  790MPD2    H311651   4.065   2.106  13.630 -1.3543  0.0827 -0.3764
  790MPD2     N11652   4.084   1.784  13.315 -0.0591  0.0116  0.2450
  790MPD2    H511653   4.024   1.835  13.251 -0.5807 -2.6202 -1.3621
  790MPD2    N111654   4.164   1.682  13.785  0.0329 -0.1154 -0.1151
  790MPD2    H711655   4.146   1.716  13.879  2.4479 -2.2665  1.1283
  791MPD2     C11656   3.766   1.643  12.549  0.5972  0.0643 -0.1200
  791MPD2    C111657   3.769   1.589  12.675  0.0962 -0.1407 -0.0337
  791MPD2    C211658   3.656   1.514  12.712  0.3714 -0.3924 -0.0014
  791MPD2    C311659   3.558   1.480  12.619  0.3214  0.4134  0.1451
  791MPD2    C411660   3.557   1.542  12.505  0.2789  0.4996 -0.5164
  791MPD2    C511661   3.658   1.630  12.467 -0.3764  0.6018 -0.2954
  791MPD2     H11662   3.653   1.479  12.814 -0.9052  1.6140  0.6320
  791MPD2    H111663   3.484   1.527  12.426  0.8474 -1.0184 -0.7516
  791MPD2    H211664   3.836   1.713  12.505 -0.8664  1.4553 -0.2554
  791MPD2    H311665   3.642   1.684  12.375  0.7524  3.4340  1.2020
  791MPD2     N11666   3.445   1.396  12.653  0.1532  0.1345 -0.6462
  791MPD2    H511667   3.453   1.343  12.739 -2.3129  1.2741  0.2648
  791MPD2    N111668   3.889   1.606  12.753  0.7319 -0.0874  0.2454
  791MPD2    H711669   3.974   1.614  12.698  0.5874 -0.1417  0.0111
  792MPD2     C11670   0.029   1.072  11.150 -0.1049  0.1766 -1.1037
  792MPD2    C111671   4.646   1.151  11.131  0.3394 -0.4021 -0.1229
  792MPD2    C211672   4.529   1.088  11.089 -0.0990 -0.5861 -0.2216
  792MPD2    C311673   4.530   0.954  11.053 -0.0758  1.0817  0.0484
  792MPD2    C411674   4.639   0.874  11.083  0.2571  0.1876  0.0535
  792MPD2    C511675   0.024   0.932  11.140 -0.7474  0.4284  0.3163
  792MPD2     H11676   4.440   1.149  11.076  0.8746  1.3620  2.1492
  792MPD2    H111677   4.632   0.768  11.064  0.4309  0.3114 -0.7082
  792MPD2    H211678   0.128   1.105  11.178 -0.7838 -1.9408  3.7633
  792MPD2    H311679   0.113   0.871  11.155 -0.0693  1.1965 -0.5949
  792MPD2     N11680   4.425   0.881  10.994  0.4798 -0.2423 -0.8289
  792MPD2    H511681   4.436   0.789  10.953 -0.8160 -1.1189  0.8374
  792MPD2    N111682   4.664   1.293  11.144  0.2814  0.0977 -0.6945
  792MPD2    H711683   0.034   1.332  11.160  0.7441 -1.0224 -0.5828
  793MPD2     C11684   3.651   1.209  10.533 -0.4612  0.5995  0.2428
  793MPD2    C111685   3.788   1.230  10.553  0.1431  1.1160  0.6761
  793MPD2    C211686   3.852   1.158  10.652  0.0884  0.5292 -0.1483
  793MPD2    C311687   3.799   1.060  10.724  0.1629  0.0431  0.3407
  793MPD2    C411688   3.661   1.059  10.722 -0.3312  0.3517  0.3645
  793MPD2    C511689   3.586   1.128  10.625 -0.0585 -0.2168 -0.0993
  793MPD2     H11690   3.956   1.185  10.664  0.0299  0.3024  0.8456
  793MPD2    H111691   3.607   1.009  10.802 -1.0098  2.4535  1.2156
  793MPD2    H211692   3.591   1.273  10.469 -0.4525 -1.2894 -1.6647
  793MPD2    H311693   3.477   1.132  10.630  0.1124 -0.1119  4.2276
  793MPD2     N11694   3.880   0.979  10.803  0.2680 -0.0104 -0.1666
  793MPD2    H511695   3.977   1.004  10.818  0.2513  1.0680 -1.9072
  793MPD2    N111696   3.870   1.310  10.475  0.3832  0.3657  0.9000
  793MPD2    H711697   3.971   1.306  10.482  0.4274 -0.2245 -0.1341
  794MPD2     C11698   3.631   0.271  17.391 -0.7789 -0.2397  0.0913
  794MPD2    C111699   3.717   0.186  17.329  0.0830 -0.3643  0.8262
  794MPD2    C211700   3.771   0.227  17.207  0.3674  0.3020 -1.1626
  794MPD2    C311701   3.738   0.346  17.153 -0.3854 -0.0365 -1.4905
  794MPD2    C411702   3.642   0.433  17.220 -0.2523  0.8216 -0.3622
  794MPD2    C511703   3.594   0.393  17.339 -0.4258  0.6962 -0.3218
  794MPD2     H11704   3.840   0.161  17.156  0.2262 -0.8572  0.1376
  794MPD2    H111705   3.619   0.525  17.166 -1.5581  0.5381 -0.2852
  794MPD2    H211706   3.583   0.243  17.484  0.7638  0.7065  1.1712
  794MPD2    H311707   3.537   0.457  17.404  0.6826 -0.5729  1.9058
  794MPD2     N11708   3.782   0.384  17.025 -0.4729 -0.0257 -0.0340
  794MPD2    H511709   3.759   0.479  16.997 -2.2386 -0.1116  1.0780
  794MPD2    N111710   3.771   0.072  17.395 -0.2379  0.3516 -0.2355
  794MPD2    H711711   3.846   0.028  17.343 -0.2609 -0.1567  0.1657
  795MPD2     C11712   1.751   2.737  13.874 -0.8604  0.3967  0.4305
  795MPD2    C111713   1.776   2.821  13.768  0.1695  0.2523  0.1576
  795MPD2    C211714   1.894   2.807  13.707  1.0160  0.5463  0.2520
  795MPD2    C311715   1.994   2.720  13.755 -0.0803  0.1243 -0.0381
  795MPD2    C411716   1.968   2.654  13.879  0.5651  0.1058  0.1473
  795MPD2    C511717   1.841   2.659  13.933 -0.2816 -0.1546 -0.1246
  795MPD2     H11718   1.909   2.868  13.619 -1.2847  1.1469  0.2649
  795MPD2    H111719   2.039   2.585  13.925  1.1289 -1.0408 -2.4138
  795MPD2    H211720   1.653   2.732  13.919 -0.6137 -0.4039  0.8969
  795MPD2    H311721   1.815   2.590  14.013 -0.1844  0.8694  0.7877
  795MPD2     N11722   2.122   2.684  13.691  0.0647  0.2958 -0.2185
  795MPD2    H511723   2.180   2.634  13.758 -0.6493 -0.3251 -0.0612
  795MPD2    N111724   1.663   2.896  13.711  0.8259  0.0496 -0.1440
  795MPD2    H711725   1.570   2.883  13.750  1.4697 -1.2342  0.9790
  796MPD2     C11726   1.640   4.317  15.679  0.2245  1.0141 -0.0606
  796MPD2    C111727   1.549   4.263  15.772 -0.0604  0.1621 -0.2806
  796MPD2    C211728   1.427   4.324  15.794  0.6191 -0.3189  0.1614
  796MPD2    C311729   1.393   4.428  15.714 -0.0603 -0.6360 -0.1514
  796MPD2    C411730   1.481   4.486  15.626  0.9075 -0.1806 -0.6848
  796MPD2    C511731   1.602   4.430  15.618  0.1851  0.2218  0.1842
  796MPD2     H11732   1.350   4.285  15.859  1.8235 -0.9838  1.1687
  796MPD2    H111733   1.464   4.579  15.573  3.6880  0.8398  0.2289
  796MPD2    H211734   1.736   4.273  15.657 -1.2355 -3.1941  1.9644
  796MPD2    H311735   1.672   4.474  15.547 -2.3250 -0.1512 -2.4914
  796MPD2     N11736   1.270   4.488  15.740 -0.5428 -0.0747 -0.3291
  796MPD2    H511737   1.223   4.437  15.814 -0.0100  0.8776  0.6644
  796MPD2    N111738   1.591   4.154  15.858  0.2695 -0.8029  0.2430
  796MPD2    H711739   1.687   4.123  15.860  0.5325  0.0297  0.1890
  797MPD2     C11740   2.816   3.548  17.009 -0.4452  0.3392  0.3308
  797MPD2    C111741   2.739   3.630  17.094 -0.5073  0.4660 -0.6439
  797MPD2    C211742   2.628   3.690  17.050 -0.2435  0.3865 -0.4741
  797MPD2    C311743   2.588   3.680  16.913 -0.6448  0.2561  0.2088
  797MPD2    C411744   2.677   3.612  16.829  0.2881 -0.2557 -0.5269
  797MPD2    C511745   2.789   3.546  16.875  0.1415 -0.8279 -0.3362
  797MPD2     H11746   2.573   3.746  17.125  0.1188  0.2356 -0.0963
  797MPD2    H111747   2.660   3.598  16.723 -2.8132 -0.0523 -0.0387
  797MPD2    H211748   2.903   3.491  17.038 -1.2273 -1.1660 -0.2914
  797MPD2    H311749   2.853   3.493  16.806 -1.0221  0.3672 -2.3193
  797MPD2     N11750   2.471   3.740  16.861 -0.0956 -0.1771  0.7160
  797MPD2    H511751   2.477   3.757  16.761  1.0959  2.9615  1.3307
  797MPD2    N111752   2.773   3.656  17.231 -0.4299  0.1997 -0.5405
  797MPD2    H711753   2.706   3.712  17.284 -0.4204 -1.1103  0.8313
  798MPD2     C11754   2.398   4.225  17.398  0.3070  0.4109 -0.6750
  798MPD2    C111755   2.480   4.183  17.297  1.1703  0.3015  0.2985
  798MPD2    C211756   2.604   4.137  17.329 -0.5369 -0.2295  0.0302
  798MPD2    C311757   2.656   4.126  17.456  0.0735  0.0252  0.3705
  798MPD2    C411758   2.572   4.158  17.556  0.1452  0.4182 -0.2035
  798MPD2    C511759   2.445   4.210  17.525 -0.1675 -0.6462 -0.2042
  798MPD2     H11760   2.669   4.111  17.247 -1.4381  0.0589 -0.7817
  798MPD2    H111761   2.604   4.139  17.658 -0.3824  0.8312  0.0393
  798MPD2    H211762   2.298   4.266  17.403 -0.0991 -0.8862  1.9083
  798MPD2    H311763   2.378   4.232  17.607  1.5854 -2.2222  1.6349
  798MPD2     N11764   2.774   4.050  17.475  0.4388  0.1398 -0.0594
  798MPD2    H511765   2.833   4.044  17.392 -0.3008  0.1594 -0.5790
  798MPD2    N111766   2.424   4.191  17.167 -0.2062 -0.0976 -0.2381
  798MPD2    H711767   2.327   4.220  17.168 -0.5283 -1.1533 -0.1019
  799MPD2     C11768   1.316   0.740  14.707  0.1498 -0.6960  0.3568
  799MPD2    C111769   1.215   0.679  14.636 -0.4332  0.3473  0.1207
  799MPD2    C211770   1.122   0.746  14.555 -0.2490 -0.0319 -0.5447
  799MPD2    C311771   1.136   0.880  14.544 -0.2037 -0.5661 -0.3119
  799MPD2    C411772   1.246   0.940  14.606 -0.2045 -0.0832 -0.8176
  799MPD2    C511773   1.333   0.874  14.685  0.5621  0.1344  0.7043
  799MPD2     H11774   1.043   0.687  14.510 -0.0179  0.0716 -1.0854
  799MPD2    H111775   1.252   1.048  14.596  0.6033  0.0005  0.5485
  799MPD2    H211776   1.395   0.699  14.769 -0.4377 -0.9022  0.9655
  799MPD2    H311777   1.420   0.928  14.721 -1.3649  1.5072  3.2998
  799MPD2     N11778   1.054   0.964  14.465  0.6275  0.0755  0.5366
  799MPD2    H511779   1.086   1.059  14.449  0.4438 -0.0331 -0.5067
  799MPD2    N111780   1.183   0.541  14.650 -0.5779  0.0447 -0.3163
  799MPD2    H711781   1.112   0.499  14.592  0.2174 -0.3383 -1.0224
  800MPD2     C11782   1.868   2.505  14.278 -0.5057 -0.4979  0.6601
  800MPD2    C111783   2.001   2.510  14.253  0.2238  0.2864  0.0312
  800MPD2    C211784   2.063   2.392  14.244 -0.0366  0.0280 -0.4027
  800MPD2    C311785   1.994   2.270  14.246  0.2625  0.0154 -0.5628
  800MPD2    C411786   1.858   2.270  14.273 -0.3502  0.3354 -0.0528
  800MPD2    C511787   1.801   2.388  14.295 -0.3553 -0.3727  0.1296
  800MPD2     H11788   2.171   2.392  14.236 -0.0994 -0.0809 -1.3031
  800MPD2    H111789   1.797   2.181  14.275 -0.2494  0.2272 -1.7796
  800MPD2    H211790   1.818   2.601  14.275  1.0943  0.2409 -1.8466
  800MPD2    H311791   1.693   2.395  14.310 -0.1589 -2.1382  2.5063
  800MPD2     N11792   2.072   2.156  14.213  0.5225 -0.3525  0.2249
  800MPD2    H511793   2.170   2.182  14.207  1.3069 -3.2031  0.8931
  800MPD2    N111794   2.064   2.632  14.259 -0.2128  0.1354  0.1105
  800MPD2    H711795   2.010   2.712  14.292 -0.0406  0.0846  0.5139
  801MPD2     C11796   2.116   3.009  14.866 -0.0824  0.3057 -0.1153
  801MPD2    C111797   2.052   2.938  14.765 -0.3422 -0.4039 -0.3384
  801MPD2    C211798   1.929   2.884  14.803 -0.6195 -0.5864 -0.6020
  801MPD2    C311799   1.872   2.898  14.925  0.2496  0.5301  0.5618
  801MPD2    C411800   1.929   2.978  15.020 -0.0316 -0.0183 -0.5776
  801MPD2    C511801   2.052   3.034  14.987 -0.1560 -0.1081 -0.0195
  801MPD2     H11802   1.881   2.816  14.733  1.7713 -1.6602 -1.1911
  801MPD2    H111803   1.878   2.999  15.113 -0.5369 -0.0454 -0.8489
  801MPD2    H211804   2.213   3.056  14.863  0.1963 -0.2248  0.4663
  801MPD2    H311805   2.099   3.107  15.051 -0.1013 -0.3815  0.2528
  801MPD2     N11806   1.751   2.829  14.960  0.7320 -0.2047  0.5224
  801MPD2    H511807   1.736   2.811  15.059 -1.0853  0.7632  0.4120
  801MPD2    N111808   2.108   2.917  14.634 -0.2979 -0.4346  0.0454
  801MPD2    H711809   2.037   2.880  14.571  0.8207  0.0201 -1.4778
  802MPD2     C11810   1.065   1.679   0.007 -0.0337  0.7426 -0.3871
  802MPD2    C111811   1.172   1.765   0.025 -0.3957 -0.0519  0.7088
  802MPD2    C211812   1.211   1.843  17.599  0.1914 -0.7241 -0.0759
  802MPD2    C311813   1.157   1.820  17.474  0.1275 -0.3377  0.6435
  802MPD2    C411814   1.050   1.734  17.474  0.3317 -0.4088 -0.9602
  802MPD2    C511815   1.000   1.674  17.578 -0.4538  0.4714  0.4981
  802MPD2     H11816   1.305   1.893  17.620  0.9538 -2.1828  0.0363
  802MPD2    H111817   0.988   1.730  17.385 -1.5043 -1.1170  0.3506
  802MPD2    H211818   1.021   1.630   0.093  0.6793 -2.6408 -1.9837
  802MPD2    H311819   0.910   1.616  17.563  1.1040 -1.3238 -1.9247
  802MPD2     N11820   1.216   1.875  17.362  0.6910  0.7336  0.2251
  802MPD2    H511821   1.284   1.949  17.375  0.1635  1.0508  1.1297
  802MPD2    N111822   1.238   1.778   0.148  0.0736 -0.5294 -0.1996
  802MPD2    H711823   1.320   1.836   0.138  0.0412 -0.3908  0.3336
  803MPD2     C11824   2.329   1.531  11.875 -0.1607  0.6287  0.5420
  803MPD2    C111825   2.357   1.616  11.982  0.3100  0.1365  0.0559
  803MPD2    C211826   2.304   1.583  12.104  0.0386 -0.4205 -0.1528
  803MPD2    C311827   2.228   1.470  12.118  0.1461 -0.2400 -0.1867
  803MPD2    C411828   2.205   1.384  12.011  0.5807  0.0854  0.4298
  803MPD2    C511829   2.262   1.412  11.895 -0.2547 -0.4101  1.0641
  803MPD2     H11830   2.343   1.627  12.195 -1.3610 -1.0275  0.7556
  803MPD2    H111831   2.153   1.291  12.028  1.2353 -0.8085 -2.6249
  803MPD2    H211832   2.351   1.550  11.771 -1.0999  0.5075  0.3184
  803MPD2    H311833   2.250   1.342  11.813  0.0272 -1.2167  1.7049
  803MPD2     N11834   2.172   1.437  12.242 -0.1553 -0.1803  0.1515
  803MPD2    H511835   2.140   1.341  12.253  0.9994 -0.7519 -1.4974
  803MPD2    N111836   2.442   1.724  11.975 -0.3150  0.3751  0.5426
  803MPD2    H711837   2.453   1.776  12.062 -0.7123 -1.5016  1.7252
  804MPD2     C11838   1.711   2.339  17.144  0.0936 -0.1337 -0.1384
  804MPD2    C111839   1.783   2.246  17.211  0.5865  0.3262  0.2478
  804MPD2    C211840   1.881   2.287  17.303 -0.6611  0.0242  0.1686
  804MPD2    C311841   1.902   2.416  17.342 -1.2889  0.5043  0.4824
  804MPD2    C411842   1.828   2.511  17.280 -0.3360  0.1595  0.3880
  804MPD2    C511843   1.741   2.475  17.177  0.0378  0.5747  0.2029
  804MPD2     H11844   1.936   2.209  17.355  0.6251 -1.2407 -3.1108
  804MPD2    H111845   1.847   2.614  17.308 -0.2171  0.3633 -0.4146
  804MPD2    H211846   1.622   2.321  17.085 -0.2977 -0.7632  0.6401
  804MPD2    H311847   1.689   2.553  17.122 -0.0716  0.5840  0.3174
  804MPD2     N11848   2.001   2.446  17.442  0.3299  0.2374  0.0520
  804MPD2    H511849   2.063   2.372  17.474  1.4037  0.1871 -2.1456
  804MPD2    N111850   1.748   2.108  17.208  0.3867 -0.2771  0.0037
  804MPD2    H711851   1.798   2.045  17.270  0.3997  0.4953  0.7659
  805MPD2     C11852   0.649   0.760  15.532  1.2234 -0.7169 -0.7048
  805MPD2    C111853   0.757   0.787  15.459 -0.5048  0.5842  0.4007
  805MPD2    C211854   0.875   0.794  15.531 -0.4952 -0.3848  0.3017
  805MPD2    C311855   0.888   0.772  15.669 -0.4555  0.7117  0.4417
  805MPD2    C411856   0.779   0.731  15.737 -0.7119 -0.2027 -0.2542
  805MPD2    C511857   0.657   0.735  15.668  0.5734  0.1186 -0.9268
  805MPD2     H11858   0.973   0.801  15.485 -2.0277 -1.6433 -3.1115
  805MPD2    H111859   0.767   0.709  15.843 -0.9474  1.5209  0.0653
  805MPD2    H211860   0.552   0.753  15.483  0.2011 -2.2183  1.5065
  805MPD2    H311861   0.569   0.706  15.723  2.0179 -0.0843  1.2611
  805MPD2     N11862   1.014   0.775  15.730 -0.6190  1.0049  0.4528
  805MPD2    H511863   1.093   0.806  15.675 -2.1610 -0.6230 -2.6441
  805MPD2    N111864   0.758   0.800  15.320  0.2245 -0.2721  0.1011
  805MPD2    H711865   0.849   0.800  15.275  0.3169  0.7593  0.2873
  806MPD2     C11866   1.089   0.126   0.841  0.1818 -0.2640 -0.0961
  806MPD2    C111867   1.159   0.043   0.759 -0.7532 -0.3503  0.1112
  806MPD2    C211868   1.196   0.084   0.633  0.8223 -0.0445 -0.2583
  806MPD2    C311869   1.155   0.209   0.585  0.0237 -0.4092 -0.8848
  806MPD2    C411870   1.081   0.292   0.662  0.5132  0.2292  0.8894
  806MPD2    C511871   1.052   0.248   0.792 -0.2219  0.1182  0.2350
  806MPD2     H11872   1.252   0.017   0.570  1.8981 -0.9800  1.7138
  806MPD2    H111873   1.044   0.387   0.626  2.8015  0.9591  0.4030
  806MPD2    H211874   1.048   0.101   0.938 -1.1902 -0.4587 -0.7316
  806MPD2    H311875   0.984   0.308   0.851  0.0724 -0.0849  0.7882
  806MPD2     N11876   1.205   0.255   0.458 -0.0704  1.0078 -0.3241
  806MPD2    H511877   1.271   0.195   0.408 -0.9500 -0.5480  0.3841
  806MPD2    N111878   1.202   4.644   0.823 -0.2950  0.0311  0.0536
  806MPD2    H711879   1.159   4.632   0.915  0.5027 -0.5701  0.3422
  807MPD2     C11880   0.927   4.117   1.259  0.8735 -0.1551  0.1330
  807MPD2    C111881   1.063   4.093   1.272 -1.6479  0.0197  0.0337
  807MPD2    C211882   1.097   3.986   1.353 -0.7027 -0.5467  0.6518
  807MPD2    C311883   1.003   3.906   1.414 -0.1765  0.2420 -0.3627
  807MPD2    C411884   0.870   3.934   1.399 -0.2736 -0.2592  0.4073
  807MPD2    C511885   0.833   4.037   1.316 -0.4572 -0.1771  0.2584
  807MPD2     H11886   1.201   3.969   1.374 -0.6984  0.5478  1.5356
  807MPD2    H111887   0.784   3.892   1.450 -1.1265 -0.5449 -1.3071
  807MPD2    H211888   0.887   4.196   1.196 -1.6786 -0.5716  1.2441
  807MPD2    H311889   0.727   4.053   1.303 -0.8599 -1.0985  2.4550
  807MPD2     N11890   1.040   3.798   1.493 -0.2778  0.4638  0.3662
  807MPD2    H511891   1.135   3.763   1.500 -0.4733 -0.4593 -1.7350
  807MPD2    N111892   1.163   4.168   1.214  0.0949  0.5616  0.1810
  807MPD2    H711893   1.259   4.147   1.240 -0.6440 -2.3291  0.6434
  808MPD2     C11894   1.838   1.335  10.483 -0.4214 -0.1958 -0.5722
  808MPD2    C111895   1.804   1.283  10.362  0.0159 -0.2612 -0.1231
  808MPD2    C211896   1.806   1.371  10.251  0.3479  0.4761 -0.0219
  808MPD2    C311897   1.848   1.502  10.277 -0.2459 -1.1647  0.1716
  808MPD2    C411898   1.887   1.544  10.404 -0.3429 -0.0605  0.1524
  808MPD2    C511899   1.880   1.455  10.506  0.5467 -0.3060  0.1589
  808MPD2     H11900   1.766   1.343  10.155  0.2756 -1.6835  0.6405
  808MPD2    H111901   1.928   1.642  10.425 -1.2496  0.0715  1.2831
  808MPD2    H211902   1.830   1.289  10.581  2.3074  1.1409  0.2683
  808MPD2    H311903   1.913   1.476  10.607  0.1916 -0.3661  0.2859
  808MPD2     N11904   1.850   1.605  10.180 -0.7828 -0.1834 -0.0190
  808MPD2    H511905   1.890   1.695  10.204  0.5806 -0.6294 -0.6303
  808MPD2    N111906   1.751   1.152  10.341 -0.6262  0.1254 -0.2373
  808MPD2    H711907   1.720   1.126  10.248 -0.7476 -1.0549  0.1432
  809MPD2     C11908   2.388   1.567   9.431  0.0191 -0.6068  0.3658
  809MPD2    C111909   2.420   1.635   9.552 -0.1712  0.1184 -0.1293
  809MPD2    C211910   2.307   1.684   9.621  0.3319  0.1493 -0.4831
  809MPD2    C311911   2.179   1.658   9.576  0.4479 -0.2443  0.3797
  809MPD2    C411912   2.151   1.592   9.462 -0.1583  0.0659 -0.0255
  809MPD2    C511913   2.257   1.544   9.397 -0.6125 -0.0717 -0.5972
  809MPD2     H11914   2.319   1.742   9.712 -2.8215 -1.3955  0.9165
  809MPD2    H111915   2.051   1.576   9.424  0.4321 -1.2480 -1.0280
  809MPD2    H211916   2.470   1.522   9.377 -0.3985 -0.7977 -0.1115
  809MPD2    H311917   2.232   1.478   9.315  0.4805 -0.0264 -0.9659
  809MPD2     N11918   2.067   1.714   9.645 -0.1573  0.7059 -0.5482
  809MPD2    H511919   1.977   1.673   9.623 -0.3356  0.5068  0.5515
  809MPD2    N111920   2.550   1.663   9.604 -0.3078  0.7240  0.2195
  809MPD2    H711921   2.555   1.715   9.690  0.0105 -1.1520  1.3399
  810MPD2     C11922   1.558   1.137  10.757 -0.9404 -0.0709 -0.3790
  810MPD2    C111923   1.493   1.164  10.640 -0.5564  0.1309 -0.6252
  810MPD2    C211924   1.490   1.299  10.590  0.1815 -0.1391 -0.2081
  810MPD2    C311925   1.565   1.402  10.645  0.1495 -0.6772  0.2312
  810MPD2    C411926   1.626   1.370  10.770 -0.4993 -0.0431 -0.3909
  810MPD2    C511927   1.623   1.243  10.820 -0.0053 -0.1376 -0.3409
  810MPD2     H11928   1.439   1.317  10.496 -0.6998  0.9952  0.4874
  810MPD2    H111929   1.683   1.450  10.816  0.5341 -1.1750  0.2747
  810MPD2    H211930   1.550   1.041  10.806  1.3168 -0.2644 -0.4252
  810MPD2    H311931   1.677   1.223  10.912  0.9979  0.8135 -0.7189
  810MPD2     N11932   1.582   1.537  10.598 -0.2511  0.4429  0.5524
  810MPD2    H511933   1.634   1.603  10.657  1.7116  0.1379 -0.8448
  810MPD2    N111934   1.423   1.057  10.579 -0.1452  0.4584 -0.2314
  810MPD2    H711935   1.437   0.961  10.610  0.7367  0.0887 -1.7243
  811MPD2     C11936   0.686   0.991  10.079 -0.7478  0.5724  0.8256
  811MPD2    C111937   0.822   1.013  10.079  0.4251 -0.9172 -0.1553
  811MPD2    C211938   0.869   1.129  10.014  0.6678 -0.4052  0.1182
  811MPD2    C311939   0.774   1.202   9.941 -0.3520  0.2606  0.5435
  811MPD2    C411940   0.640   1.165   9.945 -0.6059  0.0140 -0.6129
  811MPD2    C511941   0.593   1.059  10.004  0.8226 -0.8200  0.1647
  811MPD2     H11942   0.974   1.155  10.010  0.6947 -0.4365  0.6185
  811MPD2    H111943   0.567   1.215   9.882  0.4055 -0.6337 -2.3207
  811MPD2    H211944   0.656   0.906  10.140  0.1189 -0.7358 -0.5581
  811MPD2    H311945   0.493   1.018  10.001  1.6086 -2.9433  2.8320
  811MPD2     N11946   0.822   1.311   9.872  0.2032 -0.7052  0.6435
  811MPD2    H511947   0.922   1.321   9.879  0.3457 -4.3109  3.2904
  811MPD2    N111948   0.900   0.940  10.179 -0.6884 -0.7286  0.9682
  811MPD2    H711949   0.850   0.879  10.242 -0.0924 -3.3007 -1.0609
  812MPD2     C11950   0.533   1.590  12.262 -0.0632 -0.4178  0.5562
  812MPD2    C111951   0.408   1.542  12.266 -0.1147 -0.2529  0.2989
  812MPD2    C211952   0.382   1.438  12.348 -0.6700 -0.0956  0.3054
  812MPD2    C311953   0.471   1.408  12.450  0.5423  0.7973  1.0910
  812MPD2    C411954   0.595   1.471  12.459 -0.1369 -0.1924  0.0603
  812MPD2    C511955   0.639   1.554  12.351 -0.0271 -0.0955 -0.1119
  812MPD2     H11956   0.282   1.397  12.350 -0.2458 -1.1272 -0.0519
  812MPD2    H111957   0.666   1.453  12.539 -2.3174  0.8285  2.2101
  812MPD2    H211958   0.558   1.675  12.201 -1.2477  0.9490  1.9680
  812MPD2    H311959   0.728   1.615  12.353 -0.2854  0.2540  0.6648
  812MPD2     N11960   0.421   1.318  12.549  0.0983 -0.0823 -0.3165
  812MPD2    H511961   0.324   1.289  12.534  0.3450 -0.9309 -0.2492
  812MPD2    N111962   0.315   1.603  12.173 -0.4299  0.2885  0.2424
  812MPD2    H711963   0.356   1.680  12.121  0.5772 -0.4070  0.0030
  813MPD2     C11964   4.272   3.119  12.568 -0.4088 -0.5177  0.6929
  813MPD2    C111965   4.272   3.252  12.605 -0.3579 -1.1759  0.1159
  813MPD2    C211966   4.250   3.288  12.736 -0.2419 -0.0157  0.7664
  813MPD2    C311967   4.252   3.191  12.831  0.1626 -0.1045  0.4975
  813MPD2    C411968   4.258   3.058  12.799 -0.7550  0.3212 -0.1442
  813MPD2    C511969   4.262   3.024  12.661 -0.3961  1.0376 -0.2139
  813MPD2     H11970   4.246   3.393  12.761 -1.1622 -0.2617  1.6068
  813MPD2    H111971   4.261   2.986  12.880  1.2093  0.1810 -0.3513
  813MPD2    H211972   4.273   3.087  12.464 -1.1988  3.1831 -0.4215
  813MPD2    H311973   4.260   2.917  12.642  1.4547  1.3117 -1.9645
  813MPD2     N11974   4.258   3.239  12.962 -0.4576 -0.2311  0.3367
  813MPD2    H511975   4.249   3.340  12.972  1.2812  0.1101 -1.3646
  813MPD2    N111976   4.293   3.367  12.525 -0.2233 -0.2843  0.6617
  813MPD2    H711977   4.283   3.455  12.574 -0.2708 -0.0511  0.2331
  814MPD2     C11978   4.466   4.374  12.274 -0.1186 -0.1243  0.5677
  814MPD2    C111979   4.427   4.438  12.154 -0.2982 -0.1904  0.2198
  814MPD2    C211980   4.476   4.567  12.127  0.1908  0.4859 -0.5324
  814MPD2    C311981   4.551   4.625  12.220  0.4861  0.1469 -0.0755
  814MPD2    C411982   4.587   4.571  12.343 -0.2623  0.3023  0.1510
  814MPD2    C511983   4.548   4.438  12.368  0.1087 -0.0749 -0.2459
  814MPD2     H11984   4.461   4.600  12.025  1.0385  1.4647 -0.3406
  814MPD2    H111985   4.651   4.631  12.407 -0.7469  1.3677 -0.3552
  814MPD2    H211986   4.445   4.269  12.290  0.5396 -0.4849 -0.9294
  814MPD2    H311987   4.588   4.374  12.445  0.6636 -0.1490 -0.5944
  814MPD2     N11988   4.632   0.020  12.188  0.3895 -0.6341 -0.1077
  814MPD2    H511989   4.711   0.045  12.246  0.4122  0.4606 -0.6134
  814MPD2    N111990   4.368   4.374  12.048 -0.0915 -0.3641  0.0227
  814MPD2    H711991   4.363   4.435  11.967  4.2638 -1.1709 -0.8861
  815MPD2     C11992   0.042   3.182  12.005  0.6604 -0.0613  0.1774
  815MPD2    C111993   4.721   3.073  11.936  0.0641 -0.7922 -0.2711
  815MPD2    C211994   4.582   3.038  11.944 -0.5828 -0.0411 -0.4579
  815MPD2    C311995   4.495   3.121  12.011 -0.3137 -0.1103  0.0925
  815MPD2    C411996   4.539   3.223  12.078  0.4907 -0.2360 -1.3352
  815MPD2    C511997   4.673   3.249  12.076  0.0286 -0.2936 -0.1712
  815MPD2     H11998   4.548   2.946  11.898  0.0405 -0.2833 -0.4401
  815MPD2    H111999   4.470   3.286  12.133 -0.0948  0.6426 -3.0962
  815MPD2    H212000   0.147   3.210  12.007  1.3081 -2.4542 -0.3233
  815MPD2    H312001   4.709   3.331  12.137 -0.1205  2.7019 -4.0820
  815MPD2     N12002   4.354   3.100  12.022 -0.0103  0.9170  0.0913
  815MPD2    H512003   4.307   3.166  12.082 -0.5889 -0.0375  0.6789
  815MPD2    N112004   0.087   2.986  11.869 -0.4363  0.2426 -0.5917
  815MPD2    H712005   0.179   3.017  11.839 -0.8496 -1.4109 -3.5597
  816MPD2     C12006   0.100   1.756  17.262  0.0951  0.2388  0.7370
  816MPD2    C112007   0.195   1.860  17.272  0.4151 -0.7305  0.3850
  816MPD2    C212008   0.322   1.832  17.222  0.2265 -0.6474 -0.2070
  816MPD2    C312009   0.343   1.705  17.166 -0.2551 -0.4132  0.3299
  816MPD2    C412010   0.245   1.604  17.179  0.9303 -0.3708 -0.0512
  816MPD2    C512011   0.125   1.628  17.222 -0.1134  0.6380  0.1571
  816MPD2     H12012   0.389   1.917  17.219 -1.0961  0.3952 -0.3085
  816MPD2    H112013   0.256   1.504  17.138 -3.8383 -1.2574  0.8313
  816MPD2    H212014   0.001   1.782  17.298 -0.6396 -0.9927 -0.3785
  816MPD2    H312015   0.055   1.546  17.219 -0.7844  1.2826 -1.5821
  816MPD2     N12016   0.471   1.689  17.113 -0.4568 -0.4359 -0.2058
  816MPD2    H512017   0.529   1.771  17.123 -0.5713 -0.3660 -0.1143
  816MPD2    N112018   0.153   1.984  17.329  0.2550  0.3514  0.0491
  816MPD2    H712019   0.053   1.994  17.342  0.3192 -1.3037  1.8034
  817MPD2     C12020   4.607   3.590   9.937  0.3463  0.6523  0.4511
  817MPD2    C112021   4.488   3.525   9.967 -0.0191  0.3885  0.0245
  817MPD2    C212022   4.366   3.602   9.959 -0.6283  0.9364  0.3833
  817MPD2    C312023   4.365   3.736   9.920 -0.3298 -0.6000 -0.0548
  817MPD2    C412024   4.486   3.785   9.873 -0.3274  0.6130 -0.2920
  817MPD2    C512025   4.604   3.722   9.892 -0.3346 -0.1780 -0.6336
  817MPD2     H12026   4.276   3.554   9.995 -0.4193  1.5829  1.7647
  817MPD2    H112027   4.491   3.885   9.830 -0.3078  1.8177  2.5454
  817MPD2    H212028   4.702   3.545   9.963  1.0509  2.2530  0.6240
  817MPD2    H312029   4.695   3.777   9.873  0.9217 -1.8630  0.4999
  817MPD2     N12030   4.246   3.819   9.929 -0.4228  0.0200 -0.0285
  817MPD2    H512031   4.167   3.779   9.979  0.0897 -1.4987 -0.4467
  817MPD2    N112032   4.479   3.391  10.003 -0.1590 -0.0448 -0.4417
  817MPD2    H712033   4.387   3.348  10.009 -0.6344  0.9527 -0.6460
  818MPD2     C12034   2.641   3.885   9.771  0.0049 -0.2804 -0.1161
  818MPD2    C112035   2.657   3.845   9.906  0.4093  0.4023  0.1314
  818MPD2    C212036   2.637   3.712   9.940 -0.0112  0.2619 -0.0156
  818MPD2    C312037   2.595   3.618   9.839  0.4209 -0.1619 -0.7963
  818MPD2    C412038   2.603   3.650   9.707 -0.7397 -0.1443 -0.0842
  818MPD2    C512039   2.619   3.789   9.676  0.5986  0.8225 -0.0852
  818MPD2     H12040   2.644   3.684  10.045  2.5187 -0.7730 -0.4650
  818MPD2    H112041   2.577   3.578   9.630 -2.9179  1.3195 -0.6895
  818MPD2    H212042   2.654   3.987   9.738  0.5653 -0.6764 -1.1305
  818MPD2    H312043   2.611   3.816   9.572  0.0060  2.9968  0.5345
  818MPD2     N12044   2.548   3.490   9.882 -0.4401 -0.3646  0.1392
  818MPD2    H512045   2.515   3.420   9.816  1.2274 -0.5390 -0.4904
  818MPD2    N112046   2.685   3.938  10.013  0.4216 -0.5550 -0.2761
  818MPD2    H712047   2.708   3.891  10.100  1.8202 -1.6533 -1.2428
  819MPD2     C12048   1.532   0.503  15.691  0.2054  0.4584 -0.3660
  819MPD2    C112049   1.550   0.365  15.687 -0.3546  0.0668 -0.0050
  819MPD2    C212050   1.604   0.308  15.804 -0.2086  0.2447  0.5521
  819MPD2    C312051   1.646   0.387  15.907  0.5383  0.0473 -0.1224
  819MPD2    C412052   1.638   0.522  15.901  0.0928  0.9819  0.0102
  819MPD2    C512053   1.581   0.579  15.790  0.1881 -0.3092 -0.4610
  819MPD2     H12054   1.613   0.202  15.824  0.1596  0.5103  1.7826
  819MPD2    H112055   1.677   0.591  15.975 -0.5155  2.3694 -0.9548
  819MPD2    H212056   1.477   0.552  15.612  1.1362  2.3506  0.1458
  819MPD2    H312057   1.560   0.685  15.780 -1.4750 -0.5172  0.8291
  819MPD2     N12058   1.695   0.326  16.030 -0.3002 -0.0791  0.1986
  819MPD2    H512059   1.704   0.225  16.028 -0.1023 -0.0256 -2.1506
  819MPD2    N112060   1.505   0.296  15.578  0.4995  0.2477 -0.2574
  819MPD2    H712061   1.455   0.353  15.511  0.4493 -0.1358 -0.5478
  820MPD2     C12062   0.804   0.215  14.900 -0.0199 -0.0275 -0.0802
  820MPD2    C112063   0.884   0.317  14.942 -0.1237  0.5318  0.5711
  820MPD2    C212064   1.005   0.295  15.002 -0.0185 -0.1251 -0.5780
  820MPD2    C312065   1.036   0.167  15.036  0.3886  0.3711 -0.8331
  820MPD2    C412066   0.945   0.062  15.010  0.0500  0.2377  0.0520
  820MPD2    C512067   0.842   0.091  14.928 -0.3012  0.5189  0.4401
  820MPD2     H12068   1.068   0.382  15.022  1.7078 -1.5831  0.3141
  820MPD2    H112069   0.947   4.683  15.048  0.1846  0.0887 -0.3536
  820MPD2    H212070   0.714   0.234  14.842 -0.7107 -2.3149  0.2347
  820MPD2    H312071   0.776   0.008  14.904  1.5669 -0.5665 -0.9492
  820MPD2     N12072   1.154   0.137  15.100 -0.4490  0.0612  0.2390
  820MPD2    H512073   1.178   0.041  15.122  1.6437  1.0179  2.2509
  820MPD2    N112074   0.830   0.452  14.918 -0.6004  0.7371 -0.2362
  820MPD2    H712075   0.736   0.457  14.881 -0.7129  1.5826  0.1653
  821MPD2     C12076   2.070   1.660  13.560 -0.1963 -0.2722 -0.3125
  821MPD2    C112077   2.195   1.674  13.622 -0.6931  0.0877  0.7106
  821MPD2    C212078   2.309   1.665  13.537 -0.3311  0.1757 -0.0763
  821MPD2    C312079   2.298   1.678  13.400 -0.2183  0.1368 -0.2436
  821MPD2    C412080   2.171   1.677  13.344 -0.2669 -0.4076  0.1592
  821MPD2    C512081   2.061   1.662  13.421 -0.5303 -0.2314 -0.1171
  821MPD2     H12082   2.409   1.670  13.578 -0.4736 -2.2485  0.5628
  821MPD2    H112083   2.164   1.679  13.235  1.6700  1.3859  0.0833
  821MPD2    H212084   1.977   1.662  13.617 -0.3755 -0.6879 -0.5913
  821MPD2    H312085   1.963   1.651  13.376  0.0435  1.1765 -1.6924
  821MPD2     N12086   2.404   1.716  13.315  0.3499 -0.5516 -0.1699
  821MPD2    H512087   2.378   1.749  13.222  0.8567  0.6517  0.1244
  821MPD2    N112088   2.210   1.691  13.761  0.1814 -0.6922 -0.3626
  821MPD2    H712089   2.307   1.697  13.788  0.2142 -1.0411 -0.3994
  822MPD2     C12090   2.439   1.886  15.761  0.0282 -0.5192 -0.0747
  822MPD2    C112091   2.536   1.913  15.859  0.2972  0.2496 -0.3488
  822MPD2    C212092   2.528   2.041  15.920 -0.2660  0.0191  0.3636
  822MPD2    C312093   2.418   2.117  15.918  0.1754 -0.0749  0.4734
  822MPD2    C412094   2.318   2.084  15.831 -0.1869  0.5129 -0.2962
  822MPD2    C512095   2.330   1.975  15.746 -0.6834  0.7490  0.4614
  822MPD2     H12096   2.617   2.063  15.979 -0.0972 -2.8206  1.1701
  822MPD2    H112097   2.229   2.143  15.811 -0.2832  0.6508  0.5461
  822MPD2    H212098   2.445   1.802  15.693 -0.5906 -0.7024  0.0955
  822MPD2    H312099   2.258   1.961  15.667  0.2667  0.8810 -0.4315
  822MPD2     N12100   2.402   2.228  16.010 -0.4971  0.6176 -0.3656
  822MPD2    H512101   2.469   2.255  16.081 -1.1667  1.9756 -0.2473
  822MPD2    N112102   2.648   1.827  15.896  0.1721  0.4667 -1.0300
  822MPD2    H712103   2.718   1.855  15.965  0.9708 -1.0329 -1.2324
  823MPD2     C12104   2.007   2.206  16.824  0.6147 -0.4282 -0.1461
  823MPD2    C112105   2.067   2.135  16.726  0.0831  0.1193 -0.0480
  823MPD2    C212106   2.099   1.999  16.747 -0.2372  0.5321 -0.1469
  823MPD2    C312107   2.051   1.924  16.853 -0.3496  0.4028 -0.5264
  823MPD2    C412108   1.986   2.001  16.953  0.1092  0.0514  0.6783
  823MPD2    C512109   1.976   2.139  16.940  0.1003 -0.1346  0.6963
  823MPD2     H12110   2.146   1.952  16.662 -0.4767 -0.7746  0.4551
  823MPD2    H112111   1.946   1.955  17.043 -0.9755  1.5926  0.9744
  823MPD2    H212112   1.988   2.311  16.808 -1.8540 -0.5931  1.8728
  823MPD2    H312113   1.927   2.203  17.012 -0.5166 -0.0621  0.2110
  823MPD2     N12114   2.073   1.785  16.871  0.1332  0.2453  0.0032
  823MPD2    H512115   2.028   1.744  16.952 -0.4186  2.0506  0.6204
  823MPD2    N112116   2.106   2.205  16.612  0.3424  0.4857  0.5405
  823MPD2    H712117   2.088   2.305  16.609 -0.6062  0.2650 -0.8347
  824MPD2     C12118   2.981   1.021  16.072 -0.5617  0.2158  0.5430
  824MPD2    C112119   3.005   1.106  15.961  0.6053 -0.2317  0.6699
  824MPD2    C212120   3.093   1.065  15.871 -0.0647  0.4097  0.2953
  824MPD2    C312121   3.176   0.951  15.892 -0.3192  0.5010  0.2046
  824MPD2    C412122   3.160   0.876  16.009 -0.5455 -0.4063  0.2507
  824MPD2    C512123   3.063   0.917  16.099  0.9242  0.6562  0.1625
  824MPD2     H12124   3.117   1.124  15.783  0.1039  1.5221  1.0886
  824MPD2    H112125   3.225   0.793  16.035  0.4379  0.7412  1.4821
  824MPD2    H212126   2.909   1.051  16.147 -0.7023  1.2419 -0.0016
  824MPD2    H312127   3.049   0.859  16.189 -0.3443  1.0015  0.1946
  824MPD2     N12128   3.277   0.922  15.798 -0.5162 -0.3615 -0.4076
  824MPD2    H512129   3.270   0.975  15.712 -0.5653 -0.1938 -0.3001
  824MPD2    N112130   2.935   1.232  15.967  0.4351  0.3760 -0.1873
  824MPD2    H712131   2.901   1.270  16.055  2.8974  0.3030  0.8094
  825MPD2     C12132   3.650   0.980  15.069  0.0422  0.7106 -0.4790
  825MPD2    C112133   3.652   1.036  15.197  0.0253  0.0831  0.4511
  825MPD2    C212134   3.677   1.174  15.204 -0.0991 -0.1506  0.5064
  825MPD2    C312135   3.704   1.239  15.088 -0.2729 -0.1294 -0.2335
  825MPD2    C412136   3.689   1.179  14.967 -0.1598  0.3750  0.6648
  825MPD2    C512137   3.665   1.050  14.959  0.1205  0.2767  0.0376
  825MPD2     H12138   3.678   1.225  15.299 -0.1272  1.1218 -0.1832
  825MPD2    H112139   3.691   1.236  14.875  0.4609 -1.1786 -0.2890
  825MPD2    H212140   3.630   0.875  15.054  1.0785  0.0586  2.7243
  825MPD2    H312141   3.648   1.008  14.860 -1.3916  0.4255  0.2308
  825MPD2     N12142   3.738   1.376  15.080 -0.5573  0.2363  0.4388
  825MPD2    H512143   3.765   1.403  14.986 -1.4882  0.9643  0.3844
  825MPD2    N112144   3.628   0.950  15.304  0.0257 -0.0508 -0.2403
  825MPD2    H712145   3.621   0.850  15.288  1.8549 -0.3291  0.6755
  826MPD2     C12146   3.234   0.929  13.847  1.2049 -0.4029  0.1143
  826MPD2    C112147   3.151   0.993  13.754 -0.3795 -0.2928 -0.0330
  826MPD2    C212148   3.066   1.094  13.795 -0.4875  0.0316 -0.6142
  826MPD2    C312149   3.070   1.135  13.927 -0.0210 -0.0511 -0.2827
  826MPD2    C412150   3.153   1.074  14.018 -0.0256  0.4046 -0.1036
  826MPD2    C512151   3.240   0.974  13.979 -0.6516  0.4169  0.2138
  826MPD2     H12152   2.985   1.127  13.730 -3.0750  2.5455  3.9200
  826MPD2    H112153   3.157   1.121  14.115 -0.0680  1.5069 -0.6301
  826MPD2    H212154   3.289   0.840  13.820  0.7800 -0.4878 -0.4762
  826MPD2    H312155   3.299   0.924  14.055  1.4612  0.7794 -1.2039
  826MPD2     N12156   3.001   1.251  13.971  0.1303 -0.3043 -0.2238
  826MPD2    H512157   3.009   1.269  14.071 -2.1706  0.3490 -0.1604
  826MPD2    N112158   3.147   0.944  13.624  0.5221 -0.2403 -0.4293
  826MPD2    H712159   3.207   0.863  13.609  1.1319  0.2146 -0.4630
  827MPD2     C12160   3.742   1.715  10.113 -0.2685 -0.2609 -0.1975
  827MPD2    C112161   3.840   1.778  10.042 -0.6124  1.0012  0.0070
  827MPD2    C212162   3.850   1.749   9.909  0.0750 -0.4221  0.0667
  827MPD2    C312163   3.771   1.655   9.842  0.4727  0.0559 -0.0725
  827MPD2    C412164   3.682   1.582   9.919  0.2584 -0.3348  0.2474
  827MPD2    C512165   3.673   1.614  10.052 -0.5067  0.4785  0.9650
  827MPD2     H12166   3.909   1.800   9.833 -2.5937  1.6576 -0.5830
  827MPD2    H112167   3.619   1.502   9.882  1.1592 -0.0649 -1.8653
  827MPD2    H212168   3.718   1.745  10.214  0.0203  0.9964 -0.5027
  827MPD2    H312169   3.604   1.557  10.113  0.0286 -2.0158 -0.7217
  827MPD2     N12170   3.788   1.617   9.706 -0.1267 -0.2669  0.2932
  827MPD2    H512171   3.868   1.656   9.657 -1.4526 -2.0114 -3.2194
  827MPD2    N112172   3.917   1.875  10.106  0.0358  0.0330  0.5686
  827MPD2    H712173   3.897   1.880  10.206  0.9578 -2.1256  0.8576
  828MPD2     C12174   2.557   2.494  12.485 -0.3903 -0.1584 -0.2433
  828MPD2    C112175   2.458   2.533  12.395  0.7772 -0.4810 -0.5400
  828MPD2    C212176   2.478   2.512  12.260  0.5800 -0.0170 -0.1495
  828MPD2    C312177   2.601   2.464  12.210 -0.9061 -0.4984 -0.0016
  828MPD2    C412178   2.704   2.453  12.302  0.0671  0.9713  0.4983
  828MPD2    C512179   2.678   2.463  12.435  0.4723  0.5745  0.5341
  828MPD2     H12180   2.395   2.527  12.192 -0.7236 -0.6783  1.3087
  828MPD2    H112181   2.802   2.417  12.272  0.1949  1.6743  0.0762
  828MPD2    H212182   2.539   2.501  12.592 -1.2142 -0.6683 -0.3457
  828MPD2    H312183   2.760   2.456  12.506 -1.9655  1.0639  3.4143
  828MPD2     N12184   2.625   2.441  12.072  0.3189  0.4961  0.3942
  828MPD2    H512185   2.724   2.430  12.055  0.6178  0.5593  2.0794
  828MPD2    N112186   2.340   2.598  12.428  0.8885  0.0820 -0.1421
  828MPD2    H712187   2.269   2.606  12.355 -2.9400  0.0030  3.5837
  829MPD2     C12188   2.158   3.327  12.086  0.1907 -0.0393 -0.2171
  829MPD2    C112189   2.044   3.253  12.060 -0.6592 -0.1823  0.6450
  829MPD2    C212190   2.027   3.147  12.150 -0.1441 -0.7796 -0.5862
  829MPD2    C312191   2.104   3.126  12.260 -0.2672  0.0181 -0.5595
  829MPD2    C412192   2.214   3.202  12.284  0.0270  0.0607 -0.0739
  829MPD2    C512193   2.232   3.308  12.206  0.1160 -0.3394 -0.3418
  829MPD2     H12194   1.945   3.082  12.124  0.6976 -2.3856  0.7765
  829MPD2    H112195   2.299   3.173  12.345  0.5488  1.1084 -0.2989
  829MPD2    H212196   2.189   3.413  12.027  2.6551 -0.4843  0.4459
  829MPD2    H312197   2.318   3.369  12.231 -0.3112 -0.3665  1.2395
  829MPD2     N12198   2.095   3.008  12.349 -0.2339  0.3973  0.8392
  829MPD2    H512199   2.168   2.995  12.419 -1.1926 -2.6936  1.2872
  829MPD2    N112200   1.976   3.270  11.934 -0.3521 -0.2685  0.3644
  829MPD2    H712201   2.020   3.338  11.872 -2.0798 -1.2024 -1.8788
  830MPD2     C12202   2.107   4.460  16.340  0.4926 -0.1207 -0.3685
  830MPD2    C112203   2.026   4.567  16.307  0.5338 -0.7274  0.4175
  830MPD2    C212204   2.073   4.660  16.214 -0.2925 -0.3844 -0.5670
  830MPD2    C312205   2.204   4.652  16.165 -0.6476  0.1649 -0.1863
  830MPD2    C412206   2.283   4.552  16.218  0.2298 -0.4845  0.2855
  830MPD2    C512207   2.231   4.456  16.301 -1.0305  0.0001  0.6218
  830MPD2     H12208   2.002   0.009  16.175 -0.9713  0.0258  1.4304
  830MPD2    H112209   2.385   4.536  16.184  0.0204 -0.7171 -0.2362
  830MPD2    H212210   2.075   4.389  16.416 -0.2092 -1.7033 -2.1415
  830MPD2    H312211   2.296   4.373  16.325 -1.8188 -0.8416 -0.1753
  830MPD2     N12212   2.257   0.026  16.078  0.3158 -0.6116  0.0490
  830MPD2    H512213   2.353   0.008  16.049  0.6476 -0.0068  0.7624
  830MPD2    N112214   1.895   4.570  16.350  0.5603  0.1402  0.3821
  830MPD2    H712215   1.851   4.487  16.388  1.7103  0.2374  1.9567
  831MPD2     C12216   2.755   2.175  16.442  0.1057 -0.2008 -0.3945
  831MPD2    C112217   2.774   2.079  16.348 -0.1483  0.0805  0.2883
  831MPD2    C212218   2.671   1.996  16.314 -0.2268 -0.0521 -0.7664
  831MPD2    C312219   2.542   2.006  16.375 -0.2114  0.1388  0.2140
  831MPD2    C412220   2.527   2.100  16.479 -0.6422 -0.0250  0.1621
  831MPD2    C512221   2.629   2.189  16.507 -0.0887 -0.4389 -0.0666
  831MPD2     H12222   2.666   1.932  16.226 -2.0313  0.9109 -1.3853
  831MPD2    H112223   2.438   2.122  16.536  0.5473  1.3639  1.4932
  831MPD2    H212224   2.834   2.244  16.468 -1.4183  1.1385  0.7125
  831MPD2    H312225   2.630   2.264  16.586 -0.3373 -2.0434  1.4644
  831MPD2     N12226   2.430   1.927  16.337 -0.4951  0.1100 -0.3261
  831MPD2    H512227   2.343   1.947  16.387 -1.3473 -1.6597 -1.0896
  831MPD2    N112228   2.897   2.080  16.280 -0.0637 -0.0248  0.3931
  831MPD2    H712229   2.958   2.143  16.331 -0.7806 -1.7669  3.4536
  832MPD2     C12230   1.073   2.733  17.105 -0.1480 -0.3441  0.0124
  832MPD2    C112231   1.057   2.860  17.154  0.0543 -0.4794  0.1648
  832MPD2    C212232   0.947   2.940  17.107  0.1113  0.1433 -0.7814
  832MPD2    C312233   0.865   2.888  17.011  0.5311  0.3381  0.3706
  832MPD2    C412234   0.884   2.764  16.961 -0.0683 -0.3756 -0.2259
  832MPD2    C512235   0.986   2.681  17.005  0.4458  0.7122 -0.2183
  832MPD2     H12236   0.924   3.033  17.157  1.2202 -0.4619  0.8600
  832MPD2    H112237   0.815   2.736  16.882  1.4274  1.2687 -2.1056
  832MPD2    H212238   1.154   2.671  17.140  1.2126  1.0982 -0.5941
  832MPD2    H312239   1.003   2.579  16.973  1.8868  0.9412 -0.2085
  832MPD2     N12240   0.744   2.960  16.969  0.2506  0.1107 -0.3848
  832MPD2    H512241   0.683   2.902  16.912 -0.0398  0.7380 -0.7064
  832MPD2    N112242   1.153   2.896  17.249 -0.5943 -0.2743 -0.2707
  832MPD2    H712243   1.220   2.826  17.280 -1.7534 -1.9432 -1.5798
  833MPD2     C12244   2.734   0.230  12.769  0.5329  0.6104 -0.4264
  833MPD2    C112245   2.759   0.331  12.680 -0.4077  0.2498 -0.4234
  833MPD2    C212246   2.840   0.304  12.567  0.7312  0.1578 -0.0183
  833MPD2    C312247   2.919   0.188  12.561 -0.0270  0.0391  0.5366
  833MPD2    C412248   2.900   0.091  12.657  0.6058 -0.8188  0.7445
  833MPD2    C512249   2.807   0.111  12.754  0.6791  0.1923  0.0334
  833MPD2     H12250   2.846   0.381  12.491  0.6868  0.0007 -0.1802
  833MPD2    H112251   2.938   4.713  12.640  1.6033 -0.3215  0.0505
  833MPD2    H212252   2.675   0.246  12.858  2.2018  0.6414  0.6741
  833MPD2    H312253   2.793   0.024  12.818  1.5515  0.8308  1.0777
  833MPD2     N12254   3.008   0.154  12.451  0.0388 -0.0528 -0.2981
  833MPD2    H512255   3.069   0.074  12.463 -0.9169 -1.0121 -1.8008
  833MPD2    N112256   2.686   0.451  12.699 -0.1581  0.2640  0.3282
  833MPD2    H712257   2.620   0.446  12.776  1.1071  0.6661  1.4342
  834MPD2     C12258   2.787   4.290  11.731 -0.0020  0.2539  0.0835
  834MPD2    C112259   2.810   4.396  11.649  0.1676 -0.5795 -0.0686
  834MPD2    C212260   2.883   4.510  11.700  0.0981 -0.4270 -0.2879
  834MPD2    C312261   2.921   4.507  11.832 -0.8945  0.2207  0.6061
  834MPD2    C412262   2.896   4.392  11.906 -0.2092  0.4869  0.6814
  834MPD2    C512263   2.838   4.285  11.852 -0.0311 -0.0915 -0.7789
  834MPD2     H12264   2.883   4.598  11.637 -2.2055 -0.2465 -0.0561
  834MPD2    H112265   2.930   4.386  12.009  1.1351  0.9070  0.2562
  834MPD2    H212266   2.731   4.205  11.693  0.9953 -0.8077  0.9974
  834MPD2    H312267   2.825   4.195  11.910  0.7580  0.4396  0.2391
  834MPD2     N12268   2.989   4.625  11.877  0.6866 -0.6820  0.2027
  834MPD2    H512269   2.988   4.702  11.811  0.0108 -0.7879  0.0984
  834MPD2    N112270   2.739   4.381  11.532 -0.2885 -0.5384 -0.6050
  834MPD2    H712271   2.681   4.298  11.534 -1.2124  0.0146 -4.9812
  835MPD2     C12272   3.293   2.374  11.225 -0.3817  0.6708  0.7628
  835MPD2    C112273   3.221   2.443  11.324 -0.4991 -0.2077  0.0528
  835MPD2    C212274   3.270   2.460  11.449  0.1334  0.1225 -0.6943
  835MPD2    C312275   3.395   2.435  11.477 -0.2223 -0.1885 -0.1818
  835MPD2    C412276   3.465   2.373  11.377  0.4791  0.9582  0.4320
  835MPD2    C512277   3.420   2.335  11.253  0.3488  0.1562 -0.0798
  835MPD2     H12278   3.204   2.507  11.522  0.1290  0.0063 -0.6238
  835MPD2    H112279   3.560   2.340  11.417  0.1263 -2.4392 -1.5390
  835MPD2    H212280   3.253   2.352  11.126 -0.0071 -1.7051  1.1366
  835MPD2    H312281   3.483   2.277  11.187  1.8003  1.8208 -0.1297
  835MPD2     N12282   3.457   2.463  11.596  0.4433 -0.4976  0.2300
  835MPD2    H512283   3.557   2.443  11.605  0.9464  1.7588 -0.4595
  835MPD2    N112284   3.091   2.489  11.299  0.0237 -0.3005  0.1905
  835MPD2    H712285   3.052   2.530  11.384 -1.0322  1.9529 -1.3756
  836MPD2     C12286   2.972   2.720  11.937  0.1057  0.4958  0.4334
  836MPD2    C112287   3.057   2.704  12.045 -0.0625 -0.2449 -0.0736
  836MPD2    C212288   3.007   2.743  12.167 -0.4512  0.4064 -0.2576
  836MPD2    C312289   2.873   2.769  12.188  0.2177 -0.1277  0.3435
  836MPD2    C412290   2.781   2.760  12.086  0.1272  0.2385  0.4553
  836MPD2    C512291   2.834   2.745  11.959 -0.2914 -0.1245  0.5582
  836MPD2     H12292   3.078   2.751  12.249 -0.9209  2.3905 -0.0511
  836MPD2    H112293   2.674   2.777  12.097 -0.0451 -0.0862 -0.6366
  836MPD2    H212294   3.006   2.707  11.835  1.8468  2.6247  0.7233
  836MPD2    H312295   2.776   2.747  11.868  0.3568  0.9294  0.1703
  836MPD2     N12296   2.820   2.793  12.316  0.1832  0.3301  0.6056
  836MPD2    H512297   2.729   2.837  12.318 -0.8622 -1.8114  0.0680
  836MPD2    N112298   3.194   2.686  12.017 -0.4505  0.9294  0.2693
  836MPD2    H712299   3.225   2.681  11.921  1.1309  0.3831  0.8091
  837MPD2     C12300   1.352   1.857  10.001  0.0110  0.0520 -0.3375
  837MPD2    C112301   1.211   1.890  10.003  0.1294 -0.5681 -0.4198
  837MPD2    C212302   1.173   2.011  10.057  0.6066 -0.0088 -0.3333
  837MPD2    C312303   1.266   2.105  10.093  0.0019 -0.8088 -1.0343
  837MPD2    C412304   1.398   2.085  10.061 -0.2695  0.3176  0.0588
  837MPD2    C512305   1.438   1.962  10.020 -0.1086  0.1704 -0.2209
  837MPD2     H12306   1.071   2.041  10.076  0.3948 -1.2926  0.5837
  837MPD2    H112307   1.479   2.154  10.085 -1.7068  1.5341  1.4406
  837MPD2    H212308   1.390   1.762   9.967 -2.3968 -0.6853 -1.0095
  837MPD2    H312309   1.544   1.942  10.006  0.2453 -0.0663  2.8365
  837MPD2     N12310   1.209   2.220  10.160 -0.0217  0.3455 -0.2667
  837MPD2    H512311   1.111   2.228  10.185  0.8302  1.4136  2.6522
  837MPD2    N112312   1.111   1.805   9.957 -0.3284 -0.2989 -0.1704
  837MPD2    H712313   1.013   1.832   9.965 -0.3688 -0.3757 -0.4123
  838MPD2     C12314   3.989   0.492  11.601 -0.5015  0.4220  0.3482
  838MPD2    C112315   4.028   0.400  11.503  0.3293 -0.1751 -0.1056
  838MPD2    C212316   3.937   0.347  11.416  0.4238  0.0086 -0.4371
  838MPD2    C312317   3.801   0.364  11.437 -0.0785 -0.0406 -0.0724
  838MPD2    C412318   3.758   0.434  11.551  0.3964 -0.2689 -0.9410
  838MPD2    C512319   3.853   0.498  11.627  0.1794 -0.1346  0.0094
  838MPD2     H12320   3.971   0.279  11.339 -0.6512 -2.3266  1.1290
  838MPD2    H112321   3.654   0.448  11.579  1.3194  1.0736  1.7846
  838MPD2    H212322   4.057   0.536  11.672 -0.4916 -1.0240  1.2354
  838MPD2    H312323   3.825   0.563  11.709  0.7646 -1.3762  1.2047
  838MPD2     N12324   3.698   0.292  11.371 -0.0780 -0.2606 -0.2778
  838MPD2    H512325   3.604   0.317  11.398  0.3010  1.9769 -0.9763
  838MPD2    N112326   4.156   0.345  11.485  0.5955 -0.1156 -0.0044
  838MPD2    H712327   4.171   0.270  11.418 -0.4583 -0.5883  0.2802
  839MPD2     C12328   4.219   4.291  11.063 -0.9720 -0.3023 -0.2032
  839MPD2    C112329   4.125   4.384  11.101  0.3570 -0.4760 -0.1584
  839MPD2    C212330   4.167   4.497  11.171  0.4672  0.4236 -0.1877
  839MPD2    C312331   4.310   4.520  11.192  0.5334 -0.0977 -0.1943
  839MPD2    C412332   4.396   4.433  11.141  0.3634  0.8116  0.5329
  839MPD2    C512333   4.349   4.311  11.085  0.0673 -0.0181  0.6100
  839MPD2     H12334   4.091   4.568  11.204 -0.0697 -0.4713  0.4999
  839MPD2    H112335   4.501   4.460  11.147  0.5556  0.1460  0.2606
  839MPD2    H212336   4.205   4.201  11.004  2.3126 -1.5667  0.9282
  839MPD2    H312337   4.429   4.243  11.058  1.5626  1.9676  0.0231
  839MPD2     N12338   4.368   4.627  11.265  0.7578  0.3895  0.0639
  839MPD2    H512339   4.469   4.623  11.272  0.7426  0.4854  0.3267
  839MPD2    N112340   3.996   4.342  11.076  0.4419  0.2830 -0.2307
  839MPD2    H712341   3.993   4.254  11.026  1.5653  0.9896 -1.5589
  840MPD2     C12342   4.617   2.243  10.072 -0.3860  0.1122  0.2645
  840MPD2    C112343   4.565   2.234  10.199  0.3185  0.0469 -0.5037
  840MPD2    C212344   4.622   2.309  10.298  0.3838 -0.3885  0.2119
  840MPD2    C312345   0.012   2.390  10.275  0.1785  0.4409 -0.1068
  840MPD2    C412346   0.056   2.410  10.148 -0.7590  0.2434 -0.2366
  840MPD2    C512347   0.000   2.328  10.051 -0.5655  0.0704  0.3237
  840MPD2     H12348   4.575   2.302  10.396  0.5911 -1.3572  0.2423
  840MPD2    H112349   0.121   2.491  10.118 -1.2601  0.9515  0.5862
  840MPD2    H212350   4.593   2.182   9.986 -0.0964  3.1066 -1.9283
  840MPD2    H312351   0.054   2.319   9.957  0.2542 -0.4647  0.8509
  840MPD2     N12352   0.072   2.469  10.382 -0.0329 -0.4870  0.9043
  840MPD2    H512353   0.149   2.530  10.358 -0.7048 -0.7218 -1.8160
  840MPD2    N112354   4.440   2.166  10.207 -0.1852 -0.1561 -0.5999
  840MPD2    H712355   4.404   2.124  10.121  3.2234 -2.5983 -0.8285
  841MPD2     C12356   4.409   2.446  14.416  0.2541 -0.2341 -0.0879
  841MPD2    C112357   4.427   2.344  14.322  0.4150 -0.1155  0.4559
  841MPD2    C212358   4.511   2.368  14.217 -0.3722 -0.4600 -0.1270
  841MPD2    C312359   4.581   2.489  14.200  0.3386 -0.3446  0.5341
  841MPD2    C412360   4.551   2.590  14.280  0.2459  1.1514 -0.3040
  841MPD2    C512361   4.460   2.575  14.390  0.5300 -0.1538  0.0552
  841MPD2     H12362   4.535   2.281  14.156 -2.4611  0.8497 -2.7958
  841MPD2    H112363   4.612   2.680  14.285  2.0571 -0.1027  0.3628
  841MPD2    H212364   4.349   2.432  14.505 -1.7807  0.2714 -1.3590
  841MPD2    H312365   4.438   2.656  14.459 -0.7592 -1.0191  0.6406
  841MPD2     N12366   4.690   2.496  14.106 -0.0743 -0.1371  0.2073
  841MPD2    H512367   4.722   2.410  14.062 -0.4109 -0.4174  0.5112
  841MPD2    N112368   4.376   2.215  14.333 -0.1965  0.1383 -0.0242
  841MPD2    H712369   4.409   2.147  14.264 -1.4392  0.9220 -1.3876
  842MPD2     C12370   0.310   3.369  16.993 -0.3340 -0.1249  0.0964
  842MPD2    C112371   0.193   3.293  16.954  0.2115 -0.5603  0.6576
  842MPD2    C212372   0.134   3.219  17.045  0.9466 -1.2225  0.0052
  842MPD2    C312373   0.179   3.219  17.179  0.0941  0.1191 -0.2467
  842MPD2    C412374   0.301   3.278  17.212  0.4770 -0.3444  0.2630
  842MPD2    C512375   0.360   3.355  17.114 -0.0711  0.6865 -0.7690
  842MPD2     H12376   0.037   3.175  17.022 -0.3707  1.3079  0.7357
  842MPD2    H112377   0.349   3.266  17.308 -1.5884 -0.6073  1.2577
  842MPD2    H212378   0.369   3.429  16.925 -1.3665  2.1511  1.2123
  842MPD2    H312379   0.456   3.400  17.135 -0.7295  0.2401  3.1503
  842MPD2     N12380   0.116   3.164  17.293 -0.2797 -0.3235 -0.7661
  842MPD2    H512381   0.167   3.170  17.380  2.0493  0.0730 -2.1512
  842MPD2    N112382   0.145   3.296  16.817 -0.2992  0.6261 -0.1696
  842MPD2    H712383   0.192   3.373  16.770  0.4749 -0.8785 -1.8829
  843MPD2     C12384   2.290   3.659  17.637  0.4733 -0.2771 -0.1579
  843MPD2    C112385   2.345   3.567   0.034  0.3369  0.5139  0.2026
  843MPD2    C212386   2.466   3.603   0.097 -0.8044  0.2526 -0.4729
  843MPD2    C312387   2.522   3.727   0.091  0.4311  0.4771  0.0443
  843MPD2    C412388   2.463   3.819   0.002 -0.1869 -0.0917  0.1619
  843MPD2    C512389   2.352   3.779  17.623 -0.4143  0.0080  0.2068
  843MPD2     H12390   2.509   3.525   0.159 -0.4400  2.3257  1.9043
  843MPD2    H112391   2.489   3.924  17.684  1.7266 -0.4658  1.3618
  843MPD2    H212392   2.201   3.636  17.580 -0.8550 -2.2384  2.6947
  843MPD2    H312393   2.296   3.846  17.558  1.6639  1.5582  0.0029
  843MPD2     N12394   2.645   3.760   0.154  0.0692 -0.0685  0.5612
  843MPD2    H512395   2.682   3.854   0.145 -0.4883  0.0121 -0.9553
  843MPD2    N112396   2.278   3.443   0.054 -0.0617  0.4851  0.4537
  843MPD2    H712397   2.201   3.423  17.681 -1.5634  0.2141  2.3452
  844MPD2     C12398   0.715   2.789  16.473  0.1693 -0.2293 -0.0274
  844MPD2    C112399   0.822   2.720  16.453  0.1025 -0.4085  0.3736
  844MPD2    C212400   0.936   2.773  16.510  0.1136  0.6403 -0.3286
  844MPD2    C312401   0.949   2.900  16.573  0.0560  0.4019  0.0895
  844MPD2    C412402   0.829   2.974  16.572 -0.1931 -0.2690 -0.6836
  844MPD2    C512403   0.722   2.916  16.518 -0.4793  0.5635 -0.2507
  844MPD2     H12404   1.024   2.711  16.497 -2.2421 -2.6300 -0.6779
  844MPD2    H112405   0.826   3.073  16.616 -1.5944  0.4326 -2.3955
  844MPD2    H212406   0.621   2.749  16.437  0.0374  0.5877 -0.5977
  844MPD2    H312407   0.633   2.977  16.511 -2.3565 -2.1507  0.0070
  844MPD2     N12408   1.066   2.940  16.645  0.1356  0.3783  0.4177
  844MPD2    H512409   1.136   2.867  16.656  0.5006  1.0981  2.8847
  844MPD2    N112410   0.829   2.586  16.404  0.5346 -0.4177  0.6434
  844MPD2    H712411   0.923   2.549  16.392  0.0523 -0.9945 -1.3348
  845MPD2     C12412   1.423   3.725  17.199  0.7696  0.6675  0.3991
  845MPD2    C112413   1.292   3.680  17.201  0.1234  0.5376  0.5830
  845MPD2    C212414   1.266   3.545  17.174 -0.2366 -0.0052 -0.4842
  845MPD2    C312415   1.367   3.472  17.116 -0.1982 -0.4736  0.1044
  845MPD2    C412416   1.493   3.528  17.091 -0.4019  0.7403 -0.1260
  845MPD2    C512417   1.516   3.653  17.132  0.0924 -0.5106 -0.1008
  845MPD2     H12418   1.166   3.504  17.176 -0.0782 -0.3682  0.3188
  845MPD2    H112419   1.571   3.472  17.041  1.5644  1.5767  1.9886
  845MPD2    H212420   1.454   3.823  17.233  0.7220  0.5794  0.6964
  845MPD2    H312421   1.612   3.698  17.108  0.2550 -0.9240 -0.2239
  845MPD2     N12422   1.328   3.347  17.060 -0.1807  0.1905 -0.1496
  845MPD2    H512423   1.233   3.319  17.078 -0.6474  1.5128 -0.5443
  845MPD2    N112424   1.193   3.775  17.244  0.4984  0.4879  0.0000
  845MPD2    H712425   1.211   3.875  17.243  0.9353  0.4088 -0.1710
  846MPD2     C12426   2.061   4.288  13.538 -0.8979 -0.3388  0.0986
  846MPD2    C112427   2.121   4.413  13.532  0.6468 -0.0762  0.0608
  846MPD2    C212428   2.172   4.469  13.652 -0.1158 -0.1146  0.3893
  846MPD2    C312429   2.160   4.400  13.767  0.4141 -0.3449  0.0681
  846MPD2    C412430   2.100   4.275  13.771  0.4197  0.0880 -0.2995
  846MPD2    C512431   2.052   4.222  13.655  0.6265 -0.6455 -0.5152
  846MPD2     H12432   2.234   4.558  13.650 -0.9442  0.4719  1.4138
  846MPD2    H112433   2.097   4.221  13.865 -0.4541 -1.0806 -1.0009
  846MPD2    H212434   2.035   4.237  13.446 -2.3459  0.0713  0.2824
  846MPD2    H312435   2.013   4.121  13.649  1.5549 -0.8327 -3.2670
  846MPD2     N12436   2.196   4.461  13.887  0.1976  0.4715  0.5063
  846MPD2    H512437   2.211   4.562  13.890 -1.0587  0.7330 -2.1189
  846MPD2    N112438   2.124   4.493  13.422  0.2427 -0.2539 -0.5953
  846MPD2    H712439   2.190   4.570  13.428 -0.6224  0.6926 -3.0820
  847MPD2     C12440   2.344   0.527  15.411 -0.9436  0.1104  0.3929
  847MPD2    C112441   2.473   0.520  15.450 -0.4671  0.5407  0.0319
  847MPD2    C212442   2.527   0.391  15.481 -0.5421 -0.4616 -0.0710
  847MPD2    C312443   2.446   0.276  15.485 -0.1267  0.5795 -0.3016
  847MPD2    C412444   2.319   0.292  15.455  0.9601 -0.7546 -0.6114
  847MPD2    C512445   2.272   0.411  15.411 -0.0854 -0.2056  0.1393
  847MPD2     H12446   2.626   0.382  15.525  0.4422  1.6462 -1.8791
  847MPD2    H112447   2.254   0.206  15.449 -0.5322  0.3632 -0.4431
  847MPD2    H212448   2.290   0.613  15.374 -3.0277 -1.4644 -0.2486
  847MPD2    H312449   2.177   0.407  15.360  0.0831  1.5461 -0.3104
  847MPD2     N12450   2.512   0.157  15.521  0.6056  0.1736  0.4225
  847MPD2    H512451   2.614   0.163  15.520  0.6100  0.1499  0.7258
  847MPD2    N112452   2.564   0.629  15.449  0.3547  0.4013 -0.3035
  847MPD2    H712453   2.661   0.602  15.463  0.9107  1.3758 -2.1732
  848MPD2     C12454   0.380   3.254  16.333 -0.0693 -0.2213  0.2607
  848MPD2    C112455   0.471   3.298  16.424  0.1002 -0.7154  0.1332
  848MPD2    C212456   0.559   3.401  16.385 -0.3367  0.1719 -0.2185
  848MPD2    C312457   0.523   3.475  16.270  0.2923  0.1545 -0.5940
  848MPD2    C412458   0.427   3.431  16.183 -0.0896 -0.1247 -0.5317
  848MPD2    C512459   0.356   3.320  16.217  0.0466 -0.0432  0.4551
  848MPD2     H12460   0.634   3.440  16.454 -1.4619 -0.8826  1.5974
  848MPD2    H112461   0.413   3.479  16.087 -1.3549  0.2542 -0.1650
  848MPD2    H212462   0.318   3.169  16.357  0.6968 -0.5962  0.9028
  848MPD2    H312463   0.284   3.281  16.146 -1.5527  1.8544  1.0230
  848MPD2     N12464   0.575   3.603  16.236  0.0156 -0.0077  1.4266
  848MPD2    H512465   0.548   3.652  16.151  1.7856 -1.1652  0.2060
  848MPD2    N112466   0.498   3.246  16.551 -0.0195  0.1753 -0.1114
  848MPD2    H712467   0.573   3.290  16.602 -0.3303  0.2383  0.2932
  849MPD2     C12468   4.132   3.507  13.748 -0.1064 -0.9189 -0.6242
  849MPD2    C112469   4.251   3.442  13.752 -0.1118  0.1942 -0.6514
  849MPD2    C212470   4.271   3.339  13.843 -0.2168 -0.3052 -0.1890
  849MPD2    C312471   4.174   3.306  13.925 -0.6839 -0.0936  0.5827
  849MPD2    C412472   4.055   3.373  13.932  0.0637 -0.5290  0.4328
  849MPD2    C512473   4.035   3.474  13.840 -0.4165 -0.6116 -0.5402
  849MPD2     H12474   4.366   3.286  13.847 -0.3590 -0.4499  1.2585
  849MPD2    H112475   3.983   3.351  14.011 -0.9803  1.6680  0.0991
  849MPD2    H212476   4.119   3.596  13.686  0.0198 -1.6362 -1.6891
  849MPD2    H312477   3.945   3.534  13.849  0.6868  0.8513  0.7726
  849MPD2     N12478   4.206   3.198  14.013  0.7045  0.3421  0.2646
  849MPD2    H512479   4.286   3.145  13.980 -0.0869 -1.6674  1.5698
  849MPD2    N112480   4.361   3.465  13.670 -0.3072  0.6221  0.4431
  849MPD2    H712481   4.447   3.414  13.691 -1.1883 -0.8833  0.4003
  850MPD2     C12482   2.630   1.330  15.189 -0.7444  0.1583  0.1982
  850MPD2    C112483   2.709   1.298  15.303  0.4131  1.6703 -0.5112
  850MPD2    C212484   2.840   1.259  15.279 -0.6787 -0.4055  0.5837
  850MPD2    C312485   2.895   1.258  15.155 -0.1313  0.2849  0.5066
  850MPD2    C412486   2.815   1.286  15.049 -0.8683  0.2860 -0.2070
  850MPD2    C512487   2.686   1.325  15.066  0.6119 -0.3224 -0.3210
  850MPD2     H12488   2.889   1.215  15.365 -0.4102  0.1962  0.7423
  850MPD2    H112489   2.845   1.277  14.945 -1.4075 -0.4125 -0.2977
  850MPD2    H212490   2.527   1.363  15.192 -0.4631  1.2072 -1.2722
  850MPD2    H312491   2.625   1.351  14.980 -2.1068  0.8391  1.9501
  850MPD2     N12492   3.029   1.218  15.126 -0.4160  0.1049  0.2528
  850MPD2    H512493   3.060   1.217  15.029 -0.1115  1.8682  0.3175
  850MPD2    N112494   2.657   1.286  15.435  0.3640 -0.0856 -0.6298
  850MPD2    H712495   2.723   1.245  15.501 -0.5459  0.2262  0.4773
  851MPD2     C12496   2.827   0.795  15.828  0.3100  0.3528 -0.0568
  851MPD2    C112497   2.695   0.838  15.839 -0.4076  0.1053  0.0486
  851MPD2    C212498   2.598   0.750  15.870 -0.2753 -0.7391  0.0029
  851MPD2    C312499   2.625   0.617  15.871 -0.4315 -0.5402  0.4542
  851MPD2    C412500   2.755   0.572  15.856 -0.4680 -0.2408 -0.1645
  851MPD2    C512501   2.856   0.663  15.842  0.3392  0.2204  0.1132
  851MPD2     H12502   2.494   0.778  15.866  0.0871  0.8497  1.5971
  851MPD2    H112503   2.779   0.466  15.855 -2.5222 -0.6981 -0.0873
  851MPD2    H212504   2.911   0.859  15.805  0.0308  0.1481 -1.6558
  851MPD2    H312505   2.956   0.627  15.828  0.4730 -0.2289  2.2149
  851MPD2     N12506   2.522   0.528  15.886  0.1980  0.5070 -0.1593
  851MPD2    H512507   2.427   0.562  15.891  0.7048  1.8797  0.3155
  851MPD2    N112508   2.666   0.967  15.810 -0.0992 -0.7098 -0.1605
  851MPD2    H712509   2.729   1.009  15.741 -1.0014  0.0170 -0.5470
  852MPD2     C12510   2.087   3.279  10.018  0.3414  0.8412 -1.1707
  852MPD2    C112511   2.078   3.372  10.119 -0.1809 -0.0905 -0.3023
  852MPD2    C212512   2.110   3.504  10.092 -0.5926 -0.0469  0.0717
  852MPD2    C312513   2.171   3.546   9.974 -0.2865  0.1591 -0.2246
  852MPD2    C412514   2.183   3.451   9.872  0.5424  0.1681  0.3273
  852MPD2    C512515   2.134   3.321   9.897  0.4148 -0.4331 -0.9051
  852MPD2     H12516   2.098   3.578  10.170 -2.0736  0.2720 -0.4557
  852MPD2    H112517   2.211   3.468   9.768 -0.2819  1.0813  0.2493
  852MPD2    H212518   2.051   3.177  10.020  0.3968  0.8584  0.1904
  852MPD2    H312519   2.136   3.245   9.820  1.5781 -1.0246 -0.2983
  852MPD2     N12520   2.203   3.683   9.959 -0.3853 -1.0821 -0.0951
  852MPD2    H512521   2.190   3.745  10.038 -0.4681  0.9562 -1.7173
  852MPD2    N112522   2.032   3.343  10.246 -0.2555 -0.6193  0.0589
  852MPD2    H712523   2.011   3.423  10.305  1.1438 -0.6779  0.6285
  853MPD2     C12524   4.263   3.662  12.025 -0.0817 -0.2347 -0.5544
  853MPD2    C112525   4.129   3.692  12.040 -0.4757 -0.1662  0.3264
  853MPD2    C212526   4.037   3.615  11.966  0.4653 -0.3077  1.1998
  853MPD2    C312527   4.077   3.516  11.875  0.8550  0.3284 -0.2824
  853MPD2    C412528   4.217   3.495  11.867  0.5869 -0.3036  0.3092
  853MPD2    C512529   4.306   3.569  11.939  0.1593  0.0290  0.3077
  853MPD2     H12530   3.932   3.628  11.992  0.5791  2.4776  0.1987
  853MPD2    H112531   4.259   3.420  11.802  0.0451 -0.5261  0.2206
  853MPD2    H212532   4.338   3.711  12.085 -1.1242 -2.0829  2.2573
  853MPD2    H312533   4.412   3.549  11.926 -0.1436  0.2346 -2.4265
  853MPD2     N12534   3.996   3.432  11.802  0.5017  0.3062  0.0456
  853MPD2    H512535   4.050   3.378  11.735 -1.2385  1.6125 -2.4106
  853MPD2    N112536   4.090   3.790  12.135 -0.1019 -0.5843  0.1025
  853MPD2    H712537   4.161   3.831  12.194  1.4316 -0.7452 -1.6228
  854MPD2     C12538   0.948   4.098  12.888 -0.5073  0.1607  0.0056
  854MPD2    C112539   0.936   3.999  12.791  0.1870  0.5582  0.3044
  854MPD2    C212540   1.017   3.878  12.798  0.7731  0.0689 -0.1920
  854MPD2    C312541   1.101   3.868  12.909 -0.2149 -0.0600 -0.4188
  854MPD2    C412542   1.105   3.964  13.011 -1.5221  0.0425  0.3144
  854MPD2    C512543   1.025   4.071  12.998  0.5395  0.2450  0.4217
  854MPD2     H12544   1.002   3.796  12.729 -0.7347 -1.5967  2.0905
  854MPD2    H112545   1.173   3.958  13.095  1.3334 -1.7082 -2.0829
  854MPD2    H212546   0.880   4.182  12.882 -0.9972 -0.0636  2.8452
  854MPD2    H312547   1.019   4.137  13.084  0.6643  0.4879  0.2439
  854MPD2     N12548   1.180   3.751  12.937 -0.5224  0.3934  0.0529
  854MPD2    H512549   1.221   3.746  13.030 -0.5331  1.6613  0.1304
  854MPD2    N112550   0.844   4.019  12.692  0.9466 -0.3075  0.2556
  854MPD2    H712551   0.791   4.105  12.701  1.4495  0.3253 -3.1408
  855MPD2     C12552   1.556   3.829  13.647 -0.5491  0.7035  0.1391
  855MPD2    C112553   1.596   3.701  13.616  1.1810  0.0926  0.2223
  855MPD2    C212554   1.577   3.643  13.495  0.7149 -0.6747 -0.5713
  855MPD2    C312555   1.530   3.718  13.385 -0.5896 -0.2299 -0.2553
  855MPD2    C412556   1.497   3.846  13.414 -0.7676 -0.2511 -0.2186
  855MPD2    C512557   1.498   3.903  13.539 -0.0793 -0.2520 -0.1045
  855MPD2     H12558   1.596   3.537  13.480  2.6465  0.0976 -3.4866
  855MPD2    H112559   1.456   3.914  13.341  0.6676 -0.6902 -1.4159
  855MPD2    H212560   1.545   3.871  13.746  1.6312  1.8410 -0.0931
  855MPD2    H312561   1.470   4.007  13.554  0.5215 -0.3037  1.3368
  855MPD2     N12562   1.505   3.663  13.256  0.0506  0.4818  0.1361
  855MPD2    H512563   1.469   3.730  13.189 -1.9650 -0.6291  0.1011
  855MPD2    N112564   1.619   3.615  13.727  0.0466  0.4336 -0.2295
  855MPD2    H712565   1.603   3.518  13.702 -1.6154 -0.2086  3.3075
  856MPD2     C12566   3.097   4.322  13.583 -0.7312  0.2254 -0.0178
  856MPD2    C112567   3.174   4.392  13.672 -0.2021 -0.8580 -0.3046
  856MPD2    C212568   3.120   4.483  13.751  0.1236  0.2108 -0.0118
  856MPD2    C312569   2.991   4.517  13.738 -0.1218 -0.3387 -0.5126
  856MPD2    C412570   2.918   4.455  13.645 -0.3739 -0.2178 -0.2923
  856MPD2    C512571   2.968   4.359  13.566  0.4478 -0.5702  0.7024
  856MPD2     H12572   3.183   4.535  13.822  0.0778  1.3345 -0.7884
  856MPD2    H112573   2.813   4.485  13.641 -0.2823  0.4009  1.9103
  856MPD2    H212574   3.129   4.244  13.515 -0.9635 -0.2522  0.4206
  856MPD2    H312575   2.910   4.314  13.486  1.3394 -1.7463  0.7171
  856MPD2     N12576   2.922   4.619  13.807 -0.3875 -0.3289 -0.0504
  856MPD2    H512577   2.849   4.668  13.756 -1.6154 -1.3537  0.7259
  856MPD2    N112578   3.313   4.364  13.685 -0.1397  0.0556  0.3595
  856MPD2    H712579   3.358   4.422  13.755  0.9921 -0.7746  0.3243
  857MPD2     C12580   0.143   2.231  12.752 -0.0187 -0.0884  0.3727
  857MPD2    C112581   0.257   2.226  12.832 -1.0163 -0.4789  0.4523
  857MPD2    C212582   0.308   2.342  12.896 -0.3946  0.5221 -0.0610
  857MPD2    C312583   0.243   2.464  12.878 -0.1803 -0.8098  0.2879
  857MPD2    C412584   0.128   2.464  12.802  0.6055  0.6228  0.0401
  857MPD2    C512585   0.079   2.353  12.742  0.1276 -0.0287 -0.3149
  857MPD2     H12586   0.398   2.333  12.956 -0.7380 -2.2013  0.0418
  857MPD2    H112587   0.064   2.551  12.796 -1.0256 -0.5825 -0.1803
  857MPD2    H212588   0.105   2.146  12.696  0.7188 -1.3776  1.8389
  857MPD2    H312589   4.708   2.360  12.688 -0.2429 -0.5229  0.2655
  857MPD2     N12590   0.296   2.573  12.946  0.2717 -0.7340  0.5056
  857MPD2    H512591   0.385   2.560  12.994  1.0530  0.7095 -0.5044
  857MPD2    N112592   0.329   2.108  12.839 -0.1307 -0.1169 -0.3351
  857MPD2    H712593   0.277   2.026  12.808 -1.0827 -0.2266  1.5233
  858MPD2     C12594   0.822   0.147  16.971  0.3792 -0.3930  0.6337
  858MPD2    C112595   0.799   0.276  16.935  0.1523  0.3793  0.7428
  858MPD2    C212596   0.819   0.383  17.024  0.2778 -0.3462  0.2190
  858MPD2    C312597   0.871   0.355  17.152  0.6867 -0.5628 -0.3689
  858MPD2    C412598   0.899   0.225  17.187 -0.2406  0.2680  0.0691
  858MPD2    C512599   0.874   0.121  17.096 -0.0996  0.1012 -0.4522
  858MPD2     H12600   0.792   0.486  17.001  1.2677 -0.0078  0.5908
  858MPD2    H112601   0.941   0.201  17.284 -3.5679 -2.1703  0.9477
  858MPD2    H212602   0.812   0.062  16.904 -1.4582  0.7877 -0.5850
  858MPD2    H312603   0.895   0.020  17.131 -0.7116  0.5250  1.1741
  858MPD2     N12604   0.887   0.455  17.252 -0.4624 -0.4808  0.5719
  858MPD2    H512605   0.929   0.430  17.341  0.1992  0.8371  0.6252
  858MPD2    N112606   0.759   0.288  16.797  0.2649  0.4688  0.0713
  858MPD2    H712607   0.762   0.205  16.739 -0.5382  1.2771 -1.1034
  859MPD2     C12608   4.130   2.900  14.640  0.1175 -0.1259 -0.2608
  859MPD2    C112609   4.175   2.911  14.770  0.1188  0.0787  0.2607
  859MPD2    C212610   4.232   2.794  14.827 -0.6864 -0.2451  0.2506
  859MPD2    C312611   4.236   2.671  14.763  0.0610 -0.0799 -0.7929
  859MPD2    C412612   4.190   2.670  14.635  0.6106  0.1901  0.4936
  859MPD2    C512613   4.137   2.786  14.578  0.5623  0.1892 -0.4040
  859MPD2     H12614   4.286   2.809  14.920  1.4721 -1.5692 -0.7814
  859MPD2    H112615   4.175   2.581  14.575  2.6321 -0.5903  1.1514
  859MPD2    H212616   4.097   2.987  14.584 -2.8980  1.0859  3.3091
  859MPD2    H312617   4.090   2.779  14.480  0.8633 -1.0264 -0.4628
  859MPD2     N12618   4.296   2.551  14.812 -0.3372  0.0039 -0.0153
  859MPD2    H512619   4.297   2.470  14.750 -0.5750  0.1132 -0.1612
  859MPD2    N112620   4.136   3.022  14.843 -0.7207  0.1828 -0.7588
  859MPD2    H712621   4.103   3.101  14.788 -0.2887  0.9291  0.0629
  860MPD2     C12622   2.176   4.071  11.776  0.4189  0.5930 -0.3113
  860MPD2    C112623   2.145   4.060  11.916  0.5779  0.6057 -0.3633
  860MPD2    C212624   2.015   4.037  11.946  0.5196 -0.3596  0.5134
  860MPD2    C312625   1.921   4.008  11.843  0.3377 -0.6671 -0.3506
  860MPD2    C412626   1.949   4.020  11.709  0.9506  0.0380 -0.9564
  860MPD2    C512627   2.079   4.057  11.675  0.3704  0.1551  0.4779
  860MPD2     H12628   1.997   4.018  12.051 -0.1122 -1.2997  0.2260
  860MPD2    H112629   1.872   4.004  11.636 -1.5353 -0.3451  1.7624
  860MPD2    H212630   2.276   4.087  11.736  0.3268  1.3608 -0.2327
  860MPD2    H312631   2.115   4.054  11.573 -1.7893  1.4660 -0.3146
  860MPD2     N12632   1.796   3.966  11.882 -0.2283  0.5052 -0.0417
  860MPD2    H512633   1.777   3.989  11.979 -0.5344 -0.4131  0.1179
  860MPD2    N112634   2.231   4.089  12.021 -0.0109 -0.2886  0.2517
  860MPD2    H712635   2.183   4.108  12.109 -0.4596  1.3532 -0.3380
  861MPD2     C12636   0.943   2.022  11.302 -0.2162  0.2907  0.1834
  861MPD2    C112637   0.815   1.994  11.349  0.4295  0.0902 -0.6298
  861MPD2    C212638   0.712   1.998  11.259  0.2536  0.5020 -0.5550
  861MPD2    C312639   0.734   2.027  11.125  0.4696  0.6379  0.0824
  861MPD2    C412640   0.859   2.069  11.089  0.0889  0.7064 -0.1510
  861MPD2    C512641   0.967   2.063  11.181  1.4026  0.0857 -0.1633
  861MPD2     H12642   0.607   1.979  11.279  0.5038 -0.6203 -0.3417
  861MPD2    H112643   0.879   2.120  10.996  2.4083  0.3962  0.1806
  861MPD2    H212644   1.026   2.036  11.370  0.5869  0.9792 -0.9364
  861MPD2    H312645   1.071   2.077  11.154  1.9868 -0.9699  1.5021
  861MPD2     N12646   0.627   2.035  11.029 -0.1267  0.2986  0.4049
  861MPD2    H512647   0.529   2.033  11.055 -0.4550 -0.0228 -0.8457
  861MPD2    N112648   0.795   1.939  11.479 -0.1361 -0.0154  0.2406
  861MPD2    H712649   0.702   1.910  11.506 -0.3314  1.0439  0.6941
  862MPD2     C12650   0.216   2.088  10.387  0.0582  0.1830  0.0079
  862MPD2    C112651   0.330   2.040  10.451  0.7245  0.0371 -0.4559
  862MPD2    C212652   0.370   1.912  10.440  0.0559 -0.5919 -0.1721
  862MPD2    C312653   0.309   1.820  10.360 -0.2792  0.4776  0.2337
  862MPD2    C412654   0.198   1.870  10.294  0.0224  0.1434 -0.4340
  862MPD2    C512655   0.154   2.004  10.305  0.2893  0.2875  0.0853
  862MPD2     H12656   0.460   1.882  10.492 -1.4427 -2.1506  1.5374
  862MPD2    H112657   0.139   1.805  10.230 -2.1999  1.1547  0.6091
  862MPD2    H212658   0.178   2.190  10.393 -1.6771 -0.4086 -0.8408
  862MPD2    H312659   0.059   2.024  10.257  0.4743 -1.8150 -1.1518
  862MPD2     N12660   0.342   1.680  10.358  0.5224 -0.3207  0.4894
  862MPD2    H512661   0.265   1.618  10.335 -0.0454  1.4345 -2.3084
  862MPD2    N112662   0.412   2.114  10.537 -0.4343 -0.1018  0.4479
  862MPD2    H712663   0.474   2.056  10.593  1.5618  0.8116 -0.7919
  863MPD2     C12664   4.213   4.158  16.420  0.5304 -0.4228  0.0203
  863MPD2    C112665   4.168   4.265  16.489  0.1369 -0.1816 -0.0494
  863MPD2    C212666   4.236   4.289  16.612  0.0936  0.6986  0.1245
  863MPD2    C312667   4.340   4.213  16.663 -0.0168  0.5296 -0.5293
  863MPD2    C412668   4.373   4.102  16.593  0.1052  0.2033 -0.0672
  863MPD2    C512669   4.318   4.081  16.471  0.2152 -0.4916 -0.2143
  863MPD2     H12670   4.201   4.375  16.668  1.1083  1.7551 -0.8677
  863MPD2    H112671   4.459   4.040  16.617  0.9347  0.2057 -3.0365
  863MPD2    H212672   4.181   4.135  16.319 -1.7317 -0.5394  0.7612
  863MPD2    H312673   4.357   4.003  16.407 -0.9551 -0.4042 -1.0492
  863MPD2     N12674   4.408   4.234  16.783 -0.1910 -0.2144 -0.2111
  863MPD2    H512675   4.475   4.161  16.806 -2.6812 -2.1519  0.8327
  863MPD2    N112676   4.061   4.345  16.427  0.2024  0.5895 -0.3111
  863MPD2    H712677   4.031   4.328  16.331  0.7042  0.2507 -0.4083
  864MPD2     C12678   4.375   1.050  17.340 -0.6001  0.1600  0.0433
  864MPD2    C112679   4.421   0.989  17.227  0.0268 -0.3043  0.8191
  864MPD2    C212680   4.494   1.066  17.143 -0.0054  0.0208 -0.7716
  864MPD2    C312681   4.524   1.202  17.165 -0.7527  0.5680  0.1460
  864MPD2    C412682   4.459   1.257  17.280 -0.0368 -0.0185 -0.4402
  864MPD2    C512683   4.391   1.180  17.373 -0.0962  0.0312 -0.9703
  864MPD2     H12684   4.531   1.028  17.049 -2.4721 -2.8246 -0.5926
  864MPD2    H112685   4.481   1.361  17.301 -0.7700 -0.0744  0.5720
  864MPD2    H212686   4.322   0.989  17.412 -0.8471 -1.7858 -1.7903
  864MPD2    H312687   4.356   1.219  17.468 -1.0242 -2.4247 -0.3042
  864MPD2     N12688   4.609   1.281  17.082 -0.4770  0.3290  0.1154
  864MPD2    H512689   4.610   1.380  17.102  1.4902  0.5234 -0.9240
  864MPD2    N112690   4.401   0.853  17.203  0.4421 -0.0224 -0.1534
  864MPD2    H712691   4.344   0.795  17.263 -1.5301  0.4124 -1.5887
  865MPD2     C12692   0.269   1.610  16.414 -0.1839  0.1725 -0.3816
  865MPD2    C112693   0.184   1.532  16.476 -0.6070  0.0799  0.1291
  865MPD2    C212694   0.108   1.578  16.576  0.0304  0.5260  0.1563
  865MPD2    C312695   0.123   1.706  16.626 -0.9789 -0.0454  0.2024
  865MPD2    C412696   0.197   1.791  16.544 -0.0867  0.1986  0.2606
  865MPD2    C512697   0.279   1.744  16.444  0.1532 -0.0531 -0.0635
  865MPD2     H12698   0.034   1.519  16.629  3.0553 -4.9288 -1.6459
  865MPD2    H112699   0.206   1.896  16.570 -0.1760  0.9647 -2.7930
  865MPD2    H212700   0.324   1.571  16.329  0.7266 -1.0142  0.7674
  865MPD2    H312701   0.347   1.808  16.388  0.0973 -0.3959 -0.5288
  865MPD2     N12702   0.060   1.764  16.746  0.2476  0.2778  0.5468
  865MPD2    H512703   0.078   1.864  16.757  1.6286  0.2213 -1.2577
  865MPD2    N112704   0.173   1.400  16.423  0.7320  0.7502 -0.2745
  865MPD2    H712705   0.224   1.383  16.337 -0.0303 -1.5160 -0.2540
  866MPD2     C12706   1.250   2.570  11.801 -0.5323 -0.1316  0.3502
  866MPD2    C112707   1.290   2.586  11.671  0.0288  0.0584  0.2105
  866MPD2    C212708   1.187   2.586  11.575 -0.0875 -0.2051 -0.1456
  866MPD2    C312709   1.053   2.570  11.605 -0.0845  0.2581 -0.8779
  866MPD2    C412710   1.022   2.571  11.741  0.0249 -0.0656 -0.0717
  866MPD2    C512711   1.119   2.556  11.835 -0.4606 -0.6766  0.3133
  866MPD2     H12712   1.217   2.617  11.475  3.5546 -2.1516  0.3191
  866MPD2    H112713   0.917   2.575  11.765 -0.1269  0.5851 -0.8446
  866MPD2    H212714   1.320   2.576  11.883 -1.3628  2.3012  0.8665
  866MPD2    H312715   1.087   2.557  11.939  0.0589 -0.4416  0.4720
  866MPD2     N12716   0.951   2.557  11.508 -0.3871  0.1645 -0.4508
  866MPD2    H512717   0.858   2.584  11.540  0.8032  1.9116  1.5387
  866MPD2    N112718   1.423   2.614  11.646 -0.0430 -0.1326  0.2110
  866MPD2    H712719   1.481   2.642  11.725 -0.3818 -1.9221  1.0825
  867MPD2     C12720   4.395   0.833  16.654 -0.1631  0.3990 -0.8474
  867MPD2    C112721   4.286   0.837  16.732 -0.4663  0.8296 -0.4855
  867MPD2    C212722   4.250   0.949  16.800 -0.0905 -0.2079  0.1101
  867MPD2    C312723   4.333   1.062  16.774 -0.6703  0.2374 -0.1950
  867MPD2    C412724   4.440   1.050  16.691 -1.3446  0.1678 -0.2175
  867MPD2    C512725   4.484   0.936  16.639  0.1405 -0.1660  0.6413
  867MPD2     H12726   4.155   0.963  16.850 -0.4273 -0.7677 -0.3735
  867MPD2    H112727   4.504   1.137  16.680 -0.1853 -0.5680  0.7482
  867MPD2    H212728   4.428   0.746  16.598 -0.4818  0.6837 -1.4748
  867MPD2    H312729   4.568   0.932  16.570  0.6249 -0.1053  1.2335
  867MPD2     N12730   4.311   1.192  16.835 -0.1693  0.0873 -0.4537
  867MPD2    H512731   4.372   1.268  16.808 -0.7545  0.0486 -1.8796
  867MPD2    N112732   4.199   0.725  16.724 -0.5500  0.1895 -0.2511
  867MPD2    H712733   4.219   0.653  16.655 -0.6877 -1.0492  0.9870
  868MPD2     C12734   4.660   0.623  13.242  0.3701 -0.8388 -0.3508
  868MPD2    C112735   0.039   0.657  13.333 -0.6896 -0.2329 -0.1509
  868MPD2    C212736   0.011   0.631  13.467  0.2878  0.3263  0.3173
  868MPD2    C312737   4.619   0.566  13.513 -0.0901  0.2332  0.8476
  868MPD2    C412738   4.527   0.532  13.420  0.0664 -0.1615  0.8042
  868MPD2    C512739   4.551   0.555  13.286  0.1012 -0.0799 -0.1667
  868MPD2     H12740   0.090   0.651  13.539  2.2645 -1.2742 -1.4007
  868MPD2    H112741   4.440   0.475  13.449  0.6178 -1.6830 -0.5150
  868MPD2    H212742   4.677   0.643  13.137  0.0070 -0.6182 -0.3660
  868MPD2    H312743   4.480   0.525  13.210 -0.9215  1.2086  0.2628
  868MPD2     N12744   4.610   0.532  13.647 -0.1511 -0.2861  0.0540
  868MPD2    H512745   4.705   0.527  13.682 -0.2029  0.0730  0.2425
  868MPD2    N112746   0.159   0.698  13.285  0.0725 -0.2665  0.1318
  868MPD2    H712747   0.181   0.689  13.186  1.0883  0.0329  0.3244
  869MPD2     C12748   2.476   3.045   1.558 -0.2264 -0.3757  0.0580
  869MPD2    C112749   2.354   3.024   1.609  0.1606  0.0197 -0.4481
  869MPD2    C212750   2.241   3.017   1.527  0.5750 -0.3464  0.4267
  869MPD2    C312751   2.253   3.046   1.392  0.0699  0.1912  1.6210
  869MPD2    C412752   2.375   3.061   1.342  0.3624  0.4212  0.0121
  869MPD2    C512753   2.492   3.066   1.424  0.0072 -0.2038 -0.0987
  869MPD2     H12754   2.151   2.982   1.577  1.0535  0.5768  1.9171
  869MPD2    H112755   2.399   3.089   1.240 -3.4189 -0.9690 -1.2714
  869MPD2    H212756   2.560   3.025   1.623 -0.8049 -0.4391  0.7810
  869MPD2    H312757   2.588   3.078   1.374  0.1178 -1.9535 -0.3204
  869MPD2     N12758   2.149   3.055   1.299 -0.6004 -0.0937  0.8016
  869MPD2    H512759   2.171   3.072   1.201  1.4047 -0.1520  1.2526
  869MPD2    N112760   2.346   2.998   1.752  0.2887  1.0401 -0.4982
  869MPD2    H712761   2.431   2.969   1.799  0.1514 -0.4112 -1.1560
  870MPD2     C12762   1.670   1.085   1.553  0.8706  0.1194 -0.2046
  870MPD2    C112763   1.798   1.082   1.588 -0.6995 -0.4329 -0.5545
  870MPD2    C212764   1.870   1.200   1.593  0.0613  0.2223 -0.0943
  870MPD2    C312765   1.823   1.315   1.562  0.0880 -0.1140  0.5709
  870MPD2    C412766   1.688   1.323   1.513  0.3015  0.1428  0.7449
  870MPD2    C512767   1.618   1.200   1.510  0.7323 -0.0940  0.6970
  870MPD2     H12768   1.977   1.192   1.613  0.2322  0.6194 -0.8424
  870MPD2    H112769   1.644   1.419   1.489 -1.4206 -1.1920 -1.4026
  870MPD2    H212770   1.616   0.991   1.550 -1.0027  1.2632 -2.6709
  870MPD2    H312771   1.516   1.199   1.474  1.5077  0.7308 -1.4994
  870MPD2     N12772   1.905   1.442   1.550  0.3594 -0.3038 -0.0601
  870MPD2    H512773   1.856   1.526   1.520 -1.9547 -1.3977  0.6754
  870MPD2    N112774   1.851   0.960   1.644 -0.2844  0.1423  0.5220
  870MPD2    H712775   1.781   0.886   1.648 -2.1533  2.0123  2.6370
  871MPD2     C12776   2.412   1.243  16.367  0.3302 -0.5265 -0.4245
  871MPD2    C112777   2.399   1.197  16.494  1.1291  0.2051 -0.5813
  871MPD2    C212778   2.447   1.074  16.525  0.1882 -0.1490 -0.0644
  871MPD2    C312779   2.497   0.983  16.435  0.1600  0.5783  0.0068
  871MPD2    C412780   2.505   1.034  16.303 -0.2786  0.1451  0.0059
  871MPD2    C512781   2.471   1.163  16.274 -0.5690 -0.6637  0.6016
  871MPD2     H12782   2.440   1.039  16.627 -1.2861 -0.1352 -0.1609
  871MPD2    H112783   2.553   0.980  16.223  2.4606  2.0895  0.3310
  871MPD2    H212784   2.387   1.345  16.341 -1.0099 -0.4367  1.2058
  871MPD2    H312785   2.499   1.205  16.178  0.1011  0.7568  1.4146
  871MPD2     N12786   2.528   0.854  16.476 -0.3979 -0.4338  0.0522
  871MPD2    H512787   2.507   0.829  16.572 -0.5355  0.7178  0.3131
  871MPD2    N112788   2.344   1.290  16.589  0.3604  0.6353  0.2480
  871MPD2    H712789   2.289   1.365  16.547 -0.7639  0.6323  1.7274
  872MPD2     C12790   2.719   4.213  13.739  0.5306  0.2041  0.7417
  872MPD2    C112791   2.782   4.111  13.809  0.1046  0.9074 -0.7376
  872MPD2    C212792   2.756   4.086  13.948 -0.1249  0.1370 -0.4844
  872MPD2    C312793   2.654   4.169  14.004  0.4561 -0.0602 -0.6111
  872MPD2    C412794   2.587   4.255  13.923 -0.6493  0.1015 -0.5293
  872MPD2    C512795   2.613   4.283  13.792  0.4935  0.7420  0.1360
  872MPD2     H12796   2.807   4.006  13.999  1.0642  1.5248  0.4938
  872MPD2    H112797   2.512   4.314  13.975 -1.4596 -2.0889  0.8180
  872MPD2    H212798   2.736   4.237  13.634  2.4139  2.0098  1.4473
  872MPD2    H312799   2.548   4.340  13.727  0.6316 -0.2198 -0.8415
  872MPD2     N12800   2.620   4.158  14.141 -0.6524 -0.6858 -0.0385
  872MPD2    H512801   2.543   4.219  14.167  0.2348 -0.0280  1.0099
  872MPD2    N112802   2.885   4.033  13.746 -0.2004 -0.5635  0.1736
  872MPD2    H712803   2.931   3.962  13.801  0.8893  0.9070  1.1764
  873MPD2     C12804   0.064   3.109   0.969  0.0266  0.0392 -0.4597
  873MPD2    C112805   4.656   3.103   1.014 -0.0317  0.0077 -0.0531
  873MPD2    C212806   4.579   3.003   0.971 -0.0638 -0.6030 -0.2911
  873MPD2    C312807   4.623   2.905   0.883  0.7379  0.1112 -0.0619
  873MPD2    C412808   0.033   2.922   0.831  0.1852 -0.2497  0.0347
  873MPD2    C512809   0.120   3.014   0.887  0.2014  0.6151 -0.2086
  873MPD2     H12810   4.478   2.989   1.005 -0.6000 -0.2348 -1.7345
  873MPD2    H112811   0.081   2.846   0.770 -0.1232 -0.9938  0.7259
  873MPD2    H212812   0.132   3.185   1.007  1.8045 -0.6636 -2.2140
  873MPD2    H312813   0.224   3.009   0.859  0.1972  2.0302 -0.4757
  873MPD2     N12814   4.542   2.791   0.846 -0.0640  0.2142 -0.8490
  873MPD2    H512815   4.595   2.726   0.788 -1.4527 -2.0701  0.4557
  873MPD2    N112816   4.618   3.193   1.114  0.5353 -0.0197 -0.3553
  873MPD2    H712817   4.690   3.243   1.165  1.3906 -1.6703  0.0742
  874MPD2     C12818   4.712   3.688  16.059  0.1117 -0.3158  0.6272
  874MPD2    C112819   0.061   3.643  16.171  0.3213  0.2147  0.4547
  874MPD2    C212820   0.183   3.702  16.187 -0.8964 -0.0472  0.2631
  874MPD2    C312821   0.238   3.786  16.094  0.2366  0.6767 -0.2272
  874MPD2    C412822   0.173   3.823  15.979  0.0321  0.4490  0.4263
  874MPD2    C512823   0.040   3.779  15.965  0.0657 -0.9046  0.6865
  874MPD2     H12824   0.238   3.675  16.277 -1.4818 -1.4285  0.2037
  874MPD2    H112825   0.215   3.887  15.903 -0.1004 -3.0949 -2.6648
  874MPD2    H212826   4.608   3.658  16.049 -0.1079  0.4058  0.7114
  874MPD2    H312827   4.703   3.814  15.881  0.8192 -0.2491  0.4244
  874MPD2     N12828   0.368   3.827  16.129 -0.5790 -0.3254 -0.3644
  874MPD2    H512829   0.411   3.794  16.215 -3.1618  0.0950  1.0863
  874MPD2    N112830   0.001   3.555  16.267  0.9432  0.1863  1.2013
  874MPD2    H712831   4.631   3.518  16.249 -0.0362  3.1377  0.0990
  875MPD2     C12832   0.727   1.727  14.592  0.2970 -0.1038 -0.2380
  875MPD2    C112833   0.728   1.856  14.545 -0.0108  0.0271  0.0701
  875MPD2    C212834   0.757   1.960  14.628 -0.1037 -0.0804  0.0438
  875MPD2    C312835   0.814   1.933  14.754 -0.5578 -0.1159 -0.1844
  875MPD2    C412836   0.825   1.799  14.793  0.1231  0.3044  0.4869
  875MPD2    C512837   0.767   1.694  14.718  0.0642  0.7700  0.0633
  875MPD2     H12838   0.746   2.062  14.593  0.0117  0.5885  1.9672
  875MPD2    H112839   0.846   1.759  14.892 -0.6454  0.3515  0.6692
  875MPD2    H212840   0.717   1.645  14.521  1.2732 -1.0017  0.6611
  875MPD2    H312841   0.780   1.591  14.751  0.3110  1.4188  1.9716
  875MPD2     N12842   0.852   2.031  14.855  0.7297  0.3901 -0.1040
  875MPD2    H512843   0.902   1.992  14.934  1.1305  1.8750  0.3708
  875MPD2    N112844   0.696   1.870  14.406  0.5511 -1.0381 -0.9979
  875MPD2    H712845   0.670   1.789  14.351 -1.0740 -1.8000  0.8664
  876MPD2     C12846   4.572   3.413  15.941 -0.3165  0.0102 -0.5238
  876MPD2    C112847   4.693   3.375  15.892 -0.9580 -0.1742 -0.4145
  876MPD2    C212848   0.043   3.275  15.951 -0.0027  0.7543  0.2275
  876MPD2    C312849   0.004   3.218  16.069 -0.3544  0.0530  1.0667
  876MPD2    C412850   4.608   3.256  16.129  0.1021 -0.5492 -0.0460
  876MPD2    C512851   4.528   3.349  16.059  0.1040  0.7708  0.2251
  876MPD2     H12852   0.135   3.233  15.911 -2.3268 -1.0765 -3.1678
  876MPD2    H112853   4.570   3.211  16.220 -1.3940 -0.3457 -0.5730
  876MPD2    H212854   4.508   3.486  15.892 -0.3332 -0.4856 -1.2406
  876MPD2    H312855   4.433   3.385  16.098 -0.1694  0.1865  0.0905
  876MPD2     N12856   0.084   3.119  16.124  0.3655  0.8360  0.2994
  876MPD2    H512857   0.165   3.096  16.067 -0.9459 -1.8525 -0.4571
  876MPD2    N112858   0.008   3.423  15.765  0.1548  0.5289  0.0879
  876MPD2    H712859   4.666   3.487  15.718  1.9099  1.1740 -1.4201
  877MPD2     C12860   4.531   3.721  15.129 -0.1161  0.6727 -0.5342
  877MPD2    C112861   4.660   3.737  15.107  0.6034  0.3124 -0.4262
  877MPD2    C212862   4.706   3.743  14.981 -0.5065  1.5720  0.3828
  877MPD2    C312863   4.623   3.734  14.863 -0.2163 -0.6027 -0.2623
  877MPD2    C412864   4.488   3.722  14.893 -0.0507  0.2637 -0.2777
  877MPD2    C512865   4.444   3.710  15.020 -0.1775  0.5937  0.6674
  877MPD2     H12866   0.091   3.758  14.969 -0.0632 -3.2130 -1.3172
  877MPD2    H112867   4.404   3.723  14.824  0.1995 -2.5216 -0.6244
  877MPD2    H212868   4.481   3.723  15.225  1.5681  0.4139  0.3585
  877MPD2    H312869   4.339   3.709  15.046  0.0878  0.8638  1.7565
  877MPD2     N12870   4.673   3.753  14.737 -0.5306  0.7107  0.1087
  877MPD2    H512871   4.598   3.744  14.669 -0.7544 -0.2152  0.4728
  877MPD2    N112872   0.032   3.729  15.218 -0.3787  0.0212  0.1436
  877MPD2    H712873   0.124   3.755  15.184  0.1400 -4.9398 -2.1736
  878MPD2     C12874   4.714   3.220  12.809 -0.2038 -0.8179 -0.1202
  878MPD2    C112875   4.666   3.345  12.816 -0.4149  0.3553 -0.2507
  878MPD2    C212876   4.632   3.397  12.938 -0.1771  0.3320  1.4499
  878MPD2    C312877   4.674   3.335  13.056 -0.0714 -0.7620 -0.6832
  878MPD2    C412878   4.721   3.204  13.055 -0.1451 -1.0545 -0.6558
  878MPD2    C512879   0.032   3.156  12.928 -0.0140 -0.0971 -0.6620
  878MPD2     H12880   4.599   3.500  12.946  2.7919  1.2898  1.4932
  878MPD2    H112881   0.001   3.141  13.143  0.7520 -0.2075 -0.0695
  878MPD2    H212882   0.022   3.171  12.718 -0.3480  1.1481 -1.2166
  878MPD2    H312883   0.070   3.055  12.923 -0.7086 -0.4768  1.9856
  878MPD2     N12884   4.655   3.403  13.175 -0.2650  0.4657  0.0394
  878MPD2    H512885   4.625   3.499  13.163  2.2728  1.3680  1.0712
  878MPD2    N112886   4.638   3.408  12.691  0.1316 -0.1808 -0.2865
  878MPD2    H712887   4.683   3.371  12.608  0.9233  0.5852 -0.1993
  879MPD2     C12888   0.052   4.646  16.875 -0.0503 -0.9287 -0.6155
  879MPD2    C112889   0.084   4.530  16.938  0.2132  0.3092  0.1059
  879MPD2    C212890   0.079   4.415  16.860 -0.3162  0.1011  0.3922
  879MPD2    C312891   0.044   4.412  16.725 -0.3875  0.1716 -0.5068
  879MPD2    C412892   0.001   4.533  16.667 -0.2774  0.4303  0.9738
  879MPD2    C512893   0.011   4.646  16.743 -0.4492  0.0201 -0.2375
  879MPD2     H12894   0.116   4.326  16.909  1.1371  0.2540 -0.4249
  879MPD2    H112895   4.691   4.539  16.564  0.6546  0.4559  0.6851
  879MPD2    H212896   0.064   0.016  16.932  0.3970 -1.4118  0.0827
  879MPD2    H312897   4.714   0.022  16.703 -3.1314  0.0228  1.0451
  879MPD2     N12898   0.057   4.295  16.645  0.3283 -0.2803  0.0224
  879MPD2    H512899   0.041   4.309  16.546  0.3189  1.5452  0.2777
  879MPD2    N112900   0.121   4.530  17.077 -0.1896  0.2832  0.7452
  879MPD2    H712901   0.108   4.621  17.120  0.1565  0.8759 -0.3970
  880MPD2     C12902   1.383   1.041   0.648  0.1006 -0.0707  0.7701
  880MPD2    C112903   1.483   1.130   0.687 -0.0562 -0.4217  0.6132
  880MPD2    C212904   1.532   1.117   0.815  0.3214  0.3156  0.1049
  880MPD2    C312905   1.499   1.009   0.899  0.1919  0.1919 -0.9514
  880MPD2    C412906   1.389   0.936   0.860  0.5360  0.0363 -0.2029
  880MPD2    C512907   1.340   0.946   0.735 -0.4153 -0.0818 -0.2380
  880MPD2     H12908   1.605   1.188   0.853  1.2326 -1.0686  0.9406
  880MPD2    H112909   1.359   0.852   0.921 -0.7645  1.8734  1.6616
  880MPD2    H212910   1.345   1.051   0.547  0.9742  2.2242  0.6716
  880MPD2    H312911   1.279   0.868   0.691  0.5812 -0.7155 -0.4913
  880MPD2     N12912   1.594   0.984   1.002  0.4739  0.7568  1.3625
  880MPD2    H512913   1.666   1.056   1.008  2.3210 -0.9196 -0.8030
  880MPD2    N112914   1.526   1.231   0.599  0.6291 -0.0690  0.3526
  880MPD2    H712915   1.443   1.257   0.546  0.5649 -1.3655 -0.1748
  881MPD2     C12916   1.306   1.424  17.512  0.4980 -0.0515 -0.0331
  881MPD2    C112917   1.371   1.546  17.529 -0.2620 -0.0154  1.5733
  881MPD2    C212918   1.424   1.567  17.657  0.7482  0.0367 -0.4184
  881MPD2    C312919   1.408   1.474   0.069  0.6117  0.2212 -0.0907
  881MPD2    C412920   1.328   1.367   0.046 -0.5077 -0.4405 -0.6166
  881MPD2    C512921   1.266   1.351  17.618 -0.1295 -0.4073  0.3201
  881MPD2     H12922   1.488   1.652  17.675  1.9112 -0.9732  0.2523
  881MPD2    H112923   1.306   1.291   0.121  1.0481  2.9842  3.3043
  881MPD2    H212924   1.264   1.392  17.418 -1.6891  0.1383  0.8743
  881MPD2    H312925   1.209   1.264  17.588  0.2498 -0.7243  0.5201
  881MPD2     N12926   1.471   1.484   0.195  0.4890 -1.0592  0.2654
  881MPD2    H512927   1.458   1.407   0.259 -1.0089 -0.1827  1.0291
  881MPD2    N112928   1.419   1.612  17.417  0.4433 -0.2164 -0.0635
  881MPD2    H712929   1.370   1.582  17.333  0.7553 -0.8729 -0.0201
  882MPD2     C12930   4.595   3.917  13.893 -0.8628  0.0900 -0.2883
  882MPD2    C112931   4.559   3.925  14.024 -0.4012 -0.0072 -0.6318
  882MPD2    C212932   4.428   3.941  14.056  0.4107 -0.3777 -0.0849
  882MPD2    C312933   4.328   3.948  13.965  0.2502 -0.6268 -0.3109
  882MPD2    C412934   4.363   3.944  13.831  0.5620  0.0795  0.0409
  882MPD2    C512935   4.495   3.930  13.796  0.3309 -0.0561 -0.0724
  882MPD2     H12936   4.396   3.953  14.159 -1.4156  2.3587 -0.9679
  882MPD2    H112937   4.288   3.959  13.754 -1.3721 -1.7026  1.5850
  882MPD2    H212938   4.696   3.903  13.855 -0.1427 -1.3460  2.1362
  882MPD2    H312939   4.513   3.928  13.689  0.2925 -0.9768 -0.0672
  882MPD2     N12940   4.195   3.960  13.997  0.1806  0.0150 -0.3293
  882MPD2    H512941   4.130   3.945  13.920 -0.2976 -2.0734  0.4793
  882MPD2    N112942   4.667   3.915  14.120  0.5573  0.0382  0.0110
  882MPD2    H712943   0.038   3.909  14.081  0.3508  2.1125 -0.8007
  883MPD2     C12944   1.619   3.459  16.243 -0.1136  0.0522  0.2781
  883MPD2    C112945   1.657   3.540  16.137 -0.3112 -0.5240 -0.1269
  883MPD2    C212946   1.782   3.603  16.142  0.3817  0.6001  0.0989
  883MPD2    C312947   1.871   3.599  16.251 -0.0924 -0.4912  0.0076
  883MPD2    C412948   1.820   3.537  16.362  0.2208 -0.1058  0.1401
  883MPD2    C512949   1.700   3.465  16.355  0.1613  0.6213 -0.0697
  883MPD2     H12950   1.809   3.659  16.053  0.4885  0.2740 -0.0720
  883MPD2    H112951   1.870   3.537  16.458  0.3239  0.1078  0.0851
  883MPD2    H212952   1.524   3.407  16.247 -0.2503  0.1980 -1.1742
  883MPD2    H312953   1.668   3.407  16.441 -0.0332  0.5112 -0.2169
  883MPD2     N12954   2.003   3.653  16.253 -0.1462 -0.1488 -0.1388
  883MPD2    H512955   2.026   3.701  16.166  4.6806 -0.8038  0.8197
  883MPD2    N112956   1.571   3.560  16.025  0.1948 -0.2807 -0.2100
  883MPD2    H712957   1.609   3.594  15.937 -2.0736  1.8161 -0.3796
  884MPD2     C12958   3.900   4.599  15.165  0.4135  0.5336  0.1004
  884MPD2    C112959   3.876   0.019  15.161  0.0255 -0.0488  0.5931
  884MPD2    C212960   3.754   0.063  15.208  0.3647  0.2109  0.2910
  884MPD2    C312961   3.664   4.695  15.259 -0.1267 -0.0250 -0.4236
  884MPD2    C412962   3.694   4.558  15.270  0.2013 -0.6158  0.2182
  884MPD2    C512963   3.811   4.516  15.226 -0.7334  0.7164 -0.5924
  884MPD2     H12964   3.735   0.169  15.199 -0.4274 -0.3025 -4.1524
  884MPD2    H112965   3.615   4.490  15.299  0.2239  0.0493  1.8770
  884MPD2    H212966   3.993   4.547  15.143 -1.2507 -1.5623 -1.8867
  884MPD2    H312967   3.836   4.413  15.249 -1.4465  0.3168 -1.5955
  884MPD2     N12968   3.541   0.024  15.308  0.3167  0.3581  0.3485
  884MPD2    H512969   3.518   0.121  15.291  2.0929  1.2017  2.8526
  884MPD2    N112970   3.953   0.108  15.087 -0.0241  0.1111  0.3347
  884MPD2    H712971   3.918   0.203  15.073 -0.6289 -0.1935 -0.2207
  885MPD2     C12972   2.097   3.884   0.145 -0.4260  0.3494 -0.5829
  885MPD2    C112973   2.154   4.007   0.162 -0.3598  0.4023  0.2493
  885MPD2    C212974   2.121   4.112   0.076 -0.0058 -0.2915 -0.5655
  885MPD2    C312975   2.022   4.095  17.670 -0.2216  0.1807 -1.0217
  885MPD2    C412976   1.970   3.965  17.656 -0.2742  0.6888 -0.3588
  885MPD2    C512977   2.014   3.865   0.043  0.3270 -0.6412 -0.2530
  885MPD2     H12978   2.162   4.212   0.079 -2.2325  0.6439 -1.0560
  885MPD2    H112979   1.895   3.946  17.581 -0.0358 -1.3960 -0.0604
  885MPD2    H212980   2.132   3.799   0.203  1.2066  0.8585 -0.8112
  885MPD2    H312981   1.986   3.763   0.018  1.6071 -0.6424 -1.6809
  885MPD2     N12982   1.980   4.204  17.588  0.1361 -0.2255 -0.0157
  885MPD2    H512983   2.022   4.296  17.593 -1.0292  0.2924  0.3967
  885MPD2    N112984   2.237   4.016   0.272 -0.1259 -0.2365  0.0237
  885MPD2    H712985   2.264   3.930   0.319 -3.1560 -0.6339  0.9966
  886MPD2     C12986   3.115   3.322  15.657 -0.1836 -0.4860  0.7022
  886MPD2    C112987   3.177   3.257  15.551  0.2885  0.0173  0.8483
  886MPD2    C212988   3.196   3.333  15.437  0.3000  0.1474  0.0198
  886MPD2    C312989   3.158   3.463  15.434 -0.2898 -0.1140 -1.1632
  886MPD2    C412990   3.092   3.525  15.537  0.2744  0.1373  0.6717
  886MPD2    C512991   3.080   3.456  15.654 -0.9939  1.1772 -0.2767
  886MPD2     H12992   3.220   3.288  15.342  1.5367  0.2322  0.2949
  886MPD2    H112993   3.048   3.624  15.533  1.9254  0.8722  0.5092
  886MPD2    H212994   3.113   3.270  15.752 -0.6299 -0.8260  0.5083
  886MPD2    H312995   3.030   3.495  15.741 -2.5211 -2.9893  0.7342
  886MPD2     N12996   3.197   3.529  15.311  0.1731 -0.2605 -0.2827
  886MPD2    H512997   3.236   3.477  15.233  2.0467  0.5641  0.1084
  886MPD2    N112998   3.229   3.125  15.568 -0.6726  0.0417 -0.4465
  886MPD2    H712999   3.214   3.067  15.650  1.7147 -0.4697 -0.3825
  887MPD2     C13000   3.725   2.965  15.098  0.3888  0.1765 -0.1442
  887MPD2    C113001   3.640   3.022  15.193  0.3957  0.4698 -0.6572
  887MPD2    C213002   3.641   3.155  15.222  0.3564 -0.3054 -0.5567
  887MPD2    C313003   3.738   3.231  15.161 -0.2539  0.2826 -0.3660
  887MPD2    C413004   3.820   3.180  15.063  0.6078 -0.4464 -1.0063
  887MPD2    C513005   3.816   3.045  15.031 -0.0434  0.1166 -0.3129
  887MPD2     H13006   3.591   3.200  15.307 -1.3899 -1.0451 -1.1849
  887MPD2    H113007   3.890   3.245  15.013 -0.2099 -0.4243 -2.1132
  887MPD2    H213008   3.726   2.858  15.083  0.0578 -0.1523  2.2668
  887MPD2    H313009   3.885   3.002  14.959  1.0538  2.7649 -0.8466
  887MPD2     N13010   3.755   3.363  15.211  0.3996 -0.0486 -0.0169
  887MPD2    H513011   3.694   3.386  15.289  0.5086  0.7071 -0.1607
  887MPD2    N113012   3.549   2.946  15.265 -0.1793 -0.4416 -0.0628
  887MPD2    H713013   3.481   3.001  15.317  0.6830  1.1077 -0.5852
  888MPD2     C13014   1.120   3.390  14.486  1.2291  0.6665  0.2880
  888MPD2    C113015   1.103   3.449  14.607 -0.4631 -0.4447  0.2691
  888MPD2    C213016   1.119   3.585  14.608 -0.3192  0.2461  0.8393
  888MPD2    C313017   1.155   3.662  14.500  0.7216 -0.6730 -0.4598
  888MPD2    C413018   1.158   3.601  14.376 -0.9498  0.1164  0.5711
  888MPD2    C513019   1.139   3.461  14.366 -0.9495  0.9424  0.2927
  888MPD2     H13020   1.116   3.633  14.706  0.1788 -2.7253  2.3301
  888MPD2    H113021   1.174   3.661  14.288  1.0615 -2.2281 -0.6407
  888MPD2    H213022   1.098   3.284  14.475 -0.5084  1.0518  0.1135
  888MPD2    H313023   1.138   3.402  14.276  0.4103 -0.8444  1.4746
  888MPD2     N13024   1.182   3.795  14.522  0.3405  0.9390 -0.4441
  888MPD2    H513025   1.184   3.824  14.619 -1.5319  1.9632 -0.6990
  888MPD2    N113026   1.066   3.379  14.728  0.1040 -0.0020  0.3938
  888MPD2    H713027   1.061   3.441  14.808 -0.9294  2.5213 -1.6079
  889MPD2     C13028   0.419   3.278  12.639 -0.8557  0.0330  0.9252
  889MPD2    C113029   0.398   3.274  12.769 -0.4615 -0.3706  0.0110
  889MPD2    C213030   0.321   3.376  12.826  0.0737  0.4145  0.0341
  889MPD2    C313031   0.278   3.493  12.757 -0.2944 -0.2229 -0.2191
  889MPD2    C413032   0.315   3.490  12.620 -0.9461 -0.4003  0.1025
  889MPD2    C513033   0.382   3.385  12.565 -0.9681  0.1622  0.6515
  889MPD2     H13034   0.281   3.357  12.925 -0.7331  1.6120 -0.0642
  889MPD2    H113035   0.271   3.561  12.551  1.8342  1.0416 -0.1910
  889MPD2    H213036   0.450   3.187  12.588  1.6777  1.2485  0.2442
  889MPD2    H313037   0.419   3.380  12.463 -0.4545  0.2253  0.8324
  889MPD2     N13038   0.199   3.581  12.818 -0.2300 -0.0061  0.8971
  889MPD2    H513039   0.185   3.572  12.918 -0.4291  0.0127  0.8711
  889MPD2    N113040   0.425   3.154  12.836 -0.0872  0.3967  0.1721
  889MPD2    H713041   0.466   3.075  12.788  1.5972  0.9575  0.6871
  890MPD2     C13042   4.156   0.059  14.618  0.3380 -0.6650 -0.2153
  890MPD2    C113043   4.290   0.095  14.610  0.8895  0.2276  0.2299
  890MPD2    C213044   4.382   0.009  14.660  0.0985 -0.4291 -0.2511
  890MPD2    C313045   4.343   4.621  14.732 -0.7170 -0.0047 -0.3132
  890MPD2    C413046   4.218   4.574  14.721 -0.4505  0.5654  0.1258
  890MPD2    C513047   4.132   4.654  14.658  0.4684 -0.2445 -0.4551
  890MPD2     H13048   4.480   0.051  14.682 -0.0393 -0.0338 -0.3884
  890MPD2    H113049   4.179   4.494  14.784  1.1805 -0.3535 -0.0267
  890MPD2    H213050   4.080   0.124  14.576 -0.9641 -3.3139 -1.9513
  890MPD2    H313051   4.031   4.616  14.656  0.6004 -0.7267  2.2491
  890MPD2     N13052   4.445   4.539  14.784  0.5640 -0.6462  0.2136
  890MPD2    H513053   4.540   4.571  14.769 -0.1940  1.7166  0.5233
  890MPD2    N113054   4.319   0.220  14.546 -0.0815  0.1384 -0.1386
  890MPD2    H713055   4.237   0.275  14.524 -0.0037 -0.2544 -1.4218
  891MPD2     C13056   2.980   3.166  16.599 -0.1003  0.1342 -0.0604
  891MPD2    C113057   2.884   3.136  16.690  1.1027  0.1034 -0.4376
  891MPD2    C213058   2.908   3.030  16.774  0.4424  0.2636 -0.6972
  891MPD2    C313059   3.018   2.954  16.772  0.4731 -0.3173 -0.6181
  891MPD2    C413060   3.115   2.989  16.681 -0.4549 -0.0301  0.2090
  891MPD2    C513061   3.094   3.089  16.588  0.0838  0.8079 -0.0727
  891MPD2     H13062   2.834   3.001  16.848 -0.2213  0.2341 -1.3712
  891MPD2    H113063   3.208   2.934  16.682  0.9996  2.4369 -0.1510
  891MPD2    H213064   2.954   3.246  16.530 -0.3503 -1.8232 -2.2399
  891MPD2    H313065   3.172   3.110  16.515  2.2690 -2.6867  1.2700
  891MPD2     N13066   3.028   2.847  16.858 -0.0010 -0.1383  0.2983
  891MPD2    H513067   2.956   2.836  16.929 -0.3348  0.5353  0.0695
  891MPD2    N113068   2.756   3.205  16.683 -0.6578  0.3804  0.4399
  891MPD2    H713069   2.753   3.291  16.628  0.1502 -1.6370 -2.7703
  892MPD2     C13070   3.837   4.256  14.891  0.1169 -0.7484  0.4872
  892MPD2    C113071   3.730   4.277  14.802 -0.2694 -0.0216 -0.0469
  892MPD2    C213072   3.752   4.228  14.673  0.0027  0.6508 -0.1419
  892MPD2    C313073   3.870   4.173  14.631  0.1446 -0.3524 -0.2471
  892MPD2    C413074   3.975   4.159  14.716 -0.0683  0.6959 -0.3633
  892MPD2    C513075   3.960   4.203  14.849  0.1334 -0.3651 -0.2861
  892MPD2     H13076   3.665   4.221  14.609 -0.3545 -3.8041  0.7817
  892MPD2    H113077   4.066   4.118  14.672  0.4734 -1.7769  2.9629
  892MPD2    H213078   3.825   4.292  14.993  0.4523  0.1612  0.2087
  892MPD2    H313079   4.041   4.197  14.920 -0.1073  0.4406  0.0562
  892MPD2     N13080   3.891   4.120  14.497 -0.5374 -0.4502  0.7459
  892MPD2    H513081   3.980   4.077  14.474 -1.1715 -0.1118 -2.3212
  892MPD2    N113082   3.601   4.335  14.834  0.3409 -0.8194  0.2671
  892MPD2    H713083   3.542   4.359  14.755  0.8917 -0.4897 -0.0407
  893MPD2     C13084   2.661   1.722   1.369 -0.4368  0.1382 -0.6783
  893MPD2    C113085   2.748   1.720   1.473 -0.5422  0.8389  0.5106
  893MPD2    C213086   2.769   1.608   1.553 -0.0786 -0.1741  0.1205
  893MPD2    C313087   2.736   1.484   1.500  0.0597 -0.5184 -0.3976
  893MPD2    C413088   2.655   1.485   1.391  0.3695 -0.1082 -0.3494
  893MPD2    C513089   2.612   1.603   1.327 -0.1394  0.2497  0.5437
  893MPD2     H13090   2.828   1.608   1.644  0.0552  0.7337  0.0303
  893MPD2    H113091   2.629   1.391   1.344 -1.5478 -0.4161  1.2838
  893MPD2    H213092   2.627   1.815   1.326 -1.1352  0.9977  1.7055
  893MPD2    H313093   2.557   1.604   1.234 -0.2267 -0.8766  0.5824
  893MPD2     N13094   2.762   1.364   1.573  0.1338  0.2312  0.5400
  893MPD2    H513095   2.707   1.283   1.547 -0.3762  0.8545 -0.3113
  893MPD2    N113096   2.774   1.853   1.508  0.5155  0.3913  0.4035
  893MPD2    H713097   2.734   1.930   1.456  0.1080 -0.7058 -0.8951
  894MPD2     C13098   3.721   4.634   1.117 -0.0532 -0.4221  0.6279
  894MPD2    C113099   3.769   4.632   1.248 -0.2018  0.1247  0.6286
  894MPD2    C213100   3.874   4.714   1.283 -0.5681  0.2312 -0.1006
  894MPD2    C313101   3.937   0.076   1.194  0.1407 -0.2835  0.5429
  894MPD2    C413102   3.879   0.081   1.066  0.3759  0.4005 -0.0863
  894MPD2    C513103   3.777   0.001   1.026  0.6737  0.4225  1.1327
  894MPD2     H13104   3.913   4.708   1.384  2.0624  0.4610 -1.0950
  894MPD2    H113105   3.912   0.164   1.005 -0.5109  0.2640 -0.7561
  894MPD2    H213106   3.638   4.572   1.082  0.6623 -0.0145 -1.8098
  894MPD2    H313107   3.733   0.018   0.928  1.1484 -1.9065  0.5171
  894MPD2     N13108   4.032   0.165   1.245 -0.0725  0.5459  0.1366
  894MPD2    H513109   4.052   0.162   1.345 -1.0594  1.4524  0.3591
  894MPD2    N113110   3.720   4.549   1.348  0.0303 -0.5299  0.9846
  894MPD2    H713111   3.770   4.556   1.436  1.6952  1.3231 -0.1061
  895MPD2     C13112   2.787   3.696  14.013 -0.2483 -0.5529 -0.1508
  895MPD2    C113113   2.699   3.744  13.915  0.4327  0.3873  0.3268
  895MPD2    C213114   2.736   3.740  13.782 -0.4374 -0.2655 -0.3236
  895MPD2    C313115   2.848   3.658  13.739  0.5382 -0.2164  0.6578
  895MPD2    C413116   2.922   3.599  13.838 -0.6131  0.2827  0.0424
  895MPD2    C513117   2.894   3.630  13.967 -0.0467 -0.2533 -0.3701
  895MPD2     H13118   2.659   3.762  13.709  1.7616  1.1394 -2.2052
  895MPD2    H113119   3.010   3.539  13.820 -1.0369  0.1835 -1.7181
  895MPD2    H213120   2.767   3.686  14.119 -0.4361 -1.0071 -0.2307
  895MPD2    H313121   2.943   3.575  14.046  1.7260  2.7276  0.5846
  895MPD2     N13122   2.881   3.630  13.602  0.1925  0.2462 -0.7154
  895MPD2    H513123   2.948   3.556  13.581  0.0909  0.0584 -0.3775
  895MPD2    N113124   2.566   3.784  13.943 -0.3995  0.2922  0.7319
  895MPD2    H713125   2.507   3.796  13.861  0.2186 -1.4777  0.0175
  896MPD2     C13126   0.675   0.311   2.070  0.5485  0.2584 -0.8648
  896MPD2    C113127   0.655   0.386   1.949 -0.1424  0.0489 -0.4416
  896MPD2    C213128   0.537   0.362   1.875 -0.2646 -0.6953  0.1006
  896MPD2    C313129   0.455   0.257   1.906  0.3863 -0.0704 -0.5603
  896MPD2    C413130   0.487   0.174   2.008 -0.3814  0.3838  0.2111
  896MPD2    C513131   0.591   0.210   2.098 -0.5367 -0.6315 -0.2422
  896MPD2     H13132   0.528   0.421   1.785 -4.0693  0.4262  1.2109
  896MPD2    H113133   0.434   0.084   2.036  0.3572  0.0772  0.6426
  896MPD2    H213134   0.751   0.343   2.141  1.6025 -1.2185 -1.3221
  896MPD2    H313135   0.606   0.144   2.183  3.2499 -1.1086 -1.2963
  896MPD2     N13136   0.347   0.228   1.816 -0.3418 -0.3740  0.5579
  896MPD2    H513137   0.324   0.305   1.753  2.3403 -0.1443 -0.1237
  896MPD2    N113138   0.749   0.493   1.930  0.0601 -0.5413 -0.3793
  896MPD2    H713139   0.820   0.504   2.002 -1.7135 -0.1290  1.3315
  897MPD2     C13140   1.616   2.395  10.490 -0.1886  0.1402  0.2322
  897MPD2    C113141   1.552   2.518  10.450  0.0816 -0.4807 -0.2254
  897MPD2    C213142   1.477   2.584  10.542 -0.3807  0.6349 -0.6975
  897MPD2    C313143   1.442   2.520  10.659  1.1411 -0.6973 -0.7852
  897MPD2    C413144   1.507   2.405  10.694 -0.3641  0.0424  0.6771
  897MPD2    C513145   1.596   2.346  10.609  0.4943 -0.0505  0.7397
  897MPD2     H13146   1.421   2.668  10.503 -0.1853  1.8035  1.5705
  897MPD2    H113147   1.479   2.350  10.783  0.6994  0.0252  0.9954
  897MPD2    H213148   1.687   2.347  10.424 -0.7129  0.8458 -0.8300
  897MPD2    H313149   1.629   2.248  10.641 -0.4174 -0.7548 -0.4643
  897MPD2     N13150   1.328   2.572  10.732  1.3698 -0.4412 -0.1439
  897MPD2    H513151   1.283   2.650  10.685  0.5471 -1.6129 -1.2805
  897MPD2    N113152   1.581   2.573  10.319 -0.1148 -0.9694  0.2468
  897MPD2    H713153   1.622   2.512  10.248 -0.5923 -0.4822 -0.4462
  898MPD2     C13154   3.302   3.114  17.446  0.3892  0.1049 -0.7044
  898MPD2    C113155   3.437   3.129  17.413 -0.0113 -0.2889  0.1778
  898MPD2    C213156   3.473   3.246  17.344  1.2415  0.0336  0.3690
  898MPD2    C313157   3.382   3.347  17.334 -0.0935 -0.3547 -0.0129
  898MPD2    C413158   3.253   3.333  17.382  0.6345 -0.5131  0.5436
  898MPD2    C513159   3.215   3.212  17.422 -0.6886  0.1355 -0.2802
  898MPD2     H13160   3.576   3.262  17.313  0.0840  1.1981 -2.8647
  898MPD2    H113161   3.182   3.414  17.380  1.1728  0.0108  1.9858
  898MPD2    H213162   3.268   3.023  17.494  1.5398 -0.2083 -0.4941
  898MPD2    H313163   3.109   3.198  17.444 -0.4837 -0.7175  0.1600
  898MPD2     N13164   3.423   3.468  17.273 -0.0614 -0.2632 -0.4351
  898MPD2    H513165   3.516   3.469  17.233  0.5893  0.4457  1.0698
  898MPD2    N113166   3.542   3.031  17.439 -0.1333  0.3533  0.1936
  898MPD2    H713167   3.634   3.056  17.405 -0.4621  2.1597  0.6492
  899MPD2     C13168   0.179   3.922  17.012 -0.0178  0.1994  0.8094
  899MPD2    C113169   0.077   3.926  17.103 -0.1402  0.0037 -0.2354
  899MPD2    C213170   0.049   3.826  17.189 -0.2336 -0.4459  0.1339
  899MPD2    C313171   0.120   3.710  17.181  0.1291 -0.1787 -0.1600
  899MPD2    C413172   0.225   3.704  17.097  1.0716  0.7261 -0.3408
  899MPD2    C513173   0.254   3.808  17.013 -0.1503  0.6208 -0.3851
  899MPD2     H13174   4.694   3.841  17.264  0.7689 -1.0671  1.2811
  899MPD2    H113175   0.295   3.620  17.089  1.6530  0.7065  4.6522
  899MPD2    H213176   0.206   4.004  16.947 -0.6866  1.0790  1.6368
  899MPD2    H313177   0.345   3.798  16.954 -1.7276  0.1433 -2.7464
  899MPD2     N13178   0.104   3.590  17.260 -0.4403 -0.1122  0.5293
  899MPD2    H513179   0.159   3.509  17.235 -0.8198 -0.0897 -0.3809
  899MPD2    N113180   0.002   4.042  17.092  0.3626  0.5887 -0.4401
  899MPD2    H713181   0.015   4.107  17.014  1.0401  1.5767  0.5015
  900MPD2     C13182   3.874   1.378  12.140  0.4583  0.4097  0.6369
  900MPD2    C113183   3.787   1.312  12.055  0.0559 -0.6099  0.2484
  900MPD2    C213184   3.684   1.391  11.994 -0.5261 -1.2151  0.2619
  900MPD2    C313185   3.668   1.524  12.029 -0.3516 -0.4875  0.4944
  900MPD2    C413186   3.754   1.585  12.122 -0.2890  0.4632  0.1512
  900MPD2    C513187   3.863   1.513  12.169  0.0943  0.1492 -0.5579
  900MPD2     H13188   3.608   1.346  11.931 -0.8578  0.6658 -0.6660
  900MPD2    H113189   3.760   1.692  12.143 -2.1564  0.1893  2.0423
  900MPD2    H213190   3.954   1.325  12.190 -0.3526 -2.5528 -1.2153
  900MPD2    H313191   3.932   1.560  12.239 -0.5737  4.0274 -2.4600
  900MPD2     N13192   3.555   1.595  11.977  0.1449 -0.3122 -0.5663
  900MPD2    H513193   3.495   1.541  11.915 -1.4400 -1.4984  1.9986
  900MPD2    N113194   3.811   1.177  12.017  0.2343  0.0625 -0.0805
  900MPD2    H713195   3.900   1.137  12.047  0.5098  0.8924  0.1922
  901MPD2     C13196   3.582   0.244  12.338 -0.1431  0.4011 -0.0906
  901MPD2    C113197   3.655   0.213  12.222 -0.4092  0.1319  0.3264
  901MPD2    C213198   3.698   0.305  12.127 -0.1780  0.2027 -0.4408
  901MPD2    C313199   3.647   0.434  12.138  1.2276  0.3963  0.0771
  901MPD2    C413200   3.573   0.467  12.249  0.5692 -0.3923  0.7007
  901MPD2    C513201   3.540   0.371  12.342  0.0976 -0.1698  0.1475
  901MPD2     H13202   3.734   0.259  12.036  1.2161 -1.1545  0.8085
  901MPD2    H113203   3.546   0.568  12.276 -1.0955 -0.8709  0.8849
  901MPD2    H213204   3.570   0.174  12.420  0.4601  0.2598 -0.1221
  901MPD2    H313205   3.481   0.401  12.427  1.0745  2.1712  0.0071
  901MPD2     N13206   3.693   0.527  12.039 -0.4027 -0.2819  0.8690
  901MPD2    H513207   3.769   0.493  11.980  0.1453  2.0116  0.2563
  901MPD2    N113208   3.718   0.091  12.216 -0.6016  0.0670  0.2764
  901MPD2    H713209   3.770   0.066  12.133 -1.8215 -1.9664  0.1362
  902MPD2     C13210   2.412   3.596  12.814 -0.1712  0.5160  0.2719
  902MPD2    C113211   2.516   3.690  12.824 -0.5084 -0.4937  0.4318
  902MPD2    C213212   2.643   3.660  12.768  0.2339 -0.0047  0.1067
  902MPD2    C313213   2.671   3.537  12.711 -0.4256 -0.2314  0.4592
  902MPD2    C413214   2.566   3.452  12.706  1.2978  0.3635  0.1570
  902MPD2    C513215   2.447   3.476  12.758 -0.0886 -0.1402 -0.7515
  902MPD2     H13216   2.723   3.730  12.789 -0.5649  1.3740 -1.4617
  902MPD2    H113217   2.585   3.347  12.686 -1.9665 -0.5436  1.8670
  902MPD2    H213218   2.316   3.619  12.858 -0.3609 -0.0703  0.1570
  902MPD2    H313219   2.367   3.404  12.747 -0.2313 -0.3011  1.4170
  902MPD2     N13220   2.800   3.492  12.672 -0.2759 -0.1236 -0.2212
  902MPD2    H513221   2.805   3.394  12.648  3.5493  0.0047  0.0702
  902MPD2    N113222   2.486   3.817  12.875 -0.1681 -0.1867 -0.6508
  902MPD2    H713223   2.398   3.822  12.925  0.7202 -1.8678  1.0622
  903MPD2     C13224   3.220   4.020  12.508 -0.1275 -0.1299 -0.3389
  903MPD2    C113225   3.121   3.937  12.556 -0.2803 -0.1513 -0.3841
  903MPD2    C213226   2.990   3.958  12.525 -1.2775 -0.1579 -0.4245
  903MPD2    C313227   2.953   4.053  12.428 -0.1694  0.0714  0.0385
  903MPD2    C413228   3.049   4.140  12.378 -0.7315  0.3681 -0.3335
  903MPD2    C513229   3.177   4.129  12.432 -0.1326 -0.5818 -0.0069
  903MPD2     H13230   2.918   3.887  12.564 -1.1453 -0.0789 -0.0423
  903MPD2    H113231   3.016   4.222  12.315 -0.4452  0.6931 -0.0607
  903MPD2    H213232   3.325   4.006  12.529 -0.1130 -1.9843 -1.6599
  903MPD2    H313233   3.248   4.206  12.403  0.6228 -1.6345 -0.9561
  903MPD2     N13234   2.815   4.061  12.399 -0.0009 -0.6260 -0.2586
  903MPD2    H513235   2.761   3.998  12.456  0.7060 -1.1627 -0.1841
  903MPD2    N113236   3.154   3.809  12.605 -0.8184  0.3373 -0.2254
  903MPD2    H713237   3.084   3.748  12.646  0.6726 -1.6986 -0.6585
  904MPD2     C13238   2.477   2.758  13.889  0.0256  0.1808  0.5577
  904MPD2    C113239   2.491   2.880  13.821 -0.7590 -0.4538 -0.3786
  904MPD2    C213240   2.612   2.939  13.788 -0.1214  0.0421  0.9692
  904MPD2    C313241   2.730   2.879  13.826 -0.0558 -0.3445 -0.3226
  904MPD2    C413242   2.718   2.760  13.890  0.1244  0.2554  0.1594
  904MPD2    C513243   2.598   2.702  13.920 -0.1553  0.3269  0.4365
  904MPD2     H13244   2.617   3.034  13.737 -0.4779  0.4205  1.6306
  904MPD2    H113245   2.805   2.703  13.920 -1.0295 -1.6746 -0.1403
  904MPD2    H213246   2.382   2.710  13.908  0.0818  0.1533  0.7753
  904MPD2    H313247   2.590   2.605  13.967 -2.4840 -0.8966 -2.4706
  904MPD2     N13248   2.855   2.939  13.791  0.4595 -0.2628  0.9995
  904MPD2    H513249   2.862   3.033  13.753 -0.6995 -1.7609 -2.8916
  904MPD2    N113250   2.386   2.958  13.780 -0.2358  0.0912 -0.6380
  904MPD2    H713251   2.403   3.031  13.713  1.4693 -0.2892 -0.6386
  905MPD2     C13252   2.230   3.261  13.269 -0.0515 -0.2348  0.1925
  905MPD2    C113253   2.280   3.337  13.372 -0.5808  0.3069 -0.4127
  905MPD2    C213254   2.384   3.427  13.350 -0.2117 -0.1869 -0.2551
  905MPD2    C313255   2.443   3.437  13.225  0.1562  0.5572  0.2236
  905MPD2    C413256   2.385   3.368  13.117  0.1211  0.0588  0.2368
  905MPD2    C513257   2.278   3.285  13.139  0.6224  0.3778 -0.3192
  905MPD2     H13258   2.432   3.476  13.434 -0.3714 -0.6177  0.0901
  905MPD2    H113259   2.413   3.384  13.014  0.4831 -1.2552  0.1263
  905MPD2    H213260   2.139   3.206  13.285 -1.3285  1.2179 -2.1221
  905MPD2    H313261   2.247   3.216  13.061  0.1332 -1.6116  1.6298
  905MPD2     N13262   2.558   3.517  13.221  0.3507  0.0654  0.1321
  905MPD2    H513263   2.580   3.575  13.302  0.7072  0.4069 -0.2125
  905MPD2    N113264   2.225   3.311  13.503  0.1184 -0.0996  0.4169
  905MPD2    H713265   2.165   3.231  13.519  1.5125 -1.2907 -0.2140
  906MPD2     C13266   0.012   2.661  11.210 -0.2572  0.6936 -0.1285
  906MPD2    C113267   4.654   2.608  11.111  0.2425  0.1717 -0.2933
  906MPD2    C213268   4.527   2.555  11.140  0.4190 -0.2828 -0.6294
  906MPD2    C313269   4.495   2.534  11.275 -0.0711  0.0240 -0.4915
  906MPD2    C413270   4.578   2.583  11.374  0.3667  0.2329  0.2792
  906MPD2    C513271   4.695   2.640  11.343 -0.5586 -0.1562  0.1648
  906MPD2     H13272   4.468   2.517  11.057 -2.3576  1.3008  0.6075
  906MPD2    H113273   4.552   2.569  11.479  0.1186 -0.7428  0.0936
  906MPD2    H213274   0.115   2.690  11.196 -0.4647  0.6341 -1.7330
  906MPD2    H313275   0.039   2.661  11.427  1.6306 -1.6300 -1.1902
  906MPD2     N13276   4.374   2.468  11.316 -0.1536  0.1629 -0.1571
  906MPD2    H513277   4.350   2.476  11.415  1.5204  0.4355  0.2380
  906MPD2    N113278   4.684   2.621  10.975 -0.8515 -0.3697 -0.3708
  906MPD2    H713279   4.624   2.581  10.904  1.3692 -2.9296 -0.7778
  907MPD2     C13280   4.050   2.049  15.505  0.5335 -0.3681 -0.2339
  907MPD2    C113281   3.978   1.935  15.518  0.8855  0.3329  0.4849
  907MPD2    C213282   3.950   1.881  15.642  0.0749 -0.0722 -0.4110
  907MPD2    C313283   3.989   1.950  15.752 -0.3676  0.1213  0.1679
  907MPD2    C413284   4.057   2.073  15.739 -0.0118 -0.0584  0.4551
  907MPD2    C513285   4.089   2.115  15.616 -0.0414  0.4056 -0.0281
  907MPD2     H13286   3.901   1.784  15.646 -0.6782  0.3388  0.0842
  907MPD2    H113287   4.091   2.120  15.830  0.8164 -0.1576  0.1949
  907MPD2    H213288   4.076   2.089  15.408  0.4522  1.7298  0.5987
  907MPD2    H313289   4.149   2.205  15.608  0.2579  0.3543  1.8350
  907MPD2     N13290   3.958   1.897  15.880  0.3690 -0.5463 -0.1252
  907MPD2    H513291   3.922   1.802  15.884  0.5805 -0.6927 -1.6849
  907MPD2    N113292   3.918   1.865  15.412 -0.6436 -0.0898  0.0855
  907MPD2    H713293   3.871   1.781  15.444  0.6362 -1.4878 -1.7213
  908MPD2     C13294   1.184   2.164   9.646  0.8521  0.2049  0.1291
  908MPD2    C113295   1.308   2.136   9.695 -0.4902 -0.0871  0.0483
  908MPD2    C213296   1.381   2.240   9.755 -0.0598  0.0857  0.6852
  908MPD2    C313297   1.322   2.371   9.781 -0.5698  0.1846  0.1732
  908MPD2    C413298   1.190   2.385   9.734 -0.4087 -0.3617 -0.0507
  908MPD2    C513299   1.127   2.288   9.660  0.2531  0.8563  0.1016
  908MPD2     H13300   1.487   2.226   9.774  0.3437  1.9655 -0.2683
  908MPD2    H113301   1.145   2.483   9.731  1.4055  0.4599 -0.1923
  908MPD2    H213302   1.124   2.087   9.599  0.9952 -0.6911  1.4298
  908MPD2    H313303   1.030   2.312   9.616  0.3071 -2.1540 -1.6577
  908MPD2     N13304   1.390   2.471   9.856 -0.3135 -0.1188 -0.9230
  908MPD2    H513305   1.490   2.460   9.873  0.0017  2.9708 -0.7786
  908MPD2    N113306   1.356   2.009   9.663 -0.2460  0.5640  0.3247
  908MPD2    H713307   1.295   1.952   9.605  1.7387  0.3975 -1.5886
  909MPD2     C13308   1.867   0.476  12.154 -0.4495  0.3831 -1.0789
  909MPD2    C113309   1.856   0.582  12.077 -0.4545 -0.3974 -0.0754
  909MPD2    C213310   1.775   0.682  12.118  0.6068  0.7722  0.0619
  909MPD2    C313311   1.705   0.679  12.233 -0.9470 -0.4925 -0.3131
  909MPD2    C413312   1.709   0.565  12.311 -0.4069  0.1161 -0.7784
  909MPD2    C513313   1.797   0.468  12.269  0.0514  0.2537 -0.2183
  909MPD2     H13314   1.778   0.778  12.066  2.0997  1.2258  0.9864
  909MPD2    H113315   1.654   0.539  12.401 -1.8642  0.5301 -1.5404
  909MPD2    H213316   1.937   0.399  12.121  0.5619  0.2465  1.4067
  909MPD2    H313317   1.799   0.378  12.329 -0.8293 -2.6395 -4.5309
  909MPD2     N13318   1.616   0.782  12.275  0.3125 -0.1981 -0.4924
  909MPD2    H513319   1.642   0.872  12.235  0.9572  0.2599  0.9559
  909MPD2    N113320   1.938   0.621  11.968 -0.3156  0.3115 -0.4404
  909MPD2    H713321   1.908   0.706  11.920  1.0777  1.2016  0.2685
  910MPD2     C13322   2.820   2.461  15.855  0.2395  0.2335  0.2493
  910MPD2    C113323   2.949   2.454  15.807 -0.0379 -0.0157 -0.2847
  910MPD2    C213324   2.971   2.448  15.673 -0.2073  0.1563  0.0698
  910MPD2    C313325   2.863   2.468  15.587  0.1054 -0.7646 -0.5789
  910MPD2    C413326   2.738   2.484  15.639 -0.1723 -0.6089  0.7752
  910MPD2    C513327   2.716   2.483  15.769 -0.2417  0.8308  0.0698
  910MPD2     H13328   3.070   2.426  15.634  0.4742  0.9122  1.4147
  910MPD2    H113329   2.654   2.496  15.571 -0.2917 -0.8897  0.8745
  910MPD2    H213330   2.796   2.461  15.961  1.4047  1.5683  0.5194
  910MPD2    H313331   2.615   2.506  15.800 -0.7012  0.0205 -0.8411
  910MPD2     N13332   2.879   2.471  15.448 -0.9248 -0.0259 -0.3700
  910MPD2    H513333   2.795   2.469  15.391 -0.7743  2.5087 -0.6876
  910MPD2    N113334   3.059   2.445  15.904  0.2726 -0.2035 -0.0562
  910MPD2    H713335   3.150   2.427  15.862 -0.1944 -2.1131 -0.2287
  911MPD2     C13336   1.210   2.716  16.167 -0.4213 -0.7341  0.1408
  911MPD2    C113337   1.238   2.804  16.270  0.1507 -0.5618  0.8505
  911MPD2    C213338   1.162   2.921  16.286  0.0895 -0.8892  0.2861
  911MPD2    C313339   1.052   2.940  16.202  1.1022 -0.4781 -0.2046
  911MPD2    C413340   1.037   2.855  16.091 -0.1162  0.3273 -0.5546
  911MPD2    C513341   1.119   2.747  16.074  0.2990  0.2037  0.3041
  911MPD2     H13342   1.171   2.978  16.377 -0.9383  1.3069 -0.9793
  911MPD2    H113343   0.960   2.876  16.018 -0.6274  0.8255  0.1219
  911MPD2    H213344   1.259   2.620  16.165  0.9303 -0.0634  1.1342
  911MPD2    H313345   1.102   2.682  15.989  0.3900 -1.8508  1.8471
  911MPD2     N13346   0.950   3.036  16.220 -0.5801 -0.2988 -0.7869
  911MPD2    H513347   0.859   3.023  16.178 -0.0326  0.1085 -2.0920
  911MPD2    N113348   1.339   2.755  16.348  0.3412  0.3362 -0.5138
  911MPD2    H713349   1.382   2.668  16.318  0.9229  0.7901 -0.9897
  912MPD2     C13350   0.825   2.928  15.762  0.3962 -1.6741  0.5115
  912MPD2    C113351   0.739   2.920  15.869  0.2746  0.0486  0.1721
  912MPD2    C213352   0.691   2.798  15.922  0.2183 -0.3780  0.9084
  912MPD2    C313353   0.741   2.683  15.871  0.4759  0.0612 -0.0891
  912MPD2    C413354   0.811   2.688  15.753 -0.4538  0.0424  0.1854
  912MPD2    C513355   0.838   2.807  15.697 -0.3280  0.3164  0.7397
  912MPD2     H13356   0.624   2.777  16.004  0.1389  0.8323  1.1440
  912MPD2    H113357   0.831   2.605  15.687  0.3048  0.2536  0.1515
  912MPD2    H213358   0.855   3.021  15.714  0.3784 -1.8781  0.1015
  912MPD2    H313359   0.891   2.814  15.603 -0.0900  0.9383  0.9190
  912MPD2     N13360   0.720   2.565  15.947 -0.3733 -0.3844  0.1349
  912MPD2    H513361   0.654   2.579  16.022 -0.1423 -1.5112  0.5367
  912MPD2    N113362   0.700   3.042  15.930  0.2712 -0.1400  0.0265
  912MPD2    H713363   0.737   3.126  15.887  1.2447 -1.0568 -0.9272
  913MPD2     C13364   0.893   4.257  10.057 -0.2482  0.2685  0.1953
  913MPD2    C113365   0.967   4.339  10.139  0.3001 -0.5285 -0.0160
  913MPD2    C213366   1.004   4.462  10.089 -0.0317  0.6146 -0.1319
  913MPD2    C313367   0.967   4.512   9.965  0.4926  0.4903 -0.8968
  913MPD2    C413368   0.897   4.421   9.886  0.6211  0.7001  0.6228
  913MPD2    C513369   0.866   4.289   9.927 -0.8030 -0.2857  0.4542
  913MPD2     H13370   1.059   4.520  10.161  2.4424 -1.1738 -0.5958
  913MPD2    H113371   0.892   4.442   9.779 -0.1141 -0.4551  0.4251
  913MPD2    H213372   0.862   4.160  10.094 -1.4633  0.3558 -0.6031
  913MPD2    H313373   0.823   4.217   9.858  0.5278 -1.8183  1.2244
  913MPD2     N13374   0.998   4.639   9.905  0.7439 -0.2889  0.2300
  913MPD2    H513375   0.974   4.648   9.807 -0.1507 -1.2027  0.3692
  913MPD2    N113376   0.997   4.289  10.269 -0.0152 -0.3611  0.4443
  913MPD2    H713377   0.974   4.193  10.290  1.5658 -1.0624 -1.0904
  914MPD2     C13378   3.882   4.429  11.524 -0.2718 -0.6189 -0.3020
  914MPD2    C113379   3.772   4.489  11.580 -0.6859  0.3090  0.3142
  914MPD2    C213380   3.759   4.506  11.714  0.3710 -0.0578 -0.4102
  914MPD2    C313381   3.845   4.433  11.796 -0.0024 -0.1682 -0.2612
  914MPD2    C413382   3.963   4.379  11.735 -0.1109 -0.0310  0.2981
  914MPD2    C513383   3.977   4.375  11.601 -0.1244 -0.0261 -0.2625
  914MPD2     H13384   3.678   4.565  11.755  1.9862  1.0295  1.2309
  914MPD2    H113385   4.034   4.322  11.793 -1.2864 -2.0584 -0.2516
  914MPD2    H213386   3.896   4.440  11.417  0.0925  1.3025 -0.0621
  914MPD2    H313387   4.063   4.324  11.559 -0.8666 -1.2554 -0.2989
  914MPD2     N13388   3.831   4.450  11.934  0.4794 -0.2842 -0.1722
  914MPD2    H513389   3.754   4.507  11.968 -0.8640 -2.2909  0.0933
  914MPD2    N113390   3.691   4.543  11.478 -0.4803  0.6674 -0.5040
  914MPD2    H713391   3.734   4.561  11.388  1.2727  0.3853  0.2828
  915MPD2     C13392   2.157   4.507  15.798 -0.4479  0.0171  0.0700
  915MPD2    C113393   2.052   4.565  15.729 -0.7122 -0.0943 -0.4387
  915MPD2    C213394   1.919   4.546  15.766 -0.4213 -0.4088 -0.7092
  915MPD2    C313395   1.888   4.487  15.884 -0.4186  0.1456 -0.2446
  915MPD2    C413396   1.996   4.448  15.959  0.0168 -0.5128  0.4461
  915MPD2    C513397   2.130   4.445  15.913  0.0302 -0.1363 -0.1340
  915MPD2     H13398   1.837   4.585  15.707  1.0249  2.1450 -1.0439
  915MPD2    H113399   1.992   4.412  16.061 -0.3080 -0.6381  0.3883
  915MPD2    H213400   2.261   4.515  15.766 -0.2761 -0.8022  0.4082
  915MPD2    H313401   2.200   4.384  15.969  2.6633  4.1073  1.1505
  915MPD2     N13402   1.756   4.480  15.939 -0.7748 -0.2149  0.2580
  915MPD2    H513403   1.692   4.539  15.886 -2.2805 -2.7860 -0.8037
  915MPD2    N113404   2.093   4.630  15.609  0.3078 -0.0014 -0.2516
  915MPD2    H713405   2.194   4.637  15.602  0.4086 -0.3573  0.9553
  916MPD2     C13406   0.335   2.857  15.721  0.5415 -0.1750 -0.0835
  916MPD2    C113407   0.374   2.764  15.811 -1.1683 -0.2220 -0.2530
  916MPD2    C213408   0.433   2.649  15.754 -0.4475  1.1641 -0.1962
  916MPD2    C313409   0.464   2.634  15.617  0.6144  0.1705  0.1022
  916MPD2    C413410   0.430   2.732  15.530  0.5437 -0.1703  0.4129
  916MPD2    C513411   0.363   2.844  15.585 -0.5862  0.3545  0.7791
  916MPD2     H13412   0.458   2.571  15.825 -0.7046 -0.4130 -1.8726
  916MPD2    H113413   0.440   2.721  15.422  1.0074 -1.8948  0.6293
  916MPD2    H213414   0.270   2.940  15.745  0.6484  1.1250 -4.1958
  916MPD2    H313415   0.321   2.918  15.517 -1.6586  0.1165  1.1873
  916MPD2     N13416   0.539   2.522  15.574 -0.1446 -0.2807 -0.0471
  916MPD2    H513417   0.551   2.447  15.642 -0.8639  0.2072  0.6091
  916MPD2    N113418   0.344   2.797  15.943 -0.1314 -0.4866  0.0332
  916MPD2    H713419   0.311   2.891  15.959  0.5188 -0.2724  0.1114
  917MPD2     C13420   0.393   0.193  11.046  0.0660  0.1216  0.8087
  917MPD2    C113421   0.433   0.241  11.174  0.1042 -0.7493 -0.2541
  917MPD2    C213422   0.544   0.328  11.169 -0.1220  0.3727  0.3502
  917MPD2    C313423   0.600   0.365  11.053  0.0685 -0.3443 -0.8315
  917MPD2    C413424   0.553   0.317  10.933  0.0571  0.0277  0.6720
  917MPD2    C513425   0.452   0.232  10.928 -0.3291 -0.8007  0.2997
  917MPD2     H13426   0.568   0.390  11.254 -0.3069  1.2174 -0.2229
  917MPD2    H113427   0.583   0.352  10.835 -1.6079 -0.1849  0.0819
  917MPD2    H213428   0.307   0.126  11.043  1.0558 -1.1216  0.1930
  917MPD2    H313429   0.408   0.199  10.835 -0.9380 -0.7051  0.5584
  917MPD2     N13430   0.714   0.448  11.054 -0.3665 -0.1787  0.5659
  917MPD2    H513431   0.738   0.498  10.969 -0.7320  2.5756  2.0703
  917MPD2    N113432   0.366   0.217  11.292  0.0756 -0.2305 -0.0164
  917MPD2    H713433   0.290   0.152  11.278  0.2245 -0.0705 -1.5987
  918MPD2     C13434   0.066   0.905  11.913 -0.5477 -0.9099 -0.6537
  918MPD2    C113435   0.185   0.847  11.942 -0.0707 -0.5283 -0.0074
  918MPD2    C213436   0.207   0.716  11.901 -0.0358 -0.2943  0.4741
  918MPD2    C313437   0.113   0.652  11.825  0.1141 -0.5748  0.3161
  918MPD2    C413438   4.718   0.711  11.792 -0.1800  0.0443  0.2358
  918MPD2    C513439   4.698   0.835  11.841 -0.2384  0.7397  0.2575
  918MPD2     H13440   0.307   0.675  11.904  0.4154  0.7433 -0.4743
  918MPD2    H113441   4.631   0.671  11.741  0.2369 -0.2440 -0.2367
  918MPD2    H213442   0.040   1.007  11.937 -0.5839 -0.4906 -2.4676
  918MPD2    H313443   4.613   0.888  11.801 -0.1890  0.8809  0.3422
  918MPD2     N13444   0.153   0.521  11.780 -0.5273 -0.3698  0.6670
  918MPD2    H513445   0.245   0.487  11.808 -1.2660 -1.6960  1.4760
  918MPD2    N113446   0.271   0.898  12.035  0.2253 -0.1688  0.2753
  918MPD2    H713447   0.335   0.831  12.076 -0.0532 -0.1056  0.8041
  919MPD2     C13448   1.111   4.150  11.615 -0.2907 -0.1093  0.3914
  919MPD2    C113449   1.140   4.031  11.549  0.1634 -0.8207 -0.1445
  919MPD2    C213450   1.125   4.028  11.411  0.3224 -0.1651  0.3263
  919MPD2    C313451   1.064   4.134  11.347 -0.1727  0.1616  0.1037
  919MPD2    C413452   1.030   4.247  11.419 -0.9807 -1.0984  0.2086
  919MPD2    C513453   1.062   4.264  11.547 -0.5588 -0.5865  0.7693
  919MPD2     H13454   1.153   3.937  11.359 -0.4986  0.1934 -0.7304
  919MPD2    H113455   0.955   4.317  11.385  0.1379  0.2195  0.4091
  919MPD2    H213456   1.112   4.171  11.722  1.2490 -1.9971  0.7415
  919MPD2    H313457   1.021   4.350  11.599 -0.5218 -0.1812  0.1281
  919MPD2     N13458   1.031   4.140  11.207 -0.3764  0.2796  0.5793
  919MPD2    H513459   0.978   4.217  11.167 -1.4217 -0.1811  1.0627
  919MPD2    N113460   1.194   3.920  11.616  0.9115 -0.2419 -0.1707
  919MPD2    H713461   1.214   3.840  11.556  1.2748 -0.6134  0.4432
  920MPD2     C13462   0.779   4.645  10.340  0.4362 -0.1398  0.1944
  920MPD2    C113463   0.705   4.527  10.337  0.4122 -0.1005 -0.0660
  920MPD2    C213464   0.723   4.430  10.436 -0.5018  0.4226 -0.0142
  920MPD2    C313465   0.822   4.444  10.531  0.5166  0.0061 -0.4257
  920MPD2    C413466   0.886   4.565  10.531  0.2611 -0.2930  0.6139
  920MPD2    C513467   0.865   4.671  10.440  0.4562 -0.4117 -0.1536
  920MPD2     H13468   0.660   4.341  10.427 -0.5918  0.6678 -1.8214
  920MPD2    H113469   0.952   4.592  10.612 -0.6936  1.7541  0.6945
  920MPD2    H213470   0.763   4.720  10.264  0.3542 -0.1125  0.2384
  920MPD2    H313471   0.912   0.045  10.456  2.3853 -1.2687 -0.6615
  920MPD2     N13472   0.849   4.334  10.619  0.4663  0.7978  0.2493
  920MPD2    H513473   0.786   4.255  10.627  0.2949  0.9447  0.3434
  920MPD2    N113474   0.614   4.499  10.228 -0.3396  0.1348 -0.1061
  920MPD2    H713475   0.575   4.406  10.233  0.8186 -0.4329 -1.7318
  921MPD2     C13476   1.872   3.465  16.757 -0.3857  0.4375  0.4895
  921MPD2    C113477   1.953   3.360  16.771 -0.7782  0.6149  0.5961
  921MPD2    C213478   1.901   3.235  16.770 -0.4306 -0.5940  0.0719
  921MPD2    C313479   1.766   3.212  16.754  0.1425 -0.0782 -0.7293
  921MPD2    C413480   1.685   3.325  16.751  0.4557 -0.1143  0.9992
  921MPD2    C513481   1.735   3.453  16.761 -0.4674 -0.1918 -0.0441
  921MPD2     H13482   1.965   3.148  16.775 -0.0784 -0.2625  1.2086
  921MPD2    H113483   1.577   3.325  16.741  0.7263 -3.4160 -1.8800
  921MPD2    H213484   1.907   3.567  16.768 -1.1330  0.8207 -0.6510
  921MPD2    H313485   1.662   3.532  16.774  1.4370  1.2423  1.8558
  921MPD2     N13486   1.704   3.085  16.728 -0.3393  0.4998 -0.0692
  921MPD2    H513487   1.607   3.088  16.698 -0.2023  0.5532 -0.5151
  921MPD2    N113488   2.091   3.390  16.782  0.0829  0.8111  0.5310
  921MPD2    H713489   2.119   3.484  16.755  0.5635  0.5962  0.2716
  922MPD2     C13490   2.763   0.322   0.148 -0.0972 -0.3915 -0.4083
  922MPD2    C113491   2.764   0.409   0.038 -0.0386  0.6065 -0.2095
  922MPD2    C213492   2.653   0.476  17.687 -0.0937 -0.5046 -0.2666
  922MPD2    C313493   2.529   0.449   0.054 -0.0736  0.4175  0.1914
  922MPD2    C413494   2.526   0.363   0.159 -0.2581  0.2169  0.2039
  922MPD2    C513495   2.643   0.299   0.213  0.1579  0.3565  0.7791
  922MPD2     H13496   2.655   0.543  17.602 -0.8021  1.0371  0.9205
  922MPD2    H113497   2.438   0.325   0.210 -0.8782  0.9678 -0.3199
  922MPD2    H213498   2.848   0.267   0.187 -0.6666  1.0069  2.7956
  922MPD2    H313499   2.622   0.240   0.301  0.8733 -0.2903  0.5205
  922MPD2     N13500   2.414   0.498  17.680 -0.1323  0.2899  0.4983
  922MPD2    H513501   2.427   0.562  17.602  0.7374 -1.4172 -0.7532
  922MPD2    N113502   2.886   0.435  17.658 -0.2245  0.3922  0.8640
  922MPD2    H713503   2.876   0.489  17.573 -0.7551 -0.1004  0.6113
  923MPD2     C13504   3.783   1.977   9.165  0.1777 -0.5824  0.1479
  923MPD2    C113505   3.675   1.992   9.252 -0.4992  0.0498 -0.0394
  923MPD2    C213506   3.689   2.059   9.372  0.0447  0.4295 -0.1678
  923MPD2    C313507   3.822   2.082   9.415  0.2647  0.6951  0.1790
  923MPD2    C413508   3.928   2.068   9.330  0.0299 -0.2278  0.7110
  923MPD2    C513509   3.908   2.019   9.203  0.6724 -0.1527 -0.3818
  923MPD2     H13510   3.605   2.071   9.439 -0.2881 -2.4078 -0.0743
  923MPD2    H113511   4.027   2.082   9.371  0.8757 -0.5519 -1.2356
  923MPD2    H213512   3.774   1.948   9.061 -2.8983  0.8927  0.0376
  923MPD2    H313513   3.988   1.985   9.138  2.6163 -0.6294  2.2673
  923MPD2     N13514   3.861   2.136   9.538  0.0157 -0.5077 -0.3758
  923MPD2    H513515   3.958   2.151   9.562 -0.5926 -0.4554  2.0698
  923MPD2    N113516   3.549   1.964   9.201 -0.0040  0.2205 -0.3951
  923MPD2    H713517   3.541   1.921   9.109  2.4396 -1.1399  0.0397
  924MPD2     C13518   4.045   1.132  16.060 -0.0588  0.3784  0.5707
  924MPD2    C113519   3.978   1.169  16.178  0.5357  0.0456  1.0748
  924MPD2    C213520   3.989   1.302  16.226 -0.4319  0.4020 -1.0281
  924MPD2    C313521   4.064   1.391  16.151  0.2624  0.1958 -0.4024
  924MPD2    C413522   4.139   1.345  16.044  0.2137  0.3167 -0.3798
  924MPD2    C513523   4.118   1.223  15.990 -0.1417  0.5070 -0.2738
  924MPD2     H13524   3.951   1.324  16.324  0.4386 -2.3640 -0.0630
  924MPD2    H113525   4.201   1.425  16.005 -0.7160  1.2809  0.0866
  924MPD2    H213526   4.043   1.028  16.030 -0.2383  0.9989 -1.6093
  924MPD2    H313527   4.168   1.195  15.898  0.5796 -0.8818  0.5556
  924MPD2     N13528   4.085   1.520  16.189 -0.2623 -0.7151 -0.0429
  924MPD2    H513529   4.155   1.572  16.136 -1.1895 -1.0618 -1.6089
  924MPD2    N113530   3.904   1.078  16.244 -0.1930 -0.1476  1.1644
  924MPD2    H713531   3.911   0.984  16.207  2.3071  1.0595 -1.4731
  925MPD2     C13532   2.773   3.791  14.923  0.8086  0.1315  0.1541
  925MPD2    C113533   2.638   3.832  14.914  0.3456 -0.0734  1.0905
  925MPD2    C213534   2.563   3.826  15.032 -0.3775 -0.2559  0.5454
  925MPD2    C313535   2.621   3.779  15.157 -0.4286  0.3672  0.0748
  925MPD2    C413536   2.746   3.722  15.149 -1.6144 -0.2355 -0.1402
  925MPD2    C513537   2.823   3.728  15.033  0.2194 -0.2580  0.5720
  925MPD2     H13538   2.462   3.863  15.025  0.2859  0.9349 -2.4334
  925MPD2    H113539   2.796   3.667  15.228  0.1576  2.9131  0.9491
  925MPD2    H213540   2.850   3.804  14.848  2.5551  1.1580  2.1300
  925MPD2    H313541   2.929   3.709  15.040  0.4397  0.8958  0.3169
  925MPD2     N13542   2.564   3.796  15.283 -0.0517 -0.7203  0.0781
  925MPD2    H513543   2.602   3.764  15.371  0.7756  0.7466  0.2525
  925MPD2    N113544   2.589   3.895  14.795  0.1824 -0.5240 -0.0596
  925MPD2    H713545   2.489   3.914  14.794  0.1059 -0.9029  0.2155
  926MPD2     C13546   1.675   2.489  13.614 -0.5246  0.4786 -0.2510
  926MPD2    C113547   1.554   2.528  13.574  0.4142 -0.4407  0.5256
  926MPD2    C213548   1.540   2.602  13.458  0.2883 -0.5009 -0.1415
  926MPD2    C313549   1.652   2.621  13.373 -0.2468 -0.3510  0.3026
  926MPD2    C413550   1.774   2.583  13.420 -0.0336  0.4862 -0.6878
  926MPD2    C513551   1.787   2.519  13.539 -0.1254  0.1016  0.4062
  926MPD2     H13552   1.440   2.637  13.432  0.8522  0.8080 -0.5742
  926MPD2    H113553   1.867   2.612  13.371  0.4349 -1.7382 -1.1393
  926MPD2    H213554   1.688   2.425  13.701  2.0572  0.2503 -0.7818
  926MPD2    H313555   1.882   2.478  13.574 -1.2155 -3.3042 -0.5566
  926MPD2     N13556   1.645   2.702  13.250 -0.1410 -0.0122 -0.1330
  926MPD2    H513557   1.735   2.708  13.202 -0.0543  1.5242  0.2248
  926MPD2    N113558   1.432   2.514  13.656 -0.5886 -0.4086  0.3375
  926MPD2    H713559   1.350   2.563  13.622 -0.2452  0.1563  0.3223
  927MPD2     C13560   0.924   3.607   0.113  0.4436  0.4434  0.3769
  927MPD2    C113561   0.901   3.737   0.158 -0.1120 -0.1612  0.0416
  927MPD2    C213562   0.994   3.834   0.128 -0.2498  0.2911 -0.0626
  927MPD2    C313563   1.110   3.799   0.070 -0.2969  0.3538  1.3438
  927MPD2    C413564   1.121   3.673   0.015 -0.6265  0.2463  0.2724
  927MPD2    C513565   1.022   3.583   0.026  0.2061  0.7010 -0.3346
  927MPD2     H13566   0.978   3.935   0.163 -1.6671 -0.2713  0.9101
  927MPD2    H113567   1.211   3.647  17.650 -0.3638 -0.7008  1.1585
  927MPD2    H213568   0.850   3.528   0.123  0.4477  0.1124 -2.0806
  927MPD2    H313569   1.039   3.486  17.671  1.9522  0.7431  0.2225
  927MPD2     N13570   1.213   3.896   0.074  0.3107 -0.3167  0.2890
  927MPD2    H513571   1.184   3.982   0.120  2.7567  1.6495 -1.8756
  927MPD2    N113572   0.783   3.763   0.224  0.6312  0.3257  0.0704
  927MPD2    H713573   0.725   3.686   0.255  0.6994  1.2301  2.4411
  928MPD2     C13574   3.749   1.935   0.599  0.3439  0.1719  1.0178
  928MPD2    C113575   3.744   2.060   0.650  0.5745 -0.5391 -0.4013
  928MPD2    C213576   3.806   2.166   0.585  0.7746  0.4127 -0.5097
  928MPD2    C313577   3.868   2.141   0.466  0.2962 -0.7238  0.6367
  928MPD2    C413578   3.862   2.015   0.406 -0.1776 -0.2031 -0.2153
  928MPD2    C513579   3.807   1.909   0.480 -0.1218 -0.0907  0.5201
  928MPD2     H13580   3.819   2.262   0.634 -1.8014  0.0256  0.9472
  928MPD2    H113581   3.916   1.996   0.314  2.8443 -1.1917  1.7396
  928MPD2    H213582   3.707   1.857   0.662 -0.5872  1.2009  1.6559
  928MPD2    H313583   3.819   1.811   0.436  2.6794 -0.2157  1.5140
  928MPD2     N13584   3.922   2.246   0.384 -0.1134  0.3725  0.1880
  928MPD2    H513585   3.953   2.216   0.292 -0.5544  1.6370 -0.3645
  928MPD2    N113586   3.679   2.077   0.778  0.7887  0.2400  0.8050
  928MPD2    H713587   3.628   2.000   0.820  2.9509 -1.9362 -0.5640
  929MPD2     C13588   2.843   2.740   9.493 -0.5251  0.0329  0.2790
  929MPD2    C113589   2.879   2.734   9.629 -0.4697 -1.0129  0.4695
  929MPD2    C213590   2.820   2.831   9.706 -0.0368  0.6245 -0.4427
  929MPD2    C313591   2.713   2.905   9.663 -0.2226 -0.5123 -0.1735
  929MPD2    C413592   2.674   2.899   9.533  0.4854 -0.0705  0.0481
  929MPD2    C513593   2.745   2.823   9.445  0.1541 -0.4802 -0.0096
  929MPD2     H13594   2.833   2.818   9.813 -1.1363  1.9689 -0.1538
  929MPD2    H113595   2.590   2.954   9.493  0.5916  0.3570  0.4089
  929MPD2    H213596   2.884   2.666   9.425  0.8610  0.7396  0.3358
  929MPD2    H313597   2.714   2.816   9.342  0.9279 -1.0750 -0.2026
  929MPD2     N13598   2.637   2.988   9.749  0.1092  0.1027  0.7869
  929MPD2    H513599   2.552   3.024   9.709  0.3079 -1.1754 -0.7781
  929MPD2    N113600   2.984   2.647   9.665  0.7328 -0.1371 -0.4024
  929MPD2    H713601   3.031   2.600   9.587  0.9996  0.8152 -0.8148
  930MPD2     C13602   1.031   0.224  14.146  0.5897 -0.9764  0.6847
  930MPD2    C113603   1.155   0.285  14.131  0.0153 -0.1292  0.3572
  930MPD2    C213604   1.209   0.287  14.006  0.2079 -0.3143  0.4613
  930MPD2    C313605   1.156   0.223  13.896  0.3450  0.1030  0.8029
  930MPD2    C413606   1.033   0.153  13.909  0.1092  0.3303  0.6230
  930MPD2    C513607   0.984   0.149  14.038 -0.0162 -0.2632 -0.7853
  930MPD2     H13608   1.302   0.338  13.987  0.4824 -0.1858  2.1114
  930MPD2    H113609   0.982   0.102  13.828  0.3902  2.3104 -0.7949
  930MPD2    H213610   0.964   0.229  14.231 -2.0687  0.9758 -1.5026
  930MPD2    H313611   0.889   0.101  14.055 -1.4093  1.4804 -3.6110
  930MPD2     N13612   1.204   0.234  13.764 -0.0048 -0.9126 -0.1185
  930MPD2    H513613   1.153   0.196  13.685 -1.5821  0.7052  0.1042
  930MPD2    N113614   1.196   0.367  14.239 -0.1666 -0.2985  0.0144
  930MPD2    H713615   1.125   0.402  14.303 -1.0023 -0.2464 -0.9504
  931MPD2     C13616   0.800   3.987   0.843 -0.4949  0.5734  0.3325
  931MPD2    C113617   0.715   3.887   0.830  0.0319 -0.9390 -0.4497
  931MPD2    C213618   0.718   3.776   0.918 -0.2192  1.2490  0.0790
  931MPD2    C313619   0.813   3.770   1.016  0.3439  0.5501  0.0477
  931MPD2    C413620   0.904   3.875   1.023  0.1671 -0.8160 -0.2097
  931MPD2    C513621   0.892   3.993   0.949  0.3518 -0.2928  0.1775
  931MPD2     H13622   0.661   3.686   0.900  0.3195  1.0431 -0.6023
  931MPD2    H113623   0.982   3.872   1.098  0.3969 -0.5433 -0.4373
  931MPD2    H213624   0.807   4.068   0.771 -0.4118  1.1050  0.9399
  931MPD2    H313625   0.972   4.065   0.962  1.0162 -1.0843  0.4735
  931MPD2     N13626   0.831   3.658   1.097  0.5239  0.1967 -0.3549
  931MPD2    H513627   0.916   3.657   1.152  0.7258  2.2852 -0.6222
  931MPD2    N113628   0.641   3.890   0.708  0.8964  0.0251 -0.0074
  931MPD2    H713629   0.662   3.973   0.653  1.0587  0.0660  0.1160
  932MPD2     C13630   2.144   4.012  11.279 -0.5173 -0.4444  0.3203
  932MPD2    C113631   2.264   4.024  11.343 -0.2784 -0.3714  0.1195
  932MPD2    C213632   2.315   3.926  11.420 -0.4061  0.0447 -0.5650
  932MPD2    C313633   2.243   3.808  11.439 -0.4614  0.6692 -0.0903
  932MPD2    C413634   2.125   3.787  11.356  0.2888 -0.4293  0.2823
  932MPD2    C513635   2.069   3.899  11.300 -0.7530 -0.0357 -0.4519
  932MPD2     H13636   2.403   3.951  11.479 -0.1728 -0.4635 -0.6958
  932MPD2    H113637   2.070   3.694  11.362 -1.8416  0.8766  1.0573
  932MPD2    H213638   2.103   4.097  11.225 -0.1102 -1.0471 -0.9299
  932MPD2    H313639   1.974   3.883  11.251 -0.9923  0.0814 -0.0273
  932MPD2     N13640   2.287   3.701  11.516  0.3425  0.5689 -0.6734
  932MPD2    H513641   2.229   3.619  11.518  1.0316  0.0981 -0.0051
  932MPD2    N113642   2.354   4.140  11.332 -0.2947 -0.2371 -0.7696
  932MPD2    H713643   2.439   4.134  11.387 -1.2073 -1.5815  0.4964
  933MPD2     C13644   3.711   2.035   1.638  0.3342  0.0606  0.5781
  933MPD2    C113645   3.681   2.128   1.546  0.3900  0.2172  0.3300
  933MPD2    C213646   3.664   2.256   1.590 -0.2117 -0.5019 -0.5057
  933MPD2    C313647   3.655   2.291   1.729 -0.1993  0.4239 -0.3591
  933MPD2    C413648   3.681   2.192   1.823  0.0938 -0.0825  1.1531
  933MPD2    C513649   3.699   2.063   1.772  0.0596 -0.2468 -0.3559
  933MPD2     H13650   3.631   2.330   1.519 -2.4139 -1.3686 -0.3842
  933MPD2    H113651   3.670   2.200   1.930  1.3510  1.0726  1.1946
  933MPD2    H213652   3.721   1.932   1.605  0.2145  0.2250  0.0372
  933MPD2    H313653   3.713   1.988   1.848 -0.1116  0.0870  0.0107
  933MPD2     N13654   3.616   2.424   1.762 -0.4687  0.2135 -0.3326
  933MPD2    H513655   3.583   2.481   1.684  2.6302  0.4431 -1.4783
  933MPD2    N113656   3.671   2.090   1.410  0.2403  0.1810 -0.7889
  933MPD2    H713657   3.673   1.989   1.396 -0.3331  0.0696 -0.0980
  934MPD2     C13658   0.722   4.060   1.752 -0.4209  0.6085  0.4960
  934MPD2    C113659   0.668   4.150   1.664 -0.4959 -0.1534 -0.1058
  934MPD2    C213660   0.532   4.160   1.646  1.0179  0.8444  0.0987
  934MPD2    C313661   0.448   4.075   1.716 -0.7693  0.1747  0.3923
  934MPD2    C413662   0.507   3.968   1.786 -0.3982 -0.5186  0.1005
  934MPD2    C513663   0.638   3.964   1.809 -0.0097  0.4449 -0.5481
  934MPD2     H13664   0.498   4.235   1.576 -0.3668  0.3622  0.2529
  934MPD2    H113665   0.444   3.893   1.830 -0.5654  0.4021  1.4403
  934MPD2    H213666   0.828   4.036   1.759 -0.3378  0.3967 -1.4933
  934MPD2    H313667   0.689   3.890   1.870 -0.2434  1.2782  0.6579
  934MPD2     N13668   0.309   4.084   1.713  0.3469 -0.4350  0.3019
  934MPD2    H513669   0.259   4.007   1.757  1.0100 -0.7311  0.5558
  934MPD2    N113670   0.751   4.239   1.599 -0.1354  0.2547  0.2347
  934MPD2    H713671   0.712   4.315   1.545 -0.5600  0.5314  0.9365
  935MPD2     C13672   4.299   3.835   1.063 -0.2648 -0.0178  0.1502
  935MPD2    C113673   4.414   3.780   1.115 -0.0223  0.6884  0.3089
  935MPD2    C213674   4.478   3.837   1.224 -0.1886  1.1290  0.4455
  935MPD2    C313675   4.441   3.958   1.277 -0.0093  0.1612 -0.5373
  935MPD2    C413676   4.335   4.023   1.214  0.5371  0.2460 -0.6754
  935MPD2    C513677   4.266   3.957   1.115 -0.2028 -0.2970  0.2626
  935MPD2     H13678   4.565   3.782   1.259  0.7246  1.4527 -1.2966
  935MPD2    H113679   4.293   4.115   1.252 -2.0269 -0.1829 -2.4912
  935MPD2    H213680   4.235   3.787   0.990 -2.3941  0.8933  1.3976
  935MPD2    H313681   4.171   4.001   1.084 -1.4523 -1.4529  2.4535
  935MPD2     N13682   4.501   4.029   1.381  0.2570  0.9619 -0.3438
  935MPD2    H513683   4.456   4.115   1.412 -0.7965  0.1649  0.2995
  935MPD2    N113684   4.474   3.659   1.068 -0.8530 -0.1718  0.4416
  935MPD2    H713685   4.556   3.616   1.110  0.0114  0.4266 -0.6422
  936MPD2     C13686   3.283   2.132  12.379 -0.8680 -0.6873 -0.9264
  936MPD2    C113687   3.319   2.172  12.505  0.0138 -0.2368  0.5970
  936MPD2    C213688   3.268   2.288  12.566 -0.4638 -0.3889 -0.8037
  936MPD2    C313689   3.189   2.370  12.487 -0.1651  0.0209  0.3273
  936MPD2    C413690   3.154   2.333  12.360  0.1732 -0.0452 -0.5953
  936MPD2    C513691   3.201   2.213  12.305  0.7381  0.0611  0.2633
  936MPD2     H13692   3.320   2.319  12.655  1.3838 -0.0617 -1.9990
  936MPD2    H113693   3.084   2.388  12.299  0.6575  0.5731 -0.5983
  936MPD2    H213694   3.330   2.048  12.329  1.4629  1.1586 -1.8027
  936MPD2    H313695   3.172   2.183  12.205  0.7865  1.7589 -0.2580
  936MPD2     N13696   3.151   2.495  12.534  0.2796  0.5038  0.1733
  936MPD2    H513697   3.094   2.552  12.472 -3.5216 -4.0191 -0.5408
  936MPD2    N113698   3.396   2.088  12.596  0.3991 -0.0752 -0.2415
  936MPD2    H713699   3.397   2.123  12.691 -1.6515  0.1209 -0.3036
  937MPD2     C13700   1.262   3.277  11.442  0.1301 -0.3607  0.1037
  937MPD2    C113701   1.359   3.380  11.452  0.5598  0.7195 -0.3564
  937MPD2    C213702   1.410   3.431  11.333  0.2020 -0.0333 -0.3810
  937MPD2    C313703   1.386   3.372  11.211  0.6880 -0.2237 -0.4497
  937MPD2    C413704   1.282   3.286  11.203  0.2819  0.6771  0.0619
  937MPD2    C513705   1.231   3.232  11.319  0.4695  0.1692 -0.3759
  937MPD2     H13706   1.488   3.506  11.334 -0.5554  0.7574 -1.6042
  937MPD2    H113707   1.252   3.237  11.110  0.6715  0.0810  0.2513
  937MPD2    H213708   1.205   3.224  11.517  1.2396 -1.8017 -0.0646
  937MPD2    H313709   1.168   3.145  11.307  1.6946 -0.8240  0.4912
  937MPD2     N13710   1.456   3.429  11.097 -0.1568  0.7463  0.6151
  937MPD2    H513711   1.504   3.517  11.113 -0.4558  0.9732  0.2392
  937MPD2    N113712   1.372   3.468  11.559  0.4299 -0.0338 -0.4358
  937MPD2    H713713   1.430   3.551  11.548  0.4075 -0.0220 -0.4647
  938MPD2     C13714   3.908   3.916   0.900  0.2643  0.0233 -0.4103
  938MPD2    C113715   3.874   4.026   0.974 -0.7229  0.0841 -0.5528
  938MPD2    C213716   3.780   4.023   1.073 -1.1338  0.2139 -0.1213
  938MPD2    C313717   3.717   3.905   1.094  0.3882  0.3584  0.4436
  938MPD2    C413718   3.755   3.788   1.027  0.4501 -0.0943 -0.5905
  938MPD2    C513719   3.857   3.793   0.933  0.3741 -0.0885 -0.1250
  938MPD2     H13720   3.748   4.117   1.116 -2.7867 -0.1112 -0.6396
  938MPD2    H113721   3.712   3.695   1.062  1.0155 -0.1550 -0.0553
  938MPD2    H213722   3.984   3.921   0.824 -0.0025 -1.6103 -0.7928
  938MPD2    H313723   3.885   3.703   0.880 -1.2656  0.4236 -1.8307
  938MPD2     N13724   3.607   3.894   1.183  0.6250  0.3311  0.5100
  938MPD2    H513725   3.563   3.805   1.204  0.9022  0.2784  0.8778
  938MPD2    N113726   3.925   4.154   0.948  0.3308  0.0407 -0.6938
  938MPD2    H713727   3.896   4.225   1.014 -1.8391 -1.6162  0.1575
  939MPD2     C13728   0.439   0.759   1.497 -0.4814 -0.1429 -0.0357
  939MPD2    C113729   0.418   0.885   1.448 -0.3354 -0.0052  0.4595
  939MPD2    C213730   0.388   0.902   1.316  0.6379  0.2460 -0.1152
  939MPD2    C313731   0.386   0.795   1.234  0.2082 -0.0891 -0.0117
  939MPD2    C413732   0.399   0.661   1.280  0.4785  0.0773  0.2125
  939MPD2    C513733   0.425   0.651   1.417  0.3183 -0.4774  0.0128
  939MPD2     H13734   0.363   1.003   1.285 -0.1006  0.0375 -0.1972
  939MPD2    H113735   0.391   0.570   1.222 -0.3936 -0.5617  1.3298
  939MPD2    H213736   0.472   0.729   1.595 -1.0031  1.4747  0.6290
  939MPD2    H313737   0.448   0.557   1.466  0.6208 -0.4460 -0.0707
  939MPD2     N13738   0.360   0.831   1.101  0.0011  0.7476 -0.5785
  939MPD2    H513739   0.364   0.930   1.078 -1.2310  0.8237 -0.4811
  939MPD2    N113740   0.416   0.999   1.531 -0.2369  0.2845  0.0534
  939MPD2    H713741   0.411   1.086   1.478 -1.6029  0.2837  0.1653
  940MPD2     C13742   4.099   1.997  12.912 -0.2927  0.1963  0.6563
  940MPD2    C113743   4.227   1.959  12.944  0.2007  0.0061  0.4991
  940MPD2    C213744   4.308   1.894  12.851 -0.4300  0.6622  0.1503
  940MPD2    C313745   4.249   1.862  12.724 -0.2507  0.4751 -0.0277
  940MPD2    C413746   4.116   1.892  12.706 -0.4701 -0.2769 -0.1590
  940MPD2    C513747   4.044   1.967  12.794 -0.0962 -0.5851  0.5458
  940MPD2     H13748   4.410   1.872  12.878 -1.1167 -0.9184  1.4454
  940MPD2    H113749   4.072   1.859  12.613  1.6442 -3.3297 -0.0671
  940MPD2    H213750   4.035   2.059  12.973 -1.4994 -1.3449  0.9554
  940MPD2    H313751   3.948   2.004  12.761  0.3840  0.3547  0.1901
  940MPD2     N13752   4.320   1.780  12.627  0.2711 -0.1808 -0.8572
  940MPD2    H513753   4.262   1.751  12.549 -0.1705 -0.2362 -0.5083
  940MPD2    N113754   4.287   1.976  13.077 -0.9825 -0.1308  0.1572
  940MPD2    H713755   4.371   1.924  13.100 -1.3799 -0.4664  0.8246
  941MPD2     C13756   2.573   0.186   8.793 -0.3166  0.6255 -0.3407
  941MPD2    C113757   2.655   0.227   8.897 -0.3150  0.1822  0.2918
  941MPD2    C213758   2.616   0.222   9.026 -0.4899 -0.4010  0.2761
  941MPD2    C313759   2.501   0.155   9.064  0.5700  0.0586 -0.3104
  941MPD2    C413760   2.421   0.113   8.961 -0.5353 -0.3877  0.0639
  941MPD2    C513761   2.454   0.129   8.829  0.3350 -0.1903  0.0111
  941MPD2     H13762   2.688   0.255   9.100 -0.2318  1.4451 -0.8051
  941MPD2    H113763   2.324   0.073   8.990 -0.5909 -0.7431 -0.6101
  941MPD2    H213764   2.588   0.191   8.686  1.0132 -1.6102 -0.2659
  941MPD2    H313765   2.393   0.079   8.755  2.2155  0.9545 -2.3032
  941MPD2     N13766   2.463   0.120   9.196 -1.0284  0.2292 -0.0969
  941MPD2    H513767   2.377   0.066   9.197 -1.7296  1.3262 -3.1680
  941MPD2    N113768   2.780   0.293   8.871 -0.6350 -0.1705  0.0265
  941MPD2    H713769   2.837   0.314   8.952 -0.0185  1.7745 -0.9086
  942MPD2     C13770   2.120   2.499   9.803 -0.3376 -0.3056 -0.3909
  942MPD2    C113771   2.097   2.490   9.664  0.1030 -0.2609 -0.6871
  942MPD2    C213772   2.140   2.381   9.593 -0.8312  0.3255  0.3778
  942MPD2    C313773   2.227   2.289   9.662 -0.4754 -0.1208 -0.3073
  942MPD2    C413774   2.243   2.298   9.797 -0.7753 -0.4893 -0.2366
  942MPD2    C513775   2.194   2.403   9.866  0.2205  0.3857 -0.3745
  942MPD2     H13776   2.118   2.380   9.487 -0.0649 -0.2884  0.2235
  942MPD2    H113777   2.292   2.228   9.863  1.2090 -0.3325 -1.5487
  942MPD2    H213778   2.090   2.577   9.873  2.0754  0.1904  0.1009
  942MPD2    H313779   2.213   2.415   9.972  0.1917  0.5397 -0.3868
  942MPD2     N13780   2.298   2.188   9.592 -0.6288  0.0308 -0.2013
  942MPD2    H513781   2.361   2.134   9.649 -0.2741 -0.5014 -1.0958
  942MPD2    N113782   2.026   2.587   9.594 -0.4113  0.7184  0.6762
  942MPD2    H713783   2.006   2.564   9.498  2.9330 -0.0201  0.1471
  943MPD2     C13784   2.021   1.328   9.285  0.3724  0.1360 -0.8135
  943MPD2    C113785   1.924   1.258   9.350  0.0203  0.2043 -0.3360
  943MPD2    C213786   1.792   1.300   9.326 -0.2738 -0.4787 -0.5510
  943MPD2    C313787   1.756   1.411   9.247  0.1200 -0.7818  0.4062
  943MPD2    C413788   1.859   1.483   9.189  0.6465  0.3753 -0.3903
  943MPD2    C513789   1.988   1.437   9.209  0.3392  0.0403  0.3282
  943MPD2     H13790   1.718   1.244   9.383  0.3623 -0.8859 -0.1180
  943MPD2    H113791   1.842   1.568   9.125 -0.8224 -0.7503 -1.4835
  943MPD2    H213792   2.128   1.313   9.288  0.2590 -0.2461  1.9927
  943MPD2    H313793   2.064   1.495   9.158 -1.2097  0.3780 -1.6064
  943MPD2     N13794   1.630   1.450   9.220 -0.6501 -0.3350 -0.2706
  943MPD2    H513795   1.626   1.536   9.166  0.0654  0.0429  0.2848
  943MPD2    N113796   1.958   1.138   9.428 -0.9141 -0.1396  0.3410
  943MPD2    H713797   2.055   1.133   9.457 -1.0824  1.4445  1.1812
  944MPD2     C13798   1.670   0.362  11.665  0.0725 -0.1520  0.3091
  944MPD2    C113799   1.584   0.357  11.558  0.3349 -0.4777 -0.5311
  944MPD2    C213800   1.469   0.437  11.549  0.4859  0.1181  0.3218
  944MPD2    C313801   1.457   0.528  11.645 -0.4120  0.1233  0.0039
  944MPD2    C413802   1.548   0.540  11.748  0.0346 -0.6543  0.1715
  944MPD2    C513803   1.651   0.457  11.756 -0.3991  0.0202 -0.0419
  944MPD2     H13804   1.403   0.425  11.463  1.2839  1.3975 -0.4664
  944MPD2    H113805   1.553   0.630  11.808 -1.4999  0.5562 -1.5304
  944MPD2    H213806   1.763   0.308  11.673  0.2904  0.4090  1.4609
  944MPD2    H313807   1.731   0.469  11.829 -1.4561 -0.4015  1.1979
  944MPD2     N13808   1.356   0.624  11.629 -0.1772 -0.3966  0.1349
  944MPD2    H513809   1.295   0.619  11.548 -1.8699 -0.7677  1.4217
  944MPD2    N113810   1.604   0.239  11.479 -0.0037 -0.3750  0.1230
  944MPD2    H713811   1.677   0.174  11.506  0.4724  0.0631 -0.0940
    1TCq1    O113812   4.258   1.028  14.101  0.2298 -0.0991 -0.0265
    1TCq1    C113813   4.138   1.029  14.161  0.2776  0.0721 -0.7591
    1TCq1    O213814   4.032   1.013  14.107  0.2197 -0.8356 -0.2143
    1TCq1    C213815   4.171   0.985  14.293 -0.1880 -0.0401 -0.2145
    1TCq1    C313816   4.093   0.888  14.353  0.4559 -0.5205  0.7142
    1TCq1    C413817   4.115   0.853  14.483 -0.0667  0.0831 -0.3602
    1TCq1    C513818   4.222   0.921  14.539  0.0095 -0.4092 -0.4508
    1TCq1    C613819   4.285   1.030  14.481 -0.3605 -0.4616 -0.9356
    1TCq1    C713820   4.269   1.055  14.350  0.0075  0.0757 -0.0182
    1TCq1    C813821   4.399   1.084  14.554 -0.1394  0.1640 -0.0849
    1TCq1    O413822   4.402   1.056  14.673  0.6309 -0.1651 -0.4429
    1TCq1    C913823   4.044   0.751  14.551  0.0338 -0.2208 -0.7446
    1TCq1    O513824   3.970   0.674  14.481 -0.4067  0.3095  0.3327
    1TCq1    O613825   4.078   0.732  14.670  0.4003  0.3857 -0.6836
    1TCq1    H113826   4.335   1.008  14.158  1.4262  1.2420 -1.1857
    1TCq1    H213827   4.013   0.847  14.291 -0.2804  1.2394  0.4992
    1TCq1    H313828   4.236   0.905  14.646  0.1874 -2.2654 -0.7493
    1TCq1    H413829   4.305   1.139  14.291  2.3612  0.2039  1.6036
    2MPD2     C13830   0.069   1.400  14.655 -0.4450  0.7422  0.6161
    2MPD2    C113831   0.015   1.440  14.536 -0.3668  1.2166  0.3244
    2MPD2    C213832   4.633   1.367  14.482  0.1927 -0.9400  0.3716
    2MPD2    C313833   4.578   1.254  14.549 -0.2063 -0.2991  0.0048
    2MPD2    C413834   4.636   1.218  14.669 -0.6392  0.2760 -0.3027
    2MPD2    C513835   0.021   1.291  14.717 -0.0081  0.4324 -0.4080
    2MPD2     H13836   4.585   1.400  14.390  1.7332 -2.1241 -0.8586
    2MPD2    H113837   4.614   1.123  14.715 -0.2578  0.3945  0.1200
    2MPD2    H213838   0.155   1.451  14.697 -1.1101  1.7480  0.7650
    2MPD2    H313839   0.058   1.268  14.816 -1.8087  0.6953  0.3337
    2MPD2     N13840   4.473   1.181  14.488  0.4729  0.0065  0.2893
    2MPD2    H513841   4.451   1.214  14.394 -3.0070 -0.5957  0.9160
    2MPD2    N113842   0.079   1.546  14.470  0.1908 -0.7656 -0.6279
    2MPD2    H713843   0.163   1.581  14.515  0.0857 -0.3442 -0.7590
    3TMC2    C113844   0.136   1.715  14.327 -0.8940  0.2612 -0.4709
    3TMC2    C213845   0.187   1.782  14.437 -0.0881 -0.0869  0.3055
    3TMC2    C313846   0.282   1.878  14.420 -0.0768 -0.4491 -0.1332
    3TMC2    C413847   0.176   1.745  14.198  0.5406  0.1304  0.6069
    3TMC2    C513848   0.266   1.853  14.185  0.1878 -0.4598 -0.4457
    3TMC2    C613849   0.312   1.920  14.291  0.1316 -0.2699 -0.1460
    3TMC2     C13850   0.043   1.612  14.351  0.3453  0.2826 -0.5119
    3TMC2     O13851   4.687   1.576  14.262  0.4992 -0.2171 -0.5492
    3TMC2     H13852   0.157   1.768  14.540  3.8366 -2.5192  1.1338
    3TMC2    H113853   0.131   1.692  14.116 -0.5797 -0.2314  1.4518
    3TMC2    H213854   0.374   2.008  14.277 -1.2002  1.1084  2.6556
    3TMC2    C713855   0.264   1.939  14.069 -0.3244  0.4548 -0.1768
    3TMC2    C813856   0.337   1.946  14.532 -0.5408  0.6202 -0.2940
    3TMC2    O113857   0.275   2.058  14.083 -0.3893 -0.0063  0.1602
    3TMC2    O213858   0.371   2.060  14.534 -0.1225 -0.2786 -0.2365
    3TMC2    O513859   0.360   1.854  14.627 -0.3441  0.4370  0.5291
    3TMC2    H513860   0.366   1.762  14.592  0.8528 -0.2137  2.4199
    4MPD2     C13861   3.827   2.728  13.726 -0.2548  0.3757  0.0527
    4MPD2    C113862   3.904   2.768  13.619 -0.1826  0.7377  0.2733
    4MPD2    C213863   4.042   2.763  13.622  0.4798 -0.0016  0.3772
    4MPD2    C313864   4.107   2.721  13.737 -0.3723 -0.0821 -0.6965
    4MPD2    C413865   4.030   2.679  13.844  0.7800 -0.1491 -0.0562
    4MPD2    C513866   3.896   2.681  13.835  0.4175 -0.2748 -0.1827
    4MPD2     H13867   4.105   2.771  13.534  1.5231 -1.1721  1.0237
    4MPD2    H113868   4.073   2.624  13.927  0.8114 -0.2770 -0.1580
    4MPD2    H213869   3.720   2.723  13.738 -0.6052  2.0510 -2.4727
    4MPD2    H313870   3.839   2.635  13.915 -1.0753 -0.7874 -1.5609
    4MPD2     N13871   4.248   2.683  13.725  0.2357  0.5377 -0.0669
    4MPD2    H513872   4.299   2.702  13.640 -0.3927 -2.0861 -1.0278
    4MPD2    N113873   3.841   2.825  13.500 -0.1491 -0.2789  0.3075
    4MPD2    H713874   3.740   2.834  13.505 -0.0720  0.5149  0.4771
    5TCq2    C113875   4.322   2.619  13.824  0.2541  0.6744 -0.3233
    5TCq2    O213876   4.304   2.588  13.938  0.2667  0.0021  0.1605
    5TCq2    C213877   4.456   2.579  13.774 -0.7906 -0.1889 -0.4407
    5TCq2    C313878   4.514   2.651  13.676  0.1787  0.4626 -0.2164
    5TCq2    C413879   4.637   2.605  13.630  1.1305  0.1156  0.1137
    5TCq2    C513880   4.704   2.499  13.677 -0.8258 -0.1161 -0.6477
    5TCq2    C613881   4.639   2.433  13.777 -0.1567  0.0849 -0.6462
    5TCq2    C713882   4.518   2.473  13.831 -0.2407  0.7001  0.0234
    5TCq2    C813883   4.689   2.300  13.818  0.6003 -0.8345 -0.4744
    5TCq2    O413884   4.682   2.276  13.936 -0.0933 -0.6392  0.0908
    5TCq2    C913885   4.693   2.666  13.516  0.0897 -0.0163 -0.2979
    5TCq2    O513886   4.624   2.753  13.465 -0.1318 -0.4753 -0.1148
    5TCq2    O613887   0.086   2.643  13.489 -0.3812  0.1117 -0.0092
    5TCq2    H213888   4.470   2.741  13.634  0.0093 -0.2489 -1.5585
    5TCq2    H313889   0.069   2.465  13.623 -0.5211 -0.1030 -0.1653
    5TCq2    H413890   4.476   2.415  13.913  4.1956 -0.0644  1.7124
    6MPD1     C13891   3.319   4.562  12.865 -0.5047 -0.4390  0.7456
    6MPD1    C113892   3.396   4.518  12.761 -0.1431  0.3520  0.2722
    6MPD1    C213893   3.411   4.384  12.747 -0.2165  0.3566 -0.5634
    6MPD1    C313894   3.371   4.294  12.847  0.0628 -0.0360 -0.1366
    6MPD1    C413895   3.292   4.344  12.950  0.1044 -0.2669 -0.4490
    6MPD1    C513896   3.276   4.477  12.961 -0.1056  0.1921 -0.2284
    6MPD1     H13897   3.453   4.337  12.658 -0.0764 -0.7671  0.0891
    6MPD1    H113898   3.245   4.276  13.020  1.8997  0.4307  1.4570
    6MPD1    H213899   3.289   4.666  12.872  0.7353  0.0616 -1.4407
    6MPD1    H313900   3.212   4.513  13.041 -0.4154  0.6491 -0.6850
    6MPD1     N13901   3.390   4.153  12.836  0.6311 -0.5727  0.5815
    6MPD1    H513902   3.330   4.102  12.900 -0.0685 -3.0198 -2.0606
    6MPD1    N113903   3.415   4.596  12.646 -0.8621  0.6129 -0.2285
    6MPD1    H613904   3.465   4.683  12.660 -0.4752  0.7491 -2.4457
    6MPD1    H713905   3.479   4.539  12.591 -0.8045 -0.2016  0.6780
    7MPD2     C13906   3.211   3.425  12.995  0.3431  0.1612  0.3053
    7MPD2    C113907   3.321   3.445  13.064  0.1666 -0.1615  0.2763
    7MPD2    C213908   3.391   3.342  13.128 -0.7540 -0.1567 -1.0842
    7MPD2    C313909   3.347   3.209  13.115 -0.2321 -0.4898 -0.2582
    7MPD2    C413910   3.236   3.197  13.043  0.7246 -0.1967  0.5277
    7MPD2    C513911   3.161   3.299  12.991 -0.4908 -0.1716  0.2617
    7MPD2     H13912   3.483   3.350  13.185 -0.3308 -1.7377 -1.5459
    7MPD2    H113913   3.200   3.099  13.015 -0.0309  1.2858 -3.7232
    7MPD2    H213914   3.165   3.504  12.936  0.9630  0.8227  0.7135
    7MPD2    H313915   3.073   3.283  12.931 -0.1084  0.3617 -0.4407
    7MPD2     N13916   3.413   3.096  13.162 -0.2512  0.6669  0.4227
    7MPD2    H513917   3.396   3.012  13.108 -1.0194  0.6554  0.6743
    7MPD2    N113918   3.389   3.566  13.055 -0.4048 -0.4393  0.4214
    7MPD2    H713919   3.487   3.570  13.078  0.0238 -3.6738 -0.7438
    8TMC3    C113920   3.610   3.000  13.232  0.4364 -0.4283  0.2484
    8TMC3    C213921   3.689   2.960  13.331  0.1050  0.1146 -0.4821
    8TMC3    C313922   3.815   2.928  13.294  0.3791  0.0111 -0.0454
    8TMC3    C413923   3.669   3.014  13.104  0.1944 -0.1388  0.4753
    8TMC3    C513924   3.796   3.009  13.077  0.9542  0.6504  0.4887
    8TMC3    C613925   3.874   2.952  13.174 -0.3000 -0.9327 -0.9933
    8TMC3     C13926   3.508   3.095  13.261 -0.7405  0.0796  0.1267
    8TMC3     O13927   3.528   3.164  13.359  0.0700 -0.9276 -0.2218
    8TMC3     H13928   3.645   2.941  13.428  1.2202 -0.7030 -0.1363
    8TMC3    H113929   3.613   3.081  13.040 -1.0984 -1.8792 -0.2233
    8TMC3    H213930   3.976   2.915  13.164  0.8873  2.2388 -0.6159
    8TMC3    C713931   3.845   3.138  13.038 -0.3787  0.1350  0.0863
    8TMC3    C813932   3.908   2.879  13.392  0.1372 -0.3548  0.7809
    8TMC3    O113933   3.824   3.227  13.119 -0.2659  0.3114 -0.5126
    8TMC3    O213934   4.023   2.920  13.386 -0.0887  0.1355  0.1811
    9TMC3    C113935   3.484   3.941  12.784  0.4752  0.4773  0.9070
    9TMC3    C213936   3.597   3.879  12.745  0.5785  0.2760  0.0356
    9TMC3    C313937   3.638   3.767  12.808  0.0273 -0.4020 -0.5535
    9TMC3    C413938   3.411   3.887  12.889  0.3584  1.5478 -0.3340
    9TMC3    C513939   3.444   3.765  12.944  0.1173  0.2177 -0.2310
    9TMC3    C613940   3.562   3.709  12.905 -0.1729 -0.4174  0.2843
    9TMC3     C13941   3.480   4.081  12.759 -0.6597  0.5094  0.0487
    9TMC3     O13942   3.573   4.127  12.697 -0.0984  0.1979 -0.5396
    9TMC3     H13943   3.676   3.923  12.684  2.3767  0.0974  2.2092
    9TMC3    H113944   3.310   3.927  12.893  0.6289  2.1807  0.2632
    9TMC3    H213945   3.587   3.607  12.933 -0.2412 -0.3112  0.7302
    9TMC3    C713946   3.342   3.684  12.999 -0.2473  0.7532 -0.1214
    9TMC3    C813947   3.742   3.697  12.734 -1.0850 -0.0663  0.6775
    9TMC3    O113948   3.230   3.731  12.986  0.0030  0.1645  0.1764
    9TMC3    O213949   3.750   3.712  12.614  0.4657  0.1809 -0.3017
   10MPD2     C13950   3.944   3.230  12.698  0.7848  0.0429  0.0020
   10MPD2    C113951   3.897   3.253  12.823  0.2793 -0.2058  0.6766
   10MPD2    C213952   3.851   3.375  12.855  0.7314 -0.6194 -0.5050
   10MPD2    C313953   3.843   3.474  12.762 -0.4088 -0.3730 -0.3343
   10MPD2    C413954   3.897   3.456  12.634 -0.4299 -0.2332 -0.0083
   10MPD2    C513955   3.950   3.335  12.604 -0.4671  0.2359 -0.0901
   10MPD2     H13956   3.824   3.382  12.960  0.3367 -0.7408 -0.5997
   10MPD2    H113957   3.903   3.536  12.561 -0.1454 -1.0155 -0.8560
   10MPD2    H213958   3.975   3.131  12.665 -2.9797 -1.5586  1.1948
   10MPD2    H313959   3.981   3.313  12.502 -1.7254  0.0488 -0.4326
   10MPD2     N13960   3.782   3.588  12.809  0.1110 -0.2800 -0.5403
   10MPD2    H513961   3.764   3.593  12.908 -1.8928 -0.3448 -0.9098
   10MPD2    N113962   3.875   3.138  12.901  0.1709  0.1740 -0.8645
   10MPD2    H713963   3.890   3.047  12.858  0.3841  0.3678 -1.2014
   11MPD2     C13964   0.169   1.837  13.732  0.1784 -0.4930  0.2772
   11MPD2    C113965   0.171   1.916  13.846 -0.3702  0.3584  0.5383
   11MPD2    C213966   0.126   2.046  13.832 -0.1548 -0.1504  0.2892
   11MPD2    C313967   0.069   2.097  13.717 -0.6368  0.1148  0.0157
   11MPD2    C413968   0.080   2.017  13.602  0.4193  0.4487 -0.2020
   11MPD2    C513969   0.132   1.888  13.614 -0.1791 -0.1951  0.2768
   11MPD2     H13970   0.119   2.107  13.921  1.9817  0.8904 -0.2615
   11MPD2    H113971   0.040   2.054  13.508  1.0461  0.9269 -0.2785
   11MPD2    H213972   0.217   1.740  13.738  1.3231  0.2106  2.3481
   11MPD2    H313973   0.142   1.820  13.529  1.2192  0.6602 -0.2453
   11MPD2     N13974   0.011   2.225  13.708  0.0525 -0.2868  0.1722
   11MPD2    H513975   4.712   2.262  13.616  0.4017 -0.8463 -0.1307
   11MPD2    N113976   0.216   1.864  13.967  0.7543  0.4168 -0.2217
   11MPD2    H713977   0.233   1.764  13.971 -0.7219  0.1443 -0.6682
    1MPD1     C13978   4.492   2.889  16.545 -0.3773 -0.6569 -0.0297
    1MPD1    C113979   4.429   2.891  16.422 -0.0544  0.0323 -0.1425
    1MPD1    C213980   4.294   2.847  16.418 -0.6131  0.3694 -0.4599
    1MPD1    C313981   4.224   2.826  16.538 -0.1714 -0.0543 -0.2501
    1MPD1    C413982   4.285   2.835  16.663 -0.6392 -0.1514 -0.4465
    1MPD1    C513983   4.416   2.869  16.657 -0.6493  0.6131 -0.4880
    1MPD1     H13984   4.251   2.823  16.322 -2.0590  0.2092  0.2272
    1MPD1    H113985   4.230   2.824  16.756 -1.8393 -2.2944 -1.3892
    1MPD1    H213986   4.597   2.911  16.564 -0.3539 -0.9279  0.1475
    1MPD1    H313987   4.471   2.882  16.749 -1.2647  1.3708 -0.2313
    1MPD1     N13988   4.092   2.785  16.541 -0.1850 -0.1907 -0.0437
    1MPD1    H513989   4.068   2.768  16.638 -0.0771 -0.4077 -0.0553
    1MPD1    N113990   4.505   2.910  16.300  0.3186 -0.1540  0.2244
    1MPD1    H613991   4.585   2.970  16.315  0.4668 -0.7829  2.0073
    1MPD1    H713992   4.550   2.825  16.266 -1.1157 -0.4461 -0.9423
    2MPD1     C13993   3.379   2.601  15.839  0.1475  0.1977  0.7126
    2MPD1    C113994   3.493   2.533  15.855  0.1839 -0.3343  0.7691
    2MPD1    C213995   3.553   2.546  15.976 -0.3739  0.0724 -0.6134
    2MPD1    C313996   3.498   2.623  16.088  0.0008  0.2968 -0.1750
    2MPD1    C413997   3.375   2.682  16.067  0.3296 -0.0113  0.0022
    2MPD1    C513998   3.324   2.668  15.942 -0.0370 -0.7620 -0.8012
    2MPD1     H13999   3.645   2.491  15.991  0.0962  0.7843 -0.9143
    2MPD1    H114000   3.310   2.733  16.137 -2.7944 -2.4170 -1.1483
    2MPD1    H214001   3.331   2.616  15.743 -1.8367  0.1402  1.7182
    2MPD1    H314002   3.227   2.714  15.927 -0.6910 -2.1927 -0.8702
    2MPD1     N14003   3.572   2.633  16.210  0.5265 -0.0400  0.3507
    2MPD1    H514004   3.653   2.574  16.226 -0.5458 -1.2903  1.2161
    2MPD1    N114005   3.563   2.490  15.743  0.4986 -0.3987 -0.1041
    2MPD1    H614006   3.628   2.417  15.773  0.4050 -0.9827 -1.2784
    2MPD1    H714007   3.502   2.441  15.678  0.3395  0.2532 -0.4465
    3TMC3    C114008   3.636   2.738  16.421 -0.4461 -0.3611  0.1080
    3TMC3    C214009   3.596   2.787  16.545 -0.0320  1.0255  0.0147
    3TMC3    C314010   3.695   2.820  16.633  0.2084 -0.5508 -0.2295
    3TMC3    C414011   3.769   2.719  16.393 -0.3798  0.4387  0.1104
    3TMC3    C514012   3.869   2.745  16.486 -0.5535  0.0124 -0.1959
    3TMC3    C614013   3.828   2.798  16.606 -0.0363  0.3476  0.4258
    3TMC3     C14014   3.544   2.719  16.312  0.4857 -1.2670  0.1709
    3TMC3     O14015   3.439   2.780  16.331  0.7134  0.9858 -0.1564
    3TMC3     H14016   3.490   2.805  16.560  0.4981  2.7585  1.7399
    3TMC3    H114017   3.807   2.690  16.295  0.7741  2.5626 -0.0741
    3TMC3    H214018   3.900   2.843  16.675 -1.9132  3.2403  0.4972
    3TMC3    C714019   4.005   2.773  16.436  0.3988  0.0478  0.0377
    3TMC3    C814020   3.649   2.819  16.772 -0.4477  0.1056  0.5328
    3TMC3    O114021   4.028   2.783  16.313 -0.0029  0.5695 -0.2633
    3TMC3    O214022   3.727   2.768  16.857 -0.5036  0.0161 -0.4138
    4MPD1     C14023   3.328   2.937  17.158 -0.3892 -0.2930  0.4280
    4MPD1    C114024   3.301   3.017  17.053  0.1395  0.2768 -0.2780
    4MPD1    C214025   3.362   2.984  16.932  0.2446 -0.1124 -1.0831
    4MPD1    C314026   3.467   2.893  16.918  0.5857 -0.7630  0.0860
    4MPD1    C414027   3.495   2.814  17.034  0.1123  0.1546  0.1484
    4MPD1    C514028   3.427   2.841  17.148  0.4810  0.1490  0.1957
    4MPD1     H14029   3.350   3.054  16.850  0.0207 -0.7765 -1.6087
    4MPD1    H114030   3.567   2.733  17.031 -0.2442 -0.1309 -0.9615
    4MPD1    H214031   3.275   2.951  17.251 -1.2121 -0.5960  0.0024
    4MPD1    H314032   3.461   2.782  17.232  0.5376  0.3449  0.3113
    4MPD1     N14033   3.529   2.880  16.793 -0.4316 -0.5089  0.4093
    4MPD1    H514034   3.505   2.939  16.714  1.6377  3.1496  2.5017
    4MPD1    N114035   3.193   3.110  17.055  0.0878 -0.1081  0.3632
    4MPD1    H614036   3.212   3.165  17.138 -0.1431 -0.0892  0.4035
    4MPD1    H714037   3.183   3.174  16.976  1.1981 -1.2953 -0.7514
    1TCq1    O114038   2.813   3.611  12.342 -0.1620  0.4720 -0.0721
    1TCq1    C114039   2.867   3.734  12.328 -0.0867  0.1470 -0.1930
    1TCq1    O214040   2.989   3.745  12.327  0.0651 -0.2287  0.3823
    1TCq1    C214041   2.794   3.775  12.211 -0.0830 -0.2366  0.0135
    1TCq1    C314042   2.854   3.804  12.096 -0.3463 -0.2390 -0.2000
    1TCq1    C414043   2.777   3.814  11.985  0.5501  0.1722 -0.0165
    1TCq1    C514044   2.634   3.821  11.998 -0.3201 -0.1307 -0.5128
    1TCq1    C614045   2.583   3.792  12.123  0.4328 -0.2552 -0.7907
    1TCq1    C714046   2.660   3.767  12.232  0.4500  0.2127  0.1697
    1TCq1    C814047   2.439   3.764  12.146 -0.5273 -0.2850  0.3381
    1TCq1    O414048   2.398   3.735  12.260 -0.7208 -0.2047 -0.4877
    1TCq1    C914049   2.842   3.859  11.862  0.0050 -0.2499 -0.0864
    1TCq1    O514050   2.962   3.900  11.869 -0.1094 -0.1060 -0.1045
    1TCq1    O614051   2.775   3.863  11.757 -0.3753 -0.6155  0.4851
    1TCq1    H114052   2.717   3.591  12.348  0.1224 -0.3522  1.9979
    1TCq1    H214053   2.962   3.801  12.083 -0.5125 -1.5990 -1.2381
    1TCq1    H314054   2.579   3.859  11.912 -2.1127 -1.0407  0.2541
    1TCq1    H414055   2.621   3.741  12.330  3.2854 -2.4711  0.5918
    2MPD1     C14056   1.972   3.655  11.949 -0.2659  0.6896 -0.1032
    2MPD1    C114057   2.054   3.694  11.850 -0.5685 -0.0545  0.5516
    2MPD1    C214058   2.192   3.721  11.877  0.4061 -0.5180 -0.5054
    2MPD1    C314059   2.236   3.720  12.008 -0.1016  0.2393 -0.1439
    2MPD1    C414060   2.150   3.689  12.107  0.7587 -1.2641  0.1216
    2MPD1    C514061   2.018   3.661  12.078 -0.0783  0.1397 -0.5216
    2MPD1     H14062   2.262   3.752  11.801 -1.4594 -0.4018 -2.1933
    2MPD1    H114063   2.183   3.678  12.210  0.2012  0.6417  0.4921
    2MPD1    H214064   1.873   3.615  11.930  0.7768 -1.2559 -1.4924
    2MPD1    H314065   1.956   3.625  12.159 -0.5896 -0.5961 -1.2326
    2MPD1     N14066   2.369   3.760  12.025 -0.0720 -0.3538 -0.0501
    2MPD1    H514067   2.419   3.783  11.939 -0.5736  0.8900  0.0019
    2MPD1    N114068   2.008   3.681  11.715 -0.3160  0.1812 -0.1681
    2MPD1    H614069   1.910   3.708  11.704 -0.0892  1.6628  1.5061
    2MPD1    H714070   2.064   3.748  11.663  1.7982 -0.7431  0.9327
    1TCq1    O114071   3.146   3.994   1.819  0.7135 -0.6221  0.2614
    1TCq1    C114072   3.121   4.005   1.951 -0.4501 -0.5105  0.1369
    1TCq1    O214073   3.033   3.941   2.009 -0.1073  0.2979 -0.4345
    1TCq1    C214074   3.148   4.140   2.004 -0.4947 -0.1568 -0.3499
    1TCq1    C314075   3.266   4.197   1.979 -0.6455 -0.4606 -0.4699
    1TCq1    C414076   3.289   4.334   1.993  0.0978  0.1630 -0.5987
    1TCq1    C514077   3.183   4.422   1.996  0.4681  0.6150 -0.0370
    1TCq1    C614078   3.059   4.366   2.024 -0.0782 -0.3417 -0.4862
    1TCq1    C714079   3.043   4.224   2.026 -0.1109  0.0619  0.1353
    1TCq1    C814080   2.932   4.440   1.996 -0.1604 -0.0578  0.7540
    1TCq1    O414081   2.830   4.377   2.014  0.0582  0.3349  0.0271
    1TCq1    C914082   3.422   4.372   1.941  0.6941  0.2554 -0.5650
    1TCq1    O514083   3.518   4.291   1.943 -0.3934 -0.2996  0.0578
    1TCq1    O614084   3.437   4.496   1.919 -0.3675  0.6302  0.4090
    1TCq1    H114085   3.193   4.075   1.791 -1.1354  0.7019  0.9622
    1TCq1    H214086   3.349   4.130   1.962 -1.6316 -0.9735 -3.3038
    1TCq1    H314087   3.213   4.526   1.990  0.2854  0.6575 -0.2212
    1TCq1    H414088   2.944   4.182   2.040 -0.2409  0.2649 -0.1717
    2MPD1     C14089   2.711   0.172   1.913  0.4794 -0.1400  0.3516
    2MPD1    C114090   2.846   0.182   1.895  0.4879  0.4107  0.3741
    2MPD1    C214091   2.928   0.076   1.910  0.1802  0.2163 -0.0742
    2MPD1    C314092   2.874   4.680   1.955 -0.0050  0.7107 -0.0448
    2MPD1    C414093   2.737   4.669   1.963  0.0651  1.0479 -0.0752
    2MPD1    C514094   2.654   0.055   1.948 -0.1913 -0.6448 -0.5790
    2MPD1     H14095   3.034   0.071   1.885  0.0175  1.0406 -0.9232
    2MPD1    H114096   2.699   4.578   2.010  1.1522  0.1921 -0.8503
    2MPD1    H214097   2.647   0.259   1.916  1.0909  0.3557 -0.8925
    2MPD1    H314098   2.546   0.051   1.954 -0.2821  1.3205 -0.6897
    2MPD1     N14099   2.963   4.572   1.976  0.2236  0.8352 -0.3554
    2MPD1    H514100   3.062   4.593   1.963  0.1195  0.7731 -1.1977
    2MPD1    N114101   2.904   0.303   1.851  0.3338 -0.0448 -0.2637
    2MPD1    H614102   2.849   0.384   1.879 -0.2989  0.4287 -2.8730
    2MPD1    H714103   3.000   0.318   1.880  0.2916  0.4288 -0.3569
    1MPD1     C14104   4.679   3.003  11.269  0.1348 -0.0446  0.5921
    1MPD1    C114105   0.091   3.022  11.295  0.4322 -0.1158 -0.3994
    1MPD1    C214106   0.134   3.117  11.386  0.7829 -0.2575 -0.3510
    1MPD1    C314107   0.037   3.187  11.467 -0.0267  0.0501  0.3279
    1MPD1    C414108   4.626   3.151  11.457  0.3780  0.4808  0.0228
    1MPD1    C514109   4.588   3.057  11.364 -0.7300 -0.5014  0.0803
    1MPD1     H14110   0.240   3.139  11.388  0.8320 -0.5929  0.5103
    1MPD1    H114111   4.548   3.186  11.524  0.4759 -0.5823  0.6959
    1MPD1    H214112   4.637   2.935  11.196 -1.5411  1.7679 -0.1355
    1MPD1    H314113   4.484   3.029  11.357 -0.1356 -2.8174  0.3056
    1MPD1     N14114   0.094   3.268  11.563  0.2164 -0.4843 -0.2296
    1MPD1    H514115   0.188   3.304  11.549  0.0253  0.2221  0.3208
    1MPD1    N114116   0.188   2.966  11.212  0.2849 -0.0858 -0.3266
    1MPD1    H614117   0.271   2.946  11.268 -0.9194 -2.5373  0.5762
    1MPD1    H714118   0.158   2.884  11.160  2.5185 -1.8671  1.1800
    2MPD1     C14119   4.248   3.651  11.581  0.0123 -0.4331  0.3372
    2MPD1    C114120   4.195   3.574  11.479  0.0580 -0.1837  0.3811
    2MPD1    C214121   4.272   3.510  11.388 -0.1412 -0.1446 -0.1305
    2MPD1    C314122   4.406   3.525  11.393  0.0884 -0.6052  0.1623
    2MPD1    C414123   4.461   3.590  11.498 -0.5072 -1.0921  0.7848
    2MPD1    C514124   4.381   3.648  11.594 -0.7340 -0.1443  0.0722
    2MPD1     H14125   4.221   3.456  11.309 -3.7071  0.1961  1.9169
    2MPD1    H114126   4.567   3.584  11.520 -0.5398  0.6660  1.4630
    2MPD1    H214127   4.194   3.696  11.664  1.0354  0.0883  0.7158
    2MPD1    H314128   4.435   3.689  11.679 -0.8325 -0.9174  0.5069
    2MPD1     N14129   4.493   3.460  11.299  0.3797  0.1219  0.1186
    2MPD1    H514130   4.590   3.461  11.331  0.4920 -0.5502 -0.2074
    2MPD1    N114131   4.058   3.547  11.482  0.6226 -0.1069  0.1747
    2MPD1    H614132   4.020   3.533  11.389 -2.9094  1.9663  1.3050
    2MPD1    H714133   4.013   3.623  11.533 -0.9311 -1.2289  0.4776
    3MPD1     C14134   0.032   2.860  10.403 -0.2595 -0.2640 -0.0081
    3MPD1    C114135   0.109   2.963  10.426 -0.8894 -0.2655 -0.2254
    3MPD1    C214136   0.081   3.038  10.543 -0.5750 -0.9718 -0.5968
    3MPD1    C314137   4.691   3.013  10.624 -0.7560  0.5321  0.0246
    3MPD1    C414138   4.613   2.905  10.596 -0.1114 -0.2820 -0.2566
    3MPD1    C514139   4.646   2.827  10.483  0.1508  0.1951  0.1165
    3MPD1     H14140   0.155   3.112  10.569 -2.1208  0.3556 -0.0074
    3MPD1    H114141   4.539   2.870  10.667 -0.3799  0.5856 -0.0988
    3MPD1    H214142   0.053   2.796  10.318  0.9362  0.1943 -0.0592
    3MPD1    H314143   4.590   2.737  10.463  0.9905 -0.4703  0.8102
    3MPD1     N14144   4.689   3.086  10.746  0.3737  0.2682  0.5960
    3MPD1    H514145   0.033   3.163  10.745  0.1916  0.4004 -1.1508
    3MPD1    N114146   0.234   2.973  10.362 -0.0403 -0.2213  0.4976
    3MPD1    H614147   0.258   3.071  10.349  2.3278 -1.2592 -3.0305
    3MPD1    H714148   0.234   2.932  10.269 -0.4271 -0.3951  0.5726
    4MPD2     C14149   0.322   3.927  11.489  0.0907 -0.4101  0.0004
    4MPD2    C114150   0.387   3.837  11.571 -0.4788  0.2971 -0.4466
    4MPD2    C214151   0.516   3.799  11.541  0.3301 -0.1877  1.0069
    4MPD2    C314152   0.579   3.851  11.421  0.7066 -0.2825  0.6091
    4MPD2    C414153   0.509   3.940  11.341  0.2204 -0.2343  0.1283
    4MPD2    C514154   0.385   3.978  11.384 -1.0459  0.3566 -0.0418
    4MPD2     H14155   0.567   3.734  11.612  1.0300 -1.1148 -0.3246
    4MPD2    H114156   0.559   3.996  11.263  0.8307 -1.0846 -0.0824
    4MPD2    H214157   0.220   3.959  11.508  0.6774  2.0108 -0.8702
    4MPD2    H314158   0.328   4.046  11.322 -0.4327 -0.8296 -1.8989
    4MPD2     N14159   0.715   3.825  11.398 -0.6147 -0.2274 -0.6180
    4MPD2    H514160   0.759   3.760  11.463 -1.5361  0.0950  0.3367
    4MPD2    N114161   0.325   3.776  11.687 -0.2322  0.2471 -0.0638
    4MPD2    H714162   0.383   3.742  11.762 -2.4328 -0.8136  1.1487
    5TMC3    C114163   0.159   3.653  11.803  0.2521 -0.6505  0.1000
    5TMC3    C214164   0.082   3.558  11.743 -0.5850 -0.0767 -0.7896
    5TMC3    C314165   0.119   3.425  11.725  0.6949  0.5594 -0.3364
    5TMC3    C414166   0.270   3.602  11.859  0.1337 -0.0847  0.0638
    5TMC3    C514167   0.315   3.473  11.841 -0.3886 -0.3118  0.2430
    5TMC3    C614168   0.237   3.381  11.775  0.9835 -0.4487  0.5367
    5TMC3     C14169   0.191   3.767  11.712  0.1342  0.6310  0.2054
    5TMC3     O14170   0.110   3.802  11.628 -0.5565  0.0856  0.6681
    5TMC3     H14171   4.713   3.597  11.698 -1.0802  0.7927  0.9706
    5TMC3    H114172   0.338   3.668  11.912 -0.1697 -0.8753  1.4335
    5TMC3    H214173   0.281   3.283  11.757 -0.0524 -0.8433  0.1714
    5TMC3    C714174   0.458   3.471  11.813 -0.2397 -0.0760  0.3967
    5TMC3    C814175   0.023   3.341  11.652  1.0180  0.4209 -0.1754
    5TMC3    O114176   0.517   3.581  11.808 -0.1730 -0.3047  0.1807
    5TMC3    O214177   4.628   3.363  11.663  0.1861 -0.3855 -1.0786
    6TMC3    C114178   4.562   3.331  11.106  0.1275  0.3954 -0.3863
    6TMC3    C214179   4.528   3.228  11.026 -0.1022  0.4971  0.5738
    6TMC3    C314180   4.627   3.168  10.951 -0.4821  0.3902  0.3138
    6TMC3    C414181   4.688   3.370  11.127  0.1511 -0.0746  1.0536
    6TMC3    C514182   0.061   3.300  11.060  0.1354 -0.9435  0.0904
    6TMC3    C614183   0.036   3.210  10.963 -0.2740 -0.4104 -0.1385
    6TMC3     C14184   4.458   3.389  11.188  0.7689 -0.2089  0.2260
    6TMC3     O14185   4.345   3.376  11.149  0.3192 -0.4955  0.1117
    6TMC3     H14186   4.429   3.184  11.025  0.9739 -1.9289 -2.1388
    6TMC3    H114187   4.720   3.446  11.197  2.2170  0.2067 -0.2233
    6TMC3    H214188   0.112   3.158  10.907  0.5110 -0.6585  1.1505
    6TMC3    C714189   0.197   3.331  11.095  0.5195  0.6478 -0.3901
    6TMC3    C814190   4.597   3.067  10.854 -0.4587 -0.1517 -0.1367
    6TMC3    O114191   0.221   3.427  11.167 -0.3033 -0.0058 -0.6558
    6TMC3    O214192   4.494   3.002  10.866  0.4038 -0.1024  0.4605
    7MPD2     C14193   0.890   3.220  11.693  0.1229  0.1087 -0.2593
    7MPD2    C114194   0.863   3.353  11.689 -0.0866 -0.4945  0.2337
    7MPD2    C214195   0.739   3.403  11.726  0.1492  0.4831  0.1553
    7MPD2    C314196   0.646   3.311  11.775  0.4121 -0.2115 -0.2637
    7MPD2    C414197   0.678   3.177  11.781  0.2703  0.3547 -0.2241
    7MPD2    C514198   0.801   3.139  11.751  0.5981  0.5935  0.9932
    7MPD2     H14199   0.717   3.509  11.718 -0.5855  0.4648  2.0050
    7MPD2    H114200   0.604   3.108  11.820 -0.6454  0.7369 -1.2866
    7MPD2    H214201   0.988   3.182  11.669  0.9617  2.8297 -1.1205
    7MPD2    H314202   0.815   3.032  11.761  2.7118  0.8749  1.0896
    7MPD2     N14203   0.511   3.344  11.808 -0.1518  0.2139  0.6990
    7MPD2    H514204   0.453   3.264  11.830 -0.9552  0.8504  0.9057
    7MPD2    N114205   0.953   3.437  11.612  0.2923 -0.1336 -0.1226
    7MPD2    H714206   1.035   3.391  11.574  0.1092  0.2869 -1.0304
    8TMC3    C114207   0.998   3.599  11.451  0.2559  0.1827  0.5222
    8TMC3    C214208   0.964   3.499  11.362 -0.1174  0.1695 -0.6759
    8TMC3    C314209   0.897   3.521  11.249  0.7613  0.1288 -0.1702
    8TMC3    C414210   0.955   3.721  11.406 -0.7286  0.7736 -0.4514
    8TMC3    C514211   0.882   3.740  11.295  0.7742  0.1615  0.1881
    8TMC3    C614212   0.854   3.646  11.209 -0.8730  0.3732 -0.1397
    8TMC3     C14213   0.939   3.568  11.581  0.3877  0.2997  0.3482
    8TMC3     O14214   0.858   3.654  11.622  0.0537  0.3759  0.3506
    8TMC3     H14215   0.997   3.398  11.381  1.0339  0.6228 -0.2865
    8TMC3    H114216   0.989   3.815  11.449 -2.5087  1.1137  0.1999
    8TMC3    H214217   0.794   3.669  11.121 -0.1994  0.8262 -0.4799
    8TMC3    C714218   0.787   3.846  11.284 -0.5366 -0.9601  0.3015
    8TMC3    C814219   0.852   3.411  11.179  0.2264 -0.1141 -0.0225
    8TMC3    O114220   0.765   3.891  11.171 -0.4395  0.0406 -0.5054
    8TMC3    O214221   0.925   3.314  11.170 -0.4430 -0.0837  0.1523
    9MPD2     C14222   0.688   3.211  11.036  0.0124  0.1767 -0.8675
    9MPD2    C114223   0.635   3.324  11.094 -0.4004 -1.2286 -0.5385
    9MPD2    C214224   0.500   3.329  11.110 -0.5561 -0.4129  0.0624
    9MPD2    C314225   0.419   3.220  11.075 -0.2550  0.5836 -0.0118
    9MPD2    C414226   0.474   3.110  11.028 -0.1765  0.5577  0.0911
    9MPD2    C514227   0.610   3.111  11.000  0.5422  0.4024  0.5677
    9MPD2     H14228   0.453   3.414  11.158 -1.7114 -0.5766 -0.7763
    9MPD2    H114229   0.419   3.022  10.996  2.3981 -0.8331 -0.4756
    9MPD2    H214230   0.793   3.199  11.014  0.2407  1.1479 -0.2986
    9MPD2    H314231   0.657   3.023  10.959  0.2995 -0.2281  1.6513
    9MPD2     N14232   0.278   3.218  11.073  0.8061  0.1291  0.6123
    9MPD2    H514233   0.234   3.134  11.037 -0.1558  2.1199 -2.8312
    9MPD2    N114234   0.716   3.422  11.147  0.2952  0.3334  0.0752
    9MPD2    H714235   0.662   3.498  11.187  0.9363  1.0427 -0.3876
    1MPD1     C14236   0.653   2.001  16.295  0.4187  0.4593  0.1079
    1MPD1    C114237   0.554   2.073  16.360  0.4453  0.3452  0.7524
    1MPD1    C214238   0.479   2.158  16.283  0.2021 -0.0730 -0.2613
    1MPD1    C314239   0.490   2.151  16.146  0.1836 -0.1429  0.2932
    1MPD1    C414240   0.587   2.072  16.089 -0.0491  0.5773 -0.6091
    1MPD1    C514241   0.673   2.000  16.158 -0.2750  0.3738  0.8621
    1MPD1     H14242   0.405   2.217  16.337  0.2152 -1.8292  1.7036
    1MPD1    H114243   0.606   2.074  15.982  3.0692 -1.6821 -0.1078
    1MPD1    H214244   0.722   1.938  16.350  0.1969 -0.1745 -0.3363
    1MPD1    H314245   0.750   1.955  16.098  1.0749  1.5305  1.7307
    1MPD1     N14246   0.414   2.222  16.050  0.2637  0.4020 -0.2773
    1MPD1    H514247   0.431   2.223  15.950  0.1997  0.0115 -0.2938
    1MPD1    N114248   0.526   2.064  16.498 -0.0909  0.3986 -0.7223
    1MPD1    H614249   0.536   1.979  16.554 -1.1365 -0.4586 -1.8312
    1MPD1    H714250   0.450   2.118  16.539 -0.1854 -1.8682  2.1120
    2MPD1     C14251   4.655   3.032  15.563 -0.3239  0.3998 -0.2705
    2MPD1    C114252   4.637   2.921  15.486  0.0346 -0.2571 -0.2808
    2MPD1    C214253   4.653   2.800  15.555 -0.1358 -0.2639 -0.2104
    2MPD1    C314254   4.690   2.794  15.687 -0.1878 -0.0472  0.7382
    2MPD1    C414255   4.702   2.909  15.757 -0.7984  0.2598 -0.4339
    2MPD1    C514256   4.693   3.028  15.690  0.4180 -0.4614 -0.0813
    2MPD1     H14257   4.632   2.708  15.501 -1.1747 -0.6618  0.8859
    2MPD1    H114258   4.717   2.903  15.864 -0.2867 -1.2756 -0.5821
    2MPD1    H214259   4.639   3.125  15.511  1.0496  0.8813  0.1647
    2MPD1    H314260   4.690   3.127  15.733 -0.2354  0.3911 -2.0744
    2MPD1     N14261   4.709   2.664  15.745 -0.1998 -0.3884  0.1566
    2MPD1    H514262   4.694   2.583  15.685 -0.0314 -1.4015  1.4953
    2MPD1    N114263   4.581   2.932  15.363 -0.2371  0.0173  0.3729
    2MPD1    H614264   4.590   2.849  15.306  2.9779 -0.3157  1.3479
    2MPD1    H714265   4.636   3.000  15.310  1.8654 -1.8194  0.1816
    3TCq2    C114266   0.025   2.634  15.874 -0.4673  0.2481 -0.2025
    3TCq2    O214267   0.042   2.707  15.967 -0.1383  0.8853  0.0540
    3TCq2    C214268   0.058   2.494  15.888  0.1162  1.0179 -0.8515
    3TCq2    C314269   0.044   2.411  15.780  0.0188 -0.0754 -0.5111
    3TCq2    C414270   0.109   2.292  15.768 -0.0385 -0.4884 -0.1957
    3TCq2    C514271   0.202   2.257  15.867  0.3218 -0.6019  0.2934
    3TCq2    C614272   0.217   2.345  15.968  0.1485  1.0184  0.1686
    3TCq2    C714273   0.146   2.459  15.982 -0.1478 -0.5010 -0.3854
    3TCq2    C814274   0.306   2.312  16.081  0.4525  0.3561  0.6719
    3TCq2    O414275   0.282   2.366  16.185 -0.0552  0.0444  0.5237
    3TCq2    C914276   0.072   2.196  15.674 -0.4625 -0.0683 -0.7504
    3TCq2    O514277   0.152   2.099  15.659  0.0487 -0.2139 -0.5537
    3TCq2    O614278   0.002   2.244  15.579 -0.4634  0.3327 -0.5751
    3TCq2    H214279   4.672   2.422  15.727  0.1019 -1.2342 -0.9171
    3TCq2    H314280   0.246   2.159  15.876 -0.2785 -0.9403 -0.4654
    3TCq2    H414281   0.169   2.525  16.066  1.9592  0.3071 -1.6043
    1TCq1    O114282   2.433   1.617  12.602 -0.1191 -0.5036  0.0639
    1TCq1    C114283   2.354   1.609  12.713  0.3931  0.3242 -0.5489
    1TCq1    O214284   2.270   1.693  12.745 -0.3502 -0.0341 -0.0099
    1TCq1    C214285   2.419   1.529  12.811  0.4568 -0.5031 -0.5096
    1TCq1    C314286   2.339   1.461  12.892  0.2398 -0.4719 -0.4322
    1TCq1    C414287   2.397   1.373  12.978 -0.3424  0.3824 -0.3430
    1TCq1    C514288   2.534   1.365  12.980 -0.0426  0.3114  0.0841
    1TCq1    C614289   2.610   1.455  12.906  0.2852  0.0160  0.5065
    1TCq1    C714290   2.555   1.536  12.807 -0.0133  0.4511  0.0275
    1TCq1    C814291   2.756   1.466  12.918 -0.3549 -0.5444  0.2021
    1TCq1    O414292   2.808   1.551  12.846  0.5049  0.1462 -0.1917
    1TCq1    C914293   2.322   1.301  13.077  0.7385  0.4757  0.2580
    1TCq1    O514294   2.201   1.336  13.092  0.6600  0.0774  0.5760
    1TCq1    O614295   2.380   1.248  13.176  0.4925 -0.1289 -0.3244
    1TCq1    H114296   2.488   1.536  12.589  1.4870 -0.1872  4.8657
    1TCq1    H214297   2.231   1.465  12.891  0.2296 -0.5705  0.1350
    1TCq1    H314298   2.585   1.304  13.054  0.9196  0.3958 -0.5000
    1TCq1    H414299   2.608   1.618  12.759  2.9154 -0.5525  1.5537
    2MPD2     C14300   3.041   1.417  12.954  0.3553 -0.2749  0.5466
    2MPD2    C114301   2.949   1.380  13.048 -0.6323 -0.4458 -0.4049
    2MPD2    C214302   2.989   1.363  13.178  0.4185  0.3923  0.3184
    2MPD2    C314303   3.122   1.356  13.212 -0.2327  0.3287 -0.4454
    2MPD2    C414304   3.216   1.397  13.116  0.7191 -0.6436  0.1410
    2MPD2    C514305   3.174   1.414  12.990 -0.3907 -0.1308  0.4217
    2MPD2     H14306   2.908   1.349  13.249 -0.1984 -0.4016 -0.5540
    2MPD2    H114307   3.322   1.405  13.138  1.1571 -2.0988 -1.3916
    2MPD2    H214308   3.029   1.432  12.847 -0.9202  0.0151  0.7318
    2MPD2    H314309   3.237   1.436  12.905  1.1218 -0.4414  1.4677
    2MPD2     N14310   3.151   1.341  13.345 -0.0941 -0.1206  0.3212
    2MPD2    H514311   3.068   1.344  13.404 -0.1028  2.9268  0.1188
    2MPD2    N114312   2.811   1.390  13.018 -0.7055  0.4821 -0.4608
    2MPD2    H714313   2.749   1.327  13.066 -0.3072  0.1632 -0.3676
    3TCq1    O114314   3.162   1.644  13.888 -0.4046 -0.2867 -0.3178
    3TCq1    C114315   3.122   1.607  13.767 -0.8861  0.5453 -0.6844
    3TCq1    O214316   3.016   1.639  13.710  0.2424 -0.3107 -0.6296
    3TCq1    C214317   3.196   1.486  13.735 -1.0358 -0.4296  0.8068
    3TCq1    C314318   3.285   1.427  13.822  0.5437  0.2837  0.1023
    3TCq1    C414319   3.363   1.333  13.765  0.3084 -0.2634  0.1258
    3TCq1    C514320   3.351   1.296  13.637  0.2143  0.1479 -0.8630
    3TCq1    C614321   3.256   1.352  13.549  0.4976  0.1592 -1.1077
    3TCq1    C714322   3.183   1.452  13.598 -0.2596  0.3695 -0.2574
    3TCq1    C814323   3.273   1.333  13.409  0.0100  0.4445 -0.8883
    3TCq1    O414324   3.378   1.284  13.368  0.3248  0.3559  1.1921
    3TCq1    C914325   3.472   1.277  13.847  1.0279 -0.5054 -0.2970
    3TCq1    O514326   3.497   1.347  13.947  0.4680 -0.3652  0.0040
    3TCq1    O614327   3.560   1.199  13.797 -0.0977  0.0192 -0.3616
    3TCq1    H114328   3.246   1.603  13.917 -1.8497 -1.1090  2.7158
    3TCq1    H214329   3.289   1.452  13.928  2.5785 -1.4215  0.4317
    3TCq1    H314330   3.416   1.220  13.596  1.4839  0.2971  0.8725
    3TCq1    H414331   3.116   1.514  13.539 -1.4438  0.2062  0.9031
    1MPD2     C14332   2.523   1.743  15.329 -0.2822  0.3126  0.6162
    1MPD2    C114333   2.483   1.694  15.201 -0.0696 -0.0293  0.4230
    1MPD2    C214334   2.568   1.727  15.097  0.1898 -0.2464 -0.0535
    1MPD2    C314335   2.684   1.795  15.115  0.1166  0.1713 -0.5030
    1MPD2    C414336   2.719   1.835  15.238  0.3205 -0.4926  0.6943
    1MPD2    C514337   2.635   1.817  15.344  0.0298 -0.0039  0.7271
    1MPD2     H14338   2.545   1.716  14.991  1.5150  2.2604 -0.6097
    1MPD2    H114339   2.813   1.887  15.251  0.4038  0.0709 -2.1732
    1MPD2    H214340   2.463   1.731  15.418  0.2903  2.4717  1.2999
    1MPD2    H314341   2.664   1.850  15.442 -0.6774  0.9915  0.6029
    1MPD2     N14342   2.766   1.821  15.003  0.3544  0.7665  0.5372
    1MPD2    H514343   2.719   1.791  14.918  0.4843 -0.9186  1.0555
    1MPD2    N114344   2.370   1.614  15.185  0.3938 -0.7329 -0.4690
    1MPD2    H714345   2.323   1.603  15.274  0.4225 -1.7272 -0.5735
    2TMC3    C114346   2.206   1.482  15.069  0.2112 -0.3845 -0.4909
    2TMC3    C214347   2.217   1.371  14.988 -0.1154 -0.0044  1.3582
    2TMC3    C314348   2.131   1.346  14.886 -0.3767  0.5375  0.7890
    2TMC3    C414349   2.096   1.560  15.047 -0.5060 -0.1209 -0.8876
    2TMC3    C514350   2.023   1.549  14.935  0.2721  0.1370  0.0410
    2TMC3    C614351   2.032   1.441  14.855 -0.6444  0.3234 -0.2922
    2TMC3     C14352   2.334   1.555  15.068  0.5727 -0.1794 -0.0429
    2TMC3     O14353   2.396   1.543  14.963  0.3857  0.1603  0.5139
    2TMC3     H14354   2.297   1.300  15.007  0.4650  0.1873 -0.3615
    2TMC3    H114355   2.074   1.633  15.124 -1.2556 -2.3257  0.9875
    2TMC3    H214356   1.971   1.428  14.766  0.5125 -1.8316 -0.7764
    2TMC3    C714357   1.933   1.652  14.899 -0.2691 -0.2689 -0.1988
    2TMC3    C814358   2.201   1.300  14.769 -0.4906  0.6667  0.0522
    2TMC3    O114359   1.851   1.628  14.812  0.7706 -0.6536 -0.2700
    2TMC3    O214360   2.131   1.253  14.683 -0.5244 -0.4910  0.7932
    3TCq1    O114361   1.924   2.861  15.377 -0.0903 -0.6006  0.3818
    3TCq1    C114362   1.855   2.767  15.318  0.6998 -0.0539  0.2007
    3TCq1    O214363   1.745   2.776  15.267 -0.0254  0.6062  0.2730
    3TCq1    C214364   1.938   2.659  15.257 -0.0417  0.9731 -0.2888
    3TCq1    C314365   2.071   2.672  15.259 -0.3085 -0.2499  0.5375
    3TCq1    C414366   2.150   2.572  15.204  0.2984 -0.5823 -0.9313
    3TCq1    C514367   2.089   2.465  15.140 -0.8816  0.3054 -0.3894
    3TCq1    C614368   1.953   2.461  15.145 -0.2052 -1.1916 -0.0709
    3TCq1    C714369   1.876   2.559  15.196 -0.2643 -0.0218  0.4295
    3TCq1    C814370   1.877   2.359  15.072 -0.1469  0.4754 -0.3355
    3TCq1    O414371   1.771   2.396  15.029  0.4233  0.1499  0.2222
    3TCq1    C914372   2.290   2.592  15.217  0.3629 -0.3216 -0.1474
    3TCq1    O514373   2.357   2.522  15.133  0.5247  0.2133  0.2952
    3TCq1    O614374   2.337   2.674  15.294 -0.7960 -0.0245  0.1258
    3TCq1    H114375   1.986   2.820  15.440 -0.1282 -1.5072 -0.1640
    3TCq1    H214376   2.115   2.757  15.309  1.0363 -0.9918  0.6193
    3TCq1    H314377   2.147   2.394  15.081 -2.3334 -1.1715 -0.0431
    3TCq1    H414378   1.768   2.547  15.201 -0.0676 -1.3199  1.4207
    4MPD2     C14379   1.737   2.116  14.993  0.2216 -0.1553  0.0430
    4MPD2    C114380   1.873   2.125  15.017  0.0631  0.3879  1.1609
    4MPD2    C214381   1.941   2.004  15.008 -0.2734  0.9123  0.3681
    4MPD2    C314382   1.878   1.888  14.962 -0.6244 -0.0826 -0.5047
    4MPD2    C414383   1.751   1.890  14.920 -1.0458  0.3240  0.7054
    4MPD2    C514384   1.681   2.006  14.935  0.1919 -0.5686 -0.3370
    4MPD2     H14385   2.048   2.004  15.023 -0.1808  0.1995 -0.3164
    4MPD2    H114386   1.695   1.808  14.876 -0.5660  1.3049 -1.7610
    4MPD2    H214387   1.673   2.203  14.997  1.8777  1.0121  0.9513
    4MPD2    H314388   1.578   2.009  14.902  0.2377  1.3580 -0.2813
    4MPD2     N14389   1.958   1.770  14.963 -0.5114 -0.3997  0.0903
    4MPD2    H514390   2.049   1.784  15.004 -0.3408  1.2653 -0.8589
    4MPD2    N114391   1.937   2.237  15.078  0.1869 -0.3223 -0.2928
    4MPD2    H714392   2.025   2.217  15.125 -0.3460 -2.2010 -0.0931
    5TMC2    C114393   2.834   1.740  14.669  0.2684 -0.2836  0.5044
    5TMC2    C214394   2.962   1.681  14.648 -0.4522  0.3089 -0.4011
    5TMC2    C314395   3.074   1.718  14.717  0.6436  0.2656 -0.2120
    5TMC2    C414396   2.831   1.838  14.767 -0.8219 -0.1050  0.4549
    5TMC2    C514397   2.938   1.865  14.845 -0.0823 -0.5534 -0.0794
    5TMC2    C614398   3.063   1.814  14.813 -0.4621 -0.1546 -0.3183
    5TMC2     C14399   2.720   1.666  14.675  0.1487 -0.6507 -0.2298
    5TMC2     O14400   2.629   1.704  14.749  0.0085  0.5269  0.3824
    5TMC2     H14401   2.961   1.603  14.573 -0.5722  0.5401 -0.6385
    5TMC2    H114402   2.748   1.907  14.772 -1.1576 -0.3483 -1.9644
    5TMC2    H214403   3.150   1.836  14.874  0.8085 -3.4240 -0.9773
    5TMC2    C714404   2.896   1.866  14.990 -0.7869 -0.4248  0.0172
    5TMC2    C814405   3.204   1.678  14.674  0.3874 -0.3621 -0.2149
    5TMC2    O114406   2.971   1.913  15.070  0.4267  0.2324 -0.2052
    5TMC2    O214407   3.301   1.754  14.669 -0.0629  0.1025 -0.1449
    5TMC2    O514408   3.181   1.563  14.602  0.0775 -0.1850  0.4120
    5TMC2    H514409   3.121   1.506  14.654 -0.2680  0.3755  0.6236
    6MPD2     C14410   2.393   1.300  14.534  0.4117  0.3479  0.3253
    6MPD2    C114411   2.415   1.369  14.652  0.4078  0.5618 -0.0896
    6MPD2    C214412   2.521   1.451  14.669  0.3180 -0.4873 -0.8828
    6MPD2    C314413   2.615   1.467  14.571 -0.2488 -0.1599 -0.0754
    6MPD2    C414414   2.607   1.389  14.456  0.6015  0.1108 -1.0644
    6MPD2    C514415   2.493   1.311  14.438 -0.4221 -0.3334 -0.5529
    6MPD2     H14416   2.529   1.503  14.764 -0.3873 -1.2255 -0.4165
    6MPD2    H114417   2.680   1.397  14.377  1.2561  0.9338 -0.3729
    6MPD2    H214418   2.310   1.234  14.513  1.0275 -0.4115  0.2637
    6MPD2    H314419   2.483   1.245  14.353 -3.2859 -0.5028 -0.0975
    6MPD2     N14420   2.725   1.558  14.586 -0.0280  0.1491  0.6195
    6MPD2    H514421   2.803   1.552  14.522  0.0643  0.1480  0.7309
    6MPD2    N114422   2.323   1.372  14.756  0.4026 -0.6418 -0.1051
    6MPD2    H714423   2.354   1.433  14.831 -1.9441 -0.2831  0.5565
  945NH4     N114424   1.973   4.613   9.880  0.6320 -0.2939 -0.4429
  945NH4     H214425   1.881   4.642   9.841  0.9650 -1.6204 -2.1725
  945NH4     H314426   1.967   4.520   9.926 -0.1377  0.6620  1.4020
  945NH4     H414427   2.002   4.680   9.954 -0.3532  1.6080 -1.8005
  945NH4     H514428   2.033   4.602   9.797  0.6202  0.7333 -0.5829
  946SOD     NA14429   4.131   0.480   0.648 -0.3304 -0.1514  0.0400
  947SOD     NA14430   3.187   2.875   3.354  0.2870  0.4341  0.1423
  948SOD     NA14431   3.505   1.104  11.665  0.2571 -0.0839  0.0645
  949SOD     NA14432   3.915   4.698  16.917  0.6146  0.5024  0.2013
  950SOD     NA14433   4.436   3.002   2.161 -0.1599  0.1289  0.5469
  951SOD     NA14434   1.280   3.374   2.126 -0.5589 -0.4214 -0.0446
  952SOD     NA14435   4.061   4.657   3.479  0.4958  0.4094 -0.1700
  953SOD     NA14436   3.695   1.782  11.280 -0.4499 -0.2602 -0.1171
  954SOD     NA14437   1.938   4.497   9.546 -0.3635  0.2895  0.0251
  955SOD     NA14438   2.955   1.715  11.569  0.2391 -0.1222  0.2755
  956SOD     NA14439   1.809   0.436  14.637  0.3098  0.1979 -0.1118
  957SOD     NA14440   3.414   3.868  12.156 -0.5339 -0.5817  0.6072
  958SOD     NA14441   3.889   3.059  17.177 -0.7158  0.2900  0.0266
  959SOD     NA14442   4.237   3.916   3.684 -0.0305  0.2539  0.5089
  960SOD     NA14443   2.399   1.199  13.633 -0.1408  0.1920  0.3673
  961SOD     NA14444   4.342   0.378   8.596 -0.3031  0.2287 -0.0215
  962SOD     NA14445   0.442   4.124  14.953 -0.1075 -0.0911  0.2540
  963SOD     NA14446   0.328   1.067  17.330 -0.2626  0.5324 -0.0607
  964SOD     NA14447   1.886   1.179  13.265  0.1156  0.2944 -0.0460
  965SOD     NA14448   1.334   1.246   9.795 -0.0931 -0.2285 -0.0245
  966SOD     NA14449   1.439   1.197   3.752  0.2442  0.2388 -0.3031
  967SOD     NA14450   1.944   2.148  10.371  0.2628  0.0334 -0.0985
  968SOD     NA14451   1.854   4.007   2.302 -0.3172  0.2342 -0.2317
  969SOD     NA14452   2.222   2.573  11.960  0.2294 -0.2697 -0.0459
  970SOD     NA14453   1.675   4.448   0.525  0.1576  0.0151 -0.4975
  971SOD     NA14454   2.665   1.012  10.454  0.0333  0.0771  0.0432
  972SOD     NA14455   0.591   2.348  14.694 -1.0553  0.2684 -0.3062
  973SOD     NA14456   1.166   1.737  10.835 -0.4911  0.2919 -0.3629
  974SOD     NA14457   2.092   0.485  10.563 -0.5711 -0.0041  0.1310
  975SOD     NA14458   1.634   1.291  11.546 -0.0369  0.0010 -0.1485
  976SOD     NA14459   3.485   0.761  12.917 -0.4275  0.3279  0.2848
  977SOD     NA14460   4.399   3.277  15.531 -0.3120  0.5555 -0.2732
  978SOD     NA14461   3.308   1.506  11.485  0.2153 -0.3503  0.2855
  979SOD     NA14462   4.395   3.337   2.147  1.0381 -0.5563 -0.2442
  980SOD     NA14463   4.178   1.498  14.551  0.0333  0.0516 -0.0957
  981SOD     NA14464   3.188   0.605  12.751 -0.7522 -0.1800 -0.6570
  982SOD     NA14465   2.840   2.509   4.262 -0.2521  0.2694 -0.5194
  983SOD     NA14466   3.055   1.992  11.476  0.1999  0.3426  0.3292
  984SOD     NA14467   2.422   2.558  14.934  0.1203  0.3659  0.1682
  985SOD     NA14468   3.530   0.063   2.261  0.5725 -0.8467  0.6936
  986SOD     NA14469   1.052   1.334  16.375  0.3509  0.1713 -0.2120
  987SOD     NA14470   2.375   2.320  15.154 -0.1006 -0.2011 -0.0755
  988SOD     NA14471   4.528   1.458   8.270 -0.3306 -0.1580  0.1525
  989SOD     NA14472   3.149   3.292   0.958 -0.2994 -0.0481 -0.0244
  990SOD     NA14473   2.484   0.709   8.849  0.1314  0.0051 -0.5029
  991SOD     NA14474   3.222   1.898  15.505 -0.5561 -0.0130  0.2053
  992SOD     NA14475   0.058   2.099  15.434 -0.2593 -0.2344 -0.4378
  993SOD     NA14476   1.382   4.473  11.915 -0.4012 -0.3475 -0.3150
  994SOD     NA14477   0.139   1.868  15.679  0.3317  0.1784  0.1828
  995SOD     NA14478   2.129   3.060   0.695  0.1414 -0.1554 -0.1385
  996SOD     NA14479   2.196   1.301  13.325 -0.1621 -0.1280 -0.2600
  997SOD     NA14480   2.652   3.914  11.585 -0.0248  0.1270  0.0894
  998SOD     NA14481   2.904   1.706  12.724  0.5924 -0.3010  0.0237
  999SOD     NA14482   2.385   1.625  10.531  0.2767 -0.1367 -0.2573
 1000SOD     NA14483   3.969   1.102  13.661  0.3177 -0.7423  0.2188
 1001SOD     NA14484   4.456   2.733  13.302 -0.2168  0.1797 -0.2542
 1002SOD     NA14485   0.384   3.528   1.033  0.0781 -0.4488  0.7136
 1003SOD     NA14486   0.412   1.626   4.589  0.5343  0.4040  0.2550
 1004SOD     NA14487   3.766   2.233  15.259  0.2818 -0.1611  0.3403
 1005SOD     NA14488   3.001   3.960  14.252 -0.3920  0.1187  0.4608
 1006SOD     NA14489   2.442   2.834  11.091 -0.2137  0.2120 -0.1410
 1007SOD     NA14490   0.343   1.893  14.896  0.2113 -0.1148  0.2204
 1008SOD     NA14491   4.218   0.173   0.864 -0.4149  0.0387 -0.1600
 1009SOD     NA14492   4.275   2.310  10.911  0.3958 -0.2091 -0.5058
 1010SOD     NA14493   0.529   0.636  16.835 -0.2955 -0.2543 -0.5661
 1011SOL     OW14494   2.609   2.559   1.342 -0.2128  0.4570  0.3159
 1011SOL    HW114495   2.607   2.509   1.261 -1.4325 -0.9035  1.1881
 1011SOL    HW214496   2.663   2.630   1.308  1.8415 -1.8004 -1.2170
 1012SOL     OW14497   2.923   4.399   6.618 -0.0105 -0.0031  0.2683
 1012SOL    HW114498   2.923   4.328   6.683 -1.1188 -0.4869 -0.2581
 1012SOL    HW214499   2.829   4.410   6.601 -0.2920  1.6757  2.9351
 1013SOL     OW14500   2.574   0.199  10.943  0.3072 -0.7921  0.2385
 1013SOL    HW114501   2.537   0.156  11.020  1.9269 -1.2714  0.7579
 1013SOL    HW214502   2.663   0.164  10.945 -0.0168 -1.7574 -1.7376
 1014SOL     OW14503   2.483   4.520   1.575  0.1337 -0.1620  0.5254
 1014SOL    HW114504   2.392   4.525   1.543  0.0418  1.4103  1.0572
 1014SOL    HW214505   2.513   4.429   1.566  0.2269 -0.1715  0.9706
 1015SOL     OW14506   0.407   0.862  17.226  0.4608  0.1384  0.0707
 1015SOL    HW114507   0.492   0.818  17.222  0.9329  1.0305  0.1854
 1015SOL    HW214508   0.359   0.799  17.173 -0.3583 -0.3499  1.3876
 1016SOL     OW14509   2.877   0.908   2.400  0.2206  0.6005  0.5150
 1016SOL    HW114510   2.835   0.855   2.333  0.0829  3.9111 -1.9659
 1016SOL    HW214511   2.812   0.907   2.470 -2.3992 -1.9459 -1.9617
 1017SOL     OW14512   2.470   0.633   7.878 -0.6566  0.7061 -0.1956
 1017SOL    HW114513   2.387   0.651   7.833 -0.7239  1.1987  0.1325
 1017SOL    HW214514   2.435   0.603   7.962 -0.3281 -2.2217 -1.0911
 1018SOL     OW14515   3.942   0.367   8.829  0.2692  0.3365  0.6443
 1018SOL    HW114516   3.903   0.331   8.749  0.3051  0.9294  0.3615
 1018SOL    HW214517   3.968   0.291   8.881 -2.0510  0.3248  1.8030
 1019SOL     OW14518   0.661   1.777   5.353 -0.3301  0.6189 -0.5162
 1019SOL    HW114519   0.742   1.825   5.368 -0.0032 -0.2377  0.4072
 1019SOL    HW214520   0.658   1.775   5.257 -1.7643 -3.4911 -0.3823
 1020SOL     OW14521   1.782   1.892   8.087  0.0919 -0.5391 -0.5513
 1020SOL    HW114522   1.854   1.906   8.025  1.6736 -0.0953  1.3769
 1020SOL    HW214523   1.798   1.958   8.155 -0.8623 -0.3998 -0.4619
 1021SOL     OW14524   2.679   3.834  12.541  0.0104  0.4328 -0.4529
 1021SOL    HW114525   2.594   3.870  12.568  1.0456  2.5361 -0.0437
 1021SOL    HW214526   2.711   3.780  12.613 -1.5196  0.9638  0.6226
 1022SOL     OW14527   0.321   4.248  11.996 -0.4119  0.0725  0.8206
 1022SOL    HW114528   0.329   4.213  11.907 -1.9858  1.2027  0.2526
 1022SOL    HW214529   0.408   4.224  12.029  0.3455 -1.0484 -1.9765
 1023SOL     OW14530   0.988   4.242   8.688  0.4844 -0.8190  0.1701
 1023SOL    HW114531   0.951   4.319   8.731  0.2245 -1.2017  0.6411
 1023SOL    HW214532   1.083   4.249   8.697  0.3698  0.3957  0.4021
 1024SOL     OW14533   3.184   0.802   1.717 -0.1630 -0.1203 -0.4060
 1024SOL    HW114534   3.180   0.858   1.795  1.0065 -1.4315  0.5944
 1024SOL    HW214535   3.218   0.869   1.656  0.5398  0.3336  0.4765
 1025SOL     OW14536   4.099   0.671   9.127 -0.6581  0.0664 -0.0616
 1025SOL    HW114537   4.123   0.585   9.092  1.5277 -0.1652  2.0813
 1025SOL    HW214538   4.014   0.654   9.167  0.9960  2.4794  4.4169
 1026SOL     OW14539   0.416   2.565   8.753 -0.3145 -0.0192  0.2977
 1026SOL    HW114540   0.334   2.574   8.802 -0.0506 -0.7796  0.8823
 1026SOL    HW214541   0.450   2.655   8.746  0.2863 -0.2818 -0.1586
 1027SOL     OW14542   1.566   4.640   5.023 -0.3521 -0.1345 -0.2208
 1027SOL    HW114543   1.546   4.640   4.930  1.2042  1.6205 -0.5481
 1027SOL    HW214544   1.648   4.592   5.034  0.8438  1.9177 -0.1492
 1028SOL     OW14545   2.249   2.705   3.917  0.6985  0.3698  0.1881
 1028SOL    HW114546   2.241   2.722   3.823  2.4518  2.0143  0.3526
 1028SOL    HW214547   2.160   2.677   3.941  0.1083  3.3434  1.4503
 1029SOL     OW14548   1.514   3.613  17.482  0.2167 -0.2926 -0.1093
 1029SOL    HW114549   1.454   3.655  17.543  0.7908  0.1203  0.1725
 1029SOL    HW214550   1.464   3.532  17.477 -1.2616  0.6439 -0.5008
 1030SOL     OW14551   0.082   4.502   7.599 -0.1071  0.5024 -0.0277
 1030SOL    HW114552   0.034   4.421   7.579  3.8752 -2.1523  1.0967
 1030SOL    HW214553   0.029   4.534   7.672 -1.5178  0.1591 -0.9023
 1031SOL     OW14554   1.081   0.973  12.357 -0.6757  0.0284 -0.2239
 1031SOL    HW114555   1.081   1.042  12.291  0.5005  0.7382  0.5252
 1031SOL    HW214556   1.082   1.026  12.436  1.3577  0.8478 -0.7801
 1032SOL     OW14557   2.631   4.156   2.553 -0.2765 -0.2484  0.9061
 1032SOL    HW114558   2.541   4.134   2.531 -0.2816  0.3292  0.3317
 1032SOL    HW214559   2.671   4.132   2.469  2.2547  1.1409  1.7047
 1033SOL     OW14560   2.813   0.364   6.236 -0.2452  1.2289 -0.4196
 1033SOL    HW114561   2.903   0.331   6.241 -1.6447 -2.7914 -1.8531
 1033SOL    HW214562   2.783   0.346   6.325 -0.7566  0.0605 -0.8301
 1034SOL     OW14563   0.969   0.111   4.053 -0.3831  0.3382  0.2607
 1034SOL    HW114564   0.981   0.040   4.116 -0.7182 -0.2184 -0.2980
 1034SOL    HW214565   0.942   0.057   3.979 -1.0319  1.4840 -0.3481
 1035SOL     OW14566   0.406   2.218   0.656 -0.4441 -0.6232 -0.0072
 1035SOL    HW114567   0.428   2.148   0.593  2.2828  1.1928 -1.0694
 1035SOL    HW214568   0.489   2.232   0.700 -0.9556  2.0138  0.1070
 1036SOL     OW14569   4.072   2.428   7.870  0.0067  0.3091  0.2845
 1036SOL    HW114570   4.150   2.483   7.881  0.2893  0.1836 -1.1108
 1036SOL    HW214571   4.056   2.450   7.778  1.7726 -2.5756 -0.6979
 1037SOL     OW14572   2.389   0.946  11.274  0.0281  0.3635  0.4912
 1037SOL    HW114573   2.379   0.949  11.179  0.9015 -0.4795  0.3843
 1037SOL    HW214574   2.444   1.022  11.290 -0.1210  0.1790  1.8851
 1038SOL     OW14575   0.944   1.835   9.139 -0.0369 -0.0170 -0.0381
 1038SOL    HW114576   1.026   1.830   9.090  0.2204 -0.3362  0.4166
 1038SOL    HW214577   0.887   1.794   9.074 -2.3686 -0.4679  2.2890
 1039SOL     OW14578   3.897   0.038   4.479 -0.3805  0.4577  0.4307
 1039SOL    HW114579   3.897   0.057   4.573 -0.8239 -3.4285  1.1870
 1039SOL    HW214580   3.960   4.690   4.466  1.6892  2.7602 -2.0880
 1040SOL     OW14581   0.285   4.169  11.103 -0.0938 -0.5793 -0.4760
 1040SOL    HW114582   0.245   4.212  11.028 -1.3652 -1.7832 -0.4799
 1040SOL    HW214583   0.211   4.136  11.153  1.9670 -2.6357  1.2360
 1041SOL     OW14584   0.116   1.627   4.238  0.4275  0.5749 -0.2077
 1041SOL    HW114585   0.110   1.722   4.226 -1.7697  0.1971 -2.1678
 1041SOL    HW214586   0.030   1.588   4.257  0.5092  1.0265  1.0632
 1042SOL     OW14587   1.005   3.932   7.923 -0.6756 -0.0008  0.5332
 1042SOL    HW114588   0.989   4.009   7.869  0.3257 -0.0727  0.1230
 1042SOL    HW214589   1.014   3.862   7.858 -0.4107 -0.3441  0.9375
 1043SOL     OW14590   1.278   2.157  12.424  0.5184 -0.1093  0.0313
 1043SOL    HW114591   1.233   2.078  12.456 -0.1193 -0.2742 -1.2638
 1043SOL    HW214592   1.276   2.204  12.507 -0.6378  1.2186 -0.7408
 1044SOL     OW14593   1.013   1.449   0.888 -0.1017  0.3280 -0.0419
 1044SOL    HW114594   1.068   1.492   0.953 -0.5943  1.4603 -0.3759
 1044SOL    HW214595   1.078   1.423   0.823 -0.5848  2.7535 -1.4851
 1045SOL     OW14596   1.249   0.620  12.069 -0.1361  0.4358  0.1759
 1045SOL    HW114597   1.229   0.710  12.094 -0.6335  0.7311 -1.2435
 1045SOL    HW214598   1.284   0.635  11.981  0.3515 -0.1345  0.2740
 1046SOL     OW14599   1.824   2.325   8.416  0.8112 -0.0121  0.1372
 1046SOL    HW114600   1.878   2.394   8.377 -0.4700  0.3447 -0.9914
 1046SOL    HW214601   1.734   2.357   8.415  1.6527  2.3700  1.3881
 1047SOL     OW14602   4.360   0.531   7.589  0.1815  0.5681 -0.1359
 1047SOL    HW114603   4.285   0.503   7.536 -1.1090  1.7259  1.0650
 1047SOL    HW214604   4.327   0.506   7.675 -2.8861  0.7559 -1.2265
 1048SOL     OW14605   0.850   1.937   0.184 -0.7860  0.5149  0.1160
 1048SOL    HW114606   0.797   1.994   0.240 -1.4543  2.1411 -2.1388
 1048SOL    HW214607   0.856   1.857   0.236  1.2315  2.3136  2.5963
 1049SOL     OW14608   4.680   2.692   5.391  0.1225 -0.2689  0.1589
 1049SOL    HW114609   4.619   2.748   5.439  0.5633 -0.7725  1.3072
 1049SOL    HW214610   4.621   2.669   5.320  2.1586 -2.8335 -0.7102
 1050SOL     OW14611   1.902   1.409   4.046 -0.0526 -0.4607  0.5234
 1050SOL    HW114612   1.966   1.455   3.993 -3.1835  2.5981 -0.6386
 1050SOL    HW214613   1.966   1.351   4.086  2.4886  1.1380 -1.1919
 1051SOL     OW14614   2.648   3.499  10.330 -0.3373 -0.0045  0.4406
 1051SOL    HW114615   2.698   3.418  10.337  2.0049  1.3150 -0.8205
 1051SOL    HW214616   2.600   3.490  10.248 -0.3353 -0.3592  0.4796
 1052SOL     OW14617   3.098   0.977   7.776 -0.3834 -0.3622  0.3843
 1052SOL    HW114618   3.030   1.044   7.772 -0.0773  0.0542  2.4816
 1052SOL    HW214619   3.113   0.977   7.870 -3.3507 -1.7198  0.8554
 1053SOL     OW14620   0.989   1.420   6.073  0.4739  0.4167  0.3196
 1053SOL    HW114621   0.896   1.400   6.080  0.7979 -2.1175 -2.4524
 1053SOL    HW214622   1.003   1.423   6.167  0.9197 -0.8096  0.2859
 1054SOL     OW14623   2.626   1.761   4.895 -0.1485 -0.0398  0.3146
 1054SOL    HW114624   2.694   1.696   4.881  0.5933  0.8040  0.0123
 1054SOL    HW214625   2.642   1.813   4.816 -1.6054  0.8848  0.6256
 1055SOL     OW14626   0.077   3.379  10.735 -0.2097 -0.3770 -0.8325
 1055SOL    HW114627   4.713   3.403  10.699  0.0679  1.5055 -0.2704
 1055SOL    HW214628   0.077   3.436  10.812  0.7707  0.6952 -1.6312
 1056SOL     OW14629   0.308   0.366   9.979  1.2713 -0.5437  0.0783
 1056SOL    HW114630   0.359   0.324  10.049  1.7131  2.1253  1.3709
 1056SOL    HW214631   0.254   0.295   9.945  1.9045 -0.0994 -1.8606
 1057SOL     OW14632   4.529   2.028   4.981  0.1281 -0.1648 -0.1824
 1057SOL    HW114633   4.441   2.029   4.943  0.3908 -0.1224 -0.7882
 1057SOL    HW214634   4.526   1.947   5.033 -2.1588 -1.4637 -2.3227
 1058SOL     OW14635   2.120   0.998   0.876  0.1837  0.2639 -0.6709
 1058SOL    HW114636   2.129   0.937   0.949  3.3810  0.5413 -0.8358
 1058SOL    HW214637   2.198   0.985   0.822 -0.9138 -1.9792 -1.7283
 1059SOL     OW14638   0.723   0.090  13.717 -0.0601  0.5010  0.0998
 1059SOL    HW114639   0.774   0.171  13.705 -0.0351  0.8944  2.7949
 1059SOL    HW214640   0.720   0.044  13.634  1.1160 -2.7528  1.8739
 1060SOL     OW14641   0.302   3.671   2.012 -0.4234 -0.7400 -0.0596
 1060SOL    HW114642   0.282   3.587   2.053 -2.4204  0.3064  1.1158
 1060SOL    HW214643   0.386   3.657   1.968 -1.2406  0.3327 -1.9424
 1061SOL     OW14644   0.508   1.040   2.799 -0.0267  0.1057 -0.0725
 1061SOL    HW114645   0.601   1.047   2.819 -0.1806  1.9361  0.0624
 1061SOL    HW214646   0.508   0.979   2.726 -0.6839  1.1767 -0.9670
 1062SOL     OW14647   1.120   1.670  12.744 -0.2103 -0.6632  0.4963
 1062SOL    HW114648   1.080   1.633  12.665 -1.3134  3.3197 -0.7951
 1062SOL    HW214649   1.077   1.754  12.732  1.1351  0.0510  0.7095
 1063SOL     OW14650   4.311   1.662   6.355 -0.3566 -0.5603  0.0440
 1063SOL    HW114651   4.329   1.570   6.373  0.3597 -0.3899  0.1931
 1063SOL    HW214652   4.263   1.645   6.274  1.1142 -0.7599 -0.7895
 1064SOL     OW14653   3.385   2.692   7.620  0.6123 -0.3022  0.1257
 1064SOL    HW114654   3.407   2.703   7.528 -0.0570 -1.2291 -0.1389
 1064SOL    HW214655   3.428   2.769   7.658  0.8373 -0.2729 -0.1894
 1065SOL     OW14656   0.097   0.318  13.550  0.2265  0.0812 -0.1245
 1065SOL    HW114657   0.036   0.295  13.480 -1.5480  0.3627  1.3366
 1065SOL    HW214658   0.077   0.238  13.599  0.1834  1.2108  1.7180
 1066SOL     OW14659   0.496   3.515   3.968  0.2203  0.0323 -0.2000
 1066SOL    HW114660   0.488   3.477   4.055 -2.2619  0.6073 -0.1698
 1066SOL    HW214661   0.570   3.574   3.983 -0.6112  0.8651  0.6163
 1067SOL     OW14662   0.417   3.982   5.093  0.4980  0.0359 -0.0929
 1067SOL    HW114663   0.384   3.961   5.006 -0.5901 -0.6785  0.4868
 1067SOL    HW214664   0.486   4.042   5.065  1.2077 -0.9491 -0.4385
 1068SOL     OW14665   2.229   0.193  11.506 -0.4662  0.0457 -0.0197
 1068SOL    HW114666   2.243   0.287  11.493 -1.9737  0.5381  1.9633
 1068SOL    HW214667   2.288   0.152  11.443  0.5038  0.0161  0.9014
 1069SOL     OW14668   2.179   4.404  12.037 -0.1345  0.1250 -0.9208
 1069SOL    HW114669   2.103   4.399  11.979  0.6903  1.3134 -2.1023
 1069SOL    HW214670   2.203   4.495  12.016  3.1954 -0.2069  1.4428
 1070SOL     OW14671   4.422   1.707  14.979  0.3006  0.3610 -0.4086
 1070SOL    HW114672   4.398   1.733  14.890 -1.3531  0.7881  0.1556
 1070SOL    HW214673   4.458   1.622  14.954 -0.5344 -0.5369  1.4130
 1071SOL     OW14674   2.528   2.049  17.440 -0.4207  0.1098  0.4332
 1071SOL    HW114675   2.545   2.129  17.391 -1.3956 -0.4067 -0.7273
 1071SOL    HW214676   2.617   2.028  17.470 -0.2762 -0.7757 -0.6552
 1072SOL     OW14677   4.295   4.683   1.396  0.1203  0.0889  0.2379
 1072SOL    HW114678   4.262   4.628   1.466 -1.8662  0.5085 -0.3669
 1072SOL    HW214679   4.269   4.640   1.314  0.5124  0.1384  0.0878
 1073SOL     OW14680   4.698   3.693   1.694  0.4686 -0.3897  0.1487
 1073SOL    HW114681   4.663   3.605   1.682 -2.0081  0.2630  2.3848
 1073SOL    HW214682   4.620   3.729   1.739  0.1962 -0.0798 -0.5649
 1074SOL     OW14683   0.449   0.257  14.098 -0.5685  0.4261  0.3672
 1074SOL    HW114684   0.388   0.308  14.044  2.0469  1.1227 -1.9187
 1074SOL    HW214685   0.478   0.186  14.040  0.9717  1.4071 -0.0636
 1075SOL     OW14686   2.935   3.828   4.060 -0.1561 -0.4093  0.6874
 1075SOL    HW114687   2.933   3.756   3.997  0.7325  2.1659 -2.2461
 1075SOL    HW214688   2.869   3.885   4.022  0.3970 -0.0336  0.3037
 1076SOL     OW14689   1.399   1.286   6.473 -0.5162 -0.0386 -0.5109
 1076SOL    HW114690   1.431   1.295   6.563 -3.7892 -0.2575  0.6743
 1076SOL    HW214691   1.372   1.194   6.469 -0.3938 -0.0781 -0.4299
 1077SOL     OW14692   4.313   0.402   3.624 -0.3819 -0.0138  0.4305
 1077SOL    HW114693   4.325   0.497   3.623  1.2681 -0.2262  2.0721
 1077SOL    HW214694   4.380   0.374   3.561 -1.6340 -1.0113 -0.4496
 1078SOL     OW14695   1.080   2.339   8.663  0.4321 -0.0468  0.4923
 1078SOL    HW114696   1.171   2.364   8.642 -0.4808  2.5954 -0.3375
 1078SOL    HW214697   1.050   2.297   8.582 -0.8526 -0.3334  1.1333
 1079SOL     OW14698   1.721   1.018  12.127 -0.0681 -0.3122  0.5304
 1079SOL    HW114699   1.811   1.023  12.094 -0.1416  2.2278  0.7564
 1079SOL    HW214700   1.687   1.107  12.120 -0.4740 -0.3845  1.5706
 1080SOL     OW14701   2.516   3.628   0.891  0.4440  0.4147  0.0750
 1080SOL    HW114702   2.565   3.632   0.809  2.3530  1.5044  1.2524
 1080SOL    HW214703   2.434   3.671   0.870 -0.3560 -1.1017  0.1033
 1081SOL     OW14704   1.016   4.076   6.300 -0.3782 -0.4104  0.1073
 1081SOL    HW114705   1.091   4.061   6.356  0.8987 -0.5401 -1.6452
 1081SOL    HW214706   0.960   4.010   6.341 -1.6045  1.0408  0.8012
 1082SOL     OW14707   0.150   0.592   3.226  0.0731  0.2959  0.5756
 1082SOL    HW114708   0.235   0.599   3.270  0.4613  4.9833 -0.9790
 1082SOL    HW214709   0.169   0.577   3.134  2.2140 -0.5365  1.1371
 1083SOL     OW14710   4.408   0.488  12.289  0.1861  0.1380 -0.5188
 1083SOL    HW114711   4.467   0.447  12.352 -0.3360 -0.5959 -0.5113
 1083SOL    HW214712   4.450   0.573  12.277  0.1022  0.3013  0.2859
 1084SOL     OW14713   2.370   0.096   3.430 -0.3535 -0.5387  0.1778
 1084SOL    HW114714   2.354   0.151   3.507  1.6168 -1.8924  1.5722
 1084SOL    HW214715   2.440   0.137   3.379  1.0357 -1.5238  1.2987
 1085SOL     OW14716   3.826   4.108   6.122  0.1941 -0.2457  0.3408
 1085SOL    HW114717   3.742   4.067   6.102 -0.5265  1.0109  0.8454
 1085SOL    HW214718   3.810   4.146   6.208 -0.2397  0.7147 -0.1724
 1086SOL     OW14719   2.378   0.716  13.191  0.4073  0.4177 -0.0322
 1086SOL    HW114720   2.322   0.722  13.269 -1.6235 -0.8886 -1.3944
 1086SOL    HW214721   2.409   0.807  13.193  0.8005  0.2651  0.9472
 1087SOL     OW14722   1.400   1.209   3.313 -0.1199 -0.1269 -0.4132
 1087SOL    HW114723   1.324   1.154   3.332  1.3407 -1.3132  1.9676
 1087SOL    HW214724   1.355   1.287   3.280  0.5468 -0.0641 -1.1814
 1088SOL     OW14725   2.139   0.693   6.285  0.6406  0.1861  0.1701
 1088SOL    HW114726   2.163   0.679   6.193 -1.0425 -0.1403 -0.2092
 1088SOL    HW214727   2.104   0.606   6.307  1.3902 -0.5197 -1.4277
 1089SOL     OW14728   3.924   4.416   9.307 -1.0898 -0.0412 -0.2245
 1089SOL    HW114729   3.994   4.479   9.293  0.9208 -1.6531  2.5799
 1089SOL    HW214730   3.968   4.331   9.309  0.1703  0.6072 -0.2866
 1090SOL     OW14731   3.942   0.571   8.199  0.6292  0.5508  0.2241
 1090SOL    HW114732   3.894   0.607   8.124 -0.4863  0.1804  0.7642
 1090SOL    HW214733   4.030   0.607   8.185  1.2029 -1.1238 -0.4562
 1091SOL     OW14734   0.169   3.717   3.309 -0.2401  1.0229 -0.3905
 1091SOL    HW114735   0.221   3.794   3.332 -0.2268  1.1396 -0.8184
 1091SOL    HW214736   0.203   3.690   3.224 -0.7528  0.5665 -0.4498
 1092SOL     OW14737   1.296   0.011  13.065 -0.0332 -0.2446  0.8233
 1092SOL    HW114738   1.345   4.651  13.072 -1.6618 -1.1807  1.2395
 1092SOL    HW214739   1.357   0.070  13.020  1.0444 -0.2959  2.1926
 1093SOL     OW14740   4.298   1.795   6.579  0.2636  0.0810  0.0262
 1093SOL    HW114741   4.304   1.743   6.500 -0.1592  0.2649 -0.1239
 1093SOL    HW214742   4.365   1.763   6.640  0.1560  0.1133  0.1610
 1094SOL     OW14743   1.059   1.607   7.079  0.0940  0.1766  0.4605
 1094SOL    HW114744   1.099   1.570   7.001  0.0872  0.6810  0.2130
 1094SOL    HW214745   1.051   1.699   7.054 -1.8056 -0.1970 -0.3240
 1095SOL     OW14746   3.409   4.482   2.589  0.1132  0.0814 -0.4410
 1095SOL    HW114747   3.352   4.480   2.666 -0.4414 -1.3107 -0.8809
 1095SOL    HW214748   3.355   4.481   2.510  0.3734 -2.5637 -0.5981
 1096SOL     OW14749   3.119   1.440  17.542 -0.2006  0.0348  0.0046
 1096SOL    HW114750   3.039   1.453  17.491 -0.0334 -0.9688 -0.5003
 1096SOL    HW214751   3.158   1.359  17.508 -1.6205  0.2172 -2.0182
 1097SOL     OW14752   3.773   2.808   2.440  0.4052 -0.7636  0.1021
 1097SOL    HW114753   3.796   2.826   2.532 -0.5904  0.2224  0.1633
 1097SOL    HW214754   3.705   2.741   2.443  1.3104 -1.7035 -0.7100
 1098SOL     OW14755   3.509   3.453  10.253 -0.2346 -0.4342 -0.6812
 1098SOL    HW114756   3.433   3.496  10.294 -0.8578 -0.6997 -1.5682
 1098SOL    HW214757   3.472   3.380  10.205 -0.6742 -0.0521 -0.9298
 1099SOL     OW14758   1.898   0.569   0.668  0.2509 -0.3205 -0.7291
 1099SOL    HW114759   1.828   0.633   0.655  1.5242  1.0587 -0.7089
 1099SOL    HW214760   1.849   0.488   0.683  0.0277 -0.5188 -2.4810
 1100SOL     OW14761   2.041   1.166   0.332 -0.1645  0.1013  0.1980
 1100SOL    HW114762   1.962   1.220   0.324  1.4550  2.6047  1.0840
 1100SOL    HW214763   2.019   1.119   0.413  0.3685 -2.3702 -1.0840
 1101SOL     OW14764   3.434   1.536   2.878  0.1458 -0.0251  0.0933
 1101SOL    HW114765   3.423   1.517   2.784 -0.2063 -0.9989  0.3293
 1101SOL    HW214766   3.348   1.556   2.914  0.5144  2.3422 -0.3600
 1102SOL     OW14767   4.615   2.829  12.884 -0.1035  0.0044 -0.0539
 1102SOL    HW114768   4.698   2.793  12.917  0.3642  0.7334 -0.4207
 1102SOL    HW214769   4.647   2.897  12.824 -2.5828  0.3559 -0.9611
 1103SOL     OW14770   1.215   3.709   7.627  0.0047 -0.1143  0.3727
 1103SOL    HW114771   1.285   3.668   7.678  0.3267 -1.8545 -1.4340
 1103SOL    HW214772   1.252   3.796   7.620  0.4926 -0.3566 -0.0482
 1104SOL     OW14773   4.143   0.433  13.911 -0.1667  0.1250 -0.3572
 1104SOL    HW114774   4.101   0.507  13.955 -1.1117  0.5687 -2.0207
 1104SOL    HW214775   4.072   0.370  13.901  0.0381 -0.0978 -0.4187
 1105SOL     OW14776   2.768   0.334   2.241 -0.5085 -0.3579 -0.2465
 1105SOL    HW114777   2.724   0.371   2.318 -0.6078 -2.2256  0.5794
 1105SOL    HW214778   2.734   0.245   2.249 -1.5666  0.3422  3.2224
 1106SOL     OW14779   2.761   4.709   7.877  0.2295 -0.2725 -0.0861
 1106SOL    HW114780   2.824   4.642   7.903  1.4448  0.3755 -1.3635
 1106SOL    HW214781   2.773   4.713   7.782 -1.9439 -0.9052 -0.3957
 1107SOL     OW14782   0.095   0.378   5.427 -0.3825 -0.3982 -0.5233
 1107SOL    HW114783   0.085   0.436   5.503  1.1636 -2.4131  1.2237
 1107SOL    HW214784   0.133   0.307   5.479 -1.0989 -2.1187 -2.3844
 1108SOL     OW14785   2.290   2.675   6.782 -0.3125 -0.3129 -0.2691
 1108SOL    HW114786   2.202   2.646   6.759 -1.0943  0.8854  1.2191
 1108SOL    HW214787   2.278   2.769   6.768 -1.6735 -0.2329  1.4908
 1109SOL     OW14788   2.696   2.901  13.114  0.2862 -0.1189 -0.4114
 1109SOL    HW114789   2.664   2.916  13.203 -0.0261 -1.8218 -0.2283
 1109SOL    HW214790   2.678   2.986  13.074  0.6502  0.7172  1.1822
 1110SOL     OW14791   2.017   0.403  13.790 -0.8426  0.1917 -0.4573
 1110SOL    HW114792   1.952   0.467  13.816 -0.6149  0.4040 -0.4117
 1110SOL    HW214793   1.974   0.323  13.821 -0.9362  0.2992 -0.3115
 1111SOL     OW14794   0.530   4.153   8.559  0.3952 -0.0942 -0.3353
 1111SOL    HW114795   0.544   4.117   8.646 -1.1211  1.8071  0.7085
 1111SOL    HW214796   0.601   4.218   8.557  0.7835 -0.6148 -4.2174
 1112SOL     OW14797   0.418   3.580   7.960  0.1169  0.0493 -0.1804
 1112SOL    HW114798   0.380   3.665   7.983  1.1895  0.2033  1.0537
 1112SOL    HW214799   0.365   3.519   8.011 -4.2151  4.9771  1.1912
 1113SOL     OW14800   0.036   1.966   4.826  0.2112  0.3936  0.1650
 1113SOL    HW114801   4.678   1.989   4.874  0.1559  0.6965 -0.0774
 1113SOL    HW214802   0.107   1.967   4.891  0.5073  0.1884 -0.1549
 1114SOL     OW14803   1.644   2.977   1.808 -0.3289 -0.2017 -0.1721
 1114SOL    HW114804   1.604   3.036   1.744  2.8691  1.3406 -0.7520
 1114SOL    HW214805   1.737   2.998   1.806 -0.2024 -0.8600 -1.5325
 1115SOL     OW14806   0.121   3.554  10.502  0.1258 -0.0249  0.0282
 1115SOL    HW114807   0.114   3.512  10.587  2.0120 -0.7391 -0.1753
 1115SOL    HW214808   0.182   3.495  10.458  0.7217  0.8892 -0.3774
 1116SOL     OW14809   2.480   4.249   6.493  0.0830 -0.2382  0.4589
 1116SOL    HW114810   2.427   4.282   6.421  2.5170 -1.0274 -1.7066
 1116SOL    HW214811   2.429   4.259   6.574  2.2047 -1.4866  1.9628
 1117SOL     OW14812   3.334   0.620   9.128 -0.8302  0.3728 -0.2813
 1117SOL    HW114813   3.391   0.697   9.130  0.5263 -0.6156 -0.8191
 1117SOL    HW214814   3.273   0.645   9.198  0.5740  2.9854  0.0428
 1118SOL     OW14815   1.907   1.823   8.409  0.0191 -0.0312  0.0121
 1118SOL    HW114816   1.849   1.762   8.363 -2.6492  1.3423  1.5563
 1118SOL    HW214817   1.910   1.910   8.368  2.2525 -0.2592 -0.3283
 1119SOL     OW14818   0.697   2.619   6.137 -0.0644  0.4128  0.0621
 1119SOL    HW114819   0.656   2.694   6.093 -0.9896 -1.1961 -1.7815
 1119SOL    HW214820   0.788   2.648   6.130 -0.8230  2.3349 -2.0423
 1120SOL     OW14821   3.380   1.095   1.137  0.2120  0.3721 -0.2402
 1120SOL    HW114822   3.293   1.060   1.118 -0.0123  1.1493 -0.6619
 1120SOL    HW214823   3.367   1.125   1.228  1.0701  0.7490 -0.2408
 1121SOL     OW14824   1.803   0.646   5.313  0.0843 -0.1354  0.0011
 1121SOL    HW114825   1.815   0.731   5.269  1.2344 -0.6828 -0.7419
 1121SOL    HW214826   1.835   0.673   5.399  0.0651 -1.7268  0.5019
 1122SOL     OW14827   0.291   1.945   6.442  0.0256 -0.3143  0.5870
 1122SOL    HW114828   0.228   1.895   6.390 -1.8805  1.0261  1.6199
 1122SOL    HW214829   0.270   1.909   6.528  1.8803 -0.2519  1.0520
 1123SOL     OW14830   2.487   4.398   1.842  0.4133 -0.1989  0.3054
 1123SOL    HW114831   2.443   4.337   1.781  0.4733 -0.5995  0.6627
 1123SOL    HW214832   2.499   4.472   1.783 -0.4287 -0.2582  0.0645
 1124SOL     OW14833   3.341   1.334   6.371 -0.4931  0.1479  0.1114
 1124SOL    HW114834   3.275   1.267   6.351 -2.4925  1.9524  0.6835
 1124SOL    HW214835   3.292   1.407   6.409 -0.4498 -0.8225  2.0130
 1125SOL     OW14836   2.108   0.923   5.709 -0.1635 -0.2533 -0.1383
 1125SOL    HW114837   2.124   0.864   5.783  0.9657 -0.8789 -0.8705
 1125SOL    HW214838   2.013   0.932   5.707 -0.1154  0.8251  2.3449
 1126SOL     OW14839   1.244   4.415  16.859 -0.1677 -0.0101 -0.0924
 1126SOL    HW114840   1.236   4.484  16.793 -2.2574 -0.5725 -0.4270
 1126SOL    HW214841   1.184   4.342  16.839 -1.1132  0.4849  0.9512
 1127SOL     OW14842   1.211   1.351   9.948 -0.2931 -0.3036 -0.6634
 1127SOL    HW114843   1.213   1.446   9.954  0.3866 -0.5481  2.9572
 1127SOL    HW214844   1.213   1.328  10.041  0.2031 -2.9632 -1.3170
 1128SOL     OW14845   2.829   4.197  16.843 -0.1153 -0.0375  0.1859
 1128SOL    HW114846   2.835   4.276  16.897  0.4126  0.6769 -0.9187
 1128SOL    HW214847   2.757   4.157  16.892 -0.3370  0.7187  0.4929
 1129SOL     OW14848   2.644   3.851   5.740  0.3900 -0.4354  0.5369
 1129SOL    HW114849   2.726   3.869   5.694 -1.3595  1.6281 -1.7731
 1129SOL    HW214850   2.659   3.899   5.821  0.3641 -1.1772  0.9820
 1130SOL     OW14851   3.395   0.203   1.957  0.3153  0.1305 -0.6133
 1130SOL    HW114852   3.356   0.134   1.904 -1.7023  0.7928  0.0380
 1130SOL    HW214853   3.476   0.162   1.989  0.1669  0.8839  0.7351
 1131SOL     OW14854   1.305   2.409   6.042  0.2017  0.4090 -0.1550
 1131SOL    HW114855   1.392   2.379   6.068 -0.0832  0.4008  0.8003
 1131SOL    HW214856   1.266   2.338   5.991  1.9107 -0.4620 -0.2252
 1132SOL     OW14857   3.903   3.724   6.116  0.4812 -0.5243 -0.5937
 1132SOL    HW114858   3.814   3.722   6.079  0.1776  3.4749 -0.1394
 1132SOL    HW214859   3.881   3.715   6.208  1.4663  1.8881 -0.1291
 1133SOL     OW14860   1.143   0.182  10.531 -0.7487  0.1739 -0.4229
 1133SOL    HW114861   1.236   0.206  10.533 -0.7469  0.0877  0.6011
 1133SOL    HW214862   1.144   0.106  10.472  0.9655 -1.6656  1.9909
 1134SOL     OW14863   3.736   1.975   2.178  0.0665  1.1603  0.4154
 1134SOL    HW114864   3.811   2.001   2.124 -0.4937  0.2595 -0.8136
 1134SOL    HW214865   3.726   1.890   2.135  1.1384  1.4341 -0.3606
 1135SOL     OW14866   2.348   0.537   5.330  0.2520 -0.2582  0.6980
 1135SOL    HW114867   2.309   0.481   5.264  1.1011  0.4592 -0.4201
 1135SOL    HW214868   2.264   0.551   5.374  0.5795  1.7382  0.6913
 1136SOL     OW14869   1.458   0.649   3.779 -0.1785 -0.6683  0.8506
 1136SOL    HW114870   1.472   0.592   3.855  0.0472  0.9766  2.0577
 1136SOL    HW214871   1.508   0.597   3.716  2.2643  1.6387  0.8643
 1137SOL     OW14872   1.052   1.982   0.703  0.0838  0.2090  0.2025
 1137SOL    HW114873   1.121   2.047   0.715 -0.2575  0.3237  1.6192
 1137SOL    HW214874   1.058   1.935   0.786 -2.9354 -0.6732 -0.0889
 1138SOL     OW14875   2.468   3.584   5.772  0.8084  0.2267 -0.2920
 1138SOL    HW114876   2.516   3.551   5.847 -0.5926 -1.1633  0.0021
 1138SOL    HW214877   2.531   3.592   5.700  1.1369 -0.4021 -0.0742
 1139SOL     OW14878   3.485   3.660   3.307 -0.1429  0.7076 -0.4584
 1139SOL    HW114879   3.563   3.705   3.274  0.1497  1.4802  1.2730
 1139SOL    HW214880   3.413   3.703   3.261 -1.4654 -0.1178  0.8432
 1140SOL     OW14881   1.597   2.475   6.247  0.5963  0.5834  0.1169
 1140SOL    HW114882   1.653   2.518   6.182  0.2801 -0.2425 -0.7166
 1140SOL    HW214883   1.643   2.495   6.328 -2.9447  0.9137  2.0236
 1141SOL     OW14884   2.546   2.345   1.505  0.7730 -0.0596  0.5011
 1141SOL    HW114885   2.576   2.427   1.466 -1.0919  1.4139  2.1599
 1141SOL    HW214886   2.480   2.379   1.566 -1.9438 -1.7808 -1.5294
 1142SOL     OW14887   1.077   3.579  14.943  0.1106 -0.3821  0.2086
 1142SOL    HW114888   1.009   3.646  14.943  1.1075  0.6286 -0.3837
 1142SOL    HW214889   1.154   3.635  14.931  0.5891 -1.0391  0.2319
 1143SOL     OW14890   0.494   1.254   5.853 -0.4572  0.2110 -0.2224
 1143SOL    HW114891   0.446   1.330   5.819 -2.7162 -0.4405  1.4425
 1143SOL    HW214892   0.573   1.258   5.800 -0.9304 -0.6132 -1.0028
 1144SOL     OW14893   2.578   3.150   3.826 -0.3619 -0.3446  0.1669
 1144SOL    HW114894   2.520   3.076   3.805  1.2859 -1.7904  0.6657
 1144SOL    HW214895   2.552   3.225   3.773 -1.3091  2.0183  4.0034
 1145SOL     OW14896   0.865   0.215   8.738 -0.2464 -0.2853  0.4241
 1145SOL    HW114897   0.939   0.173   8.693  0.5542  1.9733 -0.3884
 1145SOL    HW214898   0.907   0.265   8.808 -2.1914 -1.7106  2.5983
 1146SOL     OW14899   3.663   4.499   4.368  0.3099 -0.2772 -0.3786
 1146SOL    HW114900   3.648   4.478   4.276 -2.2956 -0.6787  0.1387
 1146SOL    HW214901   3.747   4.455   4.380 -0.0532 -0.5759  1.0163
 1147SOL     OW14902   0.725   0.888  11.811 -0.1539  0.5483 -0.0183
 1147SOL    HW114903   0.669   0.814  11.836  0.8674 -0.6177 -1.2219
 1147SOL    HW214904   0.707   0.894  11.717 -1.6358 -0.8205  0.1698
 1148SOL     OW14905   4.047   1.931   6.295 -0.7741  0.1244  0.2281
 1148SOL    HW114906   4.110   1.950   6.364  3.2199  0.2277 -3.4846
 1148SOL    HW214907   4.101   1.862   6.256  1.8959  2.0686  0.5147
 1149SOL     OW14908   1.063   0.898   2.546  0.0916  0.0868 -0.0039
 1149SOL    HW114909   1.083   0.886   2.453  0.8084  0.8810  0.0462
 1149SOL    HW214910   1.125   0.834   2.580  1.1598  1.0295 -0.1859
 1150SOL     OW14911   2.695   1.716   3.765 -0.2423  0.2723 -0.6906
 1150SOL    HW114912   2.730   1.655   3.699 -0.3515  0.4271 -0.8908
 1150SOL    HW214913   2.655   1.784   3.712 -0.1664  1.0294  0.2368
 1151SOL     OW14914   3.098   2.327  14.334 -0.0921 -0.6186 -0.2300
 1151SOL    HW114915   3.033   2.363  14.394  0.3299 -0.2458  0.0098
 1151SOL    HW214916   3.146   2.263  14.387 -1.4020  0.6302  2.4976
 1152SOL     OW14917   0.202   1.461   7.977 -0.0723 -0.5820 -0.1418
 1152SOL    HW114918   0.287   1.495   8.005 -0.1058 -1.0108  0.4803
 1152SOL    HW214919   0.194   1.387   8.038  0.7559  0.3484  1.0951
 1153SOL     OW14920   2.986   3.399   6.395  0.4456 -0.4064 -0.1343
 1153SOL    HW114921   2.953   3.390   6.305 -0.5369 -0.8732  0.2686
 1153SOL    HW214922   2.915   3.357   6.444  1.4022 -1.3358  0.4354
 1154SOL     OW14923   2.908   3.769  14.328  0.1568  0.1441 -0.6708
 1154SOL    HW114924   2.824   3.776  14.373  0.1047  0.7629 -0.8682
 1154SOL    HW214925   2.939   3.683  14.356  2.5577  0.9076 -1.0056
 1155SOL     OW14926   4.136   2.416   5.537  0.2551 -0.5555  0.6463
 1155SOL    HW114927   4.160   2.339   5.588  1.2290  0.1021  1.1773
 1155SOL    HW214928   4.055   2.388   5.494  1.4307  0.3518 -2.1252
 1156SOL     OW14929   0.638   3.486   7.245 -0.4094  0.1505  0.4593
 1156SOL    HW114930   0.698   3.436   7.190 -0.8459 -0.3927  0.4746
 1156SOL    HW214931   0.688   3.556   7.287 -0.7120  0.4657  0.3023
 1157SOL     OW14932   2.601   2.911   0.959  0.7675 -0.2114  0.3402
 1157SOL    HW114933   2.685   2.867   0.971  0.9964 -0.0288 -0.5804
 1157SOL    HW214934   2.573   2.857   0.885  1.5800 -0.9011  0.5398
 1158SOL     OW14935   3.543   1.359   0.793  0.1315 -0.5974 -0.4000
 1158SOL    HW114936   3.527   1.445   0.756  1.4350  0.1805  0.8691
 1158SOL    HW214937   3.546   1.389   0.884  0.3378  1.9004 -1.2349
 1159SOL     OW14938   0.453   2.414   4.440 -0.1296 -0.1408  0.1715
 1159SOL    HW114939   0.368   2.398   4.480 -0.5358  0.1518 -0.5754
 1159SOL    HW214940   0.495   2.446   4.519 -1.5211  3.5359 -0.6080
 1160SOL     OW14941   0.358   0.005   6.873  0.7643  0.4033 -0.4048
 1160SOL    HW114942   0.281   4.673   6.894  0.1285  1.1406 -0.8289
 1160SOL    HW214943   0.417   4.669   6.824 -0.9050 -2.3163  0.7661
 1161SOL     OW14944   2.227   1.815   1.866  0.3739 -0.0608  0.1248
 1161SOL    HW114945   2.182   1.753   1.922 -2.5095  2.2003  0.3343
 1161SOL    HW214946   2.292   1.839   1.932  0.3621 -1.1511  0.5291
 1162SOL     OW14947   2.925   3.907  12.891 -0.1210 -0.1952  0.2096
 1162SOL    HW114948   2.953   3.852  12.818 -1.2929 -2.5265  1.5239
 1162SOL    HW214949   2.836   3.928  12.862  0.0157  0.7516  0.4581
 1163SOL     OW14950   1.134   2.122   7.006 -0.1745  0.0971  0.0623
 1163SOL    HW114951   1.083   2.139   7.085  0.7242 -0.0963  0.6897
 1163SOL    HW214952   1.223   2.115   7.042 -0.7640 -0.1076  1.4814
 1164SOL     OW14953   1.827   1.577   5.538 -0.6633 -0.1497 -0.0459
 1164SOL    HW114954   1.905   1.556   5.590  0.6347  2.7185 -0.9013
 1164SOL    HW214955   1.866   1.574   5.451 -1.0913 -2.5439 -0.1792
 1165SOL     OW14956   3.281   3.503  11.221  0.0689  0.0395  0.0178
 1165SOL    HW114957   3.235   3.497  11.305  0.8712  2.4388  0.6196
 1165SOL    HW214958   3.371   3.487  11.249  0.9307  2.2283 -1.5314
 1166SOL     OW14959   1.987   2.621   5.478 -0.0510 -0.2773 -0.1675
 1166SOL    HW114960   2.011   2.544   5.530 -0.0487 -0.4509 -0.4246
 1166SOL    HW214961   1.902   2.648   5.512  0.1217  0.7436 -0.5512
 1167SOL     OW14962   2.556   0.988   3.721  0.1606 -0.2100  0.6616
 1167SOL    HW114963   2.509   0.991   3.637  0.6915 -1.3827  0.3189
 1167SOL    HW214964   2.609   1.066   3.700 -0.3082  0.1380  0.7616
 1168SOL     OW14965   2.452   1.256  13.416  0.4364 -0.2465  0.2072
 1168SOL    HW114966   2.545   1.261  13.391  0.3716 -2.8483 -0.5685
 1168SOL    HW214967   2.415   1.249  13.328 -1.2145  0.2202  0.8714
 1169SOL     OW14968   0.807   1.609   2.226  0.2384  0.3397  0.2557
 1169SOL    HW114969   0.808   1.544   2.156  1.0736  1.2476 -0.5824
 1169SOL    HW214970   0.884   1.598   2.282  0.5162  0.9895  0.0109
 1170SOL     OW14971   3.665   3.952   9.352 -0.6032  0.0758 -0.0950
 1170SOL    HW114972   3.578   3.923   9.381 -1.1390  2.4158  0.6251
 1170SOL    HW214973   3.660   4.036   9.398  0.9648  0.0049  0.1918
 1171SOL     OW14974   4.677   0.843  10.093  0.0018 -0.0038 -0.0061
 1171SOL    HW114975   4.619   0.806  10.160 -1.7403  0.2867 -1.3560
 1171SOL    HW214976   4.653   0.935  10.092 -1.6058 -0.4612 -3.9968
 1172SOL     OW14977   1.302   3.549   3.253  0.5029 -0.4681  0.2135
 1172SOL    HW114978   1.348   3.587   3.328 -2.6025 -1.8769  2.8210
 1172SOL    HW214979   1.345   3.596   3.181 -2.8451 -3.4484 -3.7353
 1173SOL     OW14980   0.428   0.375  12.705 -0.2012 -0.2317  0.0123
 1173SOL    HW114981   0.515   0.339  12.719 -0.5806 -1.5844 -1.0572
 1173SOL    HW214982   0.439   0.463  12.671 -2.4755  0.7700  1.8599
 1174SOL     OW14983   1.783   0.551   9.371 -0.4682  0.2405 -0.0884
 1174SOL    HW114984   1.759   0.626   9.317  2.7205  0.4444 -1.2726
 1174SOL    HW214985   1.701   0.536   9.417  0.0602  2.1124  1.4625
 1175SOL     OW14986   3.272   3.602   5.896 -0.3264  0.3331  0.5475
 1175SOL    HW114987   3.360   3.565   5.884 -1.3554 -2.2187  0.9208
 1175SOL    HW214988   3.229   3.517   5.893 -0.8606  0.6709 -1.8026
 1176SOL     OW14989   3.394   3.411  13.810 -0.2445 -0.5335  0.3373
 1176SOL    HW114990   3.464   3.387  13.871 -0.0918 -1.8185 -0.3266
 1176SOL    HW214991   3.347   3.474  13.863  0.7962 -1.0370  1.8544
 1177SOL     OW14992   0.307   2.648   7.466  0.3867 -0.8325  0.0673
 1177SOL    HW114993   0.292   2.561   7.429 -0.6065  0.0984 -1.7358
 1177SOL    HW214994   0.282   2.632   7.557  0.5521  2.3694  0.6607
 1178SOL     OW14995   4.413   0.077  11.778 -0.0356 -0.4514  0.5202
 1178SOL    HW114996   4.490   0.060  11.724  1.3978 -3.2467  3.4093
 1178SOL    HW214997   4.452   0.073  11.866 -1.4303 -1.2378  1.1107
 1179SOL     OW14998   2.012   2.035   2.204 -0.7500  0.0724 -0.0860
 1179SOL    HW114999   2.100   2.033   2.243  0.8770  1.8848 -3.6924
 1179SOL    HW215000   2.030   2.051   2.111 -0.0091 -1.5434 -0.2226
 1180SOL     OW15001   1.217   2.830   3.342 -0.2947 -0.0001 -0.0514
 1180SOL    HW115002   1.293   2.772   3.344 -0.3352  0.0443  2.7177
 1180SOL    HW215003   1.158   2.755   3.343 -0.2762 -0.0202 -0.3622
 1181SOL     OW15004   3.165   0.637   0.772 -0.2276  0.6497 -0.0226
 1181SOL    HW115005   3.241   0.600   0.728  0.2428 -0.6153  1.8297
 1181SOL    HW215006   3.153   0.711   0.713 -2.0916  0.2367 -0.1607
 1182SOL     OW15007   1.144   1.790   5.051 -1.0542  0.4371  0.3035
 1182SOL    HW115008   1.232   1.824   5.033 -0.6944  0.9404  3.0054
 1182SOL    HW215009   1.128   1.752   4.965 -1.8414 -0.1022  0.6892
 1183SOL     OW15010   3.184   4.672   0.497  0.1488 -0.0553  0.1868
 1183SOL    HW115011   3.152   4.714   0.418  1.5113 -0.4627 -0.5815
 1183SOL    HW215012   3.220   4.590   0.463 -0.6330  0.3476 -1.5832
 1184SOL     OW15013   1.254   3.784  14.881  0.6646  0.0820 -0.3784
 1184SOL    HW115014   1.242   3.831  14.963 -1.8478 -2.7182  0.8474
 1184SOL    HW215015   1.348   3.794  14.868  0.9717 -0.0281  1.7696
 1185SOL     OW15016   2.635   3.758   4.908 -0.0566 -0.2408  0.3809
 1185SOL    HW115017   2.722   3.790   4.933 -0.5277 -0.1155  1.8442
 1185SOL    HW215018   2.608   3.832   4.854  0.7273 -1.4668 -1.6920
 1186SOL     OW15019   3.536   4.695   2.477 -0.8063 -0.1641  0.2334
 1186SOL    HW115020   3.501   4.637   2.544 -0.8560 -1.3655 -0.8378
 1186SOL    HW215021   3.581   0.035   2.535  0.2772 -0.7332  0.0022
 1187SOL     OW15022   3.589   4.291   7.209  0.0204  0.3823 -0.4171
 1187SOL    HW115023   3.600   4.330   7.296  1.5269  0.0529 -0.4678
 1187SOL    HW215024   3.494   4.279   7.212  0.0575  0.6890  2.3096
 1188SOL     OW15025   4.205   2.597  15.601  0.1822 -0.0135  0.0455
 1188SOL    HW115026   4.160   2.677  15.629  0.2298  0.8508 -2.3428
 1188SOL    HW215027   4.209   2.602  15.506 -1.8539 -0.3319 -0.0429
 1189SOL     OW15028   3.744   0.054   5.275  0.2723  0.4181 -0.9959
 1189SOL    HW115029   3.697   0.038   5.357 -0.6887  1.3236 -1.3736
 1189SOL    HW215030   3.831   0.036   5.310 -1.4674 -0.7421  2.7572
 1190SOL     OW15031   1.538   0.262   6.320 -0.3423  0.1288 -0.3350
 1190SOL    HW115032   1.581   0.179   6.343 -0.2500  0.1597 -0.3962
 1190SOL    HW215033   1.457   0.255   6.370 -0.1726  0.3201 -0.0347
 1191SOL     OW15034   2.927   3.682   5.582  0.2458 -0.2148 -0.3012
 1191SOL    HW115035   2.967   3.643   5.504 -0.7562 -0.9313 -0.4569
 1191SOL    HW215036   2.994   3.741   5.616 -0.4844 -0.1860  1.0844
 1192SOL     OW15037   2.604   0.653   5.707 -0.1896  0.4870 -0.3884
 1192SOL    HW115038   2.607   0.686   5.797 -0.5709  0.1266 -0.2436
 1192SOL    HW215039   2.525   0.687   5.666  0.2967  0.7583 -1.1076
 1193SOL     OW15040   4.623   2.223   2.098  0.1561  0.0415  0.3009
 1193SOL    HW115041   4.580   2.293   2.050 -1.2441  0.3204  1.9644
 1193SOL    HW215042   4.711   2.260   2.105  0.0524 -0.1125  2.7049
 1194SOL     OW15043   1.839   2.027   1.296  0.1333 -0.2571 -0.1227
 1194SOL    HW115044   1.854   1.977   1.376 -1.2378  0.8420  0.8337
 1194SOL    HW215045   1.927   2.058   1.278  0.5617 -0.7396  1.1866
 1195SOL     OW15046   4.044   2.783   1.504 -0.0283 -0.9083  0.5790
 1195SOL    HW115047   3.960   2.773   1.549  0.5713 -1.8973  1.4460
 1195SOL    HW215048   4.016   2.771   1.413  1.1496  1.0730 -0.0422
 1196SOL     OW15049   2.576   1.186   6.146 -0.0735 -0.1985 -0.0031
 1196SOL    HW115050   2.588   1.146   6.060  0.4292  0.5100 -0.2573
 1196SOL    HW215051   2.567   1.109   6.202  0.6498 -0.4924 -0.2917
 1197SOL     OW15052   0.757   3.652   3.327 -0.2440  0.2281 -0.3448
 1197SOL    HW115053   0.722   3.666   3.415  1.9613  2.8765  0.0941
 1197SOL    HW215054   0.847   3.682   3.335  0.3022 -0.5505 -3.4733
 1198SOL     OW15055   1.502   0.961   9.462 -0.3486 -0.7741  0.5138
 1198SOL    HW115056   1.516   0.877   9.507  0.6489  0.4888  2.5418
 1198SOL    HW215057   1.590   0.991   9.439 -0.5914 -2.3336 -2.5188
 1199SOL     OW15058   1.595   2.998   3.098  0.3942 -0.1282 -0.3066
 1199SOL    HW115059   1.540   3.076   3.098  0.7489  0.1216 -0.7484
 1199SOL    HW215060   1.657   3.003   3.171  2.1368  1.5680 -1.9072
 1200SOL     OW15061   0.708   2.683  11.619 -0.0352 -0.1335 -0.2481
 1200SOL    HW115062   0.685   2.724  11.703  0.9724  0.7906 -0.4146
 1200SOL    HW215063   0.726   2.763  11.570 -2.3771  1.7919  2.0250
 1201SOL     OW15064   3.081   1.149   4.424  0.9434 -0.0343  0.4289
 1201SOL    HW115065   3.020   1.205   4.375 -2.2817 -2.7842  1.3389
 1201SOL    HW215066   3.080   1.071   4.369  2.2242 -0.1818  0.6090
 1202SOL     OW15067   3.451   1.935   4.224 -0.7413  0.1895  0.5120
 1202SOL    HW115068   3.412   1.857   4.262 -2.5930  0.3707 -1.0286
 1202SOL    HW215069   3.510   1.965   4.293  1.7804 -2.8095 -0.3573
 1203SOL     OW15070   3.026   3.728   1.769 -0.0355  0.6039 -1.1422
 1203SOL    HW115071   2.945   3.731   1.819  0.3675 -0.2820 -0.4372
 1203SOL    HW215072   3.072   3.801   1.809 -0.7753  0.8792 -0.7994
 1204SOL     OW15073   4.461   1.192  13.731  0.1699  0.1524 -0.5196
 1204SOL    HW115074   4.450   1.249  13.655  1.5447  0.5644 -0.4092
 1204SOL    HW215075   4.522   1.127  13.695  0.0751  0.1600 -0.6970
 1205SOL     OW15076   0.798   4.000   7.088 -0.0344 -0.6684  0.1683
 1205SOL    HW115077   0.869   4.063   7.106 -0.2023 -0.7063  0.9741
 1205SOL    HW215078   0.742   4.008   7.165 -0.7238 -1.7196 -0.2300
 1206SOL     OW15079   0.595   1.108  11.664  0.4561  0.4847 -0.2868
 1206SOL    HW115080   0.656   1.117  11.591 -1.4525  0.0747 -1.9407
 1206SOL    HW215081   0.652   1.086  11.738 -1.4695  1.1594  1.4131
 1207SOL     OW15082   4.623   0.907   5.847 -0.6304  0.1525  0.7444
 1207SOL    HW115083   4.576   0.840   5.797 -0.3778  1.5885 -1.4105
 1207SOL    HW215084   4.708   0.871   5.872  0.5757  0.1882 -3.3230
 1208SOL     OW15085   4.566   0.367   5.300 -0.5515  0.2899  0.3570
 1208SOL    HW115086   4.515   0.433   5.347 -1.6209 -0.1482 -0.1887
 1208SOL    HW215087   4.650   0.370   5.347  0.2536 -1.7540 -0.9353
 1209SOL     OW15088   0.344   0.835   8.202  0.0464  0.2085  0.3076
 1209SOL    HW115089   0.435   0.808   8.193  0.5084  1.0254  2.7469
 1209SOL    HW215090   0.344   0.905   8.136 -0.8036  0.6022  0.7148
 1210SOL     OW15091   0.013   1.851   2.940  0.6431  0.3497 -0.1587
 1210SOL    HW115092   0.021   1.897   2.857 -3.4787  3.7495  1.3579
 1210SOL    HW215093   4.647   1.878   2.964  0.9342  0.3281  0.9191
 1211SOL     OW15094   2.673   3.956  11.127  0.2501  0.1820  0.7635
 1211SOL    HW115095   2.717   4.025  11.078  0.4307 -0.3331  0.2066
 1211SOL    HW215096   2.607   3.927  11.065  1.1699 -0.0332 -0.1100
 1212SOL     OW15097   1.249   4.341  13.924 -0.1211  0.4015 -0.3165
 1212SOL    HW115098   1.315   4.296  13.871  2.0671  1.1880  1.7287
 1212SOL    HW215099   1.217   4.271  13.981 -1.2004  0.1023 -1.2826
 1213SOL     OW15100   1.439   1.868   3.474 -0.7531 -0.2184 -0.0835
 1213SOL    HW115101   1.392   1.855   3.556  0.0731 -0.5843  0.3381
 1213SOL    HW215102   1.516   1.917   3.501 -0.3999  0.0544 -1.5813
 1214SOL     OW15103   3.634   2.659   9.305 -0.0955 -0.3355  0.2355
 1214SOL    HW115104   3.546   2.656   9.343 -0.5807  1.0777 -0.7525
 1214SOL    HW215105   3.655   2.737   9.357  0.0592 -1.4310  1.7993
 1215SOL     OW15106   2.787   1.920   2.170  0.5050 -0.2143  0.0223
 1215SOL    HW115107   2.800   1.999   2.117 -1.7620 -0.4947 -0.9725
 1215SOL    HW215108   2.782   1.846   2.109  2.9510 -1.0536  0.8137
 1216SOL     OW15109   0.716   2.110   7.650  0.4743  0.2745  0.1151
 1216SOL    HW115110   0.651   2.176   7.626  0.7924  0.2582 -0.7703
 1216SOL    HW215111   0.675   2.034   7.609  1.1208  0.3968 -0.7497
 1217SOL     OW15112   4.402   1.862   8.472 -0.1630  0.7536 -0.2791
 1217SOL    HW115113   4.474   1.924   8.465 -1.8744  2.4743 -2.6602
 1217SOL    HW215114   4.343   1.910   8.530 -0.3987 -0.9252  0.8809
 1218SOL     OW15115   2.976   3.779   6.385 -0.1000  0.1523 -0.2348
 1218SOL    HW115116   2.885   3.776   6.356 -0.6401  1.3219  1.2764
 1218SOL    HW215117   2.978   3.866   6.425 -3.0086  0.4038 -0.6277
 1219SOL     OW15118   1.442   1.151  16.380  0.0121 -0.5017  0.0156
 1219SOL    HW115119   1.520   1.097  16.368  0.5932  0.4315 -0.3933
 1219SOL    HW215120   1.485   1.229  16.415 -0.0192 -0.0483 -0.9739
 1220SOL     OW15121   1.390   3.644   8.653 -0.7752  0.2970 -0.3995
 1220SOL    HW115122   1.484   3.650   8.632 -0.3726 -0.5786  1.1309
 1220SOL    HW215123   1.400   3.635   8.748 -2.0132 -2.3439 -0.5155
 1221SOL     OW15124   4.419   1.009  12.814 -0.0734  0.3326  0.1781
 1221SOL    HW115125   4.390   1.039  12.901  0.2975 -0.5280  0.5964
 1221SOL    HW215126   4.475   0.939  12.846 -0.7052  0.5349  1.7486
 1222SOL     OW15127   3.555   1.100   0.891 -0.1577 -0.0914  0.1186
 1222SOL    HW115128   3.534   1.193   0.879  1.4779  0.3813  0.9790
 1222SOL    HW215129   3.492   1.083   0.962 -1.6420 -0.0334 -1.1814
 1223SOL     OW15130   0.055   1.961  10.719 -0.2947 -0.1414  0.2179
 1223SOL    HW115131   4.696   1.960  10.770 -0.1402  0.8388  0.4666
 1223SOL    HW215132   0.036   2.021  10.647 -0.2440 -0.8021 -0.3480
 1224SOL     OW15133   3.659   0.683   6.720  0.0220 -0.9476  0.2679
 1224SOL    HW115134   3.592   0.713   6.659  1.2807  1.1667 -0.1090
 1224SOL    HW215135   3.613   0.681   6.804 -0.1831 -0.0126  0.1796
 1225SOL     OW15136   4.122   1.907   3.031 -0.1131 -0.9375 -0.4750
 1225SOL    HW115137   4.174   1.834   2.997  2.8188  1.4813 -1.1790
 1225SOL    HW215138   4.092   1.957   2.954 -0.5004  1.4244  1.2064
 1226SOL     OW15139   3.457   4.646   0.779  0.2994  0.0735  0.0054
 1226SOL    HW115140   3.450   4.707   0.853 -0.8019 -1.3339  1.0675
 1226SOL    HW215141   3.538   4.681   0.741  1.3786 -0.5667  1.7109
 1227SOL     OW15142   3.089   1.078   9.790  0.2722 -0.2348  0.6697
 1227SOL    HW115143   3.065   1.079   9.883 -2.3472  0.9464 -0.0061
 1227SOL    HW215144   3.042   1.156   9.760 -1.1096 -1.5055 -0.4521
 1228SOL     OW15145   4.188   3.676   4.986  0.0390  0.3422 -0.1210
 1228SOL    HW115146   4.099   3.710   5.000 -0.2631 -0.9884  1.0949
 1228SOL    HW215147   4.204   3.676   4.891  2.7137  3.2001  0.3203
 1229SOL     OW15148   2.995   3.160   5.511 -0.1408  0.0358  0.3615
 1229SOL    HW115149   2.902   3.175   5.527 -0.0241  0.2326  0.8558
 1229SOL    HW215150   3.026   3.149   5.600 -2.2056 -0.8272  0.9657
 1230SOL     OW15151   1.068   0.798   3.031 -0.0352 -0.6077 -0.5501
 1230SOL    HW115152   1.019   0.872   2.996  0.1892 -0.4374 -0.5064
 1230SOL    HW215153   1.030   0.733   2.972  0.0728 -0.0420 -1.2394
 1231SOL     OW15154   2.641   3.872   2.076  0.6600 -0.0005  0.4898
 1231SOL    HW115155   2.657   3.949   2.021 -4.0586 -0.8613 -2.0116
 1231SOL    HW215156   2.560   3.892   2.122 -0.3128  0.1485 -1.3085
 1232SOL     OW15157   2.033   4.482   5.527 -0.2693  0.0614 -0.4963
 1232SOL    HW115158   1.983   4.423   5.470 -0.1894  0.9359 -1.4689
 1232SOL    HW215159   1.983   4.471   5.608 -2.2795 -1.5431 -1.9376
 1233SOL     OW15160   0.431   0.559   7.310  0.2303 -0.1467  0.2962
 1233SOL    HW115161   0.436   0.603   7.225 -1.3471  0.7669  0.6797
 1233SOL    HW215162   0.450   0.624   7.377  1.1712  1.5233 -1.5850
 1234SOL     OW15163   0.410   4.198   7.707 -0.1910  0.0079  0.7576
 1234SOL    HW115164   0.456   4.114   7.703  1.9640  1.2501 -0.8552
 1234SOL    HW215165   0.445   4.232   7.625 -0.1183  3.6331  2.3013
 1235SOL     OW15166   0.690   3.504   2.753 -0.1395 -0.4360 -0.5715
 1235SOL    HW115167   0.670   3.515   2.846  0.5787  0.4753 -0.5253
 1235SOL    HW215168   0.673   3.410   2.742 -2.0304 -0.1801  0.1865
 1236SOL     OW15169   4.553   0.226   2.265  0.5020  0.3664 -0.0828
 1236SOL    HW115170   4.498   0.293   2.224 -1.4219  0.4255  2.5497
 1236SOL    HW215171   4.524   0.238   2.356  1.3317 -1.1006  0.3751
 1237SOL     OW15172   3.411   0.759   4.359  0.5963 -0.2733  1.0162
 1237SOL    HW115173   3.455   0.793   4.281 -0.8717  0.3730  0.4738
 1237SOL    HW215174   3.487   0.715   4.399  1.5303  1.6964  1.4395
 1238SOL     OW15175   3.803   4.272   6.993 -0.0180 -0.4974 -0.0428
 1238SOL    HW115176   3.834   4.361   7.005  1.1968 -0.5228 -3.0145
 1238SOL    HW215177   3.727   4.268   7.052  1.3812 -1.7472  1.6649
 1239SOL     OW15178   0.759   0.072   2.539 -0.3869 -0.5193 -0.2707
 1239SOL    HW115179   0.725   0.010   2.603 -1.3140 -0.7233 -0.9692
 1239SOL    HW215180   0.794   0.132   2.605 -0.3549 -0.7887 -0.0433
 1240SOL     OW15181   4.385   2.686   4.428  0.2887 -0.0342  0.2507
 1240SOL    HW115182   4.439   2.630   4.484 -0.3220 -0.7189  0.1553
 1240SOL    HW215183   4.446   2.759   4.415 -0.3935  0.3817 -0.6235
 1241SOL     OW15184   2.125   0.295   4.084  0.1767 -0.2995 -0.5888
 1241SOL    HW115185   2.178   0.232   4.133 -0.1339 -1.0229 -1.1856
 1241SOL    HW215186   2.050   0.238   4.069 -2.0626  2.3401  0.4888
 1242SOL     OW15187   1.696   2.577   4.667 -0.4403 -0.6777 -0.1806
 1242SOL    HW115188   1.645   2.497   4.679  0.6987 -1.1591  1.4060
 1242SOL    HW215189   1.663   2.630   4.739  2.3225 -1.2076  1.4726
 1243SOL     OW15190   3.929   1.565   0.151  0.0039 -0.4689  0.6028
 1243SOL    HW115191   3.878   1.543   0.229 -0.1537 -2.5341 -0.0970
 1243SOL    HW215192   3.889   1.500   0.094  1.4158  0.0551 -0.9860
 1244SOL     OW15193   1.854   3.994   4.126  0.0072 -0.3912 -0.2295
 1244SOL    HW115194   1.785   4.058   4.140  1.7410  1.1838  1.0615
 1244SOL    HW215195   1.825   3.944   4.050 -0.8827 -1.1190  0.5917
 1245SOL     OW15196   2.099   0.422   6.398 -0.0017 -0.4327  0.2516
 1245SOL    HW115197   2.150   0.371   6.461 -0.4846  0.4261  1.3125
 1245SOL    HW215198   2.043   0.466   6.461  1.6869  1.0002  0.7217
 1246SOL     OW15199   1.155   1.949  12.539  0.2742  0.5415  0.0831
 1246SOL    HW115200   1.135   1.953  12.633  1.0261 -0.0456  0.2722
 1246SOL    HW215201   1.220   1.879  12.536 -0.7017 -0.2900 -1.8075
 1247SOL     OW15202   1.673   4.393   4.832  0.7835  0.6600 -0.3145
 1247SOL    HW115203   1.667   4.300   4.811 -2.0573  0.5922  0.8069
 1247SOL    HW215204   1.704   4.391   4.922  0.0521  2.3162 -0.0207
 1248SOL     OW15205   1.684   2.927  17.432 -0.0637 -0.7695  0.1559
 1248SOL    HW115206   1.761   2.975  17.461 -1.4110  0.6426  1.4090
 1248SOL    HW215207   1.664   2.869  17.506 -2.0550 -1.6545 -1.0671
 1249SOL     OW15208   2.880   2.732   8.314  0.3046  0.7257 -0.9180
 1249SOL    HW115209   2.799   2.714   8.265  0.3254  0.2630 -0.7728
 1249SOL    HW215210   2.940   2.696   8.249  1.2618  0.3001  0.2115
 1250SOL     OW15211   0.114   2.039  16.802 -0.3200  0.7434 -0.3290
 1250SOL    HW115212   0.168   2.107  16.760 -0.2912  0.2590 -1.0769
 1250SOL    HW215213   0.077   2.098  16.868 -1.4237  0.5212 -0.7584
 1251SOL     OW15214   4.485   3.507   3.200 -0.8418  0.0586  0.5052
 1251SOL    HW115215   4.526   3.438   3.251 -0.9581 -1.4605 -1.4610
 1251SOL    HW215216   4.425   3.477   3.132  0.4656  0.2044 -0.7019
 1252SOL     OW15217   4.476   3.762   7.704 -0.5135  0.5704 -0.1482
 1252SOL    HW115218   4.562   3.800   7.724  0.0460  0.6057 -2.5653
 1252SOL    HW215219   4.450   3.823   7.634  1.2149  0.8581 -0.5403
 1253SOL     OW15220   3.987   2.285  11.671 -0.3523  0.2202  0.7213
 1253SOL    HW115221   3.963   2.323  11.756 -1.2498  1.1724  0.0308
 1253SOL    HW215222   4.080   2.310  11.665 -0.7437  1.4117 -0.3613
 1254SOL     OW15223   2.440   4.323  15.646  0.4311 -0.0470 -0.0212
 1254SOL    HW115224   2.443   4.373  15.727  1.4128  1.7848 -1.1983
 1254SOL    HW215225   2.526   4.283  15.658  0.3539  0.3819  1.9066
 1255SOL     OW15226   3.190   0.710   7.656  0.2792  0.3935  0.5428
 1255SOL    HW115227   3.227   0.783   7.607  0.6387 -0.0625  0.1326
 1255SOL    HW215228   3.193   0.758   7.739 -0.8777  0.7264  0.3946
 1256SOL     OW15229   2.388   0.712   9.895 -0.1148 -0.9322  0.0574
 1256SOL    HW115230   2.364   0.678   9.808 -2.4742 -2.0708  1.1511
 1256SOL    HW215231   2.483   0.711   9.879  0.2063  0.9874  1.8650
 1257SOL     OW15232   2.381   1.507   9.925  0.0586  0.0425 -0.2688
 1257SOL    HW115233   2.301   1.467   9.893  0.2225 -0.3655 -0.1629
 1257SOL    HW215234   2.442   1.434   9.918  1.0287  1.0645 -2.4216
 1258SOL     OW15235   1.602   1.730   7.668 -0.1232  0.1173 -0.8527
 1258SOL    HW115236   1.647   1.646   7.672 -1.8567 -0.8511 -1.7037
 1258SOL    HW215237   1.520   1.699   7.630 -1.6642  1.0898  1.6161
 1259SOL     OW15238   4.505   2.966   0.150 -0.0676  0.2050 -0.5829
 1259SOL    HW115239   4.446   2.929   0.216  1.2760 -2.0848 -0.6720
 1259SOL    HW215240   4.533   3.046   0.195  0.5652 -0.0517 -0.5297
 1260SOL     OW15241   4.374   0.856  15.127 -0.0236 -0.1537 -0.0716
 1260SOL    HW115242   4.344   0.913  15.056 -3.3468 -2.8459 -0.7712
 1260SOL    HW215243   4.348   0.770  15.094 -1.2658  0.3125 -0.3083
 1261SOL     OW15244   4.171   0.818   4.072  0.4093 -0.4925  0.4984
 1261SOL    HW115245   4.108   0.755   4.038  0.6519 -0.6182  0.2816
 1261SOL    HW215246   4.244   0.820   4.011 -0.1151 -0.6678 -0.1278
 1262SOL     OW15247   2.294   3.172   3.637  0.0466  0.2633  0.5435
 1262SOL    HW115248   2.276   3.115   3.712  0.2394  0.2044  0.5438
 1262SOL    HW215249   2.358   3.117   3.591  0.9548  0.3917  1.6705
 1263SOL     OW15250   3.612   3.876  12.038  0.1346 -0.2060  0.1016
 1263SOL    HW115251   3.700   3.839  12.037  1.4303  2.9861 -3.5435
 1263SOL    HW215252   3.600   3.901  11.946 -0.3763  2.0168  0.7688
 1264SOL     OW15253   3.554   3.826  14.576  0.4801  0.2908  0.1932
 1264SOL    HW115254   3.458   3.834  14.573  0.3888 -1.3089 -1.5155
 1264SOL    HW215255   3.590   3.906  14.540  0.3377  0.3334  0.1439
 1265SOL     OW15256   1.010   0.537   8.532  0.1840  0.1839 -0.4255
 1265SOL    HW115257   1.061   0.513   8.609 -2.4114  1.5651  1.7380
 1265SOL    HW215258   1.059   0.609   8.493 -0.3884  1.2336  0.7803
 1266SOL     OW15259   1.167   1.805   4.135  0.2946 -0.0988  0.4564
 1266SOL    HW115260   1.122   1.742   4.190 -1.6255  1.3904  0.5877
 1266SOL    HW215261   1.247   1.753   4.123  0.2364  0.1911 -1.1812
 1267SOL     OW15262   3.639   0.352  13.972  0.1461 -0.3330 -0.3598
 1267SOL    HW115263   3.559   0.350  13.920 -0.9715  2.4205  1.2892
 1267SOL    HW215264   3.602   0.333  14.058 -1.3307 -0.4529 -1.0366
 1268SOL     OW15265   4.124   2.313   4.857  0.0528 -0.7540 -0.6594
 1268SOL    HW115266   4.155   2.335   4.769 -0.1450  0.4620 -0.4271
 1268SOL    HW215267   4.198   2.325   4.916 -0.2970  0.7922 -0.5364
 1269SOL     OW15268   2.858   0.861   5.387  0.2724 -0.4788 -0.0044
 1269SOL    HW115269   2.933   0.811   5.354 -0.4195 -0.5587 -1.4398
 1269SOL    HW215270   2.799   0.798   5.347  1.1568 -0.2852 -1.6358
 1270SOL     OW15271   1.144   4.636   0.312 -0.1702  0.2613 -0.5001
 1270SOL    HW115272   1.052   4.662   0.305 -0.2154 -0.1192 -1.3205
 1270SOL    HW215273   1.161   4.595   0.227 -0.3004 -0.5793 -0.1198
 1271SOL     OW15274   1.990   4.412  11.844  0.0348  0.5746  0.6513
 1271SOL    HW115275   2.005   4.420  11.749 -1.8304 -0.5792  0.2707
 1271SOL    HW215276   1.904   4.372  11.844  1.1824 -1.8579  1.0945
 1272SOL     OW15277   4.575   3.774   2.662 -0.3838  0.1444 -0.0704
 1272SOL    HW115278   4.554   3.766   2.569  0.2714 -0.8083 -0.1301
 1272SOL    HW215279   4.529   3.704   2.709  1.5895 -0.7761  0.4533
 1273SOL     OW15280   2.319   0.418   5.937 -0.3575 -0.6412  0.0673
 1273SOL    HW115281   2.308   0.358   6.011 -3.3852 -0.9573 -0.6408
 1273SOL    HW215282   2.412   0.423   5.916  0.0657 -0.5099  2.0325
 1274SOL     OW15283   4.074   0.350   8.155 -0.6233 -0.1254 -0.8358
 1274SOL    HW115284   4.007   0.418   8.162 -0.2554  0.0333  1.1126
 1274SOL    HW215285   4.045   0.306   8.075 -0.8024 -0.4297 -0.6029
 1275SOL     OW15286   1.198   0.391  15.823  0.0004 -0.2784 -0.0609
 1275SOL    HW115287   1.194   0.440  15.741 -0.2287  2.3369  1.4920
 1275SOL    HW215288   1.251   0.314  15.804 -2.1096 -1.8067  0.2696
 1276SOL     OW15289   4.451   3.533   8.958  0.5827 -0.7418 -0.2420
 1276SOL    HW115290   4.521   3.541   8.893  1.0158 -0.8165  0.2089
 1276SOL    HW215291   4.386   3.503   8.895 -0.5982 -1.2705  1.2245
 1277SOL     OW15292   0.640   4.205   3.025 -0.4542 -1.0140 -0.2130
 1277SOL    HW115293   0.558   4.224   3.071 -0.2954 -1.3918  0.2154
 1277SOL    HW215294   0.585   4.175   2.953 -0.3266  0.9064 -1.1228
 1278SOL     OW15295   3.158   1.414   6.068 -0.6076  0.2674 -0.1630
 1278SOL    HW115296   3.215   1.338   6.075 -0.8416  0.2407  1.3886
 1278SOL    HW215297   3.132   1.410   5.976  0.4246  3.7329 -0.6157
 1279SOL     OW15298   2.538   4.618  13.024  0.0295 -0.1149  1.2683
 1279SOL    HW115299   2.539   4.554  13.095 -0.2771 -0.7399  0.7078
 1279SOL    HW215300   2.588   4.574  12.956 -0.5212  1.4129 -0.1260
 1280SOL     OW15301   0.589   4.483   8.250 -0.1727 -0.0478 -0.9647
 1280SOL    HW115302   0.669   4.522   8.215  1.0377 -0.2096  1.5546
 1280SOL    HW215303   0.523   4.545   8.219 -0.7851 -0.3493 -0.2753
 1281SOL     OW15304   1.768   4.523   4.580 -0.2357  0.3143 -0.1888
 1281SOL    HW115305   1.829   4.491   4.647  0.3206  0.7114 -0.5041
 1281SOL    HW215306   1.687   4.503   4.628  0.4889 -0.2670  0.8024
 1282SOL     OW15307   4.276   4.541   6.808  0.3347  0.1080 -0.0394
 1282SOL    HW115308   4.233   4.457   6.791 -1.5318  1.7858 -3.8818
 1282SOL    HW215309   4.221   4.587   6.744 -2.5281  0.1893  2.5136
 1283SOL     OW15310   3.487   3.962   4.326 -0.3437  0.4111 -0.4491
 1283SOL    HW115311   3.515   4.038   4.377 -0.2571 -1.2419  1.9611
 1283SOL    HW215312   3.409   3.988   4.276 -0.7583  2.2302  1.1777
 1284SOL     OW15313   2.065   2.163   3.319 -0.3365 -0.5406  0.6796
 1284SOL    HW115314   2.046   2.188   3.228  0.2286  2.1946  1.3106
 1284SOL    HW215315   2.141   2.108   3.305 -1.0474 -1.5156  0.6704
 1285SOL     OW15316   4.672   4.689   5.458 -0.8107  0.7347 -0.0742
 1285SOL    HW115317   4.665   0.030   5.387  0.9317  0.8571 -0.1429
 1285SOL    HW215318   0.027   4.712   5.511 -2.4166 -0.0099  2.6109
 1286SOL     OW15319   2.226   0.163   3.091  0.7839 -0.4844  0.1324
 1286SOL    HW115320   2.202   0.135   3.003  1.1702  1.1510 -0.4973
 1286SOL    HW215321   2.163   0.232   3.109  1.4703  0.1579  0.0653
 1287SOL     OW15322   3.925   0.551  16.104 -0.2878  0.3162  0.2792
 1287SOL    HW115323   3.845   0.521  16.060  0.3240 -2.1672  0.8958
 1287SOL    HW215324   3.905   0.513  16.189 -3.2368 -0.3504 -0.7200
 1288SOL     OW15325   3.758   2.783   5.675  0.1696  0.5836 -0.2786
 1288SOL    HW115326   3.795   2.712   5.623 -2.2472 -1.4747  0.8081
 1288SOL    HW215327   3.839   2.820   5.711 -0.3450  0.5621  0.9036
 1289SOL     OW15328   3.746   1.447   3.195 -0.4572 -0.0571  0.0930
 1289SOL    HW115329   3.703   1.475   3.276 -1.9149 -1.9155 -0.0448
 1289SOL    HW215330   3.832   1.466   3.232 -0.9964  1.3740  0.6068
 1290SOL     OW15331   4.343   1.942  15.462 -0.3213  0.6764 -0.3278
 1290SOL    HW115332   4.313   1.954  15.372 -1.9938  0.5750  0.2316
 1290SOL    HW215333   4.303   2.015  15.509  0.8615  0.9845  0.2184
 1291SOL     OW15334   3.322   4.401  15.575 -0.0291  0.3753 -0.1974
 1291SOL    HW115335   3.370   4.470  15.530  0.6718 -0.4174 -0.6815
 1291SOL    HW215336   3.393   4.342  15.604 -0.7430 -1.4362 -2.1389
 1292SOL     OW15337   3.578   1.620   0.665 -0.0346 -0.1745 -0.0210
 1292SOL    HW115338   3.596   1.591   0.575  0.0681  0.2972 -0.1538
 1292SOL    HW215339   3.518   1.690   0.641 -0.9868 -1.0029 -0.0480
 1293SOL     OW15340   4.583   3.291   9.124 -0.1784  0.1153  0.5126
 1293SOL    HW115341   4.489   3.276   9.135 -0.0635  1.8046  3.6660
 1293SOL    HW215342   4.588   3.334   9.038 -1.0980 -0.1613  0.3259
 1294SOL     OW15343   0.418   1.215  17.179 -0.1632  0.0984 -0.8100
 1294SOL    HW115344   0.432   1.309  17.167  0.9284 -0.0585 -0.7344
 1294SOL    HW215345   0.397   1.185  17.090 -1.1466 -2.3863  0.2653
 1295SOL     OW15346   0.010   0.478  12.955 -0.0096  0.0061 -0.2139
 1295SOL    HW115347   0.064   0.551  12.924  1.8299 -0.9617  0.7308
 1295SOL    HW215348   0.074   0.408  12.949  1.7189  1.4248  1.6861
 1296SOL     OW15349   1.666   1.292  11.303  0.9626 -0.2049 -0.1058
 1296SOL    HW115350   1.578   1.271  11.333 -0.2170  1.3808 -2.4086
 1296SOL    HW215351   1.674   1.239  11.223  1.7639  0.3678 -0.4143
 1297SOL     OW15352   3.254   4.163  16.536  0.0251 -0.1053  0.4923
 1297SOL    HW115353   3.178   4.149  16.593 -1.2802 -1.7418 -1.6724
 1297SOL    HW215354   3.312   4.201  16.603 -0.1360 -0.0740  0.6136
 1298SOL     OW15355   3.376   1.694  17.425 -0.2784 -0.7819  0.2878
 1298SOL    HW115356   3.465   1.726  17.412 -0.0559 -1.1197  1.0198
 1298SOL    HW215357   3.356   1.722  17.514  2.1893 -0.1214  0.6295
 1299SOL     OW15358   1.703   1.663   5.182  0.2695  0.6990 -0.3478
 1299SOL    HW115359   1.735   1.574   5.170  0.2623  0.2461  3.1537
 1299SOL    HW215360   1.785   1.692   5.221 -0.7776  0.0206  2.3351
 1300SOL     OW15361   4.399   2.543   1.490  0.0718  0.1619  0.2626
 1300SOL    HW115362   4.320   2.541   1.544 -0.1655  0.5615 -0.0721
 1300SOL    HW215363   4.376   2.467   1.436  3.5889 -1.1181  0.5453
 1301SOL     OW15364   4.631   2.766   9.638  0.5493  0.3774  0.1516
 1301SOL    HW115365   4.711   2.744   9.590  0.8016 -0.9443  1.1727
 1301SOL    HW215366   4.577   2.798   9.566 -0.5188 -2.4134 -0.2944
 1302SOL     OW15367   2.780   0.485  15.328  0.4753  0.3287 -0.2108
 1302SOL    HW115368   2.850   0.452  15.271  0.9477  1.9144 -0.5497
 1302SOL    HW215369   2.719   0.518  15.262 -0.9179 -0.6865  0.5891
 1303SOL     OW15370   2.297   3.860   1.682 -0.2361  0.4212 -0.4311
 1303SOL    HW115371   2.264   3.772   1.700 -1.3419  0.9430  0.0848
 1303SOL    HW215372   2.251   3.888   1.604  1.1463  0.3656 -1.2677
 1304SOL     OW15373   3.541   0.666   5.465 -0.0754 -0.4336 -0.0561
 1304SOL    HW115374   3.531   0.652   5.371  0.1497 -0.9447 -0.0087
 1304SOL    HW215375   3.623   0.713   5.481 -0.5697  0.1852  0.6108
 1305SOL     OW15376   2.306   0.075  10.139 -0.0072 -0.5832 -0.1138
 1305SOL    HW115377   2.363   0.108  10.209 -0.4458 -0.3851  0.1521
 1305SOL    HW215378   2.373   0.067  10.071  0.0375  0.6705 -0.2275
 1306SOL     OW15379   0.250   4.353   3.764 -0.4274  0.0341 -0.0234
 1306SOL    HW115380   0.209   4.440   3.758 -2.0348 -0.7245 -0.1187
 1306SOL    HW215381   0.299   4.382   3.841  0.0415 -2.3191  0.5523
 1307SOL     OW15382   0.662   0.006   9.701 -0.7756  0.4973 -0.1570
 1307SOL    HW115383   0.598   0.038   9.636 -1.8922  1.0075  1.1895
 1307SOL    HW215384   0.647   0.067   9.773  1.4070  0.2127  0.5260
 1308SOL     OW15385   3.846   4.574   3.876 -0.2855  0.3811  0.2255
 1308SOL    HW115386   3.936   4.547   3.895 -0.5249  0.2306  1.1639
 1308SOL    HW215387   3.832   4.659   3.917 -1.0769 -0.0862  0.9316
 1309SOL     OW15388   4.166   4.213   7.708  0.3534  0.0679  0.8540
 1309SOL    HW115389   4.165   4.122   7.678 -1.2355  0.2808  0.2430
 1309SOL    HW215390   4.077   4.240   7.684  0.9172  0.0174 -1.3618
 1310SOL     OW15391   1.349   3.578   9.476  0.2949  0.0138 -0.9108
 1310SOL    HW115392   1.393   3.495   9.457 -0.7451  0.1824 -4.0911
 1310SOL    HW215393   1.359   3.578   9.571 -1.9194 -1.9370 -0.7031
 1311SOL     OW15394   2.051   1.662   5.352  0.1688  0.1407 -0.5769
 1311SOL    HW115395   2.011   1.748   5.345 -2.0485 -0.8357 -0.1626
 1311SOL    HW215396   2.127   1.681   5.407 -1.5394  2.3492  1.0204
 1312SOL     OW15397   4.350   1.000   7.610  0.6259  0.2565 -0.1434
 1312SOL    HW115398   4.406   0.934   7.650  0.6751  0.3862  0.0019
 1312SOL    HW215399   4.338   0.957   7.525 -1.3123 -0.3527  0.4317
 1313SOL     OW15400   3.310   4.626   6.327 -0.5785  0.4548  0.5699
 1313SOL    HW115401   3.262   4.584   6.256 -2.0655  0.6453  1.4529
 1313SOL    HW215402   3.278   4.583   6.406  1.0548  0.2453  1.1036
 1314SOL     OW15403   3.327   1.170   7.701 -1.0972 -0.5040 -0.2918
 1314SOL    HW115404   3.274   1.173   7.780 -0.4125  2.0238  0.0972
 1314SOL    HW215405   3.294   1.244   7.651  2.7341  1.9768  0.8049
 1315SOL     OW15406   0.014   3.402   3.624  0.0361 -0.1971  0.1755
 1315SOL    HW115407   0.052   3.428   3.540 -1.4601 -0.1540 -0.5013
 1315SOL    HW215408   0.019   3.486   3.669  1.7403 -0.9737  1.3946
 1316SOL     OW15409   1.459   1.043  16.676 -0.7603 -0.3445 -0.3090
 1316SOL    HW115410   1.430   0.960  16.637 -1.0059 -0.7283  0.6883
 1316SOL    HW215411   1.467   1.096  16.597  1.3033  0.3834  0.3761
 1317SOL     OW15412   0.624   2.287  13.411  0.2242 -0.0105 -0.4104
 1317SOL    HW115413   0.665   2.323  13.490  1.8973  0.0839 -1.3231
 1317SOL    HW215414   0.560   2.225  13.444  0.3243  0.8964  1.5184
 1318SOL     OW15415   3.287   3.365   1.125  0.0190  0.7402  0.5454
 1318SOL    HW115416   3.378   3.342   1.107  0.1949  0.3108  1.9889
 1318SOL    HW215417   3.277   3.338   1.216 -0.8305 -0.0388  0.2336
 1319SOL     OW15418   4.543   4.550  13.501 -0.2384 -0.1687  0.2961
 1319SOL    HW115419   4.471   4.583  13.448 -1.3926 -2.8407  0.2374
 1319SOL    HW215420   4.516   4.587  13.585 -3.1592 -0.9092 -0.3311
 1320SOL     OW15421   4.281   3.475   7.530 -0.3097  0.3760 -0.1217
 1320SOL    HW115422   4.264   3.397   7.477  1.7351 -0.7811  0.9101
 1320SOL    HW215423   4.374   3.494   7.518 -0.4368  0.2303 -1.3329
 1321SOL     OW15424   0.194   2.270   4.957 -0.2311 -0.4884 -0.1017
 1321SOL    HW115425   0.222   2.182   4.932  1.2413  0.4714 -1.7299
 1321SOL    HW215426   0.116   2.246   5.008  0.2535  0.1294  0.9455
 1322SOL     OW15427   2.895   2.925   3.678  0.2852  0.2786 -0.0388
 1322SOL    HW115428   2.833   2.878   3.622  0.0108 -0.9826  1.3194
 1322SOL    HW215429   2.881   2.882   3.763  1.0262 -0.7818 -0.4475
 1323SOL     OW15430   0.465   2.294   5.463 -0.1046 -0.2537  0.2988
 1323SOL    HW115431   0.459   2.286   5.558 -0.7306  0.5990  0.3295
 1323SOL    HW215432   0.409   2.371   5.453 -2.9578 -2.0476  2.5300
 1324SOL     OW15433   1.904   2.969   2.800  0.2271 -0.3328  0.1972
 1324SOL    HW115434   1.979   2.911   2.812  0.7491  0.3842  0.4143
 1324SOL    HW215435   1.887   2.948   2.708  3.2337 -0.0348 -0.4358
 1325SOL     OW15436   0.661   2.744  11.879  0.2089  0.3527 -0.8610
 1325SOL    HW115437   0.746   2.777  11.910  1.0124 -1.7182 -0.8562
 1325SOL    HW215438   0.617   2.718  11.960  3.2011 -0.3401  0.5663
 1326SOL     OW15439   4.019   3.164   3.196  0.4212  0.1517  0.0342
 1326SOL    HW115440   4.024   3.244   3.247 -0.6198  0.3691 -0.2060
 1326SOL    HW215441   4.111   3.143   3.182 -0.0002 -1.1890 -0.7625
 1327SOL     OW15442   2.889   0.652  15.008 -0.3989 -0.4422  0.0045
 1327SOL    HW115443   2.880   0.747  15.013 -0.0913 -0.4132 -0.0046
 1327SOL    HW215444   2.963   0.643  14.949 -1.3838 -2.9869 -0.8743
 1328SOL     OW15445   3.431   4.450   5.427  0.0300  0.0826 -0.3594
 1328SOL    HW115446   3.522   4.425   5.410  0.3538  0.3970  0.8922
 1328SOL    HW215447   3.418   4.511   5.354  1.6173  2.6371  1.4891
 1329SOL     OW15448   0.960   0.430   5.672  0.0858 -0.4494  0.1876
 1329SOL    HW115449   0.971   0.521   5.702  1.4434 -0.1945 -1.0665
 1329SOL    HW215450   0.876   0.440   5.627  0.7856 -1.2524 -1.2967
 1330SOL     OW15451   1.098   1.184   1.858  0.2903 -0.1601 -0.1759
 1330SOL    HW115452   1.171   1.245   1.871 -1.3158  1.3118  2.0479
 1330SOL    HW215453   1.056   1.220   1.780  0.0812  1.4326  0.6670
 1331SOL     OW15454   0.176   3.997   4.129  0.0821  0.6037  0.2517
 1331SOL    HW115455   0.102   4.036   4.084 -0.0397 -0.0680 -0.1345
 1331SOL    HW215456   0.137   3.991   4.216 -0.6694 -0.8288 -0.1770
 1332SOL     OW15457   1.401   0.585   9.057  0.1117 -0.2799  0.2473
 1332SOL    HW115458   1.450   0.618   9.132  1.0519 -2.5331  0.6386
 1332SOL    HW215459   1.308   0.601   9.074 -0.4756 -3.1288 -0.2852
 1333SOL     OW15460   1.712   0.186   5.936  0.0941 -0.6225 -0.5696
 1333SOL    HW115461   1.730   0.247   6.007  0.6267 -0.4388 -0.8650
 1333SOL    HW215462   1.785   0.128   5.960 -0.7280 -0.7700  1.6502
 1334SOL     OW15463   2.526   2.143   1.721  0.8670  0.1393 -0.0484
 1334SOL    HW115464   2.487   2.221   1.760 -2.0089  0.0627 -2.6869
 1334SOL    HW215465   2.539   2.178   1.633  1.6339 -2.5735 -1.0101
 1335SOL     OW15466   2.315   2.233  17.266  0.0649  0.0076  0.1437
 1335SOL    HW115467   2.410   2.220  17.267 -0.2315 -2.1752  1.9548
 1335SOL    HW215468   2.303   2.245  17.360 -0.3099  1.4304 -0.0934
 1336SOL     OW15469   0.606   3.267   9.871  0.0776 -0.0558  0.0555
 1336SOL    HW115470   0.653   3.343   9.904 -0.7596  0.0127  1.0889
 1336SOL    HW215471   0.668   3.195   9.862 -1.7491 -1.5792 -0.4662
 1337SOL     OW15472   3.549   0.877   5.100  0.1765  0.2560 -0.0445
 1337SOL    HW115473   3.644   0.866   5.109  0.2724  2.3901  1.5496
 1337SOL    HW215474   3.521   0.789   5.127  0.5704  0.2503  0.3516
 1338SOL     OW15475   0.591   0.599  11.429  0.3124 -0.3758  0.3244
 1338SOL    HW115476   0.663   0.564  11.376  1.2758 -0.2232  1.5307
 1338SOL    HW215477   0.524   0.531  11.424  1.2423 -1.1630 -1.5315
 1339SOL     OW15478   0.118   3.588   7.715  0.4460 -0.4227 -0.0043
 1339SOL    HW115479   0.192   3.546   7.670  1.0676 -0.0067  0.6186
 1339SOL    HW215480   0.141   3.681   7.713  0.7296 -0.5060 -0.8836
 1340SOL     OW15481   3.891   1.451  14.545  0.9966  0.0130 -0.1872
 1340SOL    HW115482   3.808   1.468  14.501 -0.1971 -2.3996  1.1380
 1340SOL    HW215483   3.940   1.458  14.463 -0.8580 -0.6564 -1.3531
 1341SOL     OW15484   1.113   2.601   4.452  0.4284 -0.6553  0.4160
 1341SOL    HW115485   1.020   2.614   4.468  0.4453  1.4445 -1.2658
 1341SOL    HW215486   1.110   2.571   4.361  1.0492  0.5592 -0.0051
 1342SOL     OW15487   3.609   3.427  11.061 -0.1975  0.3480 -0.0283
 1342SOL    HW115488   3.703   3.443  11.063  0.0560 -1.0682 -0.3650
 1342SOL    HW215489   3.579   3.456  11.147  1.1059 -2.7310  1.4793
 1343SOL     OW15490   3.294   2.466  15.078 -0.4092 -0.7892 -0.3258
 1343SOL    HW115491   3.360   2.417  15.030  1.8463  2.8448 -0.9608
 1343SOL    HW215492   3.251   2.398  15.129 -1.2356  0.1766  0.2699
 1344SOL     OW15493   2.084   1.447   5.700 -0.0613 -0.1679 -0.1576
 1344SOL    HW115494   2.166   1.489   5.724  1.1845 -3.2941  1.0594
 1344SOL    HW215495   2.039   1.452   5.785  2.3671  0.4529  1.0774
 1345SOL     OW15496   2.631   1.759   2.741 -0.3010 -0.3235 -0.0016
 1345SOL    HW115497   2.574   1.759   2.818 -0.4317 -0.8248 -0.0965
 1345SOL    HW215498   2.576   1.758   2.663  1.0112  0.8320 -0.9322
 1346SOL     OW15499   0.109   1.051   2.606  0.0541 -0.5759 -0.0060
 1346SOL    HW115500   0.130   0.961   2.582 -0.9289 -1.0860  1.0570
 1346SOL    HW215501   0.061   1.077   2.527  1.1985  1.2501 -0.0980
 1347SOL     OW15502   4.086   2.771  10.524  0.2068  0.2811  0.7064
 1347SOL    HW115503   4.073   2.822  10.444  0.4572 -0.7199  0.0310
 1347SOL    HW215504   4.141   2.827  10.579 -0.9545  0.6809  1.4586
 1348SOL     OW15505   1.331   3.780   4.062 -0.9186 -0.2403 -0.4681
 1348SOL    HW115506   1.258   3.725   4.088  0.1012 -0.9551  0.8461
 1348SOL    HW215507   1.303   3.871   4.072  1.2483  0.1997  1.5275
 1349SOL     OW15508   0.149   3.561   2.840 -0.1943  0.0572 -0.4809
 1349SOL    HW115509   0.137   3.639   2.787 -0.0598  1.8219  2.0903
 1349SOL    HW215510   0.133   3.501   2.767  1.6293 -0.1399 -0.7043
 1350SOL     OW15511   4.139   2.507   2.870 -0.2121  0.4369  0.8403
 1350SOL    HW115512   4.200   2.556   2.816 -0.7300 -0.4944 -0.5901
 1350SOL    HW215513   4.072   2.568   2.901 -0.5690  0.2536  0.4414
 1351SOL     OW15514   3.410   4.143   5.063  0.0086 -0.1514  0.5447
 1351SOL    HW115515   3.377   4.208   5.001 -1.5933 -0.3950  1.1680
 1351SOL    HW215516   3.340   4.078   5.069 -0.4990  0.3630  0.1266
 1352SOL     OW15517   2.786   0.553   7.011 -0.3669 -0.2437  0.3784
 1352SOL    HW115518   2.705   0.583   7.051  1.1541  1.5422  2.1192
 1352SOL    HW215519   2.794   0.619   6.943  0.7466 -0.4286  0.3232
 1353SOL     OW15520   2.337   1.444   7.887  0.3499 -0.5190  0.2737
 1353SOL    HW115521   2.252   1.489   7.887  1.3295  1.3385  0.0566
 1353SOL    HW215522   2.368   1.467   7.975  0.1771  1.2756 -0.1450
 1354SOL     OW15523   2.907   1.422   0.223 -0.2768  0.1037 -0.8252
 1354SOL    HW115524   2.945   1.483   0.159  0.5995 -0.2969 -0.6900
 1354SOL    HW215525   2.921   1.472   0.304  1.5199 -1.1422 -0.3596
 1355SOL     OW15526   2.682   4.158  10.948  0.4210 -0.3380  0.6408
 1355SOL    HW115527   2.713   4.246  10.970  1.5477 -0.5908  0.0776
 1355SOL    HW215528   2.697   4.152  10.854  1.1368  0.6040  0.6873
 1356SOL     OW15529   3.535   3.310  10.821  0.3152 -0.3184 -0.2945
 1356SOL    HW115530   3.582   3.227  10.818  0.0584 -0.4713 -0.0971
 1356SOL    HW215531   3.563   3.350  10.904 -2.7919 -0.5960  0.8712
 1357SOL     OW15532   2.847   0.291   0.712  0.3217 -0.6329 -0.1959
 1357SOL    HW115533   2.772   0.257   0.760 -0.1782  0.4300 -0.2243
 1357SOL    HW215534   2.909   0.328   0.775 -1.3646 -0.8175  1.5583
 1358SOL     OW15535   4.154   2.918   9.085 -0.4220 -1.2713 -0.5866
 1358SOL    HW115536   4.174   2.846   9.025 -0.2668  0.2432 -2.3908
 1358SOL    HW215537   4.074   2.890   9.128 -2.4220  2.5197 -1.8282
 1359SOL     OW15538   2.690   4.227  15.979  0.5089 -0.0037  0.7760
 1359SOL    HW115539   2.772   4.203  15.936  1.7846  3.1130  1.4481
 1359SOL    HW215540   2.712   4.210  16.071  0.0546  1.3193  1.1337
 1360SOL     OW15541   1.757   2.822   5.719 -0.0156 -0.1675  0.0850
 1360SOL    HW115542   1.719   2.777   5.644  1.3163  0.7556 -1.1442
 1360SOL    HW215543   1.793   2.904   5.684 -2.4027  0.6693 -0.4539
 1361SOL     OW15544   2.382   0.314   7.104  0.0620 -0.2230  0.5600
 1361SOL    HW115545   2.438   0.256   7.051 -0.2126 -0.8555  0.9704
 1361SOL    HW215546   2.434   0.394   7.095 -0.5964  0.2240  0.7563
 1362SOL     OW15547   0.835   0.309  15.338  0.4981  0.0772  0.3934
 1362SOL    HW115548   0.774   0.342  15.273 -1.0541  1.1678  2.4004
 1362SOL    HW215549   0.815   0.364  15.414  3.2431 -1.1743  2.0750
 1363SOL     OW15550   1.587   2.314  16.143 -0.4732 -0.6661 -0.2987
 1363SOL    HW115551   1.528   2.247  16.177 -0.9556  0.8922  1.9180
 1363SOL    HW215552   1.647   2.328  16.216 -0.7482  3.7218 -0.8713
 1364SOL     OW15553   3.685   2.300   7.424  0.2156  0.1962  0.2327
 1364SOL    HW115554   3.597   2.329   7.400 -0.6688 -0.5902  2.5060
 1364SOL    HW215555   3.667   2.213   7.459  0.0799 -0.2062 -0.8301
 1365SOL     OW15556   1.583   2.275   7.257  0.3969 -0.7618  0.1580
 1365SOL    HW115557   1.637   2.284   7.179 -0.4930 -1.8982 -0.5905
 1365SOL    HW215558   1.592   2.353   7.312  2.4489 -1.0845  0.2728
 1366SOL     OW15559   0.284   4.304   8.454 -0.5941  0.3511 -0.1921
 1366SOL    HW115560   0.371   4.345   8.451 -0.2262 -0.7055 -3.1827
 1366SOL    HW215561   0.284   4.270   8.544  0.9372  0.5440 -0.1198
 1367SOL     OW15562   2.857   2.702   1.518  0.3413 -0.0014 -0.2048
 1367SOL    HW115563   2.921   2.773   1.506 -0.4000  0.5145 -1.1314
 1367SOL    HW215564   2.897   2.626   1.475  0.0537  0.6452 -1.6407
 1368SOL     OW15565   0.710   4.113   2.260 -0.0894 -0.1403  0.2722
 1368SOL    HW115566   0.727   4.192   2.312 -0.4635  0.4704 -0.5295
 1368SOL    HW215567   0.720   4.149   2.172  1.3161  2.4586  1.4843
 1369SOL     OW15568   2.991   1.197   5.911  0.5412 -0.4219 -0.0313
 1369SOL    HW115569   3.001   1.278   5.862 -0.9851  0.0929  0.4819
 1369SOL    HW215570   2.933   1.143   5.857 -0.0316  1.9244 -1.7499
 1370SOL     OW15571   1.490   3.408   2.228  0.2990  0.1293 -0.2803
 1370SOL    HW115572   1.551   3.470   2.188  0.7752 -1.3008 -1.7852
 1370SOL    HW215573   1.556   3.339   2.241 -0.7360 -0.9457 -0.6736
 1371SOL     OW15574   2.715   1.559   6.289 -0.0139  1.1431 -0.0752
 1371SOL    HW115575   2.797   1.512   6.276 -2.0345 -2.2261 -0.7856
 1371SOL    HW215576   2.657   1.487   6.265  0.1079  0.6038  1.2070
 1372SOL     OW15577   3.600   2.807  12.200  0.7011 -0.4688  0.1305
 1372SOL    HW115578   3.560   2.892  12.180 -0.7261 -0.7450  1.8403
 1372SOL    HW215579   3.528   2.750  12.175 -0.3341  0.5613  0.7397
 1373SOL     OW15580   3.159   2.160  11.796  0.0370 -0.1927 -0.8445
 1373SOL    HW115581   3.106   2.210  11.858  0.2057  1.3084 -1.9245
 1373SOL    HW215582   3.086   2.134  11.740 -0.9652  3.2119 -1.1036
 1374SOL     OW15583   0.854   4.459   0.068  0.7693 -0.5967  0.5674
 1374SOL    HW115584   0.816   4.417  17.682 -1.3429  1.2369  0.6341
 1374SOL    HW215585   0.804   4.413   0.135  1.2576 -1.9608  0.0054
 1375SOL     OW15586   2.528   3.940   3.731  0.3494  0.0620  0.3976
 1375SOL    HW115587   2.570   3.898   3.656  0.0729  1.6618 -0.6428
 1375SOL    HW215588   2.556   4.030   3.713 -1.8202  1.0797  2.0785
 1376SOL     OW15589   2.703   0.881   4.185  0.2522 -0.8415 -0.0905
 1376SOL    HW115590   2.641   0.944   4.222  1.6687  0.7076 -0.3705
 1376SOL    HW215591   2.661   0.867   4.100 -0.7118  1.3700  0.0345
 1377SOL     OW15592   3.561   3.012   2.575  0.5129 -0.0560  0.2953
 1377SOL    HW115593   3.607   3.047   2.498 -0.8634  0.8902 -0.0909
 1377SOL    HW215594   3.619   3.028   2.649  2.0629 -1.2198 -0.6676
 1378SOL     OW15595   3.140   3.738   6.998  0.0379  0.4667  0.4200
 1378SOL    HW115596   3.090   3.739   6.916  2.5362  0.0126 -1.1002
 1378SOL    HW215597   3.213   3.796   6.979 -0.2221  0.5109 -0.4479
 1379SOL     OW15598   3.081   0.845  12.455  0.1931 -0.0823  0.2595
 1379SOL    HW115599   3.098   0.760  12.415  2.0456  1.4928 -2.2983
 1379SOL    HW215600   3.079   0.812  12.545 -0.1365  0.5046  0.4691
 1380SOL     OW15601   0.664   1.363   7.018  0.4481  0.1434  0.0829
 1380SOL    HW115602   0.585   1.412   6.997 -0.4650 -1.6150 -0.6067
 1380SOL    HW215603   0.657   1.300   6.946 -2.3165  1.7707 -1.0675
 1381SOL     OW15604   4.187   2.287   3.940  0.4528 -0.2142 -0.5385
 1381SOL    HW115605   4.115   2.332   3.895  0.1529 -1.5331 -1.3704
 1381SOL    HW215606   4.145   2.213   3.984  0.2945 -0.1929 -0.6543
 1382SOL     OW15607   2.136   3.649   4.381  0.0149  0.4964  0.4054
 1382SOL    HW115608   2.070   3.718   4.376 -0.9315 -0.4864 -0.6614
 1382SOL    HW215609   2.195   3.684   4.447 -0.8431  2.4824  0.1008
 1383SOL     OW15610   4.238   0.894   5.761  0.0582  0.0371 -0.0842
 1383SOL    HW115611   4.252   0.900   5.855  0.7864  1.8182 -0.3119
 1383SOL    HW215612   4.256   0.985   5.739  0.4517  0.5437  2.3894
 1384SOL     OW15613   0.248   2.481   9.749 -0.0752  0.1473  0.1044
 1384SOL    HW115614   0.300   2.552   9.787  0.4897  1.1976 -2.6923
 1384SOL    HW215615   0.160   2.501   9.781  0.1053  1.4156 -0.2004
 1385SOL     OW15616   1.928   2.669   5.856  0.0801 -0.3059 -0.4438
 1385SOL    HW115617   1.870   2.720   5.800  1.2888  0.8053 -0.6998
 1385SOL    HW215618   2.012   2.715   5.864 -0.8538  1.3586 -0.1910
 1386SOL     OW15619   1.857   1.010   4.896 -0.6215  0.1910 -0.0069
 1386SOL    HW115620   1.794   0.939   4.908 -0.4021  0.3952  2.4320
 1386SOL    HW215621   1.812   1.059   4.828  0.0824 -0.4444 -0.9258
 1387SOL     OW15622   0.433   2.333   3.816 -0.0564  0.0391 -0.5006
 1387SOL    HW115623   0.352   2.384   3.819 -0.0280  0.0978 -0.7415
 1387SOL    HW215624   0.480   2.379   3.886 -0.7224 -1.2442  0.7752
 1388SOL     OW15625   4.409   3.708   4.316 -0.3601 -0.1704  0.0364
 1388SOL    HW115626   4.343   3.771   4.288  0.9096  0.0788 -2.4059
 1388SOL    HW215627   4.365   3.651   4.379 -1.0412 -0.9063 -1.1047
 1389SOL     OW15628   2.314   3.885   3.908 -0.1667 -0.5793 -0.0157
 1389SOL    HW115629   2.377   3.927   3.850  0.4593 -1.2476  0.1694
 1389SOL    HW215630   2.367   3.892   3.988 -0.8538  1.6714  0.2469
 1390SOL     OW15631   2.768   2.297   4.232 -0.2775  0.4730 -0.4430
 1390SOL    HW115632   2.688   2.249   4.253 -0.1868  0.0995 -0.9570
 1390SOL    HW215633   2.818   2.236   4.177 -1.9616 -1.8431  0.5982
 1391SOL     OW15634   2.093   1.202   7.894  0.1349  0.0471 -0.1991
 1391SOL    HW115635   2.039   1.281   7.899  1.0882  0.7635 -1.2176
 1391SOL    HW215636   2.113   1.197   7.988 -0.2062 -1.2018 -0.1973
 1392SOL     OW15637   4.212   1.445   9.011 -0.3091 -0.3532  0.3095
 1392SOL    HW115638   4.291   1.479   8.968 -0.9854 -1.1456 -1.5789
 1392SOL    HW215639   4.140   1.482   8.960 -0.0981  0.0249  0.2826
 1393SOL     OW15640   2.901   4.196  14.981  0.6470  0.0625 -0.3694
 1393SOL    HW115641   2.860   4.166  15.062  0.1837  0.8995 -0.2928
 1393SOL    HW215642   2.973   4.133  14.981  0.4064 -0.2144 -0.4839
 1394SOL     OW15643   3.594   1.205   0.595 -0.5182 -0.4584  0.2614
 1394SOL    HW115644   3.540   1.272   0.553 -0.7893 -1.2143 -0.5841
 1394SOL    HW215645   3.605   1.255   0.677  0.9416  0.6304 -0.5867
 1395SOL     OW15646   2.743   0.322   2.841  0.1696 -0.0512  0.0951
 1395SOL    HW115647   2.679   0.301   2.773 -1.6143  1.6903  1.2383
 1395SOL    HW215648   2.763   0.234   2.874  1.9829  0.9759  1.7027
 1396SOL     OW15649   3.468   1.500   5.935 -0.3034  0.5154 -0.2790
 1396SOL    HW115650   3.546   1.447   5.918  0.4576  1.2340  0.9556
 1396SOL    HW215651   3.492   1.551   6.012  0.0580  1.5081 -1.0596
 1397SOL     OW15652   1.788   4.642   9.645  0.2556 -0.2245 -1.0804
 1397SOL    HW115653   1.707   4.615   9.601  0.6631 -2.1821 -0.6284
 1397SOL    HW215654   1.749   4.708   9.703  2.4979 -0.2210  0.4314
 1398SOL     OW15655   1.015   2.309   3.122  0.0533  0.5551  0.4955
 1398SOL    HW115656   1.059   2.393   3.131  1.4028 -0.4192  3.0831
 1398SOL    HW215657   1.088   2.246   3.117 -1.7897 -1.6328  1.1031
 1399SOL     OW15658   2.699   1.216   5.480 -0.2547  0.3936 -0.2344
 1399SOL    HW115659   2.612   1.250   5.500  0.3947  2.3583 -0.7859
 1399SOL    HW215660   2.664   1.132   5.451  0.0726  0.4459 -0.7911
 1400SOL     OW15661   4.189   3.763   9.444 -0.3859 -0.0263  0.3521
 1400SOL    HW115662   4.111   3.815   9.464  0.1828  0.8028  0.4130
 1400SOL    HW215663   4.237   3.819   9.383 -0.7470 -0.7806 -0.6189
 1401SOL     OW15664   4.002   0.939   2.161  0.0843  0.4649  0.2564
 1401SOL    HW115665   3.939   0.937   2.089 -1.9112 -1.2862  2.0702
 1401SOL    HW215666   4.063   0.995   2.112  0.5770 -0.8722 -0.6590
 1402SOL     OW15667   2.123   1.817   5.741 -0.2631  0.2831  0.0175
 1402SOL    HW115668   2.107   1.874   5.817  0.4228  0.0537  0.3388
 1402SOL    HW215669   2.170   1.745   5.784  1.6269  0.6623 -1.4049
 1403SOL     OW15670   2.012   1.015   7.719  0.5423  0.3085  0.3472
 1403SOL    HW115671   2.024   1.076   7.791  1.1745 -0.8615  1.2461
 1403SOL    HW215672   1.997   0.932   7.765 -0.9414  1.6061  2.1519
 1404SOL     OW15673   2.427   2.814   3.358  0.0317  0.2839 -0.7683
 1404SOL    HW115674   2.334   2.805   3.337 -0.2803 -0.2262  0.8154
 1404SOL    HW215675   2.455   2.805   3.267  0.1949 -0.7072 -0.6233
 1405SOL     OW15676   4.690   4.336   6.486 -0.0515 -0.3092 -0.5177
 1405SOL    HW115677   0.039   4.358   6.546 -2.1362 -0.5468  2.0589
 1405SOL    HW215678   4.675   4.243   6.502 -0.6526 -0.1569 -0.1898
 1406SOL     OW15679   3.119   4.406  12.620  0.7021 -0.3586  0.5939
 1406SOL    HW115680   3.122   4.311  12.625  2.8091 -0.3480 -0.5831
 1406SOL    HW215681   3.181   4.437  12.686  0.3811 -1.0772  1.2238
 1407SOL     OW15682   1.279   1.577   5.627 -0.0491  0.2731 -0.3408
 1407SOL    HW115683   1.318   1.606   5.709 -0.3608 -1.9707  0.5935
 1407SOL    HW215684   1.349   1.587   5.562  0.8005 -0.2815  0.4837
 1408SOL     OW15685   4.080   2.672   8.912  0.3950 -0.0499  0.2567
 1408SOL    HW115686   4.146   2.606   8.931  1.4977  1.2645  0.9965
 1408SOL    HW215687   4.017   2.641   8.977 -0.2248  0.5676 -0.0494
 1409SOL     OW15688   4.125   0.896   7.970 -0.0932  0.1154 -0.6774
 1409SOL    HW115689   4.164   0.982   7.985  1.2316 -0.7100  0.6034
 1409SOL    HW215690   4.032   0.918   7.972 -0.5583 -2.1537  3.1821
 1410SOL     OW15691   0.127   1.808   6.276 -0.3142 -0.6222 -0.4256
 1410SOL    HW115692   0.062   1.743   6.249 -2.2213  1.1018  0.0960
 1410SOL    HW215693   0.142   1.854   6.194 -1.9714  2.4132  0.9835
 1411SOL     OW15694   0.419   1.297   6.727 -0.4525 -0.2031  0.4089
 1411SOL    HW115695   0.402   1.359   6.798  1.5007 -2.0297  2.4863
 1411SOL    HW215696   0.512   1.276   6.740 -0.0317  0.8927 -0.8173
 1412SOL     OW15697   1.143   3.656   1.128 -0.1521 -0.2719  0.3648
 1412SOL    HW115698   1.158   3.599   1.053 -4.6727 -2.9033  1.4634
 1412SOL    HW215699   1.221   3.636   1.180  0.0025 -0.3039  0.1195
 1413SOL     OW15700   0.841   3.414   3.598  0.0234  1.0297  0.1228
 1413SOL    HW115701   0.781   3.388   3.667  0.5842  1.1666  0.6627
 1413SOL    HW215702   0.860   3.504   3.625 -1.1346  1.7612 -1.4940
 1414SOL     OW15703   4.386   2.199   6.493  0.2124 -0.5432  0.2216
 1414SOL    HW115704   4.425   2.282   6.468 -0.0141 -1.1956 -2.2400
 1414SOL    HW215705   4.462   2.142   6.510  0.2808 -0.8191 -1.0476
 1415SOL     OW15706   4.613   1.705   9.899  0.5243  0.1378  0.0144
 1415SOL    HW115707   4.621   1.774   9.964 -1.1758  0.5113 -0.1767
 1415SOL    HW215708   4.632   1.630   9.956  1.7441  0.1019 -0.4268
 1416SOL     OW15709   1.227   3.029   4.089 -0.1600  0.4868 -0.5842
 1416SOL    HW115710   1.292   3.088   4.052 -0.9399  1.5860 -0.1902
 1416SOL    HW215711   1.240   2.949   4.038  0.6026  0.8439 -0.9555
 1417SOL     OW15712   1.889   2.226   8.675  0.1734  0.4405  0.1020
 1417SOL    HW115713   1.920   2.305   8.720 -0.6821  1.9793 -1.9824
 1417SOL    HW215714   1.880   2.260   8.586  0.0318 -1.5050 -0.6098
 1418SOL     OW15715   1.265   0.426   7.935  0.6927 -0.5654 -0.3761
 1418SOL    HW115716   1.324   0.414   8.010  0.4302 -1.5762 -0.3230
 1418SOL    HW215717   1.180   0.398   7.969  0.3523  1.6073  0.5496
 1419SOL     OW15718   3.719   0.769  17.527 -0.6224 -0.3127 -0.4311
 1419SOL    HW115719   3.763   0.722  17.457  0.4695 -0.0570  0.0804
 1419SOL    HW215720   3.645   0.712  17.546 -0.5596 -0.0063  0.7217
 1420SOL     OW15721   0.772   1.304   2.637 -0.1081 -0.5753  0.1339
 1420SOL    HW115722   0.864   1.324   2.653 -0.2233  0.4337 -0.4575
 1420SOL    HW215723   0.745   1.282   2.726  0.7424 -0.4617  0.4150
 1421SOL     OW15724   0.406   0.859  10.240 -0.3723  0.1399 -0.0928
 1421SOL    HW115725   0.378   0.861  10.332 -0.9574 -2.4907 -0.2058
 1421SOL    HW215726   0.355   0.930  10.200  0.8537  0.7230 -0.5910
 1422SOL     OW15727   1.097   3.165   8.850  0.1776  0.9308  0.2179
 1422SOL    HW115728   1.062   3.223   8.917  0.1001 -2.3172  2.9634
 1422SOL    HW215729   1.188   3.163   8.877 -0.7512  0.5439  3.2975
 1423SOL     OW15730   1.911   4.596   2.125 -0.4319 -0.3572  0.0853
 1423SOL    HW115731   1.827   4.609   2.081 -0.1384 -0.6283 -0.5668
 1423SOL    HW215732   1.964   4.645   2.061  0.3036  0.0560  1.0176
 1424SOL     OW15733   3.622   3.590   9.624  0.7492 -0.2113  0.5657
 1424SOL    HW115734   3.608   3.653   9.695 -1.4339  0.6919 -0.6596
 1424SOL    HW215735   3.695   3.536   9.654 -0.6825 -1.4543  1.7626
 1425SOL     OW15736   1.808   0.299  17.110  0.2127  0.0737  0.3451
 1425SOL    HW115737   1.737   0.357  17.137  1.0662  0.1628  2.3647
 1425SOL    HW215738   1.856   0.355  17.049 -0.4341  0.8380  0.5486
 1426SOL     OW15739   2.066   2.230   7.634 -0.1217  0.6501 -0.6672
 1426SOL    HW115740   2.054   2.286   7.710  2.1685 -0.0842  0.2374
 1426SOL    HW215741   2.125   2.167   7.674 -1.0691 -0.0799 -0.4101
 1427SOL     OW15742   2.723   1.022   9.384  0.0356 -0.4985  0.4245
 1427SOL    HW115743   2.631   1.030   9.357  0.8103  0.0241 -2.0461
 1427SOL    HW215744   2.718   1.081   9.459 -0.1417 -0.1162  0.1123
 1428SOL     OW15745   1.714   4.018   9.114 -0.8632 -0.5429  0.4507
 1428SOL    HW115746   1.781   3.951   9.119  0.3921  0.7362  0.8342
 1428SOL    HW215747   1.729   4.056   9.201 -1.3807 -0.7199  0.6202
 1429SOL     OW15748   1.242   2.431   1.571 -0.1713  0.5504 -0.2969
 1429SOL    HW115749   1.305   2.502   1.581  1.7104 -0.8146 -2.6126
 1429SOL    HW215750   1.282   2.371   1.508  0.6739 -0.6286  1.3592
 1430SOL     OW15751   4.145   3.836  15.858 -0.4358 -0.2445 -0.0628
 1430SOL    HW115752   4.110   3.925  15.858  1.5206  0.5334 -1.0702
 1430SOL    HW215753   4.118   3.808  15.771 -0.0209 -3.2587  0.7849
 1431SOL     OW15754   4.043   2.638   7.339 -0.0287  0.4839  0.0846
 1431SOL    HW115755   4.064   2.676   7.425  2.0373  1.8389 -1.0200
 1431SOL    HW215756   4.118   2.579   7.335  0.6336  1.3080  0.1898
 1432SOL     OW15757   0.243   3.385   9.030 -0.3915 -0.0694 -0.3153
 1432SOL    HW115758   0.315   3.437   9.065 -0.3735 -0.2742 -0.0466
 1432SOL    HW215759   0.197   3.373   9.114 -1.1137 -1.8048 -0.9603
 1433SOL     OW15760   1.813   3.958   7.646 -0.1923 -0.2986  0.4190
 1433SOL    HW115761   1.867   3.898   7.595  0.8682  1.3462 -0.3802
 1433SOL    HW215762   1.773   4.005   7.573 -1.1873 -1.9956 -0.1369
 1434SOL     OW15763   3.850   2.315   2.455  0.2709  0.0997  0.4371
 1434SOL    HW115764   3.858   2.362   2.539  0.1677  0.1897  0.3960
 1434SOL    HW215765   3.937   2.287   2.427 -0.3768  1.1461 -2.5586
 1435SOL     OW15766   2.226   0.211   0.588  0.3336 -0.0248  0.8093
 1435SOL    HW115767   2.260   0.137   0.536 -1.2070 -0.7745  0.8612
 1435SOL    HW215768   2.146   0.178   0.629 -1.2576  0.0722 -2.2111
 1436SOL     OW15769   1.297   3.833   6.092  0.1352 -0.2743 -0.6518
 1436SOL    HW115770   1.225   3.773   6.073  1.0966 -1.2505 -1.2032
 1436SOL    HW215771   1.368   3.788   6.045  2.9678  2.3525  1.0870
 1437SOL     OW15772   4.379   3.762   3.766  0.3664  0.0572  0.3340
 1437SOL    HW115773   4.420   3.721   3.842  1.8297  0.6675 -0.1136
 1437SOL    HW215774   4.424   3.715   3.696  0.9792  0.4030  0.4902
 1438SOL     OW15775   0.922   3.357   7.621  0.5786 -0.0350 -0.4650
 1438SOL    HW115776   0.958   3.270   7.637  0.5640  0.2072  0.8869
 1438SOL    HW215777   0.894   3.385   7.708  3.2392  1.8813 -0.2370
 1439SOL     OW15778   4.639   0.302   7.634 -0.5535 -0.4664 -0.4195
 1439SOL    HW115779   4.720   0.350   7.651 -1.0510  0.7429 -1.4451
 1439SOL    HW215780   4.585   0.359   7.579 -0.6681 -2.6774 -2.5855
 1440SOL     OW15781   2.049   1.718   2.399  0.3674 -0.0475 -0.0790
 1440SOL    HW115782   2.066   1.683   2.311  2.1503  1.0886 -0.1871
 1440SOL    HW215783   1.962   1.685   2.421  0.1940  1.2504  1.1277
 1441SOL     OW15784   1.861   1.134   7.056  0.8082  0.5195  0.5001
 1441SOL    HW115785   1.922   1.063   7.035  3.7825  2.2171  3.2589
 1441SOL    HW215786   1.823   1.107   7.140 -0.4991  1.0697  0.0706
 1442SOL     OW15787   2.046   3.889  14.692  0.4232  0.1712  0.5089
 1442SOL    HW115788   2.089   3.866  14.610 -2.7915 -1.0247 -0.8151
 1442SOL    HW215789   2.109   3.857  14.756 -0.5731 -3.1855 -0.2234
 1443SOL     OW15790   4.574   0.650  15.493 -0.5320  0.3876  0.2381
 1443SOL    HW115791   4.500   0.709  15.475 -1.0586 -1.2189 -2.7618
 1443SOL    HW215792   4.552   0.566  15.454 -0.1376  0.0327  0.7813
 1444SOL     OW15793   0.183   1.377   4.106  0.2488 -0.0967  0.6516
 1444SOL    HW115794   0.176   1.429   4.026  1.9094 -0.6944  0.1156
 1444SOL    HW215795   0.177   1.455   4.161 -1.0931  0.5670 -0.4185
 1445SOL     OW15796   1.129   3.491   4.569  0.3326 -0.0796 -0.1711
 1445SOL    HW115797   1.181   3.569   4.553  1.5144 -0.6192  1.0975
 1445SOL    HW215798   1.191   3.425   4.600 -2.1351 -1.8361  1.0864
 1446SOL     OW15799   3.360   0.976  14.351  0.3023  0.5147 -0.0628
 1446SOL    HW115800   3.336   1.049  14.294 -0.0992  0.4038 -0.0351
 1446SOL    HW215801   3.423   0.926  14.300  0.2273 -0.3614  0.7009
 1447SOL     OW15802   1.271   3.727   6.600 -0.0071  0.2493  0.4688
 1447SOL    HW115803   1.251   3.728   6.694 -1.7064 -2.5506  0.1648
 1447SOL    HW215804   1.227   3.645   6.577 -1.0292  0.4682  1.6064
 1448SOL     OW15805   4.715   2.570   3.393 -0.2180  0.1055 -0.1610
 1448SOL    HW115806   4.623   2.581   3.369 -0.0749 -0.6706 -1.0482
 1448SOL    HW215807   0.001   2.484   3.435  0.0402  0.0517 -0.3217
 1449SOL     OW15808   1.334   3.284   3.961  0.2637  0.5980 -0.1162
 1449SOL    HW115809   1.327   3.323   3.874 -0.5373  0.6277 -0.0353
 1449SOL    HW215810   1.427   3.292   3.984  0.4007 -1.9991  0.2228
 1450SOL     OW15811   0.456   3.940   6.197 -0.4094 -0.0082  0.0232
 1450SOL    HW115812   0.394   3.914   6.128  0.3344 -0.3634 -0.5097
 1450SOL    HW215813   0.483   4.025   6.163  1.9537 -0.6743  0.2645
 1451SOL     OW15814   3.265   1.066  14.875 -0.3325  0.1013 -0.2263
 1451SOL    HW115815   3.255   1.077  14.780 -1.0438  1.5407  0.0183
 1451SOL    HW215816   3.200   1.133  14.898 -0.0244 -0.1440  1.3568
 1452SOL     OW15817   1.970   2.044   6.992  0.1724 -0.8092 -0.3725
 1452SOL    HW115818   2.057   2.006   6.982  1.5611  2.7520 -1.4568
 1452SOL    HW215819   1.956   2.064   6.899 -1.4566 -3.0763 -0.6350
 1453SOL     OW15820   0.099   1.522  10.265  0.2512  0.3418  0.3189
 1453SOL    HW115821   0.134   1.515  10.176  1.2923  1.0331  0.6741
 1453SOL    HW215822   0.006   1.513  10.241  0.4354  0.6637 -0.5077
 1454SOL     OW15823   1.313   0.072   2.697  0.1098 -0.1345 -0.1909
 1454SOL    HW115824   1.326   4.700   2.694  3.1504  0.2591  1.1062
 1454SOL    HW215825   1.227   0.080   2.739  0.3862  2.2547 -0.0476
 1455SOL     OW15826   3.764   2.639   4.176  0.6083 -0.1474  0.3070
 1455SOL    HW115827   3.714   2.705   4.224  0.3896 -2.8572  3.7547
 1455SOL    HW215828   3.779   2.687   4.094  1.8365 -1.6712 -0.3408
 1456SOL     OW15829   0.427   2.692   2.442 -0.2556 -0.7590 -0.3223
 1456SOL    HW115830   0.404   2.729   2.356  1.6013  0.3329 -0.3487
 1456SOL    HW215831   0.519   2.667   2.442  0.1026  0.5622 -2.7816
 1457SOL     OW15832   1.699   4.589   0.706  0.4041 -0.3028  0.3234
 1457SOL    HW115833   1.763   4.658   0.687 -0.4071  0.0589 -1.0965
 1457SOL    HW215834   1.684   4.600   0.800 -3.4617 -1.0720 -0.1838
 1458SOL     OW15835   2.267   0.003  12.100  0.2116  0.4897 -0.2765
 1458SOL    HW115836   2.322   0.010  12.022  0.2190  0.4548 -0.2745
 1458SOL    HW215837   2.246   0.097  12.101 -0.3605  0.3618 -0.4348
 1459SOL     OW15838   1.669   4.578   1.994  0.0932 -0.1401 -0.4639
 1459SOL    HW115839   1.597   4.628   2.031 -0.6010 -0.5815 -1.2213
 1459SOL    HW215840   1.675   4.614   1.905 -0.6047 -1.1009 -0.9044
 1460SOL     OW15841   1.311   2.156   1.991 -0.0024  0.2233  0.2199
 1460SOL    HW115842   1.362   2.187   1.916 -1.5633 -1.0799 -1.3776
 1460SOL    HW215843   1.237   2.217   1.979 -0.3891  0.1856  2.4842
 1461SOL     OW15844   1.483   3.904  14.795 -0.0350  0.5717 -0.1454
 1461SOL    HW115845   1.498   3.869  14.707  1.0734  0.2083  0.1920
 1461SOL    HW215846   1.522   3.991  14.790  1.3400 -0.0483 -0.2246
 1462SOL     OW15847   2.351   0.521   6.680 -0.1634 -1.2348 -0.0332
 1462SOL    HW115848   2.336   0.594   6.620 -0.5165 -1.7298 -0.5357
 1462SOL    HW215849   2.446   0.511   6.691  0.3031  1.0689 -1.9298
 1463SOL     OW15850   2.379   1.469   4.290 -0.5360 -0.0968 -0.2634
 1463SOL    HW115851   2.390   1.550   4.338 -1.3370  0.5071 -1.0917
 1463SOL    HW215852   2.347   1.409   4.357 -2.2746  0.6730 -0.4090
 1464SOL     OW15853   2.428   2.584   8.081 -0.0770  0.3172  0.0649
 1464SOL    HW115854   2.387   2.531   8.012  2.7766 -0.8290 -0.7286
 1464SOL    HW215855   2.501   2.631   8.040  2.2158 -0.9107  2.7384
 1465SOL     OW15856   2.504   4.511   6.847  0.3849  0.5731 -0.6655
 1465SOL    HW115857   2.457   4.577   6.898  0.6760  0.1222  0.1851
 1465SOL    HW215858   2.547   4.464   6.919 -1.0346 -0.1544 -0.2860
 1466SOL     OW15859   1.595   4.009   1.320  0.0695 -0.4449 -0.8711
 1466SOL    HW115860   1.606   4.100   1.292  0.0730 -0.4960 -1.0394
 1466SOL    HW215861   1.500   4.004   1.326 -0.0244  0.9807 -1.3189
 1467SOL     OW15862   3.350   0.785  16.880  0.4262  0.5514 -0.3960
 1467SOL    HW115863   3.307   0.789  16.795  0.4755 -0.6073 -0.4657
 1467SOL    HW215864   3.406   0.864  16.875  0.7606  0.4058  1.0603
 1468SOL     OW15865   2.732   0.290   7.299 -0.1089 -0.3914  0.2568
 1468SOL    HW115866   2.708   0.378   7.325  2.5757  0.4778 -0.2127
 1468SOL    HW215867   2.689   0.241   7.370  0.1491 -1.8868 -0.6161
 1469SOL     OW15868   0.475   1.510   3.415 -0.1944  0.5460  0.3927
 1469SOL    HW115869   0.466   1.425   3.372  0.5334  0.6132  0.1065
 1469SOL    HW215870   0.495   1.563   3.338  1.0674  1.1267  1.1151
 1470SOL     OW15871   3.972   3.303   9.990  0.1770 -0.2244  0.5488
 1470SOL    HW115872   3.923   3.233  10.033 -0.7944  0.6001  0.7698
 1470SOL    HW215873   3.993   3.353  10.068  1.1225  1.3157 -0.6997
 1471SOL     OW15874   2.382   2.403   1.718  0.3876 -0.2716  0.6330
 1471SOL    HW115875   2.367   2.498   1.723  2.0194  0.0855 -1.4916
 1471SOL    HW215876   2.290   2.375   1.721  0.4330 -0.4316  0.5214
 1472SOL     OW15877   0.719   0.910   8.556 -0.2724 -0.1923 -0.7421
 1472SOL    HW115878   0.711   0.974   8.627 -0.0195  1.1261 -1.8864
 1472SOL    HW215879   0.650   0.852   8.588  1.5391 -1.7524  0.3718
 1473SOL     OW15880   2.258   0.986   3.673  0.0747 -0.0675  0.4356
 1473SOL    HW115881   2.176   0.951   3.637  0.1991 -1.5454  1.5689
 1473SOL    HW215882   2.252   1.080   3.656  1.2476 -0.2094 -0.7591
 1474SOL     OW15883   1.561   3.182   6.703 -0.0052  0.1257  0.2630
 1474SOL    HW115884   1.497   3.165   6.634  0.2273 -3.2797  0.8997
 1474SOL    HW215885   1.646   3.169   6.659  0.7602  0.8455  1.5372
 1475SOL     OW15886   0.578   2.866   2.020 -0.0032 -0.4105  0.0249
 1475SOL    HW115887   0.544   2.955   2.019  0.9333 -0.0490  0.7688
 1475SOL    HW215888   0.503   2.828   2.065  0.6518 -0.1497  1.3426
 1476SOL     OW15889   3.895   4.442   8.178 -0.4812 -0.2891 -0.3783
 1476SOL    HW115890   3.803   4.452   8.155 -0.3957  1.7250  0.1930
 1476SOL    HW215891   3.899   4.499   8.254  0.0580  0.1357 -0.7253
 1477SOL     OW15892   1.019   1.885   5.286 -0.1030 -0.5801  0.6533
 1477SOL    HW115893   1.021   1.819   5.356 -0.0436 -0.8462  0.3989
 1477SOL    HW215894   1.038   1.832   5.209  1.6702  1.0071 -0.0118
 1478SOL     OW15895   4.465   0.325   4.230  0.2265  0.2859 -0.0422
 1478SOL    HW115896   4.529   0.322   4.301 -1.1553  2.0459  1.2684
 1478SOL    HW215897   4.524   0.306   4.156 -2.1179 -2.8750 -1.1236
 1479SOL     OW15898   3.149   0.386   5.155 -1.1428 -0.0660  0.5094
 1479SOL    HW115899   3.166   0.340   5.237 -0.0309 -1.2063 -0.3602
 1479SOL    HW215900   3.109   0.314   5.105 -4.1668 -0.1963  3.1413
 1480SOL     OW15901   4.673   2.124   1.295  0.4022 -0.5626 -0.2158
 1480SOL    HW115902   0.044   2.107   1.283  0.5256  1.1640 -1.7789
 1480SOL    HW215903   4.665   2.131   1.390  2.0535  0.3176 -0.1402
 1481SOL     OW15904   4.673   2.262  12.147  0.2745  0.4373 -0.3093
 1481SOL    HW115905   4.670   2.356  12.126 -0.7747  0.4419 -0.1519
 1481SOL    HW215906   0.012   2.266  12.221 -0.5678 -3.2414  0.5732
 1482SOL     OW15907   1.766   3.457   5.651  0.1316  0.7677  0.7220
 1482SOL    HW115908   1.800   3.397   5.585 -1.0511 -1.1257  1.8053
 1482SOL    HW215909   1.702   3.500   5.595  0.6170  0.3710 -0.1350
 1483SOL     OW15910   1.182   2.086   5.351 -0.1906 -0.0964  0.0901
 1483SOL    HW115911   1.121   2.012   5.343  1.2921 -1.1535 -1.4258
 1483SOL    HW215912   1.246   2.055   5.415  1.2751  0.5338 -1.1021
 1484SOL     OW15913   0.830   3.707   2.021  0.7182 -0.1201 -0.1182
 1484SOL    HW115914   0.822   3.775   2.088 -0.8827 -0.8308  0.4153
 1484SOL    HW215915   0.925   3.694   2.029  0.8243  0.0787 -1.0545
 1485SOL     OW15916   4.213   2.760  12.159 -0.3722 -0.4553 -0.2909
 1485SOL    HW115917   4.130   2.793  12.127 -2.2414 -2.7666  2.1166
 1485SOL    HW215918   4.200   2.779  12.252 -0.1798  1.5882 -0.6909
 1486SOL     OW15919   4.133   2.890   2.509 -0.2036  0.2162  0.2153
 1486SOL    HW115920   4.221   2.897   2.546  0.0421  0.8108 -0.4789
 1486SOL    HW215921   4.114   2.796   2.517  1.4479 -0.1337 -0.0351
 1487SOL     OW15922   2.275   2.554   7.247 -0.4055 -0.5501 -0.3523
 1487SOL    HW115923   2.252   2.485   7.309 -1.1046 -0.7447 -0.8242
 1487SOL    HW215924   2.332   2.504   7.189  1.3170 -0.0722  0.9266
 1488SOL     OW15925   0.552   2.865   5.371  0.3115 -0.2687 -0.7817
 1488SOL    HW115926   0.634   2.826   5.342  1.2844 -0.2976  1.9782
 1488SOL    HW215927   0.493   2.797   5.337 -2.9378  3.2380 -2.1697
 1489SOL     OW15928   2.046   2.386   1.673 -0.8298  0.1997  0.7775
 1489SOL    HW115929   1.983   2.444   1.630  0.5196  0.4998 -0.7728
 1489SOL    HW215930   2.015   2.412   1.760 -1.9524 -0.4777  0.5877
 1490SOL     OW15931   3.606   3.819  16.506  0.0053 -0.3702  0.3566
 1490SOL    HW115932   3.696   3.825  16.537  1.0937 -1.4289 -2.6180
 1490SOL    HW215933   3.610   3.736  16.458  0.3134 -0.4488  0.5214
 1491SOL     OW15934   0.911   1.735  11.204  0.0157 -0.1531  0.1562
 1491SOL    HW115935   0.898   1.754  11.297  1.7685 -0.1614  0.4074
 1491SOL    HW215936   0.823   1.754  11.172  0.1405 -2.8444 -1.7964
 1492SOL     OW15937   0.347   3.355   8.675 -0.3554 -0.3132 -0.5156
 1492SOL    HW115938   0.309   3.403   8.602  0.3996  1.1939  0.0694
 1492SOL    HW215939   0.399   3.420   8.723  0.1475 -0.3542 -1.0036
 1493SOL     OW15940   2.439   1.122   8.348  0.8917 -0.0429  0.4579
 1493SOL    HW115941   2.413   1.112   8.440 -0.9106  0.6344  0.0228
 1493SOL    HW215942   2.433   1.032   8.318 -0.8718 -0.0809  0.9251
 1494SOL     OW15943   1.739   0.235   9.100 -0.0538  0.1460 -0.1466
 1494SOL    HW115944   1.703   0.167   9.157  3.2720 -0.0553  1.6927
 1494SOL    HW215945   1.667   0.298   9.102 -1.4632 -1.4684 -0.6361
 1495SOL     OW15946   0.473   0.120   7.446 -0.4889  0.1699  0.6661
 1495SOL    HW115947   0.497   0.057   7.515 -1.9878  0.9924  1.9334
 1495SOL    HW215948   0.378   0.115   7.433 -0.2702 -2.1831 -0.0036
 1496SOL     OW15949   1.474   4.635  10.566  0.1457  0.2687  0.1818
 1496SOL    HW115950   1.426   4.563  10.606  2.9009 -1.0827  1.0887
 1496SOL    HW215951   1.423   4.707  10.604  1.2911 -0.2131  2.6610
 1497SOL     OW15952   0.356   4.057   4.316  0.0758  0.1359 -0.2291
 1497SOL    HW115953   0.294   4.039   4.245  1.0172 -1.2693 -0.7078
 1497SOL    HW215954   0.360   4.151   4.329 -2.2658  0.3069 -0.8002
 1498SOL     OW15955   3.008   0.848  10.232 -0.0812  0.2102 -0.3168
 1498SOL    HW115956   2.970   0.798  10.305 -0.2562  0.9003  0.0685
 1498SOL    HW215957   3.084   0.900  10.259 -0.5622  0.5854  0.3342
 1499SOL     OW15958   3.176   0.535   6.607  0.1840 -0.0957  0.5443
 1499SOL    HW115959   3.122   0.570   6.537 -0.0995 -0.0139  0.8002
 1499SOL    HW215960   3.130   0.563   6.687  1.0505  0.7571  0.7407
 1500SOL     OW15961   2.934   1.225   0.022  0.2255 -0.1007  0.4980
 1500SOL    HW115962   2.873   1.274  17.659  0.1301 -0.4284  0.3101
 1500SOL    HW215963   2.977   1.304   0.055 -0.5119 -0.1080  1.4902
 1501SOL     OW15964   1.294   0.149  15.782  0.3277  0.3916  0.0710
 1501SOL    HW115965   1.299   0.060  15.747  0.4598  0.8964 -1.1996
 1501SOL    HW215966   1.313   0.129  15.873 -1.0485 -1.9589 -0.1561
 1502SOL     OW15967   4.694   0.561   2.527 -0.6284  0.4897 -0.4772
 1502SOL    HW115968   0.012   0.475   2.538  1.7591  1.9849  2.4323
 1502SOL    HW215969   0.031   0.602   2.463  0.5653  1.4026  1.1925
 1503SOL     OW15970   2.414   2.379   7.077 -0.5817 -0.2283 -0.0599
 1503SOL    HW115971   2.477   2.312   7.105  0.0808  1.0721  1.5915
 1503SOL    HW215972   2.452   2.415   6.997 -0.3480  0.3142  0.2919
 1504SOL     OW15973   4.191   0.551  13.585  0.2510 -0.4555  0.3309
 1504SOL    HW115974   4.213   0.641  13.609  2.8856 -0.9671 -0.2012
 1504SOL    HW215975   4.258   0.500  13.630  0.7529  1.5948  1.8950
 1505SOL     OW15976   0.795   2.263  12.921 -0.1493  0.2553  0.1221
 1505SOL    HW115977   0.758   2.345  12.954  1.5693  0.5066  1.4695
 1505SOL    HW215978   0.713   2.214  12.912  0.3440 -0.7625  1.1130
 1506SOL     OW15979   3.932   0.673   2.261  0.3796  0.4598  0.4211
 1506SOL    HW115980   3.925   0.758   2.218  1.8043  0.5716  0.4140
 1506SOL    HW215981   4.025   0.674   2.283  0.6828  1.4394 -0.8949
 1507SOL     OW15982   1.175   2.064   8.979  0.1056  0.2327 -0.6560
 1507SOL    HW115983   1.154   1.976   9.009  3.1264 -0.4351 -0.5415
 1507SOL    HW215984   1.124   2.112   9.044  1.7941  1.3414 -0.1366
 1508SOL     OW15985   0.969   0.108   6.734 -0.1939 -0.2660 -0.0946
 1508SOL    HW115986   0.906   0.055   6.784  0.7025  0.5102  1.8691
 1508SOL    HW215987   1.024   0.042   6.692  0.1313  0.1113 -0.2611
 1509SOL     OW15988   1.931   4.546   7.102  0.0732  0.5613 -0.1327
 1509SOL    HW115989   1.881   4.465   7.089  0.2613  0.4137  0.0789
 1509SOL    HW215990   1.927   4.553   7.197 -1.8643  1.3861 -0.2845
 1510SOL     OW15991   0.696   2.628   1.393 -0.0133  0.0848  0.5034
 1510SOL    HW115992   0.678   2.542   1.356  1.0431  0.2110 -0.3047
 1510SOL    HW215993   0.689   2.612   1.487  0.8147  0.1810  0.5823
 1511SOL     OW15994   0.366   3.116  11.960  0.4320  0.0088 -0.3098
 1511SOL    HW115995   0.367   3.025  11.991  1.2430  1.8596  5.0465
 1511SOL    HW215996   0.394   3.172  12.032 -1.6999 -0.0095  0.5383
 1512SOL     OW15997   2.087   4.019   7.414  0.1409 -0.1854 -0.4436
 1512SOL    HW115998   2.068   3.955   7.483 -2.6825  1.1648  0.0352
 1512SOL    HW215999   2.033   4.092   7.443  1.7339  0.0016  2.0523
 1513SOL     OW16000   3.997   3.712   7.412 -0.4610 -0.3197  0.1750
 1513SOL    HW116001   3.989   3.807   7.409 -1.6210 -0.4346 -0.7323
 1513SOL    HW216002   4.066   3.700   7.348 -0.5678 -0.8794  0.1581
 1514SOL     OW16003   1.125   2.215   2.338  0.7024 -0.2422  0.3787
 1514SOL    HW116004   1.075   2.169   2.405  0.3547 -0.1033  0.2100
 1514SOL    HW216005   1.205   2.163   2.324  0.4099 -0.3610 -0.8075
 1515SOL     OW16006   1.051   4.066   2.688 -0.1220 -0.6470 -0.0972
 1515SOL    HW116007   1.129   4.075   2.742  1.2302  0.6606 -2.2968
 1515SOL    HW216008   0.988   4.036   2.754  0.8299 -2.5954 -0.0730
 1516SOL     OW16009   1.516   2.977  12.518 -0.0532 -0.4142 -0.6619
 1516SOL    HW116010   1.570   2.989  12.440  1.6781  1.2392  0.8004
 1516SOL    HW216011   1.433   2.954  12.475 -0.2850 -1.9141  0.5870
 1517SOL     OW16012   0.618   3.658  13.325 -0.0108 -0.2656 -0.2408
 1517SOL    HW116013   0.655   3.640  13.411  0.4015 -0.3966 -0.4465
 1517SOL    HW216014   0.679   3.726  13.298  0.2469 -0.0398  0.9208
 1518SOL     OW16015   4.302   1.153   5.670 -0.3338  0.3867  0.1665
 1518SOL    HW116016   4.396   1.171   5.664 -0.1606 -1.2768 -2.0635
 1518SOL    HW216017   4.284   1.137   5.578 -1.1641  0.0297  0.3890
 1519SOL     OW16018   2.153   2.827   5.866 -0.1507  0.1488  0.1681
 1519SOL    HW116019   2.206   2.860   5.938  0.4646 -1.1215  0.2886
 1519SOL    HW216020   2.210   2.850   5.793 -1.5384  2.2876 -0.2415
 1520SOL     OW16021   0.620   4.436   6.002  0.0894 -0.6069 -0.2268
 1520SOL    HW116022   0.559   4.510   5.996  0.3480 -0.4691 -1.0410
 1520SOL    HW216023   0.670   4.462   6.079  1.8907 -0.5205 -1.4358
 1521SOL     OW16024   3.690   3.291   2.102 -0.1811 -0.2960 -0.5159
 1521SOL    HW116025   3.676   3.325   2.191  0.9037 -3.9425  1.0449
 1521SOL    HW216026   3.672   3.199   2.119 -3.1356  0.4639  0.5287
 1522SOL     OW16027   0.958   2.885   0.878  0.0870 -0.2648  0.0493
 1522SOL    HW116028   0.997   2.972   0.889  0.0419 -0.4317  1.5602
 1522SOL    HW216029   1.029   2.831   0.913 -0.3492  1.0110  2.9047
 1523SOL     OW16030   1.504   0.205  14.399  0.4011 -0.0611 -0.0507
 1523SOL    HW116031   1.470   0.256  14.324 -0.9359  0.2142  0.7371
 1523SOL    HW216032   1.431   0.145  14.414 -1.1725  1.9419  0.3400
 1524SOL     OW16033   4.650   3.864   9.109  0.3877 -0.0723  0.4447
 1524SOL    HW116034   4.575   3.811   9.133  0.1173  0.4637  0.7871
 1524SOL    HW216035   4.718   3.818   9.158 -0.0012 -0.2195  0.8456
 1525SOL     OW16036   3.965   2.035   2.042 -0.1920 -0.7255  0.0363
 1525SOL    HW116037   4.046   1.986   2.027  0.9908  0.8230  1.4342
 1525SOL    HW216038   3.944   2.079   1.960  1.6177 -0.1303 -0.1031
 1526SOL     OW16039   3.755   2.512   6.375  0.4282 -0.2224 -0.0014
 1526SOL    HW116040   3.842   2.480   6.351 -0.4696 -1.4297 -1.5253
 1526SOL    HW216041   3.704   2.432   6.370 -1.9185  1.1606  1.5676
 1527SOL     OW16042   0.417   0.052   3.805  0.2309  0.9819  0.0334
 1527SOL    HW116043   0.378   4.717   3.739  0.1063  1.5155 -0.3553
 1527SOL    HW216044   0.429   0.133   3.755 -2.0232  1.2272 -0.1119
 1528SOL     OW16045   1.304   3.763   2.998 -0.1901  0.7394  0.1261
 1528SOL    HW116046   1.305   3.835   3.061  0.8836 -1.2998  2.4561
 1528SOL    HW216047   1.336   3.807   2.919 -0.8209  1.9457  0.5482
 1529SOL     OW16048   4.691   0.765   4.905  0.0784 -0.0255  0.6782
 1529SOL    HW116049   0.004   0.848   4.873 -1.6219 -0.6668 -2.7956
 1529SOL    HW216050   0.049   0.714   4.917  1.9564  2.9526  0.7943
 1530SOL     OW16051   2.485   3.649   7.908  0.0705 -0.2198 -0.7342
 1530SOL    HW116052   2.503   3.598   7.829  1.5982  0.4246 -0.8103
 1530SOL    HW216053   2.469   3.734   7.867 -0.9792  0.7439  1.6980
 1531SOL     OW16054   1.638   2.608  12.366  0.8545 -0.2493  0.3501
 1531SOL    HW116055   1.643   2.516  12.393  1.8062 -0.5321 -0.7930
 1531SOL    HW216056   1.542   2.605  12.368  0.8173  0.2213 -0.5333
 1532SOL     OW16057   1.955   2.402  11.638  0.1609 -0.4056  0.5431
 1532SOL    HW116058   2.045   2.410  11.670 -1.3850  1.5993  4.3840
 1532SOL    HW216059   1.902   2.443  11.706 -2.3445 -1.0698 -1.0213
 1533SOL     OW16060   0.227   3.886   3.713  0.6339  0.1807 -0.0034
 1533SOL    HW116061   0.170   3.810   3.706  0.2173  0.5490 -0.6226
 1533SOL    HW216062   0.165   3.957   3.697  0.3407  0.2888  1.6870
 1534SOL     OW16063   0.087   0.323   2.595  0.1332 -0.1268  0.5596
 1534SOL    HW116064   0.064   0.243   2.641 -1.4331 -0.0334 -0.0442
 1534SOL    HW216065   0.119   0.287   2.512 -1.0609 -2.7140  1.2234
 1535SOL     OW16066   4.228   1.620  16.500  0.0498  0.4125  0.5706
 1535SOL    HW116067   4.167   1.549  16.519 -0.1128  0.6137  0.7925
 1535SOL    HW216068   4.249   1.649  16.588  1.3258  0.9546  0.0965
 1536SOL     OW16069   2.134   2.925  10.078  0.0809 -0.4372 -0.0438
 1536SOL    HW116070   2.049   2.886  10.100 -0.5686  0.4905 -0.8557
 1536SOL    HW216071   2.144   2.991  10.146 -0.9222 -1.6332  1.2560
 1537SOL     OW16072   3.401   1.556  14.106  0.0169 -0.0914 -0.0916
 1537SOL    HW116073   3.477   1.610  14.127 -0.4469  1.7229 -3.0024
 1537SOL    HW216074   3.432   1.485  14.051 -0.6908  1.1004 -2.0634
 1538SOL     OW16075   4.409   4.275   8.823  0.3354 -0.2846  0.3422
 1538SOL    HW116076   4.467   4.345   8.852  2.5838 -2.5960  1.5204
 1538SOL    HW216077   4.435   4.213   8.891 -0.0281 -1.3823 -0.5116
 1539SOL     OW16078   3.157   3.312   2.921 -0.0748  0.0071  0.4085
 1539SOL    HW116079   3.201   3.339   2.840  0.0029  1.0789  0.8073
 1539SOL    HW216080   3.086   3.259   2.884  0.8500  0.0623 -1.4327
 1540SOL     OW16081   2.382   3.406   6.766  0.2527  0.6157 -0.2241
 1540SOL    HW116082   2.424   3.485   6.799 -0.8403  0.2117  2.1111
 1540SOL    HW216083   2.335   3.436   6.688 -0.6385 -0.8291 -0.2455
 1541SOL     OW16084   0.344   3.421  13.637  0.5121  0.0630  0.1191
 1541SOL    HW116085   0.373   3.421  13.546 -0.0364 -0.1876 -0.0602
 1541SOL    HW216086   0.430   3.414  13.677  1.3928 -0.4840 -1.8849
 1542SOL     OW16087   3.921   0.288  13.923 -0.3298  0.7954 -0.2960
 1542SOL    HW116088   3.827   0.276  13.916 -0.3830  1.0214  0.0017
 1542SOL    HW216089   3.934   0.196  13.902  1.8330  0.7166  1.3436
 1543SOL     OW16090   0.691   4.391   7.691 -0.1933 -0.3129  0.2190
 1543SOL    HW116091   0.713   4.438   7.771 -0.2256  1.2011 -0.6708
 1543SOL    HW216092   0.603   4.363   7.715 -0.2129 -1.2906 -0.9860
 1544SOL     OW16093   1.397   3.496   2.491 -0.0550  0.4820  0.2834
 1544SOL    HW116094   1.422   3.405   2.506 -1.4544  0.0593  0.0486
 1544SOL    HW216095   1.411   3.511   2.398  3.1945 -0.5564  0.6025
 1545SOL     OW16096   0.494   1.408  16.016  0.2120 -0.3822 -0.0645
 1545SOL    HW116097   0.451   1.328  16.048 -1.6087  0.5215 -0.2598
 1545SOL    HW216098   0.584   1.380  15.998 -0.5000 -2.3209 -0.7040
 1546SOL     OW16099   2.936   3.188   0.147 -0.1264 -0.4483  0.4752
 1546SOL    HW116100   2.920   3.220   0.058 -1.7624 -1.7525  0.2947
 1546SOL    HW216101   3.021   3.146   0.136 -0.9747 -1.7698 -1.0672
 1547SOL     OW16102   2.891   0.484   5.021  0.2343 -0.7864 -0.9299
 1547SOL    HW116103   2.952   0.515   5.088 -0.2364 -1.9584  0.0361
 1547SOL    HW216104   2.837   0.432   5.079 -0.5992  0.4111 -0.6399
 1548SOL     OW16105   1.225   0.240   9.089  0.4667 -0.1484  0.0142
 1548SOL    HW116106   1.176   0.288   9.155  1.3433  1.6759 -0.6785
 1548SOL    HW216107   1.319   0.257   9.096  0.3047  1.2349 -1.4769
 1549SOL     OW16108   3.621   0.137   9.765 -0.2698 -0.4108  0.3755
 1549SOL    HW116109   3.536   0.176   9.747  0.7894  1.1881 -1.2462
 1549SOL    HW216110   3.674   0.157   9.688  0.4079 -1.0189  0.6804
 1550SOL     OW16111   1.644   4.045   6.486  0.4226  0.2493 -0.0375
 1550SOL    HW116112   1.618   3.966   6.533 -0.3826  0.9857  0.7446
 1550SOL    HW216113   1.706   4.005   6.425  0.3207 -2.3470  1.5992
 1551SOL     OW16114   1.486   0.754  11.104  0.0223  0.5428 -0.4887
 1551SOL    HW116115   1.427   0.804  11.160  1.0482 -0.1473  1.1842
 1551SOL    HW216116   1.509   0.674  11.150 -0.2255 -1.1759 -3.3162
 1552SOL     OW16117   4.150   0.201   7.568 -0.2610  0.0132  0.5478
 1552SOL    HW116118   4.211   0.259   7.613 -1.6061  0.3586  1.9139
 1552SOL    HW216119   4.140   0.138   7.639 -1.4255 -0.4473 -0.0143
 1553SOL     OW16120   1.432   1.196   2.228 -0.2177  0.0400 -0.1897
 1553SOL    HW116121   1.444   1.157   2.141 -0.0392  0.9001 -0.5485
 1553SOL    HW216122   1.475   1.280   2.211  1.3256 -0.6544  0.2752
 1554SOL     OW16123   1.222   2.589   6.227 -0.2260  0.4925 -0.4164
 1554SOL    HW116124   1.238   2.529   6.154 -0.4712 -1.8603  1.4929
 1554SOL    HW216125   1.226   2.522   6.295 -0.4878  0.9020  0.0056
 1555SOL     OW16126   3.036   2.518   7.137 -0.4155  0.3382  0.3279
 1555SOL    HW116127   3.122   2.513   7.095 -0.9462 -1.7608 -0.4716
 1555SOL    HW216128   3.067   2.479   7.219  0.9908 -0.6056 -0.6547
 1556SOL     OW16129   4.710   1.593   3.061  0.2466 -0.8782  0.0078
 1556SOL    HW116130   4.676   1.544   2.986 -2.5908 -0.9092  1.3232
 1556SOL    HW216131   0.044   1.653   3.011 -0.5248  1.8924  2.4892
 1557SOL     OW16132   0.246   0.667   0.076  0.0811  0.6200  0.0954
 1557SOL    HW116133   0.211   0.627   0.155  0.0928  1.3582  0.4706
 1557SOL    HW216134   0.200   0.752   0.080 -0.3280  0.3432  1.1468
 1558SOL     OW16135   3.111   1.822   2.040 -0.3967  0.0201 -0.6726
 1558SOL    HW116136   3.087   1.738   2.079  2.5174 -0.8458 -0.7405
 1558SOL    HW216137   3.120   1.885   2.111  1.2594  0.0612 -0.9081
 1559SOL     OW16138   2.193   0.192   7.878 -0.0071 -0.2751 -0.0333
 1559SOL    HW116139   2.287   0.175   7.891  0.0688  0.1996  0.0265
 1559SOL    HW216140   2.161   0.120   7.933  0.4064  0.8729  1.7017
 1560SOL     OW16141   4.326   2.546  10.136  0.4968  0.0714  0.1988
 1560SOL    HW116142   4.247   2.600  10.130  0.2135 -0.5317 -1.5546
 1560SOL    HW216143   4.299   2.464  10.094  0.1386  0.1520  0.2717
 1561SOL     OW16144   0.759   0.754  14.607  0.5768  0.0829  0.3837
 1561SOL    HW116145   0.788   0.842  14.631  1.2879 -0.0982  0.1855
 1561SOL    HW216146   0.805   0.741  14.524 -1.7908 -1.0102 -0.7819
 1562SOL     OW16147   0.037   0.853   7.560 -0.2222  0.2904  0.5056
 1562SOL    HW116148   0.098   0.868   7.633  0.1560 -3.0645  0.8731
 1562SOL    HW216149   4.675   0.850   7.604 -0.0964 -0.0795  0.7240
 1563SOL     OW16150   0.854   2.818   5.279  0.1047 -0.4339  0.3306
 1563SOL    HW116151   0.891   2.905   5.295  0.6774 -0.8202  1.1179
 1563SOL    HW216152   0.918   2.769   5.331 -0.5812 -1.6288  0.0196
 1564SOL     OW16153   1.556   1.535   4.911  0.4244 -0.4566 -0.0194
 1564SOL    HW116154   1.630   1.476   4.897  1.1241  0.6063 -0.8119
 1564SOL    HW216155   1.608   1.615   4.916 -0.3100  0.2083 -2.9083
 1565SOL     OW16156   0.444   3.362   2.796 -0.4975  0.2056  0.0164
 1565SOL    HW116157   0.469   3.358   2.704 -0.9007  0.0857 -0.0868
 1565SOL    HW216158   0.462   3.454   2.815  1.2290 -0.0472 -0.3678
 1566SOL     OW16159   0.855   4.455   5.533 -0.1148  0.6038 -0.7779
 1566SOL    HW116160   0.927   4.425   5.588  1.3676  0.0252 -3.0555
 1566SOL    HW216161   0.781   4.461   5.594 -0.3405  2.7612 -1.2438
 1567SOL     OW16162   1.606   2.311   3.566  0.3233 -0.9879 -0.1946
 1567SOL    HW116163   1.519   2.274   3.576  0.4891 -1.6025 -1.0743
 1567SOL    HW216164   1.607   2.329   3.472  3.3086 -0.4851 -0.0766
 1568SOL     OW16165   1.272   2.190   0.097  0.3243  0.0612  0.4329
 1568SOL    HW116166   1.217   2.172   0.020 -0.7842  1.3567  0.9316
 1568SOL    HW216167   1.223   2.133   0.156 -1.1842  0.1247 -0.7448
 1569SOL     OW16168   2.943   2.014   0.047 -0.0489  0.0932 -0.6156
 1569SOL    HW116169   3.002   2.013  17.663  0.5503  1.3981 -0.1577
 1569SOL    HW216170   2.949   2.106   0.073  2.0127 -0.7895  2.0240
 1570SOL     OW16171   2.579   3.087   5.655 -0.2803 -0.3574  0.3450
 1570SOL    HW116172   2.487   3.068   5.675 -0.5227  1.1460  0.6905
 1570SOL    HW216173   2.583   3.091   5.560 -0.5108 -0.2522  0.3388
 1571SOL     OW16174   0.939   4.416   6.528 -0.1312 -0.5955  0.0403
 1571SOL    HW116175   1.001   4.344   6.520 -1.4001 -1.7108  0.0693
 1571SOL    HW216176   0.876   4.386   6.462  1.9773 -2.5734 -1.0651
 1572SOL     OW16177   3.996   2.555   6.798  0.0566  0.1588 -0.3155
 1572SOL    HW116178   4.072   2.498   6.785 -0.0885 -0.0508 -0.2539
 1572SOL    HW216179   4.010   2.613   6.724  0.2541  0.0863 -0.3363
 1573SOL     OW16180   1.471   3.689   6.942  0.2566  0.2718 -0.0574
 1573SOL    HW116181   1.476   3.631   6.866  0.7801  0.2338  0.0058
 1573SOL    HW216182   1.444   3.629   7.012  0.6613 -1.4310 -1.3650
 1574SOL     OW16183   4.027   1.425   6.322  0.4908  0.4782  0.3324
 1574SOL    HW116184   4.104   1.478   6.345  1.0948  0.0699 -0.7339
 1574SOL    HW216185   3.958   1.491   6.330 -0.3421 -0.4316  0.6129
 1575SOL     OW16186   3.822   2.446   4.620 -0.0431 -0.0506  0.1717
 1575SOL    HW116187   3.793   2.537   4.623  1.4831  0.4303  0.0362
 1575SOL    HW216188   3.841   2.424   4.711  2.3881  0.8846 -0.1244
 1576SOL     OW16189   0.036   2.407   0.506 -0.4918 -0.1793  0.3411
 1576SOL    HW116190   0.014   2.316   0.522  0.8695 -0.6263 -0.3203
 1576SOL    HW216191   4.676   2.455   0.492 -0.3628 -0.6515 -2.0651
 1577SOL     OW16192   1.319   2.717   2.523 -0.4070 -0.5231 -0.6160
 1577SOL    HW116193   1.399   2.752   2.483 -1.2775  0.9456 -1.0667
 1577SOL    HW216194   1.353   2.718   2.613 -0.2891  0.4555 -0.6674
 1578SOL     OW16195   1.405   0.450   9.380  0.3280  0.0289  0.4726
 1578SOL    HW116196   1.469   0.445   9.451  0.2713 -1.2650  0.4369
 1578SOL    HW216197   1.360   0.533   9.395  0.6645  0.8621 -3.2006
 1579SOL     OW16198   0.921   1.270   3.032 -0.9532 -0.3831  0.2084
 1579SOL    HW116199   0.904   1.364   3.040  1.3810  0.1215 -0.7636
 1579SOL    HW216200   1.009   1.267   2.994 -1.7717 -0.7601 -1.6675
 1580SOL     OW16201   4.343   3.986   9.337 -0.0935  0.5422  0.0310
 1580SOL    HW116202   4.308   4.006   9.423  1.5549  1.4015  0.5080
 1580SOL    HW216203   4.436   4.006   9.345 -0.3655  1.1765  1.5837
 1581SOL     OW16204   3.932   1.049   2.862  0.4654  0.1861 -0.0393
 1581SOL    HW116205   3.974   1.101   2.794  0.8951  0.9049  0.7825
 1581SOL    HW216206   3.862   1.110   2.886  0.0020  0.2722 -1.5882
 1582SOL     OW16207   4.216   3.879   3.458  0.1004  0.6608  0.0067
 1582SOL    HW116208   4.216   3.968   3.425 -1.5583  0.1221 -1.4805
 1582SOL    HW216209   4.263   3.830   3.391 -0.8735 -1.1351  0.6106
 1583SOL     OW16210   3.053   3.958   5.575 -0.3156 -1.3776 -0.4642
 1583SOL    HW116211   3.084   4.024   5.637 -0.7458 -0.5310 -1.1549
 1583SOL    HW216212   3.121   3.893   5.589  2.4719  1.4175 -0.9206
 1584SOL     OW16213   4.473   1.781   9.194  0.4920 -0.5814 -0.1466
 1584SOL    HW116214   4.528   1.794   9.271  2.0834  0.9654 -1.5309
 1584SOL    HW216215   4.498   1.693   9.168  1.2391 -0.3853 -0.0798
 1585SOL     OW16216   2.218   4.430   8.780 -0.4039  0.4605  0.8091
 1585SOL    HW116217   2.289   4.461   8.836  0.5932  0.5993 -0.5144
 1585SOL    HW216218   2.213   4.342   8.815  1.8336 -0.3619 -0.8745
 1586SOL     OW16219   3.385   1.901   7.742  0.5002  0.2571 -0.2025
 1586SOL    HW116220   3.474   1.881   7.774  0.8728 -0.9490 -2.0223
 1586SOL    HW216221   3.353   1.814   7.723  1.0093 -0.0132  0.1540
 1587SOL     OW16222   3.755   0.913   6.964 -0.3843 -0.5801  0.2211
 1587SOL    HW116223   3.727   0.918   6.873 -0.8469 -1.1419  0.3349
 1587SOL    HW216224   3.761   0.822   6.992 -0.3525 -1.4442 -2.6029
 1588SOL     OW16225   3.192   3.858   9.379 -0.0049  0.3613  0.1528
 1588SOL    HW116226   3.263   3.870   9.317 -0.7189  1.1950 -0.5130
 1588SOL    HW216227   3.111   3.883   9.334 -0.7271 -2.7749 -0.3227
 1589SOL     OW16228   0.882   3.567   6.567 -0.1546  0.2102  0.3306
 1589SOL    HW116229   0.840   3.495   6.521  2.2701 -0.3378 -1.0694
 1589SOL    HW216230   0.814   3.586   6.631 -1.2326  1.7603 -1.2655
 1590SOL     OW16231   3.573   1.463   6.320 -0.0951 -0.1159 -0.2094
 1590SOL    HW116232   3.517   1.517   6.376  2.0825 -0.0929  1.9904
 1590SOL    HW216233   3.511   1.392   6.312 -1.6920  1.0958  1.3554
 1591SOL     OW16234   0.664   3.360   7.934  0.2427  0.3470 -0.0532
 1591SOL    HW116235   0.725   3.286   7.934  0.5414  0.5804 -1.2514
 1591SOL    HW216236   0.721   3.436   7.950  1.0879 -0.3103  0.0820
 1592SOL     OW16237   2.656   3.666   3.533  0.0663 -0.0219 -0.4526
 1592SOL    HW116238   2.652   3.644   3.440  1.1100 -1.8654 -0.0764
 1592SOL    HW216239   2.668   3.759   3.516  0.8095 -0.1425 -0.5858
 1593SOL     OW16240   3.690   3.388  17.109  0.1874  0.1174  0.0445
 1593SOL    HW116241   3.741   3.406  17.030  1.0276  3.0154  1.2512
 1593SOL    HW216242   3.761   3.360  17.167  0.5713 -0.2549 -0.6029
 1594SOL     OW16243   1.029   0.024  12.896 -0.2465  0.5246 -0.9669
 1594SOL    HW116244   1.026   4.656  12.927  2.4834  0.6807 -0.2734
 1594SOL    HW216245   1.121   0.051  12.897  0.1518 -1.1361  3.1933
 1595SOL     OW16246   1.199   3.786  13.789 -0.2665  0.0266  0.4289
 1595SOL    HW116247   1.176   3.805  13.880 -1.0776 -0.9553  0.4347
 1595SOL    HW216248   1.144   3.709  13.770 -1.1030  1.0823 -1.4238
 1596SOL     OW16249   2.618   3.361   8.642 -0.8312  0.5949 -0.4933
 1596SOL    HW116250   2.680   3.301   8.600 -2.2850 -2.2679  1.4150
 1596SOL    HW216251   2.554   3.371   8.572 -0.3288 -2.1796 -1.3543
 1597SOL     OW16252   1.531   3.091   4.112  0.6664 -0.4075  0.2217
 1597SOL    HW116253   1.509   3.103   4.019  1.4437 -2.0903 -0.1834
 1597SOL    HW216254   1.619   3.129   4.112  0.8297 -0.7797 -1.7442
 1598SOL     OW16255   1.454   1.801   5.224 -0.3829  0.0540 -0.1216
 1598SOL    HW116256   1.414   1.850   5.153  2.4315 -2.4439 -3.4721
 1598SOL    HW216257   1.535   1.777   5.179  1.4726  2.5070  1.8891
 1599SOL     OW16258   0.518   0.556   5.776  0.0600  0.1589 -0.4664
 1599SOL    HW116259   0.427   0.532   5.755 -0.1182  1.6182 -1.3594
 1599SOL    HW216260   0.536   0.498   5.850 -1.7318 -1.0386 -0.9370
 1600SOL     OW16261   2.206   1.215   8.163 -0.3226  0.6002  0.0571
 1600SOL    HW116262   2.232   1.206   8.255  0.6657  0.3554 -0.2429
 1600SOL    HW216263   2.278   1.264   8.125  1.2632 -1.0633  0.9094
 1601SOL     OW16264   3.263   0.508   9.854  0.0214  0.3051  0.6916
 1601SOL    HW116265   3.270   0.514   9.759  4.1618 -1.7256  0.8541
 1601SOL    HW216266   3.181   0.555   9.868  0.2668  0.1386  2.7042
 1602SOL     OW16267   1.322   1.760  13.711  0.8304 -0.3293  0.3521
 1602SOL    HW116268   1.398   1.793  13.760  0.4690  1.3816 -0.2415
 1602SOL    HW216269   1.255   1.784  13.776  0.0473 -0.3172 -0.4691
 1603SOL     OW16270   0.434   3.779   4.896  0.3087  0.5264 -0.2711
 1603SOL    HW116271   0.384   3.723   4.837 -1.4607  0.1992  1.5728
 1603SOL    HW216272   0.472   3.839   4.832  0.6856 -1.3768 -1.8300
 1604SOL     OW16273   0.817   2.370   4.708 -0.6022 -0.5308 -0.1163
 1604SOL    HW116274   0.820   2.431   4.782 -0.7624 -1.8608  0.9809
 1604SOL    HW216275   0.852   2.425   4.638  0.2730  1.6718  2.0518
 1605SOL     OW16276   4.562   4.373   8.030  0.4573  0.2232 -0.2418
 1605SOL    HW116277   4.578   4.279   8.022 -0.8483  0.2639 -3.3946
 1605SOL    HW216278   4.650   4.407   8.013  0.7952 -1.9489 -2.8673
 1606SOL     OW16279   4.182   0.937   4.857 -0.3086 -0.5917  0.2320
 1606SOL    HW116280   4.133   0.878   4.914  0.1849 -1.4814 -0.2622
 1606SOL    HW216281   4.250   0.974   4.913  0.7732  0.5667 -1.8434
 1607SOL     OW16282   1.620   3.595   4.999  0.2502  0.2916 -0.2175
 1607SOL    HW116283   1.538   3.555   4.971  2.0707 -3.7593  0.1761
 1607SOL    HW216284   1.638   3.535   5.072 -0.0015  0.6351  0.1231
 1608SOL     OW16285   1.701   3.589  10.032  0.0123  0.3107  0.6247
 1608SOL    HW116286   1.772   3.646  10.003  1.7783 -2.2222 -0.1224
 1608SOL    HW216287   1.637   3.597   9.961  0.9713 -1.4505 -0.4390
 1609SOL     OW16288   4.304   3.857   2.359  0.1066 -0.0340  0.3134
 1609SOL    HW116289   4.292   3.873   2.266  3.4277  0.5947 -0.0091
 1609SOL    HW216290   4.390   3.817   2.368  1.0271  2.0196  0.5721
 1610SOL     OW16291   2.175   3.438  15.332 -0.0860 -0.0665 -0.0948
 1610SOL    HW116292   2.080   3.434  15.317  0.4089 -0.9531 -2.9367
 1610SOL    HW216293   2.197   3.345  15.324 -2.6654 -0.3231 -4.4429
 1611SOL     OW16294   4.296   3.191   6.672  0.3789  0.0492 -0.1205
 1611SOL    HW116295   4.240   3.269   6.674 -1.1608 -1.1228  2.6304
 1611SOL    HW216296   4.371   3.225   6.624  1.3508  2.0206  2.8013
 1612SOL     OW16297   2.428   4.411   6.047  0.3696 -0.0449 -0.3540
 1612SOL    HW116298   2.412   4.505   6.040 -1.5275 -0.3651 -0.0890
 1612SOL    HW216299   2.340   4.393   6.014 -0.3601 -0.1304  1.6517
 1613SOL     OW16300   3.840   1.082   6.579 -0.3320  0.0687  0.1895
 1613SOL    HW116301   3.861   1.078   6.672 -1.5047  0.8776  0.4862
 1613SOL    HW216302   3.754   1.041   6.576 -0.5134  0.5477 -1.0799
 1614SOL     OW16303   2.266   1.758  10.156  0.3233 -0.3666  0.4039
 1614SOL    HW116304   2.274   1.678  10.104 -0.0035 -0.2884  0.2339
 1614SOL    HW216305   2.311   1.830  10.111 -0.2639  0.1032  0.5675
 1615SOL     OW16306   4.295   3.594  15.322  0.2126  0.0241 -0.2977
 1615SOL    HW116307   4.283   3.688  15.322  1.7461  0.2197 -0.6887
 1615SOL    HW216308   4.390   3.582  15.315  0.3957  1.7590 -0.6716
 1616SOL     OW16309   4.192   0.546  12.435 -0.6624 -0.1582 -0.3088
 1616SOL    HW116310   4.269   0.547  12.379 -1.0017  2.0468 -0.7630
 1616SOL    HW216311   4.235   0.574  12.516 -0.6729  1.4853 -0.8551
 1617SOL     OW16312   3.618   3.597   2.376 -0.5224  0.3268 -0.3502
 1617SOL    HW116313   3.601   3.503   2.376  0.5287  0.1284 -0.5390
 1617SOL    HW216314   3.635   3.621   2.285 -0.0337  1.3826  0.0254
 1618SOL     OW16315   0.033   4.501   5.677 -0.4279 -0.1597  0.1514
 1618SOL    HW116316   0.080   4.437   5.731 -0.8232  0.0667  0.7632
 1618SOL    HW216317   0.085   4.498   5.597 -1.1260  1.5106 -0.3673
 1619SOL     OW16318   3.509   3.481   7.627 -0.4159 -0.2987 -0.5300
 1619SOL    HW116319   3.484   3.570   7.600 -1.4469 -0.5362 -0.3536
 1619SOL    HW216320   3.435   3.448   7.678 -0.7384 -1.2883 -1.6366
 1620SOL     OW16321   2.069   1.728   3.309 -0.4392  0.1146 -0.3123
 1620SOL    HW116322   2.081   1.640   3.346  0.9208  0.7666  0.7849
 1620SOL    HW216323   2.101   1.712   3.220 -1.2574  1.3188 -0.8190
 1621SOL     OW16324   2.610   2.899   1.894 -0.5328 -0.0046  0.0300
 1621SOL    HW116325   2.674   2.835   1.924 -1.7685 -1.9106 -1.4076
 1621SOL    HW216326   2.643   2.984   1.922  2.0991 -0.7227 -0.9308
 1622SOL     OW16327   4.336   0.638  14.772 -0.4733 -0.6087 -0.1155
 1622SOL    HW116328   4.306   0.642  14.863  1.1227  0.1992  0.3785
 1622SOL    HW216329   4.248   0.656  14.737 -1.4373  2.1689  3.7043
 1623SOL     OW16330   0.420   1.627   0.733  0.6308 -0.0744  0.4835
 1623SOL    HW116331   0.349   1.570   0.706 -0.3040  0.7432  1.2343
 1623SOL    HW216332   0.438   1.582   0.816  2.2313 -0.3215  0.0081
 1624SOL     OW16333   3.769   0.853  16.703  0.2093 -0.4660 -0.3348
 1624SOL    HW116334   3.784   0.833  16.611  1.2949 -1.3438  0.0347
 1624SOL    HW216335   3.853   0.836  16.745  0.4604  1.3270 -0.1164
 1625SOL     OW16336   0.341   1.227  11.363  0.2358  0.6659  0.1404
 1625SOL    HW116337   0.406   1.289  11.397 -1.1876  1.8359  0.7107
 1625SOL    HW216338   0.259   1.230  11.412  0.5559  1.5856  0.6253
 1626SOL     OW16339   3.109   3.505   2.450  0.1530 -0.4626 -0.5983
 1626SOL    HW116340   3.114   3.594   2.486 -0.8085 -0.6633  0.0211
 1626SOL    HW216341   3.083   3.527   2.361 -2.3699  1.6108  0.6455
 1627SOL     OW16342   0.201   3.818   1.790  0.0911 -0.9274 -0.1463
 1627SOL    HW116343   0.145   3.758   1.741  1.4716 -1.7386 -0.7109
 1627SOL    HW216344   0.229   3.762   1.862 -0.0457 -1.8221 -0.7933
 1628SOL     OW16345   3.073   0.549  12.567  0.0956  0.0414  0.4781
 1628SOL    HW116346   2.985   0.568  12.535 -0.8321 -3.9065  0.7254
 1628SOL    HW216347   3.123   0.510  12.495  0.5090 -0.0374  0.8041
 1629SOL     OW16348   3.856   1.028   8.286  0.9284 -0.7010 -0.2171
 1629SOL    HW116349   3.787   0.976   8.326 -0.1060 -0.8986 -2.2235
 1629SOL    HW216350   3.929   0.966   8.289  1.8773  0.5358  1.8405
 1630SOL     OW16351   3.455   3.093   3.073 -0.2448 -0.0842  0.2923
 1630SOL    HW116352   3.509   3.173   3.079 -1.7564  1.0265 -0.9597
 1630SOL    HW216353   3.399   3.102   2.996 -1.6967 -3.5846  0.9743
 1631SOL     OW16354   1.021   2.599   1.480  0.2858 -0.0621  0.1633
 1631SOL    HW116355   1.091   2.535   1.491 -0.2594 -0.5558  0.7613
 1631SOL    HW216356   1.022   2.637   1.568  0.3155  1.1582 -0.3719
 1632SOL     OW16357   2.995   4.635  10.661 -1.1625  0.0193 -0.4258
 1632SOL    HW116358   3.087   4.658  10.661 -0.8545 -1.1836  0.4995
 1632SOL    HW216359   2.993   4.543  10.634  1.9607  0.0961 -0.8615
 1633SOL     OW16360   1.139   1.313   8.257 -0.0066 -0.5672  0.2006
 1633SOL    HW116361   1.231   1.334   8.237 -0.6344  3.1921  1.2056
 1633SOL    HW216362   1.099   1.391   8.220 -0.8752 -0.6478  0.9902
 1634SOL     OW16363   3.189   0.730   2.436  0.7843 -0.0278 -0.0965
 1634SOL    HW116364   3.179   0.740   2.341  0.3547  1.3266  0.1011
 1634SOL    HW216365   3.137   0.650   2.446 -0.2505  0.5712 -0.7045
 1635SOL     OW16366   3.153   4.461   0.880 -0.1318  0.0528 -0.0941
 1635SOL    HW116367   3.193   4.428   0.960 -1.7121 -0.2293  0.5669
 1635SOL    HW216368   3.166   4.556   0.887  0.4995 -0.0372  0.0123
 1636SOL     OW16369   1.362   1.402   7.957  0.5222  0.1133  0.1137
 1636SOL    HW116370   1.279   1.353   7.958  0.5509  0.0557 -0.3765
 1636SOL    HW216371   1.323   1.486   7.932  0.4971 -0.1576 -0.7331
 1637SOL     OW16372   3.751   4.648  17.086 -0.4812 -0.2813 -0.3051
 1637SOL    HW116373   3.717   4.565  17.119  1.0149 -1.2486 -1.2175
 1637SOL    HW216374   3.672   4.692  17.054  1.0170  2.2488 -0.4921
 1638SOL     OW16375   3.532   3.449   8.876 -0.4185 -0.5633  0.3719
 1638SOL    HW116376   3.587   3.439   8.953  1.8541  2.3440 -0.8506
 1638SOL    HW216377   3.479   3.527   8.895  1.1208  0.5682  0.0409
 1639SOL     OW16378   2.091   1.981   2.519 -0.0979 -0.3039 -0.0242
 1639SOL    HW116379   2.186   1.969   2.520  0.0570  0.9907  1.2886
 1639SOL    HW216380   2.062   1.897   2.485 -0.1590 -1.2801  2.4210
 1640SOL     OW16381   3.041   4.025   7.123 -0.1238 -0.1279 -0.5541
 1640SOL    HW116382   3.002   3.940   7.146  0.3452 -0.3682 -0.6404
 1640SOL    HW216383   3.085   4.004   7.041  1.3160  0.2494  0.1249
 1641SOL     OW16384   1.771   1.993  16.747 -0.4150  0.4221  0.3149
 1641SOL    HW116385   1.859   2.021  16.769 -0.3271  0.2889  0.1340
 1641SOL    HW216386   1.723   2.076  16.742  1.1814  1.3333  0.2604
 1642SOL     OW16387   4.462   3.323   9.579  0.0136  0.4485  0.1003
 1642SOL    HW116388   4.413   3.287   9.505  0.4386  1.8747 -0.8560
 1642SOL    HW216389   4.401   3.390   9.609  1.2451  2.1889 -1.3096
 1643SOL     OW16390   0.751   0.818  12.236 -0.4830 -0.7066 -0.3802
 1643SOL    HW116391   0.814   0.856  12.174 -1.0681  0.7683 -0.0526
 1643SOL    HW216392   0.814   0.772  12.291 -0.8449 -0.6604  0.0733
 1644SOL     OW16393   3.183   1.260  10.347 -0.0043  0.0157 -0.4722
 1644SOL    HW116394   3.209   1.172  10.375  2.2154  0.9299  0.3256
 1644SOL    HW216395   3.097   1.248  10.307  0.4689 -0.9137 -1.2236
 1645SOL     OW16396   3.248   3.570   5.114 -0.3073  0.0293 -0.4859
 1645SOL    HW116397   3.286   3.488   5.081  2.7567  1.0023  0.5982
 1645SOL    HW216398   3.209   3.607   5.036  0.4871 -0.8869 -1.3248
 1646SOL     OW16399   0.091   4.434   9.621 -0.8961  0.9160 -0.0440
 1646SOL    HW116400   0.165   4.373   9.617 -0.6621  1.1076  1.2483
 1646SOL    HW216401   0.126   4.507   9.570  1.7033  0.1222  0.5714
 1647SOL     OW16402   0.094   1.431   8.774 -0.2720 -0.8297 -0.2668
 1647SOL    HW116403   0.044   1.512   8.763  3.7695  1.8622  1.1509
 1647SOL    HW216404   0.124   1.406   8.687  1.1380 -0.9997  0.2789
 1648SOL     OW16405   1.066   0.785   0.821  0.7032  0.2779  0.0897
 1648SOL    HW116406   1.081   0.711   0.880 -1.5520 -0.5109 -0.3385
 1648SOL    HW216407   1.100   0.744   0.742  1.6171  0.9210  0.1537
 1649SOL     OW16408   1.223   0.335   7.199 -0.3322  0.3802 -0.1952
 1649SOL    HW116409   1.295   0.272   7.195 -1.6061 -0.8405 -3.4443
 1649SOL    HW216410   1.177   0.294   7.126 -0.7976  1.3758 -0.4668
 1650SOL     OW16411   3.756   1.455  17.667 -0.3471 -0.1998  0.0322
 1650SOL    HW116412   3.765   1.363  17.642  1.3359  0.4162 -1.6230
 1650SOL    HW216413   3.734   1.487  17.579 -0.3857 -2.8645 -0.9449
 1651SOL     OW16414   3.484   3.659   4.217 -0.0142  0.5521 -0.1505
 1651SOL    HW116415   3.483   3.653   4.312  1.4145 -1.2923 -0.2572
 1651SOL    HW216416   3.527   3.744   4.210  0.0024  0.3785 -2.2874
 1652SOL     OW16417   1.029   2.860   6.961 -0.1359 -0.5704 -0.2420
 1652SOL    HW116418   0.989   2.800   6.898  1.0463 -1.3231 -0.2843
 1652SOL    HW216419   1.101   2.813   7.004 -0.7592 -0.2059  1.1829
 1653SOL     OW16420   0.068   2.005  16.265 -0.6921  0.3268 -0.5923
 1653SOL    HW116421   0.078   2.097  16.290 -0.1334  0.1195 -0.0269
 1653SOL    HW216422   4.716   1.978  16.320  0.9247 -3.4474 -0.2302
 1654SOL     OW16423   3.115   1.793   1.478  0.3643 -0.1827 -0.0885
 1654SOL    HW116424   3.104   1.809   1.572  1.8314  0.8553 -0.0906
 1654SOL    HW216425   3.091   1.701   1.467  0.0456  0.1095 -1.8283
 1655SOL     OW16426   0.485   2.005   5.200 -0.3559  0.2424  0.3174
 1655SOL    HW116427   0.548   1.937   5.175 -1.2008  0.2204 -1.6931
 1655SOL    HW216428   0.514   2.074   5.140  1.5585 -1.3131 -0.5468
 1656SOL     OW16429   0.100   4.165   7.740  0.1952  0.0814  0.1282
 1656SOL    HW116430   0.194   4.186   7.743  0.0262  0.8171  0.2743
 1656SOL    HW216431   0.071   4.183   7.830  0.6272  2.8516 -0.2654
 1657SOL     OW16432   0.636   3.741  12.014 -0.5581 -0.4681  0.4643
 1657SOL    HW116433   0.600   3.685  11.945  0.2837 -0.9919  0.4546
 1657SOL    HW216434   0.722   3.755  11.974 -0.7833 -2.6920 -0.8357
 1658SOL     OW16435   2.821   1.108   0.494  0.1257  0.0512 -0.0889
 1658SOL    HW116436   2.821   1.104   0.399  1.1328  2.4095 -0.1639
 1658SOL    HW216437   2.861   1.022   0.508 -1.5200 -0.3471  2.2713
 1659SOL     OW16438   0.035   2.444   5.575  0.2269  0.1050  0.3132
 1659SOL    HW116439   0.060   2.455   5.667  2.9105  0.2479 -0.4433
 1659SOL    HW216440   0.003   2.533   5.559 -0.3674 -0.3548 -1.0270
 1660SOL     OW16441   2.548   4.149   4.464 -0.6567 -0.0021 -0.3794
 1660SOL    HW116442   2.510   4.219   4.410  1.9996 -0.2457 -2.5438
 1660SOL    HW216443   2.567   4.074   4.408  3.2127  0.3053  0.5716
 1661SOL     OW16444   3.481   1.158  12.146 -0.1770  0.5335 -0.8367
 1661SOL    HW116445   3.534   1.148  12.067  1.8257 -0.1956  0.6063
 1661SOL    HW216446   3.389   1.155  12.117 -0.0290  0.2906 -1.2854
 1662SOL     OW16447   4.506   1.865   1.866 -0.3519  0.0862  0.2818
 1662SOL    HW116448   4.560   1.939   1.894  0.9262  0.0813 -2.1165
 1662SOL    HW216449   4.469   1.900   1.785  1.6569  0.5495 -0.4447
 1663SOL     OW16450   2.883   4.231   2.701 -0.4913  0.2168  0.3913
 1663SOL    HW116451   2.793   4.219   2.671  0.5519 -1.0545 -2.1838
 1663SOL    HW216452   2.893   4.325   2.714  1.2268  0.0995 -0.0203
 1664SOL     OW16453   3.865   4.449   2.910  0.4296  0.6242  0.1707
 1664SOL    HW116454   3.778   4.475   2.938  0.4219  0.6802  0.0938
 1664SOL    HW216455   3.879   4.489   2.824  2.6948  1.6908  1.0227
 1665SOL     OW16456   4.220   2.061   8.562  0.1052  0.4881 -0.2162
 1665SOL    HW116457   4.233   2.084   8.469  0.9247 -0.7384 -0.4049
 1665SOL    HW216458   4.125   2.055   8.562  0.3126 -2.7311 -0.6355
 1666SOL     OW16459   1.808   0.481  14.408 -0.0180 -0.1351  0.0041
 1666SOL    HW116460   1.774   0.397  14.376  0.0035 -0.1480  0.0146
 1666SOL    HW216461   1.752   0.537  14.355  0.2648 -0.6348 -0.8242
 1667SOL     OW16462   2.344   0.791   7.424 -0.2891 -0.5718 -0.1867
 1667SOL    HW116463   2.365   0.843   7.501  0.1815 -1.4778  0.2971
 1667SOL    HW216464   2.309   0.713   7.466  0.6083 -0.7301  0.2778
 1668SOL     OW16465   2.900   0.076   5.153  0.1181  0.3494  0.2007
 1668SOL    HW116466   2.828   0.016   5.173  1.4726 -0.5949  2.2265
 1668SOL    HW216467   2.909   0.060   5.059 -0.2068 -1.7579  0.5324
 1669SOL     OW16468   3.708   0.709   6.098 -0.0336  0.2343  0.0401
 1669SOL    HW116469   3.678   0.736   6.185 -1.0618  2.0398 -0.8797
 1669SOL    HW216470   3.782   0.656   6.128  1.1454  1.1323 -1.2868
 1670SOL     OW16471   4.608   2.370   1.739  0.1881  0.0789  0.4174
 1670SOL    HW116472   4.515   2.381   1.758 -0.0455 -4.5257  1.7899
 1670SOL    HW216473   4.646   2.392   1.824 -1.1029 -2.5617  1.6412
 1671SOL     OW16474   4.274   4.718   7.005  0.4274 -0.0633 -0.3249
 1671SOL    HW116475   4.271   4.644   6.945  0.3434 -0.8121  0.6102
 1671SOL    HW216476   4.232   0.070   6.960 -0.1458 -1.0611 -1.4132
 1672SOL     OW16477   2.603   1.115   7.507 -0.2591  0.2741 -0.0872
 1672SOL    HW116478   2.600   1.206   7.477 -0.6288  0.2333 -0.1702
 1672SOL    HW216479   2.689   1.107   7.549 -0.7670  0.0178  0.8960
 1673SOL     OW16480   4.695   3.784   3.467  0.1056 -0.2729 -0.6827
 1673SOL    HW116481   0.040   3.770   3.400  0.4431 -1.5319 -0.0787
 1673SOL    HW216482   0.030   3.792   3.543 -2.3278  0.3879  1.0830
 1674SOL     OW16483   1.123   0.658   6.307 -0.1323 -0.2242  0.5804
 1674SOL    HW116484   1.194   0.633   6.366 -2.2996 -0.5294  3.0636
 1674SOL    HW216485   1.154   0.748   6.299  1.4493 -0.8047  0.0773
 1675SOL     OW16486   2.075   2.405  11.969  0.1547  0.8968 -0.0190
 1675SOL    HW116487   2.082   2.327  11.914  1.2579  1.5111 -0.7334
 1675SOL    HW216488   1.987   2.384  12.002  0.7146 -0.4853  0.5840
 1676SOL     OW16489   1.909   2.430   4.971 -1.0610  0.1286 -0.0768
 1676SOL    HW116490   1.978   2.449   4.907 -1.3379 -0.2822 -0.4960
 1676SOL    HW216491   1.934   2.467   5.056 -2.5931 -0.8133  0.7803
 1677SOL     OW16492   4.669   4.334   4.021 -0.0571  0.4159 -0.1163
 1677SOL    HW116493   0.035   4.372   4.019  0.6198 -1.1136 -0.1450
 1677SOL    HW216494   4.648   4.356   4.112 -1.2431 -0.2086 -0.2379
 1678SOL     OW16495   0.768   3.823  10.103  1.0740  0.4286  0.5984
 1678SOL    HW116496   0.817   3.744  10.079 -0.7708 -0.4987 -0.1407
 1678SOL    HW216497   0.728   3.858  10.024  0.8558  1.3194  1.1056
 1679SOL     OW16498   1.560   1.171  11.734  0.7954 -0.3909  0.0313
 1679SOL    HW116499   1.617   1.212  11.799 -1.1321  1.9240  0.2785
 1679SOL    HW216500   1.518   1.100  11.783  0.6905  0.4131  1.1322
 1680SOL     OW16501   3.674   0.737  12.818  0.4771  0.4290  0.2275
 1680SOL    HW116502   3.673   0.666  12.753 -1.4258 -1.4545  2.2877
 1680SOL    HW216503   3.731   0.801  12.776  1.2722 -0.8262 -0.5873
 1681SOL     OW16504   1.666   3.551   2.081  0.6198 -0.0511 -0.0719
 1681SOL    HW116505   1.760   3.533   2.079  0.6778  0.0774  1.3547
 1681SOL    HW216506   1.645   3.631   2.032 -0.9219 -0.9580 -0.8879
 1682SOL     OW16507   3.034   0.293   7.852 -0.2890  0.8293 -0.0533
 1682SOL    HW116508   2.955   0.299   7.798 -1.3928 -1.1882  1.3230
 1682SOL    HW216509   3.095   0.335   7.791  0.0812  1.2769  0.6201
 1683SOL     OW16510   0.172   0.683  13.780  0.4781 -0.1969  0.2053
 1683SOL    HW116511   0.217   0.655  13.701  0.0135  1.5079 -0.6453
 1683SOL    HW216512   0.117   0.753  13.746  1.9791  0.4550 -0.8659
 1684SOL     OW16513   0.560   2.985   3.898  0.0579  0.2203  0.0407
 1684SOL    HW116514   0.465   2.983   3.909 -0.0363  0.3883 -0.7369
 1684SOL    HW216515   0.562   2.994   3.803 -0.9772 -0.9506 -0.0908
 1685SOL     OW16516   4.216   3.111   8.244  0.0749 -0.0022 -0.1720
 1685SOL    HW116517   4.258   3.052   8.181 -0.2361 -0.1687 -0.2255
 1685SOL    HW216518   4.211   3.190   8.190  2.6297 -0.6939 -1.4073
 1686SOL     OW16519   3.794   3.124   3.045  0.0247 -0.7443 -0.3704
 1686SOL    HW116520   3.878   3.142   3.087 -0.6218 -1.8082  1.3411
 1686SOL    HW216521   3.747   3.206   3.058 -1.8285 -2.4040  3.4095
 1687SOL     OW16522   3.995   0.837   5.657  0.0211  0.3172 -0.6309
 1687SOL    HW116523   3.960   0.825   5.746  1.9859  1.0544  0.2534
 1687SOL    HW216524   4.089   0.850   5.670  0.1765 -1.9330  0.6037
 1688SOL     OW16525   1.649   1.664   9.020  0.0198  0.6886  0.5182
 1688SOL    HW116526   1.566   1.691   8.983  0.8705 -0.6824 -2.4276
 1688SOL    HW216527   1.702   1.681   8.942  0.5894 -0.5968  0.6132
 1689SOL     OW16528   1.969   3.359   5.829  0.3267  0.0930  0.4045
 1689SOL    HW116529   2.045   3.325   5.783  1.1634 -0.0119  1.8747
 1689SOL    HW216530   1.906   3.393   5.765  0.8962 -1.1180 -0.8054
 1690SOL     OW16531   4.238   4.520  12.957 -0.6044 -0.1444  0.7991
 1690SOL    HW116532   4.291   4.588  12.917 -1.4917 -0.9546 -1.7470
 1690SOL    HW216533   4.159   4.536  12.906 -1.1985 -1.2948  1.3415
 1691SOL     OW16534   3.178   2.285   2.528 -0.5468  0.0504 -0.5385
 1691SOL    HW116535   3.166   2.377   2.550 -1.3527 -0.6912  2.0830
 1691SOL    HW216536   3.271   2.290   2.505 -0.6688 -0.7977 -1.2471
 1692SOL     OW16537   0.609   0.656   6.317 -0.2567  0.0944 -0.1619
 1692SOL    HW116538   0.556   0.577   6.323  0.7831 -0.6977 -1.3745
 1692SOL    HW216539   0.576   0.713   6.248  0.9182  0.8939 -0.0613
 1693SOL     OW16540   0.546   2.596   3.643  0.5270  0.3637 -0.9123
 1693SOL    HW116541   0.546   2.502   3.659  0.2186  0.2845 -1.3935
 1693SOL    HW216542   0.454   2.622   3.644  0.7679  1.2122 -0.5454
 1694SOL     OW16543   1.509   2.028  15.494  0.0182  0.7680 -0.2017
 1694SOL    HW116544   1.455   2.009  15.571  0.7716  0.8065  0.3413
 1694SOL    HW216545   1.507   2.124  15.491  1.1104  0.8446  1.5140
 1695SOL     OW16546   1.320   4.673   4.128  0.7712  0.6989 -0.0357
 1695SOL    HW116547   1.338   4.689   4.035  0.7676  2.4779  0.2629
 1695SOL    HW216548   1.366   4.590   4.140  0.7997  0.3794 -2.3342
 1696SOL     OW16549   0.764   1.695   8.956  0.4428  0.2336  0.3907
 1696SOL    HW116550   0.693   1.709   8.893  1.1184 -1.5734 -0.7805
 1696SOL    HW216551   0.754   1.601   8.967  0.4941  0.5101  2.7706
 1697SOL     OW16552   1.496   1.053   4.886  0.3129  0.2022 -0.0020
 1697SOL    HW116553   1.427   1.004   4.931  0.3072  1.7631  1.7212
 1697SOL    HW216554   1.541   1.087   4.964 -0.4096 -1.6996  1.2684
 1698SOL     OW16555   2.220   4.184   3.954  0.5414  0.1182  0.1568
 1698SOL    HW116556   2.190   4.093   3.945 -1.0131  0.9337 -2.7258
 1698SOL    HW216557   2.177   4.223   3.879 -0.5319 -0.5874  0.4068
 1699SOL     OW16558   2.327   2.827   6.371  0.0761  0.4206  0.4562
 1699SOL    HW116559   2.328   2.918   6.403  0.2532  0.9103 -0.9662
 1699SOL    HW216560   2.239   2.800   6.397 -0.3950  0.2292 -1.3667
 1700SOL     OW16561   4.007   2.429   6.141  0.8014  0.4873  0.1744
 1700SOL    HW116562   4.097   2.399   6.135  1.0000  0.9829  0.7141
 1700SOL    HW216563   4.010   2.485   6.218  3.2869  0.6573 -0.0437
 1701SOL     OW16564   3.209   0.637   5.025 -0.3958 -0.4549 -0.2170
 1701SOL    HW116565   3.275   0.602   4.965 -1.6751 -1.8529 -0.8152
 1701SOL    HW216566   3.195   0.556   5.075 -2.1631  0.2823  0.4724
 1702SOL     OW16567   2.988   1.384   2.773 -0.2584  0.1967 -0.6302
 1702SOL    HW116568   2.996   1.379   2.678  1.0232 -1.7088 -0.4309
 1702SOL    HW216569   2.951   1.471   2.789 -0.1502 -0.2360  2.0048
 1703SOL     OW16570   4.031   1.956   5.698  0.2556 -0.9933  0.4323
 1703SOL    HW116571   4.087   1.920   5.630 -1.2100 -0.3509 -1.1250
 1703SOL    HW216572   3.944   1.916   5.690  0.0818 -0.6943  0.7857
 1704SOL     OW16573   1.874   0.718   7.342 -0.6107 -0.5438 -0.3026
 1704SOL    HW116574   1.895   0.686   7.430  0.4339  1.1323  0.0600
 1704SOL    HW216575   1.833   0.801   7.368 -1.3747 -0.7813 -0.7846
 1705SOL     OW16576   4.346   3.050   5.023  0.5715 -0.2534 -0.0487
 1705SOL    HW116577   4.410   3.062   4.953 -2.4396  1.2405 -2.5686
 1705SOL    HW216578   4.287   3.121   4.996 -0.2551 -0.0333  2.3417
 1706SOL     OW16579   2.685   3.944   4.274 -0.6296  0.0858 -0.4502
 1706SOL    HW116580   2.707   4.037   4.263 -2.0198  0.4768  0.1354
 1706SOL    HW216581   2.772   3.904   4.281 -1.8303 -1.9396  2.9141
 1707SOL     OW16582   4.048   3.958   4.825  0.1671  0.3667  0.6395
 1707SOL    HW116583   4.059   3.975   4.919 -3.3389 -2.1954  1.4935
 1707SOL    HW216584   3.953   3.968   4.826  0.2199  0.9859 -0.3383
 1708SOL     OW16585   0.297   1.880  15.129  0.0092  0.1401 -0.7052
 1708SOL    HW116586   0.223   1.869  15.189 -0.7174 -3.1449 -2.2106
 1708SOL    HW216587   0.289   1.975  15.126  0.2422  0.2074  0.7425
 1709SOL     OW16588   4.303   2.547  11.587 -0.2091 -0.1388  0.1806
 1709SOL    HW116589   4.330   2.582  11.672  1.1696 -1.2071  0.1865
 1709SOL    HW216590   4.212   2.576  11.591 -0.0223  0.4475  0.1386
 1710SOL     OW16591   1.764   0.223   5.668  0.6173 -0.3684 -0.1581
 1710SOL    HW116592   1.847   0.176   5.666 -0.8677 -2.9285 -1.8716
 1710SOL    HW216593   1.740   0.230   5.760  0.6688  0.0997 -0.1795
 1711SOL     OW16594   3.294   0.925   2.108 -0.7931  0.7847 -0.1446
 1711SOL    HW116595   3.243   0.963   2.037 -1.0114 -4.1640 -2.5595
 1711SOL    HW216596   3.232   0.858   2.136 -0.2420  0.4190  0.1977
 1712SOL     OW16597   2.338   2.983   0.989  0.3961 -0.1524  0.0125
 1712SOL    HW116598   2.289   2.901   0.992  2.3849 -1.2841  1.2406
 1712SOL    HW216599   2.404   2.956   0.925  0.0740  0.9182 -0.7787
 1713SOL     OW16600   0.043   0.364  16.141  0.1903 -0.1221  0.1018
 1713SOL    HW116601   0.043   0.355  16.046 -1.8813  1.5878 -0.0900
 1713SOL    HW216602   4.676   0.398  16.153  0.2918  0.4429 -0.7287
 1714SOL     OW16603   3.291   3.310   2.518 -0.0436 -0.3227 -0.2953
 1714SOL    HW116604   3.238   3.239   2.482 -0.3835  0.2575 -0.9546
 1714SOL    HW216605   3.240   3.385   2.489  2.7432  1.2676 -1.0616
 1715SOL     OW16606   2.158   2.575  12.216  0.5180 -0.2548 -0.1579
 1715SOL    HW116607   2.069   2.592  12.187 -0.2554 -0.7698  1.9247
 1715SOL    HW216608   2.152   2.481  12.235 -1.4014 -0.4006 -1.4404
 1716SOL     OW16609   1.550   1.997   1.942 -0.4956  0.3321  0.2557
 1716SOL    HW116610   1.480   2.055   1.974  0.6637  1.7164  0.2839
 1716SOL    HW216611   1.607   2.073   1.953  0.5504 -0.4583  0.3022
 1717SOL     OW16612   3.783   0.764   5.486  0.0610  0.1479  0.2732
 1717SOL    HW116613   3.842   0.804   5.549  1.3028 -1.7836  0.3221
 1717SOL    HW216614   3.787   0.839   5.426 -1.7969  0.7890  0.9169
 1718SOL     OW16615   2.964   1.788   4.918 -0.1126 -0.5538  0.0831
 1718SOL    HW116616   2.928   1.715   4.868  0.7926 -0.6968 -0.3516
 1718SOL    HW216617   3.059   1.773   4.914  0.1076  0.4718  1.4216
 1719SOL     OW16618   1.740   1.296   5.995 -0.0327  0.1175  0.4605
 1719SOL    HW116619   1.727   1.334   6.082  1.1294  0.0622  0.6574
 1719SOL    HW216620   1.672   1.229   5.990  0.0353  0.0848 -0.0711
 1720SOL     OW16621   2.161   4.426   8.083 -0.1307  0.1642  0.2224
 1720SOL    HW116622   2.136   4.486   8.153 -0.6627 -1.8872  1.7528
 1720SOL    HW216623   2.197   4.354   8.134 -0.3981 -0.0176  0.1549
 1721SOL     OW16624   3.287   0.828   3.545 -0.6666 -0.4056  0.6094
 1721SOL    HW116625   3.320   0.914   3.570 -0.1595  0.0031 -1.4970
 1721SOL    HW216626   3.222   0.816   3.614  1.5028 -1.3929  2.4934
 1722SOL     OW16627   2.189   2.253   7.027  0.2394  0.1289  0.2213
 1722SOL    HW116628   2.187   2.171   7.077  1.6498 -0.1107 -0.1187
 1722SOL    HW216629   2.272   2.284   7.062  0.3287 -0.5222  0.5955
 1723SOL     OW16630   0.202   2.578  15.280  0.3100  0.0100 -0.0831
 1723SOL    HW116631   0.140   2.562  15.350 -2.2190  3.7058 -1.4664
 1723SOL    HW216632   0.173   2.662  15.243  2.8600  0.0134 -2.1599
 1724SOL     OW16633   2.366   0.235   2.816  0.6431  0.1865 -0.0947
 1724SOL    HW116634   2.287   0.207   2.770 -0.1128  0.1420  1.2261
 1724SOL    HW216635   2.381   0.155   2.867 -2.4825 -1.0182 -1.0507
 1725SOL     OW16636   1.055   0.311   1.855  0.5403  0.2981 -0.0835
 1725SOL    HW116637   1.103   0.228   1.859  0.1348  0.1416  1.5922
 1725SOL    HW216638   0.970   0.289   1.816  1.5982 -0.7221 -1.8002
 1726SOL     OW16639   1.609   2.284   0.940 -0.2242 -0.2224  0.4069
 1726SOL    HW116640   1.519   2.315   0.951  0.0764  0.8869 -0.2643
 1726SOL    HW216641   1.599   2.203   0.991 -0.0281  0.6394  1.8218
 1727SOL     OW16642   2.745   2.685   4.919 -0.5836  0.1059 -0.0205
 1727SOL    HW116643   2.661   2.731   4.924 -1.0092 -0.7364  0.4666
 1727SOL    HW216644   2.789   2.736   4.851  0.7311  0.2383  0.9189
 1728SOL     OW16645   4.591   3.973   7.230 -0.1663 -0.2288 -0.2568
 1728SOL    HW116646   4.553   4.003   7.148  1.1068  1.3599 -0.2709
 1728SOL    HW216647   4.685   3.992   7.226 -0.1720 -0.0728  0.3554
 1729SOL     OW16648   4.379   1.953  16.147 -0.1861  0.3225 -0.7154
 1729SOL    HW116649   4.339   1.892  16.209 -1.7988  0.2789 -1.8153
 1729SOL    HW216650   4.368   2.044  16.175  0.0386  0.1693 -0.1357
 1730SOL     OW16651   3.422   1.587   1.938  0.3361  0.3122 -0.2466
 1730SOL    HW116652   3.353   1.540   1.892  0.7266  0.4574 -0.9840
 1730SOL    HW216653   3.361   1.622   2.002 -1.1716  0.1289 -1.5869
 1731SOL     OW16654   4.443   4.685   0.638  0.7421  0.3896 -0.0451
 1731SOL    HW116655   4.528   0.007   0.634  1.4126 -0.9162 -0.3962
 1731SOL    HW216656   4.422   4.692   0.731  1.1606  1.3885 -0.0296
 1732SOL     OW16657   0.305   3.916   2.867 -1.1324  0.3468 -0.3424
 1732SOL    HW116658   0.320   3.831   2.825 -0.6505  0.3126 -0.1018
 1732SOL    HW216659   0.219   3.942   2.836  0.1911  0.4384 -3.9184
 1733SOL     OW16660   4.261   1.491   2.669 -0.4657  0.5212  0.5991
 1733SOL    HW116661   4.204   1.507   2.594  0.1034 -2.2455 -0.4168
 1733SOL    HW216662   4.344   1.505   2.624 -0.0813  1.2328  1.5082
 1734SOL     OW16663   4.159   3.433   5.147  0.1412  0.3891  0.0514
 1734SOL    HW116664   4.217   3.509   5.143 -0.1595  0.5181 -1.7924
 1734SOL    HW216665   4.195   3.376   5.078  2.0981 -1.0683  2.2776
 1735SOL     OW16666   3.552   0.807   0.441  0.2516  0.1365 -0.2049
 1735SOL    HW116667   3.463   0.839   0.425  0.3348 -0.2294 -1.4254
 1735SOL    HW216668   3.565   0.852   0.524 -3.0151  2.0262 -0.7379
 1736SOL     OW16669   1.889   4.023   2.903  0.2528 -0.0963 -0.0639
 1736SOL    HW116670   1.977   4.045   2.872  0.0791 -1.0498 -1.2863
 1736SOL    HW216671   1.872   3.931   2.880  1.1613 -0.5505  1.0726
 1737SOL     OW16672   4.078   1.602   8.244  0.1451  0.0606  0.1275
 1737SOL    HW116673   4.093   1.659   8.320  1.5173 -0.6489  0.3825
 1737SOL    HW216674   4.083   1.664   8.171 -0.9095  2.2917  1.9461
 1738SOL     OW16675   2.309   2.098   5.905 -0.5659 -0.3601 -0.2583
 1738SOL    HW116676   2.300   2.133   5.994  0.7846  1.5512 -0.8873
 1738SOL    HW216677   2.268   2.012   5.913 -0.2787 -0.3428  1.4578
 1739SOL     OW16678   1.235   1.490  16.297 -0.6186  0.4632 -0.7512
 1739SOL    HW116679   1.264   1.579  16.280  0.6220  0.5121  1.6967
 1739SOL    HW216680   1.262   1.447  16.215  0.2228 -0.0744 -0.1895
 1740SOL     OW16681   3.957   4.322   5.168  0.2843 -0.3373  0.2358
 1740SOL    HW116682   4.027   4.383   5.192  1.8694 -2.0239 -0.0936
 1740SOL    HW216683   4.003   4.241   5.145  1.7203 -0.0736  2.2202
 1741SOL     OW16684   0.880   3.266   4.640  0.6348  0.2105  0.8172
 1741SOL    HW116685   0.839   3.324   4.576  1.1886 -0.0050  0.2782
 1741SOL    HW216686   0.952   3.232   4.588  1.1769  2.4547  0.1172
 1742SOL     OW16687   3.504   3.741  10.045 -0.0156  0.2844  0.7917
 1742SOL    HW116688   3.474   3.752  10.135 -0.2446 -1.8370  0.9582
 1742SOL    HW216689   3.450   3.669  10.014  1.1205 -0.2619  0.0924
 1743SOL     OW16690   3.443   3.296   7.322 -0.8950 -0.1422 -0.2101
 1743SOL    HW116691   3.369   3.253   7.279 -1.1355 -0.6274  0.7004
 1743SOL    HW216692   3.445   3.261   7.411  1.0428  1.7838  0.5133
 1744SOL     OW16693   3.273   1.900   3.761 -0.1947 -0.1285  0.2128
 1744SOL    HW116694   3.200   1.949   3.799  0.6805  1.6424 -0.3693
 1744SOL    HW216695   3.316   1.969   3.710 -0.3279  0.8790  1.4733
 1745SOL     OW16696   3.642   3.564  14.585 -0.6300 -0.2026 -0.1215
 1745SOL    HW116697   3.599   3.645  14.557  0.1096  0.9619  2.1092
 1745SOL    HW216698   3.685   3.596  14.664 -0.2645  1.5027 -1.0144
 1746SOL     OW16699   3.594   3.098  10.319 -0.2077  0.2232  0.1204
 1746SOL    HW116700   3.509   3.140  10.309  0.5291  1.8087  0.3379
 1746SOL    HW216701   3.586   3.061  10.407  0.6706  1.5110  0.7452
 1747SOL     OW16702   2.150   1.552   8.527  0.1237 -0.1259 -0.7345
 1747SOL    HW116703   2.180   1.590   8.445  0.5210  2.1403  0.4440
 1747SOL    HW216704   2.230   1.517   8.565  0.5966  1.4632 -0.2534
 1748SOL     OW16705   2.514   1.686   4.428 -0.1802 -1.3854  0.0723
 1748SOL    HW116706   2.456   1.664   4.501 -1.4967 -1.6082 -1.0241
 1748SOL    HW216707   2.600   1.664   4.462  0.5912  1.2418 -0.2153
 1749SOL     OW16708   4.361   4.156   0.897 -0.0996 -0.6990  0.2608
 1749SOL    HW116709   4.400   4.176   0.812  1.6839  2.1752  1.7504
 1749SOL    HW216710   4.323   4.071   0.876 -1.4099  0.6451 -2.8305
 1750SOL     OW16711   3.688   2.430  14.102  0.0810 -0.2824  0.8033
 1750SOL    HW116712   3.671   2.444  14.195  1.6437  1.1359  0.8856
 1750SOL    HW216713   3.605   2.441  14.055  0.9379  1.1122 -0.3718
 1751SOL     OW16714   2.619   4.042  11.380 -0.1450  0.2361 -0.0926
 1751SOL    HW116715   2.613   3.987  11.302  0.5803 -2.9182  2.0812
 1751SOL    HW216716   2.714   4.056  11.380  0.3403 -3.1596 -0.2422
 1752SOL     OW16717   4.648   1.317   3.208  0.4110 -0.4593  0.1691
 1752SOL    HW116718   4.588   1.281   3.143  0.0835  1.1388 -0.4192
 1752SOL    HW216719   0.010   1.325   3.163 -0.5911 -2.0318 -1.9999
 1753SOL     OW16720   1.446   1.729   7.913  0.3280  0.7076 -0.5256
 1753SOL    HW116721   1.357   1.763   7.908 -0.4786 -1.3612 -0.0051
 1753SOL    HW216722   1.465   1.731   7.819  1.6617  0.2038 -0.2648
 1754SOL     OW16723   4.561   0.278   4.837  0.4161 -0.1499 -0.5608
 1754SOL    HW116724   4.550   0.342   4.768 -1.5815  0.8184  0.6594
 1754SOL    HW216725   4.576   0.330   4.917  0.1549  0.0767 -0.6593
 1755SOL     OW16726   1.435   4.559   6.527 -0.1289 -0.0319 -0.2724
 1755SOL    HW116727   1.344   4.545   6.552 -0.4174  0.3376 -1.1356
 1755SOL    HW216728   1.419   4.611   6.448  0.5506  0.6950  0.0670
 1756SOL     OW16729   0.939   1.960   1.742 -0.4166 -0.3004 -0.0440
 1756SOL    HW116730   0.906   2.015   1.814 -0.0132  0.1430 -0.1990
 1756SOL    HW216731   0.903   1.875   1.768  1.0442 -1.5129 -1.9921
 1757SOL     OW16732   1.016   3.836   7.288  0.3494 -0.2556 -0.6284
 1757SOL    HW116733   1.061   3.752   7.283 -0.2335 -0.7395  2.0848
 1757SOL    HW216734   1.067   3.885   7.352 -1.7311  1.1503 -0.0595
 1758SOL     OW16735   2.750   2.649   0.865  0.5290 -0.1057 -0.3483
 1758SOL    HW116736   2.780   2.601   0.942  0.2714  0.2206 -0.0450
 1758SOL    HW216737   2.697   2.593   0.808 -0.2982 -1.4002  1.7053
 1759SOL     OW16738   0.927   3.499   3.949  0.4154 -0.4491 -0.6834
 1759SOL    HW116739   0.918   3.411   3.984  0.9555  0.1616  0.9918
 1759SOL    HW216740   0.987   3.540   4.011 -0.3853 -0.6860  0.2446
 1760SOL     OW16741   1.266   1.219   4.412 -0.1482  0.1648 -0.2733
 1760SOL    HW116742   1.323   1.184   4.481 -0.0077  1.0693  0.0690
 1760SOL    HW216743   1.193   1.157   4.406  0.6020 -0.7226 -0.2218
 1761SOL     OW16744   2.824   3.214  12.628  0.1194  0.3163 -0.3169
 1761SOL    HW116745   2.815   3.146  12.695 -2.1023 -0.5879 -1.5220
 1761SOL    HW216746   2.878   3.181  12.556 -2.2065 -4.7979  0.2696
 1762SOL     OW16747   1.111   4.665   6.531 -0.1448  0.2445  0.0943
 1762SOL    HW116748   1.157   4.678   6.448  2.3859 -2.0854  1.1576
 1762SOL    HW216749   1.073   4.580   6.512 -1.6319  1.1100 -0.8714
 1763SOL     OW16750   1.976   2.507   3.768 -0.1686 -0.0151  0.6204
 1763SOL    HW116751   1.980   2.574   3.836  1.0888 -1.6478  2.1602
 1763SOL    HW216752   1.888   2.475   3.789 -0.7673 -0.8265 -3.0474
 1764SOL     OW16753   0.312   4.496   1.973 -0.4112 -0.6875 -0.4322
 1764SOL    HW116754   0.315   4.574   1.917  3.0870 -2.0343 -2.1323
 1764SOL    HW216755   0.257   4.526   2.045 -0.4809 -0.1608 -0.7007
 1765SOL     OW16756   4.627   3.348   6.216 -0.7067 -0.3743  0.0957
 1765SOL    HW116757   4.594   3.333   6.128  1.9538 -2.9693 -0.4750
 1765SOL    HW216758   4.669   3.264   6.235 -0.3392 -0.2845 -0.3394
 1766SOL     OW16759   2.747   1.574   9.230 -0.2359  0.1980 -0.3711
 1766SOL    HW116760   2.756   1.545   9.321  0.8953  0.2222 -0.4731
 1766SOL    HW216761   2.671   1.522   9.206 -0.3325  0.4886 -0.6885
 1767SOL     OW16762   3.233   1.010   5.918  0.0713 -0.4921 -0.6112
 1767SOL    HW116763   3.147   1.032   5.882 -1.2992 -1.7382  1.9821
 1767SOL    HW216764   3.255   1.098   5.948  0.0422 -0.4438 -0.7301
 1768SOL     OW16765   1.651   4.521  12.434  0.2024 -0.2339  0.2189
 1768SOL    HW116766   1.736   4.566  12.438 -0.3966  0.7755  1.4402
 1768SOL    HW216767   1.604   4.565  12.363 -1.1336  0.0841  1.3205
 1769SOL     OW16768   4.395   3.251  11.710 -0.3753  0.0537  0.0329
 1769SOL    HW116769   4.481   3.292  11.710  0.1048 -0.9504  0.1717
 1769SOL    HW216770   4.414   3.217  11.797  0.1151 -2.7387 -1.1526
 1770SOL     OW16771   3.498   1.771   2.227  0.7113  0.4295  0.3477
 1770SOL    HW116772   3.406   1.743   2.225  0.2413  1.7141  4.2714
 1770SOL    HW216773   3.509   1.799   2.318  0.2100 -1.3550  0.9591
 1771SOL     OW16774   2.957   2.490   6.275  0.1723 -0.0725 -0.6210
 1771SOL    HW116775   3.018   2.503   6.203  2.9875 -2.5915  1.3184
 1771SOL    HW216776   2.953   2.395   6.285 -1.7315 -0.0918 -1.5314
 1772SOL     OW16777   3.010   2.569   4.599  0.3115 -0.1792 -0.4377
 1772SOL    HW116778   3.065   2.514   4.544  0.9410 -1.6182  1.6289
 1772SOL    HW216779   2.922   2.543   4.571  0.2875 -1.9554  1.2549
 1773SOL     OW16780   3.343   2.048  15.372 -0.3039 -0.0743 -0.1043
 1773SOL    HW116781   3.436   2.025  15.369 -0.3793 -0.3513 -0.2913
 1773SOL    HW216782   3.335   2.107  15.298  2.2531  0.3120 -0.0640
 1774SOL     OW16783   1.283   4.700   5.836  0.3161  0.7703  0.2871
 1774SOL    HW116784   1.325   4.619   5.807 -2.0142 -0.2729 -0.1626
 1774SOL    HW216785   1.216   4.682   5.902  0.6196 -0.0524  0.3671
 1775SOL     OW16786   2.995   0.952  11.941 -0.5770 -0.6602  0.0749
 1775SOL    HW116787   2.947   0.933  12.021  1.5947 -3.5670  0.6776
 1775SOL    HW216788   3.041   0.871  11.920 -1.5596 -1.3408  0.5873
 1776SOL     OW16789   1.753   1.103   6.325 -0.9034  0.0369 -0.1715
 1776SOL    HW116790   1.714   1.044   6.389  0.5451 -2.0057 -1.1635
 1776SOL    HW216791   1.756   1.044   6.250 -1.7576  1.0028 -0.9613
 1777SOL     OW16792   3.779   4.135  15.837 -0.0966 -0.5042  0.1233
 1777SOL    HW116793   3.734   4.214  15.866  0.1183 -0.4016  0.1735
 1777SOL    HW216794   3.759   4.063  15.897 -0.0364  1.0133  1.9380
 1778SOL     OW16795   0.270   0.945   6.536  0.1385 -0.0642 -0.2437
 1778SOL    HW116796   0.331   1.015   6.512 -1.4726  0.9302 -1.4861
 1778SOL    HW216797   0.216   0.996   6.597 -0.1479  0.2767 -0.7855
 1779SOL     OW16798   0.609   2.349  12.688  1.1796  0.6833 -0.7002
 1779SOL    HW116799   0.684   2.330  12.631  1.4788 -1.4138  0.3916
 1779SOL    HW216800   0.614   2.281  12.755  1.4053 -1.8876 -3.3006
 1780SOL     OW16801   3.917   0.159   7.115 -0.1521 -0.1714 -0.0501
 1780SOL    HW116802   3.950   0.132   7.029  0.3434 -0.8624  0.3537
 1780SOL    HW216803   3.835   0.205   7.099 -0.3874 -0.9228 -1.0242
 1781SOL     OW16804   3.175   0.902   5.360 -0.6111 -0.2976  0.0259
 1781SOL    HW116805   3.171   0.991   5.393 -0.1774 -1.2791  2.7387
 1781SOL    HW216806   3.268   0.887   5.378 -0.3960  0.2199 -0.6741
 1782SOL     OW16807   2.703   0.914  17.488  0.6000  0.0506  0.1343
 1782SOL    HW116808   2.659   0.998  17.473 -0.5017 -0.3133  1.3741
 1782SOL    HW216809   2.739   0.933  17.575  0.9065 -0.4426  0.1160
 1783SOL     OW16810   4.109   2.134  16.262  0.5600 -0.2092  0.7728
 1783SOL    HW116811   4.057   2.119  16.183  0.9462  1.2745  0.2363
 1783SOL    HW216812   4.181   2.183  16.221 -0.4088 -0.4136 -1.1698
 1784SOL     OW16813   4.091   0.965  15.725 -0.1129 -0.0229 -0.6124
 1784SOL    HW116814   4.002   0.997  15.743 -0.0542 -0.0178 -0.3264
 1784SOL    HW216815   4.131   1.039  15.679  0.5438 -0.2847 -0.4553
 1785SOL     OW16816   4.618   4.296  13.733  0.0184 -0.0677 -0.4437
 1785SOL    HW116817   4.693   4.241  13.753  0.2935 -0.3360 -2.1667
 1785SOL    HW216818   4.651   4.340  13.654  1.4710  2.6676  1.6727
 1786SOL     OW16819   2.916   0.487  16.971  0.4570  0.2172 -0.2954
 1786SOL    HW116820   2.937   0.462  17.062  0.2367 -4.7985 -1.6429
 1786SOL    HW216821   3.003   0.507  16.937  0.3069  0.5642 -0.4793
 1787SOL     OW16822   0.199   2.434   6.632  0.5579 -0.3239 -0.1774
 1787SOL    HW116823   0.278   2.440   6.685 -0.3520 -0.2724  1.1897
 1787SOL    HW216824   0.222   2.373   6.562 -2.1826 -1.3717 -0.1816
 1788SOL     OW16825   0.887   0.254   2.706 -1.0423 -0.2700  0.0050
 1788SOL    HW116826   0.935   0.335   2.692 -0.4779 -0.1455  2.5714
 1788SOL    HW216827   0.952   0.203   2.754 -3.1161 -0.4414  2.6595
 1789SOL     OW16828   2.930   2.812   7.841  0.7680 -0.5461 -0.0945
 1789SOL    HW116829   2.995   2.880   7.822  0.6315 -0.1050  1.0197
 1789SOL    HW216830   2.844   2.849   7.820  1.6167  0.6169 -1.5756
 1790SOL     OW16831   1.462   1.015  11.934  0.0120  0.1825  0.5449
 1790SOL    HW116832   1.470   0.924  11.961 -0.2001  0.0382  0.1148
 1790SOL    HW216833   1.414   1.063  12.002 -2.4753 -0.0300 -1.0632
 1791SOL     OW16834   2.881   1.133   7.922  0.2565  0.1111 -0.5887
 1791SOL    HW116835   2.850   1.212   7.964  0.4925  1.1811 -2.4280
 1791SOL    HW216836   2.803   1.077   7.927  0.3791 -0.1435 -1.5558
 1792SOL     OW16837   2.485   3.928   1.843  0.2921  0.1336  0.1542
 1792SOL    HW116838   2.422   3.883   1.787 -0.0138  1.6261 -0.7074
 1792SOL    HW216839   2.454   3.919   1.934  1.9372 -1.0155  0.5981
 1793SOL     OW16840   3.375   1.702   8.291  0.1066  0.5495 -0.2665
 1793SOL    HW116841   3.416   1.618   8.270 -0.8010 -0.0455  0.3176
 1793SOL    HW216842   3.300   1.674   8.344 -1.0084  2.9199 -0.6034
 1794SOL     OW16843   4.525   2.200   3.406  0.7378  0.2712 -0.6762
 1794SOL    HW116844   4.434   2.230   3.400  0.9248  1.1786  1.0049
 1794SOL    HW216845   4.518   2.150   3.487 -0.4347  1.0277 -0.3118
 1795SOL     OW16846   2.340   3.277   4.511  0.2835  0.1138  0.6934
 1795SOL    HW116847   2.392   3.198   4.521 -0.3253 -0.5055 -1.1119
 1795SOL    HW216848   2.383   3.310   4.432 -1.1373  0.2127 -0.0272
 1796SOL     OW16849   4.363   3.543   6.453 -0.2716  0.6407 -0.4761
 1796SOL    HW116850   4.269   3.537   6.468 -0.1464  0.0121  0.0896
 1796SOL    HW216851   4.374   3.506   6.366 -0.9573 -0.8779  0.0776
 1797SOL     OW16852   0.068   4.112   5.834 -0.4457  0.1082 -0.3317
 1797SOL    HW116853   0.085   4.107   5.740 -1.1871  0.0974 -0.4691
 1797SOL    HW216854   4.698   4.085   5.842 -0.3308 -0.0114  0.5961
 1798SOL     OW16855   2.288   3.765   3.426 -0.2961  0.2666 -0.0541
 1798SOL    HW116856   2.242   3.767   3.510  0.1933 -2.2625  0.2710
 1798SOL    HW216857   2.303   3.859   3.419 -2.1443  0.6123  0.7540
 1799SOL     OW16858   0.547   2.977   3.178  0.4868 -0.2727 -0.1136
 1799SOL    HW116859   0.474   2.921   3.150 -1.8864  2.3789  0.6878
 1799SOL    HW216860   0.493   3.029   3.238  1.1405 -0.5979  0.7571
 1800SOL     OW16861   1.922   3.835   4.352  0.1308 -0.3633  0.0328
 1800SOL    HW116862   1.914   3.857   4.259  0.9014  1.1042  0.3067
 1800SOL    HW216863   1.834   3.838   4.389 -0.1827 -0.0020 -0.7401
 1801SOL     OW16864   4.215   1.720   1.815 -0.5696  0.2905 -0.0439
 1801SOL    HW116865   4.293   1.674   1.783 -1.5462 -0.7677 -0.9238
 1801SOL    HW216866   4.144   1.673   1.772  2.4840 -3.3468 -1.0909
 1802SOL     OW16867   0.459   1.060   3.728 -0.0524  0.2051  0.3663
 1802SOL    HW116868   0.416   1.027   3.806 -1.7072 -1.2928 -1.1910
 1802SOL    HW216869   0.438   1.153   3.723  1.1626  0.4097 -1.0387
 1803SOL     OW16870   3.878   1.784   3.221  0.1311  0.1099  0.1630
 1803SOL    HW116871   3.887   1.695   3.187  2.6106  0.2442  0.4840
 1803SOL    HW216872   3.948   1.826   3.171 -0.2455 -0.4583 -0.8519
 1804SOL     OW16873   4.539   3.645   2.959  0.0025 -0.3372  0.1718
 1804SOL    HW116874   4.551   3.602   3.043  2.7553  1.3782  0.6702
 1804SOL    HW216875   4.567   3.736   2.973  1.1119 -0.9633  1.9768
 1805SOL     OW16876   3.031   2.718   7.503 -0.2182 -0.0648  0.1850
 1805SOL    HW116877   3.096   2.775   7.462  0.0270 -0.7068 -0.3034
 1805SOL    HW216878   2.949   2.765   7.487  1.7882  3.0046 -1.2125
 1806SOL     OW16879   3.988   1.445  10.723 -0.4291  0.1632 -0.1637
 1806SOL    HW116880   3.897   1.456  10.750 -0.1371 -1.2556  1.4357
 1806SOL    HW216881   4.018   1.385  10.792  2.2245 -0.7022 -2.0750
 1807SOL     OW16882   1.460   2.091  11.803  0.4362 -0.4252  0.1881
 1807SOL    HW116883   1.470   2.143  11.723 -0.7661  0.3810  0.5493
 1807SOL    HW216884   1.404   2.022  11.767  0.1162 -0.0226 -0.0874
 1808SOL     OW16885   4.305   2.959   5.889 -0.7299 -0.5675 -0.0938
 1808SOL    HW116886   4.253   2.982   5.966  0.7683 -1.6748  1.2451
 1808SOL    HW216887   4.309   3.040   5.837 -1.0616 -1.9159 -2.2370
 1809SOL     OW16888   2.955   0.817   5.980  0.3908  0.3328  0.1399
 1809SOL    HW116889   2.956   0.768   5.898 -1.3357 -0.8293  0.8192
 1809SOL    HW216890   2.862   0.837   5.988 -0.2068 -2.5800  0.4708
 1810SOL     OW16891   3.573   3.083   5.242 -0.1344  0.5171  0.4428
 1810SOL    HW116892   3.570   3.041   5.328  0.4816 -0.1480  0.1433
 1810SOL    HW216893   3.669   3.075   5.237  0.1334  1.9717  3.1666
 1811SOL     OW16894   3.768   2.917   9.103 -0.2257  0.3758 -0.1449
 1811SOL    HW116895   3.795   2.918   9.011 -1.0007 -0.8200 -0.3759
 1811SOL    HW216896   3.673   2.904   9.102  0.1694 -2.5056  0.2745
 1812SOL     OW16897   3.887   1.967  13.203 -0.4475  0.3246  0.0340
 1812SOL    HW116898   3.857   2.020  13.129 -0.0430  2.1852  1.1921
 1812SOL    HW216899   3.865   2.031  13.271  0.4113  0.6936 -0.0253
 1813SOL     OW16900   4.090   0.882  17.473  0.1519 -0.3006  0.1433
 1813SOL    HW116901   4.071   0.809  17.531  0.4596  0.6893  1.4947
 1813SOL    HW216902   4.148   0.837  17.412  0.4119  0.8592 -0.4629
 1814SOL     OW16903   0.128   3.453   9.742 -0.6125 -0.6622  0.0239
 1814SOL    HW116904   0.062   3.406   9.794 -0.6260  1.2299  1.7028
 1814SOL    HW216905   0.209   3.427   9.787  0.9221 -0.1533 -2.4613
 1815SOL     OW16906   3.797   1.809   4.047 -0.0102 -0.2519 -0.6867
 1815SOL    HW116907   3.702   1.822   4.046 -0.0654 -0.6544 -0.5358
 1815SOL    HW216908   3.821   1.848   3.963 -2.0231  3.4653  0.4536
 1816SOL     OW16909   2.678   1.590   8.443  0.0972 -0.2062  0.7093
 1816SOL    HW116910   2.621   1.650   8.395 -1.1863 -0.5176  1.8525
 1816SOL    HW216911   2.626   1.583   8.524 -1.1274 -0.1480 -0.0665
 1817SOL     OW16912   0.112   0.671   8.096 -0.7960  0.1342 -0.0798
 1817SOL    HW116913   0.172   0.617   8.045  0.1938  1.3047 -0.1685
 1817SOL    HW216914   0.163   0.732   8.150 -0.1722 -1.3515  1.0152
 1818SOL     OW16915   1.859   4.170  17.103 -0.3077  0.0313  1.1723
 1818SOL    HW116916   1.775   4.197  17.066 -0.1468 -0.2347  0.5993
 1818SOL    HW216917   1.831   4.097  17.159  0.8016 -0.0555  1.6099
 1819SOL     OW16918   3.353   1.808  10.000  0.1314  0.4313 -0.2159
 1819SOL    HW116919   3.404   1.850   9.930  1.2128 -0.7561 -0.1339
 1819SOL    HW216920   3.342   1.721   9.963  3.3501 -0.2359  0.3783
 1820SOL     OW16921   0.776   1.728   0.395  0.5319  0.2151 -0.3362
 1820SOL    HW116922   0.842   1.737   0.463  1.6550 -2.6086 -1.0616
 1820SOL    HW216923   0.694   1.704   0.437  1.5645  0.3626  1.7290
 1821SOL     OW16924   3.507   2.702   2.312 -0.0051  0.5039 -0.4132
 1821SOL    HW116925   3.490   2.615   2.277 -1.4898 -0.5498  2.9540
 1821SOL    HW216926   3.460   2.752   2.245  1.1789 -0.1845 -1.7577
 1822SOL     OW16927   1.060   1.044   4.400  0.1827 -0.5373  1.0117
 1822SOL    HW116928   0.977   1.005   4.424  0.5756 -1.4179  0.9447
 1822SOL    HW216929   1.084   0.984   4.330 -2.6029 -0.5687  0.0854
 1823SOL     OW16930   3.240   0.984  10.322  0.2121  0.3385 -0.0317
 1823SOL    HW116931   3.272   0.950  10.406  0.2479 -0.6308 -0.4384
 1823SOL    HW216932   3.313   0.951  10.269  0.3556 -0.7329  0.8272
 1824SOL     OW16933   2.726   2.396   7.390 -0.0645 -0.2428 -0.0525
 1824SOL    HW116934   2.782   2.432   7.459 -1.4007  0.5929  0.5950
 1824SOL    HW216935   2.777   2.317   7.375  2.2563  1.4316 -1.0899
 1825SOL     OW16936   1.402   0.839   4.226 -0.3434  0.0502  0.1636
 1825SOL    HW116937   1.437   0.862   4.312 -0.5111 -0.6498  0.4198
 1825SOL    HW216938   1.454   0.895   4.168 -0.3851 -0.1696 -0.0852
 1826SOL     OW16939   1.078   1.685  10.637 -0.2062  0.1310 -0.6064
 1826SOL    HW116940   1.063   1.772  10.600 -1.5292  0.2552  0.1920
 1826SOL    HW216941   1.136   1.640  10.576  0.2869  0.7563 -0.5959
 1827SOL     OW16942   1.401   3.143   2.719 -0.1368 -0.6072 -0.0935
 1827SOL    HW116943   1.425   3.068   2.774 -0.2620 -2.3041 -2.3769
 1827SOL    HW216944   1.347   3.187   2.785  1.0203 -0.5995  0.8719
 1828SOL     OW16945   3.012   4.118  15.583  0.5430  0.4319 -0.3221
 1828SOL    HW116946   3.077   4.065  15.537  0.7810  0.4828 -0.0396
 1828SOL    HW216947   3.018   4.189  15.519  0.7606  1.3270  0.6844
 1829SOL     OW16948   3.490   0.461   1.877 -0.3691 -0.0809  0.6240
 1829SOL    HW116949   3.484   0.489   1.968  0.5060 -0.0234  0.6654
 1829SOL    HW216950   3.454   0.374   1.893  1.8860 -1.4592 -1.7965
 1830SOL     OW16951   0.028   2.447   8.262  0.4897 -0.0278 -0.2030
 1830SOL    HW116952   0.073   2.531   8.268 -0.0603  0.1553  1.3438
 1830SOL    HW216953   0.040   2.427   8.169  2.3365  0.4543 -0.0599
 1831SOL     OW16954   1.980   0.902   8.362  0.2679 -0.7217  0.2876
 1831SOL    HW116955   1.997   0.972   8.298 -1.5173  0.0428  0.6451
 1831SOL    HW216956   1.959   0.961   8.434  0.8889 -1.4324  1.0409
 1832SOL     OW16957   0.013   2.580   8.775 -0.2731  0.0834  0.9699
 1832SOL    HW116958   4.682   2.552   8.849  0.6080  1.1195  1.9864
 1832SOL    HW216959   0.081   2.629   8.822 -0.9618  0.0241  2.0311
 1833SOL     OW16960   4.380   1.018   8.626 -0.3427  0.6279 -0.2521
 1833SOL    HW116961   4.422   1.099   8.655  1.9419 -0.2104 -1.1700
 1833SOL    HW216962   4.429   0.955   8.680  1.1992  1.0709 -1.1450
 1834SOL     OW16963   0.510   3.116   9.008 -0.0357 -0.0345 -0.4820
 1834SOL    HW116964   0.570   3.132   9.081  1.2830  2.5399 -2.1137
 1834SOL    HW216965   0.563   3.125   8.929  0.1783 -1.6991 -0.5243
 1835SOL     OW16966   2.478   0.601  14.529 -0.2078 -0.0003 -0.1106
 1835SOL    HW116967   2.398   0.644  14.563  0.5512  0.0933  1.5649
 1835SOL    HW216968   2.533   0.595  14.607  0.9568 -0.7464 -0.9923
 1836SOL     OW16969   2.816   3.180   6.889 -0.6273 -0.3135 -0.8999
 1836SOL    HW116970   2.856   3.095   6.908  0.8255  1.1074  2.3927
 1836SOL    HW216971   2.886   3.241   6.912 -0.2392 -1.0992 -0.0335
 1837SOL     OW16972   2.488   0.953   7.018  0.3615 -0.8375  0.6327
 1837SOL    HW116973   2.423   0.893   6.981  0.7028 -0.9978  0.2977
 1837SOL    HW216974   2.445   0.946   7.104 -2.8671 -0.1202 -0.9119
 1838SOL     OW16975   2.686   4.199   8.013  0.0079  0.3677 -0.1584
 1838SOL    HW116976   2.613   4.138   8.025 -0.0176  0.4689  0.1944
 1838SOL    HW216977   2.684   4.187   7.918 -1.3564  1.2291 -0.2314
 1839SOL     OW16978   0.195   1.547   4.645  0.3847  0.4680 -0.1561
 1839SOL    HW116979   0.137   1.502   4.583 -2.0598 -0.0880  2.5503
 1839SOL    HW216980   0.135   1.591   4.706  1.1959  0.7979  0.3969
 1840SOL     OW16981   4.067   4.363   3.070  0.3126 -0.9066 -0.6062
 1840SOL    HW116982   3.998   4.398   3.012 -1.8861 -1.6312  1.5486
 1840SOL    HW216983   4.149   4.397   3.034  0.7968 -0.3473  1.0358
 1841SOL     OW16984   3.277   1.660   5.789  0.1916 -0.2357 -0.0524
 1841SOL    HW116985   3.314   1.601   5.855 -1.0340 -1.2386 -0.2726
 1841SOL    HW216986   3.354   1.646   5.734  0.0062 -2.0767  0.1821
 1842SOL     OW16987   3.352   0.578   3.922  0.2307  0.1891  0.3072
 1842SOL    HW116988   3.308   0.562   3.838  0.3413 -0.6334  0.4057
 1842SOL    HW216989   3.422   0.513   3.910  1.2762  0.8570  2.8038
 1843SOL     OW16990   3.836   4.307   4.912 -0.3654 -0.5791  0.9778
 1843SOL    HW116991   3.759   4.363   4.927  1.1008  1.8686 -0.6875
 1843SOL    HW216992   3.875   4.306   4.999  0.3048  1.4983  0.6789
 1844SOL     OW16993   1.790   3.985   8.708 -0.0303 -0.0600 -0.8454
 1844SOL    HW116994   1.738   3.924   8.761  0.4714 -0.2470 -0.5723
 1844SOL    HW216995   1.829   3.924   8.646 -1.2193 -0.2072 -1.4451
 1845SOL     OW16996   3.746   0.319  14.931 -0.2647  0.7171  0.5121
 1845SOL    HW116997   3.714   0.399  14.889 -1.1107  0.6486  1.0428
 1845SOL    HW216998   3.666   0.288  14.972  2.1252 -3.0716  2.2961
 1846SOL     OW16999   4.035   4.204   7.215 -0.9010 -0.7769  0.1624
 1846SOL    HW117000   3.954   4.246   7.188  0.2377  1.0232 -0.4505
 1846SOL    HW217001   4.070   4.276   7.267 -0.2588 -0.9327 -0.0556
 1847SOL     OW17002   0.288   0.031   3.479  0.1387 -0.0241  0.1909
 1847SOL    HW117003   0.234   0.027   3.400 -1.2355 -1.2828  1.1928
 1847SOL    HW217004   0.343   4.679   3.455  0.7224  1.5185 -3.2660
 1848SOL     OW17005   2.382   0.047   4.889  0.5711 -0.2261 -0.0056
 1848SOL    HW117006   2.357   0.046   4.981  0.5344 -0.2158 -0.0154
 1848SOL    HW217007   2.307   0.084   4.842  0.8977 -1.7285 -1.7291
 1849SOL     OW17008   2.550   3.781  17.392  0.2504  0.1766  0.2277
 1849SOL    HW117009   2.469   3.768  17.343  1.2970  1.1660 -1.7487
 1849SOL    HW217010   2.526   3.770  17.484 -0.9904 -0.1823 -0.1329
 1850SOL     OW17011   3.320   0.838  16.580  0.6582  0.0476 -0.0206
 1850SOL    HW117012   3.260   0.766  16.598 -1.2521  1.4766 -0.6395
 1850SOL    HW217013   3.376   0.802  16.511  1.2749  0.7522  0.1192
 1851SOL     OW17014   3.190   4.053   2.965 -0.4891 -0.0930 -0.0468
 1851SOL    HW117015   3.230   3.993   2.902 -1.5439 -0.4066 -0.4156
 1851SOL    HW217016   3.123   4.093   2.910  0.9387 -0.8565 -2.3587
 1852SOL     OW17017   4.392   2.155   7.740  0.2465 -0.2946 -0.0238
 1852SOL    HW117018   4.326   2.216   7.707 -0.4341 -0.5613  0.8529
 1852SOL    HW217019   4.417   2.104   7.663  0.2355  1.0805 -0.9437
 1853SOL     OW17020   3.621   0.764   6.361 -0.0754  0.7599 -0.6302
 1853SOL    HW117021   3.660   0.804   6.439  3.4439 -1.0102 -1.5036
 1853SOL    HW217022   3.527   0.770   6.378 -0.1657 -2.9509  0.2203
 1854SOL     OW17023   1.816   0.951   6.584  0.2324  0.5139 -0.3290
 1854SOL    HW117024   1.884   0.893   6.616  0.7485  2.1146  1.4457
 1854SOL    HW217025   1.873   1.005   6.530 -0.3150  0.2624 -1.1711
 1855SOL     OW17026   3.873   4.423   7.653  0.2353  0.5466 -0.0275
 1855SOL    HW117027   3.868   4.338   7.608 -0.0447  0.3107  0.4509
 1855SOL    HW217028   3.877   4.393   7.744  2.3234  2.9666  0.6730
 1856SOL     OW17029   1.215   0.951   1.437 -0.0320  0.5542  0.1306
 1856SOL    HW117030   1.204   0.909   1.352  0.1610 -0.1212  0.4344
 1856SOL    HW217031   1.124   0.939   1.462  0.2199  0.8273  1.1623
 1857SOL     OW17032   1.507   2.256   8.103  0.0930 -0.0975  0.0113
 1857SOL    HW117033   1.473   2.227   8.019  1.2498  1.9269 -1.1571
 1857SOL    HW217034   1.483   2.181   8.158 -3.2821  0.8130 -0.2118
 1858SOL     OW17035   3.211   1.517   7.919  0.6228 -0.1423  0.4385
 1858SOL    HW117036   3.270   1.588   7.944 -0.8077  1.4395 -0.6960
 1858SOL    HW217037   3.150   1.520   7.993  0.5949 -1.6588  0.4754
 1859SOL     OW17038   0.165   0.842   6.838  0.6610  0.1201  0.5570
 1859SOL    HW117039   0.147   0.766   6.782  2.1223  2.2329 -2.6906
 1859SOL    HW217040   0.113   0.812   6.913 -1.1936 -3.0410 -1.9648
 1860SOL     OW17041   0.600   1.630  16.581  0.3695  0.2927 -0.8020
 1860SOL    HW117042   0.549   1.564  16.628 -0.1346 -0.4464 -2.4017
 1860SOL    HW217043   0.551   1.709  16.602 -0.3594 -0.1543 -0.8245
 1861SOL     OW17044   3.326   3.570   9.938 -0.2529 -0.0822  0.4231
 1861SOL    HW117045   3.332   3.491   9.992  1.2672  1.2966  2.2239
 1861SOL    HW217046   3.251   3.612   9.980 -0.0068 -0.6676  1.4468
 1862SOL     OW17047   0.592   0.104   7.178 -0.3720 -0.5389  0.2181
 1862SOL    HW117048   0.583   0.064   7.264  3.8708 -0.0716  0.9019
 1862SOL    HW217049   0.603   0.196   7.204 -2.5705  0.0346 -0.8735
 1863SOL     OW17050   0.549   0.379  14.768 -0.1858  0.0684  0.1363
 1863SOL    HW117051   0.456   0.367  14.786 -0.2417  1.0217  0.4893
 1863SOL    HW217052   0.567   0.320  14.695  0.2877  1.4888 -0.8941
 1864SOL     OW17053   1.958   2.061   6.189  0.3413 -0.6339  0.0827
 1864SOL    HW117054   1.865   2.057   6.212  0.1931  1.5334 -0.1170
 1864SOL    HW217055   1.991   2.087   6.275  1.9437 -1.3413 -0.3248
 1865SOL     OW17056   0.937   2.803   4.166  0.0055 -0.2524 -0.4358
 1865SOL    HW117057   1.005   2.845   4.113  0.1802  1.0370  0.8163
 1865SOL    HW217058   0.883   2.771   4.094 -0.2407 -0.0400 -0.3454
 1866SOL     OW17059   1.167   2.062   7.731 -0.1034  0.7497 -0.4432
 1866SOL    HW117060   1.231   1.996   7.755  1.2368  1.9848 -0.6052
 1866SOL    HW217061   1.089   2.007   7.736 -0.2200  1.0712  1.1329
 1867SOL     OW17062   3.268   4.693   1.823  0.0171  0.1007  0.2410
 1867SOL    HW117063   3.254   4.695   1.728 -1.6089 -0.5499  0.4641
 1867SOL    HW217064   3.328   4.620   1.837 -0.0142 -0.1898 -1.0770
 1868SOL     OW17065   2.995   2.556   3.628 -0.0670 -0.4712 -0.2796
 1868SOL    HW117066   2.912   2.599   3.605 -0.7440 -1.0522  1.0860
 1868SOL    HW217067   2.968   2.466   3.608 -0.3932 -0.5443  0.4780
 1869SOL     OW17068   1.808   4.201   6.623  0.1653  0.3321 -0.5174
 1869SOL    HW117069   1.748   4.274   6.642 -1.1332 -1.4445  2.1097
 1869SOL    HW217070   1.744   4.154   6.570 -0.0898  0.3202 -0.1994
 1870SOL     OW17071   2.834   2.392   3.482 -0.2455  0.1486 -0.5483
 1870SOL    HW117072   2.747   2.413   3.518 -0.5352  0.4264 -1.4086
 1870SOL    HW217073   2.804   2.320   3.427 -1.8126 -0.4479  1.0887
 1871SOL     OW17074   0.163   0.797   3.835  0.0712  0.6895 -0.0792
 1871SOL    HW117075   0.086   0.747   3.864  0.8773 -0.5720 -0.1364
 1871SOL    HW217076   0.227   0.727   3.823  0.8457  1.2731  0.6881
 1872SOL     OW17077   3.968   4.480  16.892  0.3477 -0.1382 -0.4462
 1872SOL    HW117078   4.056   4.464  16.928 -0.1736  1.8811  1.7310
 1872SOL    HW217079   3.954   4.413  16.824 -0.8484  0.6890 -1.0030
 1873SOL     OW17080   4.699   1.707   6.040 -0.4410 -0.4038  0.0457
 1873SOL    HW117081   4.652   1.790   6.045  1.7833  0.7535  1.5634
 1873SOL    HW217082   4.624   1.648   6.040 -0.5782 -0.2463 -2.5885
 1874SOL     OW17083   0.459   3.444   8.337 -0.3770  0.1239 -0.7141
 1874SOL    HW117084   0.462   3.415   8.245  0.3318 -1.0064 -0.3311
 1874SOL    HW217085   0.521   3.518   8.338 -0.3063  0.0224  1.2414
 1875SOL     OW17086   2.169   3.852   9.274 -0.4897  0.8446 -0.3107
 1875SOL    HW117087   2.245   3.829   9.328 -1.0279  2.5215  1.1674
 1875SOL    HW217088   2.117   3.772   9.285 -0.0096  0.8229  1.8449
 1876SOL     OW17089   3.184   3.962   6.325  0.1161 -0.1000  0.3497
 1876SOL    HW117090   3.120   3.891   6.318 -0.3003  0.1806  1.3512
 1876SOL    HW217091   3.201   3.960   6.419 -2.0051  0.2911  0.7325
 1877SOL     OW17092   1.676   4.247   1.715 -0.2647 -0.1546  0.1180
 1877SOL    HW117093   1.589   4.287   1.712  0.7764  2.1761  1.1959
 1877SOL    HW217094   1.721   4.299   1.649 -1.3278  0.4442 -0.1388
 1878SOL     OW17095   4.474   4.652  10.372  0.2062  0.3633 -0.0163
 1878SOL    HW117096   4.550   4.667  10.316  0.0920 -0.7054 -0.4471
 1878SOL    HW217097   4.435   4.569  10.345 -0.6237  0.6856  0.1790
 1879SOL     OW17098   0.968   3.784   5.484  0.3895 -0.0588  0.2470
 1879SOL    HW117099   0.990   3.870   5.520  0.9583  0.6285 -1.7589
 1879SOL    HW217100   0.952   3.736   5.565 -1.2158  0.8456  0.4523
 1880SOL     OW17101   4.329   0.017   6.144 -0.5480 -0.4158  0.2608
 1880SOL    HW117102   4.397   4.672   6.137 -0.6635 -0.2898 -1.8604
 1880SOL    HW217103   4.364   0.063   6.221  1.4483 -2.6159  0.6849
 1881SOL     OW17104   3.342   1.012   6.383  0.1815 -0.4770 -0.1625
 1881SOL    HW117105   3.260   1.061   6.384 -0.2999 -1.2310 -2.2893
 1881SOL    HW217106   3.307   0.929   6.416  1.3342 -1.3706 -1.1656
 1882SOL     OW17107   3.137   2.364   6.526 -0.2354  0.1885  0.5472
 1882SOL    HW117108   3.074   2.412   6.580  2.3086  3.3319  0.6733
 1882SOL    HW217109   3.222   2.397   6.554 -0.0224 -0.1238  0.2749
 1883SOL     OW17110   2.000   3.864  15.039  0.2406  0.2762 -0.9975
 1883SOL    HW117111   1.907   3.875  15.019  0.1938 -0.5315 -1.2253
 1883SOL    HW217112   2.010   3.772  15.012 -0.7096 -1.9469  6.3687
 1884SOL     OW17113   0.064   1.030   8.480 -0.1829  0.7722  0.0345
 1884SOL    HW117114   0.125   1.104   8.477  0.4914  0.2867  1.3279
 1884SOL    HW217115   0.127   0.960   8.465  0.1862  1.3083 -0.8884
 1885SOL     OW17116   2.849   0.285   7.028  0.2991  0.0727  0.4599
 1885SOL    HW117117   2.829   0.378   7.031 -1.0615 -0.2456  1.0831
 1885SOL    HW217118   2.849   0.269   7.123  0.9100  2.5355  0.8586
 1886SOL     OW17119   4.256   0.906   7.348  0.0497  0.0999  0.0738
 1886SOL    HW117120   4.294   0.879   7.264 -3.6069 -0.6330 -1.3699
 1886SOL    HW217121   4.194   0.835   7.368  0.3545 -0.0732  0.4011
 1887SOL     OW17122   4.224   0.869   8.436  0.0402  0.1706 -0.3978
 1887SOL    HW117123   4.282   0.913   8.498 -1.0518 -1.8459  2.0268
 1887SOL    HW217124   4.216   0.942   8.373  1.6489  0.9454  0.3011
 1888SOL     OW17125   3.044   2.228   7.349 -0.4040  0.0531  0.0886
 1888SOL    HW117126   3.080   2.316   7.361 -0.7524  0.2344 -0.1746
 1888SOL    HW217127   3.096   2.190   7.278  3.0708  1.5238  1.8430
 1889SOL     OW17128   4.121   2.611   1.690  0.3198  0.2089 -0.7115
 1889SOL    HW117129   4.108   2.648   1.603  0.5899  3.2495  0.5689
 1889SOL    HW217130   4.102   2.685   1.747  0.2398 -0.4972  0.1809
 1890SOL     OW17131   3.335   4.339   8.781  0.0836 -0.3837  0.3301
 1890SOL    HW117132   3.380   4.285   8.716 -0.8946 -0.2319 -0.4846
 1890SOL    HW217133   3.336   4.280   8.856 -1.5244 -0.8950 -0.0464
 1891SOL     OW17134   2.217   0.616  14.669  0.0016 -0.0477  0.0698
 1891SOL    HW117135   2.226   0.625  14.764  1.4610 -0.8918  0.0181
 1891SOL    HW217136   2.122   0.620  14.663 -0.1779 -1.6524  2.0331
 1892SOL     OW17137   1.602   2.984   8.440  0.1711 -0.5549 -0.5725
 1892SOL    HW117138   1.652   2.904   8.457 -1.5494 -0.6836  4.0383
 1892SOL    HW217139   1.642   2.998   8.354  0.9003  1.0105  0.0172
 1893SOL     OW17140   1.074   2.751   5.880 -0.2280  0.1556  0.4935
 1893SOL    HW117141   1.020   2.803   5.821 -0.2119 -1.7175 -1.1548
 1893SOL    HW217142   1.162   2.780   5.854 -0.9418  1.9375  0.0832
 1894SOL     OW17143   3.209   2.418  13.295  0.1382  0.2948  0.2155
 1894SOL    HW117144   3.194   2.433  13.201  1.6025  0.1074 -0.0492
 1894SOL    HW217145   3.304   2.417  13.297  0.0715 -2.0148  1.8876
 1895SOL     OW17146   4.348   1.389   8.409 -0.1897 -0.6363  0.1060
 1895SOL    HW117147   4.270   1.347   8.374 -0.4195  0.9801 -1.3262
 1895SOL    HW217148   4.317   1.448   8.478  0.7687 -1.6684  1.4109
 1896SOL     OW17149   4.476   4.473   6.536 -0.1053  0.5573  0.1787
 1896SOL    HW117150   4.482   4.431   6.622 -1.0866 -0.3466 -0.2018
 1896SOL    HW217151   4.549   4.425   6.497 -0.3735  0.5806 -0.3556
 1897SOL     OW17152   2.787   1.732   4.030  0.0034 -0.6434 -0.1212
 1897SOL    HW117153   2.761   1.736   3.938 -0.6812  0.6287  0.1207
 1897SOL    HW217154   2.869   1.685   4.024  2.1286  2.8450  1.4085
 1898SOL     OW17155   3.424   1.654   0.371 -0.5194  0.1112  0.3283
 1898SOL    HW117156   3.434   1.660   0.276 -0.4758  1.3962  0.4152
 1898SOL    HW217157   3.366   1.579   0.376  0.3616 -0.5142  1.2510
 1899SOL     OW17158   1.114   2.362  13.047  0.5529  0.5355 -0.3962
 1899SOL    HW117159   1.139   2.273  13.073  1.3330  0.4191 -1.5410
 1899SOL    HW217160   1.093   2.394  13.134  0.7062  0.9936 -0.5307
 1900SOL     OW17161   1.749   2.124  14.006  0.1275 -0.2158  0.9867
 1900SOL    HW117162   1.844   2.123  13.995  0.0195 -0.8392  0.1495
 1900SOL    HW217163   1.718   2.034  14.009 -1.9553  0.4930  1.4002
 1901SOL     OW17164   0.346   3.586   7.553 -0.0629  0.4286 -0.8624
 1901SOL    HW117165   0.401   3.522   7.598 -0.2895  1.8829  1.4906
 1901SOL    HW217166   0.374   3.559   7.465 -0.9339  2.1253 -1.6504
 1902SOL     OW17167   0.974   2.239   4.058  0.5351 -0.1148  0.2831
 1902SOL    HW117168   1.023   2.160   4.036  0.0180  0.0306 -1.4252
 1902SOL    HW217169   0.927   2.236   3.975 -1.3981  1.6832  1.2996
 1903SOL     OW17170   3.080   4.317   4.827  0.1886 -0.0457 -0.0634
 1903SOL    HW117171   3.169   4.291   4.803  0.4085 -0.8485  1.5688
 1903SOL    HW217172   3.043   4.350   4.745  1.7139 -0.7804 -1.0572
 1904SOL     OW17173   0.066   3.834   5.523 -0.3612 -0.0341  0.3033
 1904SOL    HW117174   0.001   3.795   5.464  1.0576  1.1383 -2.0172
 1904SOL    HW217175   0.138   3.852   5.463 -0.2793 -0.5410  0.2459
 1905SOL     OW17176   3.822   2.056   6.387 -0.0824 -0.0134 -0.0665
 1905SOL    HW117177   3.762   2.001   6.337 -0.3852  1.3657 -1.2131
 1905SOL    HW217178   3.906   2.018   6.361 -1.1222 -1.2833 -1.5306
 1906SOL     OW17179   0.455   0.797   7.131 -0.3852 -0.1143 -0.1699
 1906SOL    HW117180   0.478   0.881   7.091 -0.9134 -0.4525 -1.1775
 1906SOL    HW217181   0.383   0.832   7.183  1.4641  1.8432  1.0512
 1907SOL     OW17182   2.561   2.511   8.531 -0.0362  0.7332  0.6547
 1907SOL    HW117183   2.469   2.533   8.517 -0.8133 -1.8350  1.7862
 1907SOL    HW217184   2.579   2.544   8.619  1.0031 -0.2502  0.8113
 1908SOL     OW17185   3.854   0.619  17.311  0.2690 -0.0782  0.7761
 1908SOL    HW117186   3.930   0.600  17.365  0.0838 -1.7131  0.4688
 1908SOL    HW217187   3.890   0.583  17.230 -0.3146  2.2797 -0.5261
 1909SOL     OW17188   3.833   3.486   8.898  0.5561  0.0818  0.0642
 1909SOL    HW117189   3.805   3.569   8.938  0.1725  0.2172 -0.4763
 1909SOL    HW217190   3.863   3.508   8.809 -0.6262  0.1060 -0.3304
 1910SOL     OW17191   2.876   1.536  12.562 -0.1102 -0.1580  0.4269
 1910SOL    HW117192   2.907   1.556  12.474 -2.5386  3.6398  0.4174
 1910SOL    HW217193   2.890   1.442  12.569  0.5545 -0.1183 -0.3774
 1911SOL     OW17194   4.438   3.500   5.087  0.0285  0.1553 -0.5774
 1911SOL    HW117195   4.526   3.523   5.116  0.1960 -2.8490  1.3359
 1911SOL    HW217196   4.403   3.568   5.030 -2.9064  0.3291  1.4023
 1912SOL     OW17197   3.249   2.739   6.096  0.2516  1.0231 -0.0624
 1912SOL    HW117198   3.336   2.706   6.120 -0.6928 -0.3750  1.4390
 1912SOL    HW217199   3.190   2.665   6.088  3.7270 -1.5605 -1.8360
 1913SOL     OW17200   2.829   4.475  12.589  0.3796  0.1313 -0.2938
 1913SOL    HW117201   2.820   4.472  12.493 -1.1035  1.8884 -0.2143
 1913SOL    HW217202   2.924   4.481  12.587  0.3161  1.0753 -0.3988
 1914SOL     OW17203   3.507   1.584   7.158 -0.2013  0.0395 -0.1970
 1914SOL    HW117204   3.569   1.656   7.145  0.9838 -0.9585 -0.0912
 1914SOL    HW217205   3.509   1.575   7.253 -2.5537 -1.3686 -0.2812
 1915SOL     OW17206   1.998   4.589   8.844 -0.6757 -0.2982  0.4108
 1915SOL    HW117207   2.061   4.520   8.825 -0.9274 -0.3234 -0.3460
 1915SOL    HW217208   2.023   4.613   8.933 -1.3274  2.1878 -0.0784
 1916SOL     OW17209   1.397   1.976   6.986  0.6295 -0.2607 -0.1384
 1916SOL    HW117210   1.486   2.001   7.011  0.0583 -0.7120  2.3260
 1916SOL    HW217211   1.354   1.956   7.069  0.2946  0.1089 -0.2197
 1917SOL     OW17212   3.094   1.464   5.800 -0.5224 -0.0309  0.3132
 1917SOL    HW117213   3.097   1.413   5.719  0.4389  0.2092  0.2040
 1917SOL    HW217214   3.143   1.543   5.779 -0.4148 -0.2983 -0.4325
 1918SOL     OW17215   3.986   3.810   8.307 -0.0244  0.2534 -0.0729
 1918SOL    HW117216   4.072   3.776   8.282  1.4846  1.2906  3.7466
 1918SOL    HW217217   4.006   3.831   8.398 -2.5813  0.7585  0.3713
 1919SOL     OW17218   1.927   0.466   5.709  0.3582 -0.0986 -0.4488
 1919SOL    HW117219   1.873   0.396   5.672 -0.8700 -0.4122  1.9730
 1919SOL    HW217220   1.875   0.547   5.704 -1.9287 -1.5881 -0.9027
 1920SOL     OW17221   1.054   0.078   2.813 -0.2837  0.3162  0.2739
 1920SOL    HW117222   1.033   4.713   2.781 -0.0796  0.5254 -0.4395
 1920SOL    HW217223   1.070   0.059   2.905 -1.6289 -1.2649  0.1788
 1921SOL     OW17224   4.048   3.694  13.442 -0.1866 -0.0948 -0.2338
 1921SOL    HW117225   4.129   3.648  13.463  0.5541  1.1092 -0.4315
 1921SOL    HW217226   4.064   3.777  13.487  1.7187 -0.4829 -0.1963
 1922SOL     OW17227   4.137   3.404   6.611  0.1722 -0.1483  0.1934
 1922SOL    HW117228   4.132   3.463   6.687 -1.2520 -1.0161  0.7731
 1922SOL    HW217229   4.049   3.413   6.574 -0.0621  0.0317  0.7852
 1923SOL     OW17230   2.229   3.290   0.757 -0.1634 -0.7652  0.1938
 1923SOL    HW117231   2.142   3.318   0.785 -1.0828  0.5498 -3.9388
 1923SOL    HW217232   2.270   3.362   0.710 -0.2484 -1.2883 -0.6862
 1924SOL     OW17233   0.879   0.654   2.882  0.1695  0.3289  0.3721
 1924SOL    HW117234   0.801   0.628   2.833  0.4283 -0.2896  0.2890
 1924SOL    HW217235   0.846   0.639   2.971 -2.1954  2.3497 -0.1494
 1925SOL     OW17236   0.284   2.526  13.390 -0.7059 -0.4452  0.7245
 1925SOL    HW117237   0.347   2.593  13.417 -1.3686  0.4468  0.0513
 1925SOL    HW217238   0.202   2.565  13.422  0.9874  3.0160  0.8400
 1926SOL     OW17239   2.227   4.361  12.311  0.4810 -0.0630  0.2955
 1926SOL    HW117240   2.131   4.370  12.308  0.5336  0.6342  0.7096
 1926SOL    HW217241   2.252   4.377  12.220  1.3681 -2.6837  0.0590
 1927SOL     OW17242   3.695   2.766   3.344 -0.5017  0.7450 -0.5134
 1927SOL    HW117243   3.734   2.847   3.377  1.3611 -1.6111  2.9487
 1927SOL    HW217244   3.671   2.789   3.254  2.4143 -0.1944 -1.5368
 1928SOL     OW17245   0.611   3.639   9.890  0.2385  0.2649 -0.3980
 1928SOL    HW117246   0.698   3.674   9.872 -0.7169  1.6493 -2.3409
 1928SOL    HW217247   0.565   3.652   9.807  0.9643  0.1789 -0.8083
 1929SOL     OW17248   4.465   2.199  15.578 -0.0714  0.3781 -0.5397
 1929SOL    HW117249   4.450   2.189  15.484  4.2533 -0.2400 -1.1361
 1929SOL    HW217250   4.557   2.224  15.574  0.3318 -1.4346 -2.6541
 1930SOL     OW17251   0.361   3.444   9.921 -0.0319  0.2045  0.1941
 1930SOL    HW117252   0.431   3.380   9.913 -1.9880 -2.0570  1.0572
 1930SOL    HW217253   0.402   3.523   9.886  2.7496 -0.5250  1.8145
 1931SOL     OW17254   0.763   1.485   4.463 -0.3649 -0.4486  0.0021
 1931SOL    HW117255   0.668   1.500   4.465 -0.2071  1.0684 -2.9667
 1931SOL    HW217256   0.772   1.562   4.407  0.7929  0.0006  0.8131
 1932SOL     OW17257   0.916   2.060  17.610  0.3610  0.0950  0.0415
 1932SOL    HW117258   0.907   2.023   0.007 -0.1938  1.0266  0.3701
 1932SOL    HW217259   0.849   2.007  17.566 -0.3034  0.3261  0.7799
 1933SOL     OW17260   2.388   0.000   5.196 -0.5201 -0.2381 -0.3322
 1933SOL    HW117261   2.296   4.708   5.219 -0.0179  1.4893  2.6826
 1933SOL    HW217262   2.418   0.080   5.240 -2.7425  0.3743  0.0679
 1934SOL     OW17263   3.564   3.811   3.720  0.0861  0.2536  0.1384
 1934SOL    HW117264   3.625   3.774   3.784  0.5690  0.9827  0.1046
 1934SOL    HW217265   3.525   3.731   3.684  0.3567  0.0356  0.3271
 1935SOL     OW17266   3.649   2.752   5.165 -0.7656 -0.5178  0.2074
 1935SOL    HW117267   3.575   2.782   5.218  0.8497  1.8456  1.1310
 1935SOL    HW217268   3.627   2.659   5.160 -2.5212 -0.0779 -0.1617
 1936SOL     OW17269   1.038   1.499   6.333 -0.3735  0.1121  0.1927
 1936SOL    HW117270   1.114   1.549   6.305 -0.1519 -0.3738 -0.0559
 1936SOL    HW217271   1.000   1.566   6.390 -1.0150 -1.7834  1.9914
 1937SOL     OW17272   2.044   1.721   6.441 -1.0964 -0.4132  0.2564
 1937SOL    HW117273   2.128   1.713   6.395 -1.3357 -1.2131 -0.0441
 1937SOL    HW217274   1.986   1.756   6.374  1.8895  0.4056 -1.9158
 1938SOL     OW17275   0.300   2.401   3.440 -0.1629  0.2884  0.2399
 1938SOL    HW117276   0.209   2.380   3.461  0.0764 -0.5597  0.4115
 1938SOL    HW217277   0.339   2.377   3.525 -0.0513 -1.6368 -0.3720
 1939SOL     OW17278   4.053   0.903  14.853  0.0682  0.0481 -0.3856
 1939SOL    HW117279   3.979   0.847  14.877  0.3121 -1.0683 -2.1754
 1939SOL    HW217280   4.076   0.847  14.778 -0.7694  1.2444 -1.5226
 1940SOL     OW17281   2.413   1.952  12.202  0.1551 -0.2983 -0.0059
 1940SOL    HW117282   2.400   1.925  12.293  1.4518  1.0031  0.5640
 1940SOL    HW217283   2.333   2.003  12.187 -0.7350 -1.3738  1.0231
 1941SOL     OW17284   3.730   2.114  17.444  0.1140  0.2782  0.3637
 1941SOL    HW117285   3.700   2.182  17.505  0.1049  1.6344 -1.1361
 1941SOL    HW217286   3.824   2.130  17.442  0.4039 -1.0902  2.8908
 1942SOL     OW17287   2.859   3.174   3.768  0.6053  0.3767  0.6134
 1942SOL    HW117288   2.772   3.145   3.796  0.7359 -1.1947 -0.5597
 1942SOL    HW217289   2.887   3.094   3.722 -1.5777  0.1456 -0.3388
 1943SOL     OW17290   0.222   4.310  15.283 -0.0487  0.2392 -0.4074
 1943SOL    HW117291   0.300   4.290  15.335 -0.5026 -2.0527 -0.6310
 1943SOL    HW217292   0.171   4.230  15.291  1.3341 -0.7436 -1.3432
 1944SOL     OW17293   1.348   3.098  12.181  0.1077  0.2562 -0.8365
 1944SOL    HW117294   1.328   3.030  12.246 -0.3350 -0.2303 -1.4888
 1944SOL    HW217295   1.443   3.097  12.189 -0.0358  0.9853  0.9779
 1945SOL     OW17296   2.481   1.917  12.751 -0.2833  0.0908 -0.4463
 1945SOL    HW117297   2.455   1.961  12.671  1.6414  0.0068 -1.1156
 1945SOL    HW217298   2.425   1.955  12.819 -1.1602 -2.0943  0.0610
 1946SOL     OW17299   2.121   0.944  10.867 -0.4064 -0.1370  0.6511
 1946SOL    HW117300   2.046   0.905  10.823  0.1434 -0.9454  0.4362
 1946SOL    HW217301   2.085   1.008  10.929 -2.7569  0.0202 -0.8817
 1947SOL     OW17302   2.771   1.865   3.404  0.3365 -0.3848 -0.3168
 1947SOL    HW117303   2.719   1.905   3.474 -1.0383  0.1056 -1.6390
 1947SOL    HW217304   2.856   1.907   3.417 -0.1606  0.5716 -0.1583
 1948SOL     OW17305   0.146   1.246   3.436  0.4433  0.1706 -0.1438
 1948SOL    HW117306   0.084   1.175   3.421  0.1399  0.2881  0.5653
 1948SOL    HW217307   0.209   1.241   3.363  0.8527 -2.2017  0.3976
 1949SOL     OW17308   0.834   0.927   5.470 -0.1278  0.8486  0.1344
 1949SOL    HW117309   0.822   0.944   5.563 -1.1768 -1.0110  0.3501
 1949SOL    HW217310   0.923   0.962   5.469  0.1760  0.0892  0.6365
 1950SOL     OW17311   0.196   2.394   4.591  0.2444 -0.2031  0.3834
 1950SOL    HW117312   0.150   2.398   4.675  2.2900  0.5828  1.4711
 1950SOL    HW217313   0.182   2.486   4.571  2.3904 -0.6002 -2.9601
 1951SOL     OW17314   3.889   0.240   7.951  0.5139 -0.0720 -0.0522
 1951SOL    HW117315   3.809   0.253   8.002 -0.6456  0.7779 -2.1123
 1951SOL    HW217316   3.860   0.247   7.860 -0.9760  1.1885  0.5427
 1952SOL     OW17317   1.102   2.386  12.765 -0.1056  0.2836  0.5381
 1952SOL    HW117318   1.099   2.351  12.855  0.2955 -1.0447  0.0354
 1952SOL    HW217319   1.185   2.358  12.727 -0.0895  0.5821  0.3543
 1953SOL     OW17320   0.441   1.430   4.448 -0.1270  0.1034  0.4885
 1953SOL    HW117321   0.440   1.431   4.353  0.4535  0.6973  0.4931
 1953SOL    HW217322   0.425   1.336   4.456 -0.6532  0.1247 -0.3596
 1954SOL     OW17323   0.733   1.506  14.273 -0.4957 -0.6310  0.1745
 1954SOL    HW117324   0.829   1.499  14.268 -0.6530 -2.1023 -0.8635
 1954SOL    HW217325   0.712   1.459  14.192 -0.5772  0.8754 -0.6694
 1955SOL     OW17326   4.578   0.967  13.563  0.1730 -0.2158 -1.0201
 1955SOL    HW117327   4.590   1.014  13.481  0.0382 -0.1029 -0.9750
 1955SOL    HW217328   4.671   0.950  13.579 -0.1895  1.6513  2.9886
 1956SOL     OW17329   4.562   2.044   8.182 -0.3234  0.2429 -0.7010
 1956SOL    HW117330   4.633   2.105   8.202 -1.5383  0.8843  1.6309
 1956SOL    HW217331   4.506   2.099   8.128 -1.9558 -0.1814  0.5569
 1957SOL     OW17332   1.828   0.062  11.672 -0.0630 -0.2447 -0.1157
 1957SOL    HW117333   1.834   4.713  11.609  0.1855 -0.4517  0.1409
 1957SOL    HW217334   1.864   0.136  11.623 -0.3800  0.6307  0.9855
 1958SOL     OW17335   4.717   2.511  12.078  0.1219 -0.2807 -0.1934
 1958SOL    HW117336   0.064   2.575  12.096  0.7896 -1.6090  1.9801
 1958SOL    HW217337   4.639   2.565  12.091  1.0484  1.0566 -0.0696
 1959SOL     OW17338   2.030   3.100  13.543 -0.7642  0.1318 -0.0772
 1959SOL    HW117339   1.941   3.093  13.578 -1.0451  1.1897 -0.5712
 1959SOL    HW217340   2.039   3.012  13.507 -1.3913 -0.4186  1.1025
 1960SOL     OW17341   1.646   0.007   6.328 -0.1872 -0.3328 -0.2051
 1960SOL    HW117342   1.603   4.692   6.250 -1.5435 -0.8951  0.8124
 1960SOL    HW217343   1.659   4.651   6.381 -1.2502 -0.0492  0.4849
 1961SOL     OW17344   3.906   4.633   2.684  0.0506 -0.3962 -0.2304
 1961SOL    HW117345   3.897   4.708   2.742  1.1857  0.8461 -1.6569
 1961SOL    HW217346   3.913   4.684   2.604 -1.1756 -0.0163 -0.0883
 1962SOL     OW17347   4.360   2.595   1.819 -0.2245  0.2412 -0.7880
 1962SOL    HW117348   4.265   2.586   1.811 -0.2083  0.8075 -1.6217
 1962SOL    HW217349   4.375   2.654   1.746 -0.4097  0.8436 -0.3339
 1963SOL     OW17350   2.720   2.010   1.276 -0.1306 -0.2594  0.1304
 1963SOL    HW117351   2.651   2.057   1.229  0.0879 -1.3419 -1.2588
 1963SOL    HW217352   2.742   1.950   1.205  0.7926 -0.9038  0.9560
 1964SOL     OW17353   3.047   2.273   0.072  0.2083  0.2982 -0.2919
 1964SOL    HW117354   3.138   2.258   0.046  0.0048  2.9621 -2.4251
 1964SOL    HW217355   3.011   2.326   0.001  0.2853  1.8708  0.8520
 1965SOL     OW17356   2.803   3.822  10.861 -0.2637  0.2102  0.0404
 1965SOL    HW117357   2.730   3.803  10.920 -0.9053  0.0312 -0.8089
 1965SOL    HW217358   2.762   3.871  10.789  0.0863  1.4043  0.6465
 1966SOL     OW17359   1.611   0.137   8.882  0.0595  0.8263  0.6282
 1966SOL    HW117360   1.677   0.193   8.924  0.0719  0.4123  1.1728
 1966SOL    HW217361   1.596   0.071   8.950  2.1969 -0.6011 -0.2848
 1967SOL     OW17362   2.680   3.838   6.367 -0.2662 -0.0952  0.7316
 1967SOL    HW117363   2.666   3.796   6.282 -0.5563 -3.0613  2.2291
 1967SOL    HW217364   2.601   3.837   6.421 -1.1479 -1.5519 -0.5839
 1968SOL     OW17365   2.797   1.481   2.052 -0.0624 -0.4781  0.2481
 1968SOL    HW117366   2.859   1.505   2.121  1.9208  1.8740 -2.2940
 1968SOL    HW217367   2.782   1.571   2.023  0.8962 -0.7590 -1.1410
 1969SOL     OW17368   1.497   2.727   4.772 -0.2452  0.2036  0.4157
 1969SOL    HW117369   1.507   2.793   4.704 -1.9668  0.0756  0.0386
 1969SOL    HW217370   1.420   2.683   4.735  0.8025  0.0179 -1.5446
 1970SOL     OW17371   2.136   3.342   8.783 -0.1051  0.6846  0.6358
 1970SOL    HW117372   2.064   3.363   8.724  0.0058  0.7146  0.5132
 1970SOL    HW217373   2.205   3.394   8.744 -0.9095  1.1316 -0.1700
 1971SOL     OW17374   2.858   0.671   4.569  0.1928  0.1892  0.0117
 1971SOL    HW117375   2.843   0.701   4.658  3.2114  4.1091 -0.8344
 1971SOL    HW217376   2.838   0.578   4.575  0.1447  0.2394  0.6427
 1972SOL     OW17377   2.523   3.397   5.453  0.2336 -0.4886 -0.1744
 1972SOL    HW117378   2.497   3.305   5.450  1.0496 -0.6902 -1.1141
 1972SOL    HW217379   2.595   3.399   5.516 -0.8438  0.5404  1.0008
 1973SOL     OW17380   0.232   2.509   7.697 -0.5556 -0.2975 -0.2161
 1973SOL    HW117381   0.296   2.540   7.761 -0.2963 -2.8482  0.7493
 1973SOL    HW217382   0.231   2.414   7.710  0.3580 -0.1762  0.7538
 1974SOL     OW17383   1.854   2.433   7.635 -0.5018 -0.3270  0.0656
 1974SOL    HW117384   1.895   2.446   7.721 -0.3616 -0.7686  0.0668
 1974SOL    HW217385   1.875   2.343   7.611 -1.4873 -0.0666 -1.7955
 1975SOL     OW17386   4.684   1.126   1.458  0.3803  0.0113 -0.5682
 1975SOL    HW117387   4.676   1.215   1.422 -3.4790 -0.2285 -0.3070
 1975SOL    HW217388   4.606   1.082   1.426  0.5444  0.1510 -1.1523
 1976SOL     OW17389   0.269   4.295   9.150 -0.2460  0.1780 -0.1795
 1976SOL    HW117390   0.255   4.379   9.107  2.0068  1.5025  1.6967
 1976SOL    HW217391   0.234   4.228   9.090  1.2217 -1.0792  0.3691
 1977SOL     OW17392   0.147   4.204  13.104  0.3978  0.2100  0.1490
 1977SOL    HW117393   0.230   4.217  13.150 -1.2382  0.3243  3.0756
 1977SOL    HW217394   0.182   4.171  13.022 -0.5591 -0.0789 -0.1377
 1978SOL     OW17395   4.655   1.929  15.502 -0.1977 -0.0860  0.0631
 1978SOL    HW117396   4.577   1.932  15.447 -1.9110 -2.2570  2.3388
 1978SOL    HW217397   4.664   1.836  15.525  0.5915  0.2734  1.2151
 1979SOL     OW17398   4.683   1.260   5.909 -0.1003  0.6870 -0.6162
 1979SOL    HW117399   4.600   1.216   5.928 -1.0528  2.9863  0.4405
 1979SOL    HW217400   4.664   1.346   5.946 -1.4933 -0.8068  2.1288
 1980SOL     OW17401   1.962   4.254   9.207 -0.0430 -0.4521 -0.0991
 1980SOL    HW117402   2.035   4.207   9.165  1.0251 -1.1382  2.5261
 1980SOL    HW217403   2.011   4.318   9.257  1.0304 -1.0301 -0.4204
 1981SOL     OW17404   3.624   0.075   5.524  0.0215  0.1465  0.1447
 1981SOL    HW117405   3.531   0.053   5.531  0.1153  0.9487  3.9764
 1981SOL    HW217406   3.617   0.171   5.522  1.2524  0.2187 -0.8814
 1982SOL     OW17407   4.372   2.269   2.975 -0.1382 -0.3007 -0.3900
 1982SOL    HW117408   4.437   2.225   3.030 -1.4855 -1.6765  0.1240
 1982SOL    HW217409   4.397   2.360   2.993  0.9555 -1.0046  1.5915
 1983SOL     OW17410   4.527   3.740   8.584 -0.6155 -0.4802 -0.4691
 1983SOL    HW117411   4.472   3.782   8.650 -0.0122 -0.6501  0.1414
 1983SOL    HW217412   4.558   3.678   8.651  1.9238  2.3285  0.9383
 1984SOL     OW17413   2.861   2.411   5.878  0.0721  0.3986  0.2959
 1984SOL    HW117414   2.887   2.320   5.864  1.4710  0.5199  2.0834
 1984SOL    HW217415   2.833   2.434   5.789  0.8372  1.7062  0.4018
 1985SOL     OW17416   0.708   2.755   9.816 -0.2984 -0.2449  0.6125
 1985SOL    HW117417   0.686   2.702   9.893  0.2361 -0.8868  0.3219
 1985SOL    HW217418   0.797   2.728   9.795 -0.8634 -0.3802 -1.5858
 1986SOL     OW17419   2.353   4.624   3.195  0.7012 -0.1689 -0.3184
 1986SOL    HW117420   2.372   4.697   3.254  1.8973 -1.8598  1.3907
 1986SOL    HW217421   2.366   4.665   3.110 -0.6882  0.9240  0.0007
 1987SOL     OW17422   1.486   0.840   7.079  0.5463  0.5609 -0.4759
 1987SOL    HW117423   1.443   0.768   7.033  0.7030 -0.6178  1.2223
 1987SOL    HW217424   1.423   0.867   7.146 -0.8672  1.0472 -1.9926
 1988SOL     OW17425   4.519   0.020   8.317 -0.6471  0.4086 -0.2444
 1988SOL    HW117426   4.427   0.024   8.344 -1.0088  0.8916 -1.5745
 1988SOL    HW217427   4.505   0.036   8.224  0.1879 -1.0995 -0.6409
 1989SOL     OW17428   2.297   4.422   5.577  0.1503  0.4967 -0.6536
 1989SOL    HW117429   2.274   4.357   5.511 -1.2690  0.0294  0.3151
 1989SOL    HW217430   2.214   4.467   5.594 -0.6251 -0.8983 -0.8179
 1990SOL     OW17431   0.311   2.082   4.677  0.6964 -0.3211 -0.0538
 1990SOL    HW117432   0.333   2.173   4.699 -0.5330 -0.4272  1.6447
 1990SOL    HW217433   0.268   2.080   4.591  2.3364 -0.3232 -0.8630
 1991SOL     OW17434   3.722   2.026   7.343  0.4175  0.6723 -0.0069
 1991SOL    HW117435   3.689   2.097   7.290  0.8928  1.2428  0.4615
 1991SOL    HW217436   3.805   2.016   7.298 -1.2522 -0.3443 -2.8543
 1992SOL     OW17437   2.340   2.262   6.179 -0.0965  0.2005 -0.0684
 1992SOL    HW117438   2.428   2.297   6.184 -0.6330  1.2227  2.1578
 1992SOL    HW217439   2.299   2.343   6.150 -0.6096 -0.7568 -2.0288
 1993SOL     OW17440   3.308   0.101   2.684  0.3810  0.3609  0.1025
 1993SOL    HW117441   3.401   0.104   2.704  0.6979  1.5499 -1.5653
 1993SOL    HW217442   3.282   0.127   2.773  2.4612 -1.6627  1.2717
 1994SOL     OW17443   1.696   3.497   9.043 -0.0261 -0.1602  0.2229
 1994SOL    HW117444   1.607   3.479   9.072  0.5189 -0.8816  1.4635
 1994SOL    HW217445   1.716   3.563   9.110  1.4378 -0.5910  0.2076
 1995SOL     OW17446   3.736   0.393   7.051  0.3152  0.8512 -0.0282
 1995SOL    HW117447   3.673   0.342   6.999  2.2766 -1.7962  0.2086
 1995SOL    HW217448   3.685   0.462   7.095 -0.2320  0.7091 -0.4348
 1996SOL     OW17449   4.076   3.471   8.422  0.1371 -0.1208  0.2848
 1996SOL    HW117450   4.141   3.528   8.463 -1.7587  3.1123 -1.1838
 1996SOL    HW217451   4.052   3.524   8.346  0.0830  1.0565  1.1190
 1997SOL     OW17452   4.671   1.759  14.750 -0.1077 -0.3646 -0.5109
 1997SOL    HW117453   4.673   1.851  14.777 -0.4098 -0.8490  1.1332
 1997SOL    HW217454   4.576   1.758  14.741 -0.1460 -0.8393  0.0110
 1998SOL     OW17455   2.028   1.694   2.014 -0.4038 -0.8014  0.3164
 1998SOL    HW117456   1.986   1.715   2.097  2.1115  0.3073  1.2953
 1998SOL    HW217457   1.995   1.605   1.996  0.6976 -1.1400 -0.0502
 1999SOL     OW17458   1.012   2.221  13.696  0.0295 -0.6257 -0.8191
 1999SOL    HW117459   1.021   2.245  13.604  2.4995  0.6903 -0.2427
 1999SOL    HW217460   1.085   2.165  13.723  0.9123  1.0551  0.2865
 2000SOL     OW17461   2.023   1.471   4.294  0.5005  0.3690  0.4242
 2000SOL    HW117462   2.034   1.466   4.389 -1.2359  0.9144  0.6581
 2000SOL    HW217463   2.013   1.376   4.286 -1.5891  0.6655 -0.5467
 2001SOL     OW17464   1.751   3.750   1.611 -0.7451 -0.3699  0.0595
 2001SOL    HW117465   1.761   3.752   1.516  0.6878  1.8348  0.2631
 2001SOL    HW217466   1.813   3.678   1.627 -1.9810 -1.6843 -1.0206
 2002SOL     OW17467   4.331   1.808  16.361 -0.1330  0.1620 -0.2169
 2002SOL    HW117468   4.411   1.823  16.411  1.0072 -0.2914 -1.9003
 2002SOL    HW217469   4.297   1.732  16.408  0.9171 -1.6936 -2.4200
 2003SOL     OW17470   0.729   1.056   3.641 -0.5142 -0.3184  0.6748
 2003SOL    HW117471   0.659   1.096   3.692  0.2259 -0.4214  1.7729
 2003SOL    HW217472   0.746   0.966   3.669  1.0217  0.3019  1.7390
 2004SOL     OW17473   0.078   2.561  12.467  0.0791  0.0567 -0.4563
 2004SOL    HW117474   0.010   2.622  12.495  1.9518  1.1242  1.7713
 2004SOL    HW217475   0.124   2.547  12.550  0.0794 -0.8522 -0.6057
 2005SOL     OW17476   0.745   2.882   1.318  0.4616  0.1403 -0.3507
 2005SOL    HW117477   0.740   2.787   1.326  1.0387  0.1234 -0.1340
 2005SOL    HW217478   0.653   2.890   1.293  0.4339 -1.1722 -0.6511
 2006SOL     OW17479   4.110   2.573   3.611  0.0150  0.3957  0.0770
 2006SOL    HW117480   4.103   2.660   3.571  1.2374  0.0510 -0.8712
 2006SOL    HW217481   4.016   2.553   3.602  0.0457 -0.2538  1.1624
 2007SOL     OW17482   2.489   3.050   4.573 -0.2912 -0.0541 -0.5318
 2007SOL    HW117483   2.575   3.053   4.531  0.0468  1.3219  0.2527
 2007SOL    HW217484   2.460   2.959   4.564  0.8037 -0.5829  1.1685
 2008SOL     OW17485   4.047   2.446  13.585  0.1490 -0.4133  0.2457
 2008SOL    HW117486   4.106   2.485  13.649  0.7494  1.0763 -1.2231
 2008SOL    HW217487   4.042   2.358  13.622  1.0486 -1.0624 -1.1695
 2009SOL     OW17488   0.688   2.464   8.806 -0.2781  0.0116 -0.4843
 2009SOL    HW117489   0.680   2.394   8.871 -0.8523  1.0973  0.6286
 2009SOL    HW217490   0.704   2.540   8.863  0.3596 -1.2863  1.0959
 2010SOL     OW17491   3.399   2.959   3.327  0.4582 -0.1678  0.3888
 2010SOL    HW117492   3.478   3.011   3.344 -0.1349  1.1761 -1.0054
 2010SOL    HW217493   3.383   3.000   3.242 -0.0967 -0.2016  0.4794
 2011SOL     OW17494   3.721   2.533  13.461  0.3362  0.0011 -0.3164
 2011SOL    HW117495   3.703   2.457  13.517 -0.5984  1.5754  1.5147
 2011SOL    HW217496   3.816   2.529  13.451  0.3626 -1.2559  0.3798
 2012SOL     OW17497   2.195   2.196  13.558  0.2180 -0.4907  0.1510
 2012SOL    HW117498   2.134   2.260  13.595  1.6537  1.4445 -0.8191
 2012SOL    HW217499   2.280   2.236  13.577 -0.7623  1.5683  0.2237
 2013SOL     OW17500   2.191   2.603  14.861  0.2503 -0.1840  0.6543
 2013SOL    HW117501   2.123   2.597  14.794 -1.5539 -0.0414  2.4974
 2013SOL    HW217502   2.176   2.696  14.880  0.6529 -0.6404  3.1734
 2014SOL     OW17503   0.990   3.325   2.951  0.9219  0.8272 -0.0049
 2014SOL    HW117504   1.045   3.403   2.953 -1.4571  2.4643  1.4711
 2014SOL    HW217505   0.933   3.351   3.024  0.4908 -1.3096  0.4378
 2015SOL     OW17506   0.675   2.862   8.004 -0.6623 -0.1277  0.0814
 2015SOL    HW117507   0.628   2.885   7.924  0.1820 -0.9678 -0.6628
 2015SOL    HW217508   0.761   2.864   7.963  0.3227 -0.7038  2.1102
 2016SOL     OW17509   1.808   4.213  13.012  0.2896  0.3976  0.1695
 2016SOL    HW117510   1.784   4.126  13.044 -0.4801  0.7858  0.6410
 2016SOL    HW217511   1.900   4.213  13.038 -0.1814  3.0338  1.8733
 2017SOL     OW17512   2.971   1.555  10.810 -0.6083 -0.3688 -0.3831
 2017SOL    HW117513   3.041   1.602  10.764 -0.5751  0.5133  0.5695
 2017SOL    HW217514   2.899   1.618  10.800 -1.5852 -1.9119 -3.0018
 2018SOL     OW17515   3.437   1.706  13.757 -0.5508  0.2098  0.5130
 2018SOL    HW117516   3.466   1.781  13.705  1.2600  0.1463  1.4111
 2018SOL    HW217517   3.482   1.639  13.706 -1.1590 -0.1064  0.3919
 2019SOL     OW17518   1.683   4.068   7.416 -0.4903 -0.0942  0.0070
 2019SOL    HW117519   1.688   3.986   7.367  0.0175 -0.5044  0.7458
 2019SOL    HW217520   1.590   4.086   7.433 -0.7509 -0.5556 -0.9272
 2020SOL     OW17521   1.519   1.547   6.125  0.0049 -0.4271 -0.0126
 2020SOL    HW117522   1.432   1.508   6.116 -0.8685  1.5037 -0.0300
 2020SOL    HW217523   1.576   1.470   6.135  0.4134 -0.0191  0.7762
 2021SOL     OW17524   4.156   4.010   6.467  0.1823 -0.1996 -0.3307
 2021SOL    HW117525   4.091   3.950   6.503  0.5117 -0.5091 -0.2580
 2021SOL    HW217526   4.140   3.998   6.374  1.5800  0.6547 -0.6864
 2022SOL     OW17527   3.085   2.363  14.018  0.0489  0.4504  0.2909
 2022SOL    HW117528   3.084   2.458  14.030 -0.1082  0.5167 -0.2235
 2022SOL    HW217529   3.064   2.324  14.103  0.6217 -1.6814 -0.5213
 2023SOL     OW17530   3.219   3.243   4.157  0.2530 -0.2835 -0.4885
 2023SOL    HW117531   3.243   3.336   4.160  2.0201 -0.7662  0.4444
 2023SOL    HW217532   3.163   3.261   4.081  1.6787  1.9675 -1.0011
 2024SOL     OW17533   2.452   0.932  17.315  0.3354  0.3631  0.2149
 2024SOL    HW117534   2.444   0.975  17.400 -0.5958  2.4577 -0.9312
 2024SOL    HW217535   2.523   0.987  17.281 -1.1877  1.6987 -0.7686
 2025SOL     OW17536   1.701   2.343  16.592 -1.0694  0.2073 -0.5375
 2025SOL    HW117537   1.653   2.289  16.655  1.2097 -0.3230  0.7267
 2025SOL    HW217538   1.671   2.422  16.636  1.6448  0.6638  0.4901
 2026SOL     OW17539   4.593   3.994   4.871 -0.1609 -0.0221 -0.7084
 2026SOL    HW117540   4.500   3.973   4.865 -0.1012 -0.6435  0.4942
 2026SOL    HW217541   4.602   3.997   4.967  1.9973 -2.7234 -0.8299
 2027SOL     OW17542   0.141   4.273   6.686 -0.1219 -0.6341 -0.2898
 2027SOL    HW117543   0.211   4.312   6.738 -0.0964  2.3347 -2.5659
 2027SOL    HW217544   0.086   4.229   6.751 -1.8047  0.1605 -1.1541
 2028SOL     OW17545   1.903   1.911   3.779 -0.3927  0.0544 -0.5504
 2028SOL    HW117546   1.969   1.917   3.710 -1.7521  3.8223 -1.5012
 2028SOL    HW217547   1.823   1.898   3.729 -1.9460  0.4642  1.7902
 2029SOL     OW17548   3.860   0.114  11.722 -0.5221  0.1575 -0.1735
 2029SOL    HW117549   3.798   0.182  11.698  1.2572  2.0982  0.6823
 2029SOL    HW217550   3.896   0.084  11.638  2.1123  1.5634  0.4360
 2030SOL     OW17551   0.717   0.138   5.629 -0.5343  0.1848 -0.6014
 2030SOL    HW117552   0.686   0.177   5.547 -2.3509  1.2203  0.5646
 2030SOL    HW217553   0.636   0.110   5.673 -2.8923  2.9161 -3.2167
 2031SOL     OW17554   2.824   1.999   5.014 -0.0656  0.4051  0.0467
 2031SOL    HW117555   2.849   2.003   5.106 -0.8839  0.8514  0.2464
 2031SOL    HW217556   2.861   1.914   4.990 -0.1341  0.0462  1.2056
 2032SOL     OW17557   1.229   4.498   8.067  0.1328  0.2597 -0.3931
 2032SOL    HW117558   1.241   4.579   8.117 -0.9384  0.6925 -0.8298
 2032SOL    HW217559   1.197   4.446   8.140  4.2826 -1.1746  0.4211
 2033SOL     OW17560   2.421   4.168   5.687 -0.1378 -0.7263 -0.0142
 2033SOL    HW117561   2.366   4.240   5.657 -0.3746 -0.8901  0.0274
 2033SOL    HW217562   2.497   4.223   5.704  0.4961 -1.0851 -1.6843
 2034SOL     OW17563   3.257   1.278  11.415 -0.1322 -0.8266  0.9848
 2034SOL    HW117564   3.307   1.200  11.441 -0.3289 -1.3844 -0.3408
 2034SOL    HW217565   3.191   1.232  11.364  0.6476  0.6617 -1.3826
 2035SOL     OW17566   1.794   1.403   4.564  0.3951  0.1647 -0.0705
 2035SOL    HW117567   1.706   1.439   4.570 -0.1069 -0.9376 -0.9541
 2035SOL    HW217568   1.783   1.308   4.557  1.4589  0.1122 -1.1304
 2036SOL     OW17569   2.149   2.961  16.704  0.1303  0.4835 -0.1736
 2036SOL    HW117570   2.163   3.014  16.783  0.4223 -1.6292  1.2065
 2036SOL    HW217571   2.055   2.945  16.703  0.2019  0.0569 -0.2352
 2037SOL     OW17572   1.817   4.674   2.427  0.1665 -0.4998  0.1108
 2037SOL    HW117573   1.774   4.594   2.457  0.0079 -0.5509 -0.2513
 2037SOL    HW217574   1.846   4.645   2.341  1.9651  2.1463 -0.1778
 2038SOL     OW17575   1.829   3.176   5.985  0.3800  0.1600  0.5672
 2038SOL    HW117576   1.746   3.196   5.943 -1.0200 -3.0186  1.8662
 2038SOL    HW217577   1.886   3.247   5.956 -1.6302  1.2065 -0.8045
 2039SOL     OW17578   2.652   4.439   6.608 -0.1176  0.2882  0.0829
 2039SOL    HW117579   2.598   4.383   6.552  0.7056 -0.5211  0.1004
 2039SOL    HW217580   2.591   4.437   6.682 -1.8239  0.8997 -1.3132
 2040SOL     OW17581   3.875   3.903   2.615  0.4414 -0.1891 -0.3668
 2040SOL    HW117582   3.906   3.916   2.525  1.3151 -2.2177 -0.3481
 2040SOL    HW217583   3.786   3.935   2.602  0.8591  0.8216 -0.7549
 2041SOL     OW17584   3.207   2.444   5.778  0.7186 -0.0993  0.3830
 2041SOL    HW117585   3.155   2.415   5.704  0.3804  0.4075  0.4180
 2041SOL    HW217586   3.224   2.356   5.811 -2.0923 -0.5088  0.7464
 2042SOL     OW17587   3.733   0.571  14.567 -0.1325 -0.2839 -0.2788
 2042SOL    HW117588   3.816   0.609  14.538  0.0042 -0.4004 -0.0402
 2042SOL    HW217589   3.750   0.555  14.660  2.2541  1.9182 -0.3350
 2043SOL     OW17590   0.660   1.961   6.020 -0.0554 -0.0361  0.5091
 2043SOL    HW117591   0.577   1.915   6.005 -0.4047  1.2060 -1.3899
 2043SOL    HW217592   0.657   1.979   6.114  0.6324  2.4719  0.0669
 2044SOL     OW17593   1.109   2.516  16.444 -0.1975  0.3347  0.3693
 2044SOL    HW117594   1.190   2.474  16.416 -0.2006  1.9458 -2.0448
 2044SOL    HW217595   1.125   2.537  16.536  1.2176 -0.8454  0.3877
 2045SOL     OW17596   0.120   0.098  10.683  0.2177  0.1401  0.0226
 2045SOL    HW117597   0.027   0.083  10.665  0.4070  1.2873 -1.8870
 2045SOL    HW217598   0.115   0.111  10.778 -3.2959  0.2231 -0.1675
 2046SOL     OW17599   3.657   0.675   4.436  0.4285 -0.4640 -0.8532
 2046SOL    HW117600   3.700   0.590   4.446  1.4314  0.0079 -1.1544
 2046SOL    HW217601   3.696   0.701   4.353 -1.1257  0.6958 -1.2258
 2047SOL     OW17602   1.904   1.484   1.904  0.0231 -0.1325 -0.1398
 2047SOL    HW117603   1.809   1.490   1.898 -0.1134 -0.8484  1.1875
 2047SOL    HW217604   1.911   1.388   1.897  0.8488 -0.2050  1.6187
 2048SOL     OW17605   1.475   1.842   6.292 -0.1767  0.5151  0.4626
 2048SOL    HW117606   1.397   1.791   6.272 -0.3362  1.8522 -2.3037
 2048SOL    HW217607   1.432   1.914   6.337 -2.4036 -0.9614  0.6833
 2049SOL     OW17608   4.211   2.148   5.152 -0.0410  0.7166 -0.2196
 2049SOL    HW117609   4.252   2.230   5.124 -1.1899  0.8543 -1.4959
 2049SOL    HW217610   4.191   2.128   5.061  1.9606 -0.5065 -0.4040
 2050SOL     OW17611   3.953   2.508  12.367 -0.1081  0.0430 -0.4084
 2050SOL    HW117612   3.880   2.565  12.343 -0.2847 -0.5749 -1.3508
 2050SOL    HW217613   3.964   2.534  12.458  2.8212 -2.3647 -0.0607
 2051SOL     OW17614   3.980   0.289   5.475  0.0616  0.4178  0.0133
 2051SOL    HW117615   3.975   0.263   5.567  2.6060  1.8749  0.5798
 2051SOL    HW217616   4.053   0.228   5.462 -0.4821  0.6195 -3.8984
 2052SOL     OW17617   1.322   2.033   6.446 -0.3000  0.1152  0.9532
 2052SOL    HW117618   1.351   2.117   6.479  3.4056  0.1016 -2.2320
 2052SOL    HW217619   1.232   2.030   6.478  0.2538  1.3639  2.6216
 2053SOL     OW17620   4.162   3.410   1.711 -0.1481  0.2228 -0.2081
 2053SOL    HW117621   4.215   3.336   1.681  0.8151  1.4558 -1.6173
 2053SOL    HW217622   4.077   3.376   1.738  0.0373 -0.8452 -0.9638
 2054SOL     OW17623   1.906   0.804   8.653  0.2223 -0.4347 -0.0531
 2054SOL    HW117624   1.965   0.879   8.644 -1.0041  0.4550 -0.6715
 2054SOL    HW217625   1.830   0.848   8.691 -0.6877 -1.6177 -0.4971
 2055SOL     OW17626   4.087   2.123  14.017  0.2128 -0.0840  0.7054
 2055SOL    HW117627   4.019   2.078  14.067  0.2391  0.1878  0.9842
 2055SOL    HW217628   4.070   2.214  14.041  0.7591 -0.2768  1.7897
 2056SOL     OW17629   2.949   1.425   6.250 -0.0493 -0.5386 -0.2685
 2056SOL    HW117630   3.031   1.407   6.204 -0.0628 -2.9170  0.6242
 2056SOL    HW217631   2.963   1.370   6.327 -0.6714 -0.6021 -0.1975
 2057SOL     OW17632   0.187   2.137   1.871 -0.2638 -0.0755  0.3688
 2057SOL    HW117633   0.270   2.089   1.876 -0.1106  0.1583  0.1036
 2057SOL    HW217634   0.188   2.171   1.782 -0.7240 -1.7071 -0.2610
 2058SOL     OW17635   0.204   1.052   6.272  0.1964 -0.0821 -0.7210
 2058SOL    HW117636   0.129   1.109   6.288 -1.5604 -2.2917 -1.0358
 2058SOL    HW217637   0.187   0.989   6.341 -0.4972  1.5389  0.5827
 2059SOL     OW17638   3.815   2.532   3.253  0.3526 -0.1262 -0.5233
 2059SOL    HW117639   3.781   2.605   3.305 -0.9817 -1.2577  0.1988
 2059SOL    HW217640   3.733   2.489   3.231  0.9754 -1.4883 -0.2024
 2060SOL     OW17641   3.586   0.451   6.344 -0.1398  0.1544  0.2210
 2060SOL    HW117642   3.508   0.497   6.374  1.0183  0.4020  2.9023
 2060SOL    HW217643   3.650   0.513   6.379  0.9862 -0.9785  0.2066
 2061SOL     OW17644   0.131   3.711   1.419 -0.3806 -0.0869 -0.0012
 2061SOL    HW117645   0.107   3.700   1.511  4.4484  2.0369  1.4892
 2061SOL    HW217646   0.089   3.795   1.401  2.1198  0.6070 -2.5555
 2062SOL     OW17647   3.422   3.244   5.818  0.2746 -0.0470  0.4695
 2062SOL    HW117648   3.468   3.325   5.840 -1.8011  1.1878  0.3083
 2062SOL    HW217649   3.470   3.180   5.870  0.4609 -2.2840 -2.4385
 2063SOL     OW17650   4.335   2.370   9.276 -0.0441  0.2576 -0.2585
 2063SOL    HW117651   4.249   2.400   9.303 -0.8562 -1.9151 -0.4261
 2063SOL    HW217652   4.323   2.276   9.258  2.3563 -0.0283 -0.3650
 2064SOL     OW17653   3.168   3.649   4.663  0.6267 -0.1183  0.3122
 2064SOL    HW117654   3.081   3.616   4.641  0.3997  0.1116  0.8655
 2064SOL    HW217655   3.179   3.721   4.601 -1.8275 -0.0366 -0.0312
 2065SOL     OW17656   4.013   2.597   2.096  0.1052  0.4510  0.8499
 2065SOL    HW117657   3.946   2.530   2.089  0.9403 -0.1751 -1.1926
 2065SOL    HW217658   4.081   2.563   2.155 -1.3579 -2.7376  0.6804
 2066SOL     OW17659   0.826   3.106  17.413 -0.2943 -0.0384 -0.0421
 2066SOL    HW117660   0.801   3.015  17.395  2.8895 -0.3876 -2.6072
 2066SOL    HW217661   0.915   3.121  17.381  0.5373 -1.0963  1.8131
 2067SOL     OW17662   3.557   0.938  12.568 -0.1051  0.6506  0.2807
 2067SOL    HW117663   3.504   0.950  12.647  0.1764  0.7158  0.4623
 2067SOL    HW217664   3.578   1.029  12.550 -1.5152  0.9385  0.0775
 2068SOL     OW17665   1.958   3.759   7.483  0.4675 -0.2004  0.2125
 2068SOL    HW117666   2.040   3.737   7.526  0.0718  0.2698  1.2082
 2068SOL    HW217667   1.912   3.676   7.494  0.8611 -0.2758  1.2179
 2069SOL     OW17668   3.023   4.270   7.916  0.6050 -0.5275  0.0763
 2069SOL    HW117669   3.106   4.304   7.950  0.1258  0.6441  0.0789
 2069SOL    HW217670   2.968   4.295   7.990  2.6947  1.2615  1.0339
 2070SOL     OW17671   4.155   1.185  12.375  0.7201 -0.1896  1.3896
 2070SOL    HW117672   4.210   1.206  12.450  0.3627  2.7767  0.8149
 2070SOL    HW217673   4.183   1.255  12.316 -0.9638 -1.0443 -0.4283
 2071SOL     OW17674   2.026   3.084   3.994 -0.4399 -0.5408 -0.2158
 2071SOL    HW117675   1.940   3.044   3.987 -0.9465  0.3502  0.9012
 2071SOL    HW217676   2.047   3.092   4.087 -0.2591  0.2205 -0.3156
 2072SOL     OW17677   0.135   1.760   9.144  0.2513  0.4122  0.2593
 2072SOL    HW117678   0.176   1.680   9.176 -0.2420  0.2794  0.5665
 2072SOL    HW217679   0.056   1.762   9.198  0.3562 -3.2239  0.4986
 2073SOL     OW17680   0.868   1.336  12.666  0.4325  0.0269 -0.6056
 2073SOL    HW117681   0.782   1.305  12.641  0.7402 -0.4367 -1.0823
 2073SOL    HW217682   0.841   1.400  12.733 -2.1931 -0.7424 -0.9417
 2074SOL     OW17683   0.970   0.711  12.378  1.1026 -0.0546 -0.2173
 2074SOL    HW117684   1.032   0.641  12.398 -0.0822 -1.0847 -0.2036
 2074SOL    HW217685   1.022   0.792  12.378 -0.5954  1.0189 -1.3025
 2075SOL     OW17686   4.119   3.803  10.653  0.0933  0.0459 -0.1518
 2075SOL    HW117687   4.104   3.709  10.659 -0.1837  0.0948 -0.0757
 2075SOL    HW217688   4.076   3.832  10.734 -0.3381  2.1811 -1.1310
 2076SOL     OW17689   1.279   2.892   3.649 -0.0169 -0.6890 -0.9467
 2076SOL    HW117690   1.321   2.833   3.586 -0.9700 -0.3145 -1.9176
 2076SOL    HW217691   1.241   2.965   3.600 -1.0348 -1.2085 -0.9091
 2077SOL     OW17692   1.706   4.260   2.034  0.2417  0.0360 -0.6549
 2077SOL    HW117693   1.683   4.246   1.942 -0.6279  3.4452 -0.9266
 2077SOL    HW217694   1.697   4.354   2.049  0.8780  0.0084 -0.0781
 2078SOL     OW17695   0.345   0.458   6.450  0.5896  0.7607  0.6234
 2078SOL    HW117696   0.433   0.424   6.469  0.6632 -0.1604 -1.3474
 2078SOL    HW217697   0.295   0.400   6.508  2.5643  1.1549  2.7017
 2079SOL     OW17698   0.793   4.092  13.228  0.3508  0.1522  0.1895
 2079SOL    HW117699   0.719   4.061  13.280  0.5675  1.6046  1.3419
 2079SOL    HW217700   0.824   4.004  13.205  0.6377  0.1032  0.7691
 2080SOL     OW17701   3.115   4.283   9.003  0.1248  0.0186 -0.1929
 2080SOL    HW117702   3.198   4.239   9.021 -1.0668 -1.5098  1.5578
 2080SOL    HW217703   3.056   4.210   8.987 -1.1984  1.3435 -1.3826
 2081SOL     OW17704   0.984   3.990  13.799 -0.5697  0.3809  0.1022
 2081SOL    HW117705   1.012   4.016  13.887 -0.1102  2.3385 -0.6293
 2081SOL    HW217706   1.068   3.976  13.756 -0.2681 -0.0402  0.8146
 2082SOL     OW17707   0.004   4.223   3.745  0.4507  0.3015 -0.0195
 2082SOL    HW117708   0.089   4.252   3.777  0.2987  0.8857 -0.1447
 2082SOL    HW217709   4.673   4.201   3.822 -0.8649  0.0762 -0.9787
 2083SOL     OW17710   1.048   2.756   7.255 -0.2928 -0.4990 -0.6247
 2083SOL    HW117711   1.109   2.830   7.251 -1.1488  0.3030  1.1608
 2083SOL    HW217712   1.059   2.721   7.343  0.2831  0.1269 -0.4499
 2084SOL     OW17713   0.514   0.825   6.131 -0.4701  0.2592 -0.4698
 2084SOL    HW117714   0.582   0.880   6.091  0.3546 -0.4011  0.0273
 2084SOL    HW217715   0.440   0.886   6.133 -0.5064  0.1562  1.1975
 2085SOL     OW17716   0.827   0.432  13.939 -0.1309  0.0818 -0.0913
 2085SOL    HW117717   0.883   0.355  13.947 -0.5470 -0.4283 -2.1130
 2085SOL    HW217718   0.891   0.497  13.968 -1.0100  1.1491 -0.5275
 2086SOL     OW17719   0.840   4.457   1.824  0.0944  0.1452 -0.4186
 2086SOL    HW117720   0.808   4.530   1.771  0.5355 -0.4129 -1.4676
 2086SOL    HW217721   0.796   4.482   1.905  0.6242  1.4000 -0.5096
 2087SOL     OW17722   0.362   3.304   3.153 -0.0864 -0.0657 -0.1058
 2087SOL    HW117723   0.392   3.388   3.116 -1.9753  1.2477  1.3569
 2087SOL    HW217724   0.285   3.338   3.198  0.2866 -1.4926  1.6081
 2088SOL     OW17725   2.235   2.109   3.564 -0.9135  0.5301 -0.3425
 2088SOL    HW117726   2.169   2.142   3.626  0.2354 -0.1788  1.2773
 2088SOL    HW217727   2.187   2.045   3.512  0.3391 -0.4771 -0.2379
 2089SOL     OW17728   0.610   4.136   4.959  0.3332  0.7944 -0.0655
 2089SOL    HW117729   0.685   4.077   4.953  0.7143  0.9417  3.2294
 2089SOL    HW217730   0.640   4.217   4.917 -1.3152  0.5834 -1.6575
 2090SOL     OW17731   1.421   0.567   0.557 -0.0333  0.1317  0.1427
 2090SOL    HW117732   1.477   0.640   0.584  0.8174 -0.8773  1.0763
 2090SOL    HW217733   1.485   0.508   0.517  0.5938  0.5384  0.5572
 2091SOL     OW17734   2.988   3.964  11.031 -0.0625  0.4166 -0.4600
 2091SOL    HW117735   2.947   3.928  10.952  0.7063 -0.4893 -0.4396
 2091SOL    HW217736   2.965   3.899  11.098  1.7115 -0.9033 -1.1308
 2092SOL     OW17737   0.130   4.522   8.459 -0.2219  0.0329 -0.1157
 2092SOL    HW117738   0.168   4.434   8.464  0.5797  0.4903  1.6060
 2092SOL    HW217739   0.046   4.495   8.497 -1.1082  2.3761 -0.4356
 2093SOL     OW17740   4.589   2.758  15.023  0.0034 -0.4510 -0.0857
 2093SOL    HW117741   4.502   2.721  15.037 -0.3537 -0.0694 -1.2700
 2093SOL    HW217742   4.567   2.843  14.984  2.3092  0.2042  0.0273
 2094SOL     OW17743   2.419   0.478  14.919  0.1185 -0.2775  0.1942
 2094SOL    HW117744   2.461   0.558  14.886  2.2524 -1.6342 -0.3685
 2094SOL    HW217745   2.412   0.419  14.844 -0.2126 -0.5453  0.4354
 2095SOL     OW17746   1.711   0.691  16.350 -0.1467  0.7953 -0.1502
 2095SOL    HW117747   1.734   0.627  16.282  1.7172  1.2015  0.1015
 2095SOL    HW217748   1.616   0.695  16.340 -0.0778  0.9112 -0.7466
 2096SOL     OW17749   3.957   3.963   0.271 -0.4466  0.1701  0.1388
 2096SOL    HW117750   4.025   3.966   0.339 -0.5275 -1.4629  0.2815
 2096SOL    HW217751   3.889   4.019   0.308  1.3622  1.8334  1.0034
 2097SOL     OW17752   2.696   4.107   6.458  0.5873 -0.0785 -0.0878
 2097SOL    HW117753   2.657   4.033   6.504 -0.0029  0.1573 -0.2077
 2097SOL    HW217754   2.625   4.169   6.469  0.3326 -0.0331 -1.9924
 2098SOL     OW17755   0.228   3.999   3.385 -0.3247 -0.0151 -0.1793
 2098SOL    HW117756   0.296   3.947   3.429 -0.2913  1.8416  1.9599
 2098SOL    HW217757   0.223   4.077   3.440 -2.2213 -0.7736  0.7184
 2099SOL     OW17758   2.572   2.746   3.807 -0.1522 -0.7546 -0.1037
 2099SOL    HW117759   2.533   2.777   3.889  2.2012 -1.1692  1.1842
 2099SOL    HW217760   2.602   2.659   3.832 -1.9632 -1.3551 -0.0604
 2100SOL     OW17761   1.016   1.280   1.613  0.0682 -0.1084 -0.0280
 2100SOL    HW117762   0.979   1.362   1.581  0.9268 -0.0038 -0.7503
 2100SOL    HW217763   0.957   1.215   1.576  0.1195  0.6483 -1.4281
 2101SOL     OW17764   4.616   0.378  15.412  0.1022 -0.5957 -0.7542
 2101SOL    HW117765   4.533   0.376  15.364  0.4909 -0.3555 -1.4415
 2101SOL    HW217766   4.659   0.389  15.327  0.2885 -1.2675 -0.7471
 2102SOL     OW17767   1.270   0.872  15.538 -0.1877  0.3655  0.1486
 2102SOL    HW117768   1.281   0.822  15.458 -1.1051 -2.4319  1.7682
 2102SOL    HW217769   1.300   0.961  15.516  3.0743 -0.7448  0.0654
 2103SOL     OW17770   1.974   1.483   7.867 -0.2421  0.3152  0.0726
 2103SOL    HW117771   1.996   1.520   7.953 -0.9433  1.4407 -0.2335
 2103SOL    HW217772   2.032   1.536   7.813  1.5966 -0.4654  1.2553
 2104SOL     OW17773   3.635   2.487  12.576 -0.4754 -0.1435 -0.1549
 2104SOL    HW117774   3.653   2.401  12.538  1.9108  1.0870 -1.7653
 2104SOL    HW217775   3.591   2.536  12.506  0.9565 -0.7856 -1.5224
 2105SOL     OW17776   1.094   1.374   5.525 -0.2348 -0.1484  0.2806
 2105SOL    HW117777   1.078   1.467   5.506 -1.2747 -0.5754 -0.9115
 2105SOL    HW217778   1.188   1.368   5.508 -0.5229  1.1764 -1.7645
 2106SOL     OW17779   3.709   0.938   9.796 -0.1982 -0.7456 -0.0616
 2106SOL    HW117780   3.639   0.874   9.787 -1.0263  0.1474  0.1011
 2106SOL    HW217781   3.661   1.020   9.781 -1.4035 -1.3783  0.3785
 2107SOL     OW17782   1.439   0.749   6.161 -0.1470 -0.1411 -0.3672
 2107SOL    HW117783   1.379   0.769   6.233 -2.3075 -3.7308 -1.1887
 2107SOL    HW217784   1.418   0.664   6.124  0.6065 -0.5684  0.1927
 2108SOL     OW17785   4.059   0.446   4.087 -0.0178 -0.3859 -0.1839
 2108SOL    HW117786   4.065   0.518   4.024  0.8469  0.5300  0.9375
 2108SOL    HW217787   4.122   0.463   4.157 -0.3064  0.6375 -0.1681
 2109SOL     OW17788   1.652   1.238   8.888 -0.3603  0.2089  0.0192
 2109SOL    HW117789   1.596   1.199   8.956  0.4520 -0.9870 -0.0033
 2109SOL    HW217790   1.580   1.281   8.842  0.9658  0.0111 -2.1961
 2110SOL     OW17791   3.097   1.071  16.827  0.1149  0.1623 -0.6034
 2110SOL    HW117792   3.183   1.112  16.837 -0.8558  1.7662  1.3163
 2110SOL    HW217793   3.095   1.042  16.918  1.3742  2.0874  0.0498
 2111SOL     OW17794   0.731   3.655  12.367 -0.2377 -0.5077  0.2432
 2111SOL    HW117795   0.763   3.729  12.419  1.5702 -1.5898  0.6672
 2111SOL    HW217796   0.753   3.573  12.412 -0.2622 -0.4962  0.2761
 2112SOL     OW17797   3.196   3.838  14.310 -0.3674  0.0612  0.1834
 2112SOL    HW117798   3.266   3.848  14.246 -0.3102  1.1119  0.3954
 2112SOL    HW217799   3.184   3.743  14.310  0.1534  0.0043 -1.2028
 2113SOL     OW17800   1.126   2.166   8.435 -0.1162  0.5082 -0.6333
 2113SOL    HW117801   1.171   2.086   8.462  1.2115  1.3252 -0.3858
 2113SOL    HW217802   1.199   2.214   8.395  3.3302 -2.3654  2.2729
 2114SOL     OW17803   4.075   1.217   2.710 -0.7358  0.8562 -0.2022
 2114SOL    HW117804   4.097   1.246   2.621  0.5666  2.1540  0.5428
 2114SOL    HW217805   4.026   1.293   2.742 -1.8968  1.2779 -2.9302
 2115SOL     OW17806   4.099   4.638  11.693 -0.3228  0.6068  0.1366
 2115SOL    HW117807   4.046   4.567  11.730 -1.2004  2.1334  1.8276
 2115SOL    HW217808   4.043   4.685  11.631  0.1132  1.7912  0.6447
 2116SOL     OW17809   2.999   2.913   1.438 -0.3523  0.0379  0.2572
 2116SOL    HW117810   2.960   2.975   1.376 -1.4482 -2.2367 -1.3461
 2116SOL    HW217811   3.070   2.880   1.383  0.4217  1.7203  0.2537
 2117SOL     OW17812   0.879   4.128   3.492  0.0964  0.2404  0.2998
 2117SOL    HW117813   0.803   4.098   3.441  0.4963 -1.2018  0.5500
 2117SOL    HW217814   0.959   4.089   3.457 -1.0855 -0.6114 -1.4349
 2118SOL     OW17815   1.618   4.353   9.744  0.3431  0.0413 -0.1622
 2118SOL    HW117816   1.598   4.443   9.771  0.8269  0.4436 -1.1341
 2118SOL    HW217817   1.540   4.322   9.698  0.0970  1.5384 -0.7610
 2119SOL     OW17818   3.192   1.624   8.487  0.4423  0.0730  0.4197
 2119SOL    HW117819   3.112   1.636   8.538 -0.0852  1.6705 -0.7699
 2119SOL    HW217820   3.251   1.593   8.556  0.2609 -0.2409  0.4301
 2120SOL     OW17821   2.175   0.923  15.378 -0.6006 -0.0362  0.2497
 2120SOL    HW117822   2.196   1.008  15.339  1.9978 -1.4794 -1.5135
 2120SOL    HW217823   2.262   0.886  15.396  0.6297  1.6661 -2.2232
 2121SOL     OW17824   0.905   1.485   4.986 -0.9835  0.3198 -0.3121
 2121SOL    HW117825   0.942   1.491   5.074 -0.1649 -1.9082 -0.4933
 2121SOL    HW217826   0.987   1.475   4.937 -0.8501 -3.6210  0.6878
 2122SOL     OW17827   1.604   2.734   7.259 -0.4922  0.1991 -0.4545
 2122SOL    HW117828   1.552   2.745   7.179  0.7948 -0.1582 -1.3428
 2122SOL    HW217829   1.689   2.725   7.217  0.3022 -1.4766  1.4896
 2123SOL     OW17830   4.014   4.605   9.020  0.7424 -0.3652  0.3170
 2123SOL    HW117831   4.064   4.529   8.991  1.6446 -0.0560  1.0802
 2123SOL    HW217832   4.027   4.603   9.115 -0.8506  0.2609  0.5433
 2124SOL     OW17833   2.967   2.642   6.485  0.0776  0.4543 -0.2425
 2124SOL    HW117834   2.950   2.577   6.553 -1.0342  2.5951  1.5521
 2124SOL    HW217835   2.969   2.593   6.403 -0.4112 -1.0381  0.6385
 2125SOL     OW17836   2.526   2.092  15.070  0.0506  0.0508 -0.3540
 2125SOL    HW117837   2.598   2.030  15.086  0.3283  0.3821 -0.3218
 2125SOL    HW217838   2.568   2.177  15.080 -1.5609  0.7731  0.2578
 2126SOL     OW17839   4.713   0.137   4.658 -0.1947  0.1107  0.0524
 2126SOL    HW117840   4.650   0.154   4.727 -1.7637  0.2012 -1.4005
 2126SOL    HW217841   0.074   0.132   4.705 -0.5859  2.1631  0.9739
 2127SOL     OW17842   3.001   3.001   9.935  0.2181 -0.1452 -0.6376
 2127SOL    HW117843   3.010   2.907   9.920 -1.0907 -0.5014  0.7939
 2127SOL    HW217844   2.907   2.997   9.949  0.5995 -1.1342  1.7562
 2128SOL     OW17845   0.400   3.309   1.137 -0.3142 -0.2042  0.1899
 2128SOL    HW117846   0.413   3.253   1.060 -1.1381  0.8209 -0.6959
 2128SOL    HW217847   0.432   3.257   1.211  0.5429 -0.7983 -0.5828
 2129SOL     OW17848   0.632   4.344   3.386  0.3129 -0.1639 -0.3389
 2129SOL    HW117849   0.711   4.358   3.334  0.4279  0.3587 -0.0271
 2129SOL    HW217850   0.641   4.257   3.424 -0.7092  0.2695  0.8809
 2130SOL     OW17851   0.800   4.132   5.387 -0.4580  0.1605 -0.1053
 2130SOL    HW117852   0.824   4.202   5.326  1.1647  0.9215  1.3985
 2130SOL    HW217853   0.715   4.159   5.421 -0.8030 -0.0615 -0.7765
 2131SOL     OW17854   3.936   1.770  14.348 -0.2071 -0.2736 -0.7394
 2131SOL    HW117855   3.920   1.688  14.301  0.3853 -1.3919  1.0213
 2131SOL    HW217856   3.979   1.732  14.425 -1.4219 -1.8117 -0.8070
 2132SOL     OW17857   4.099   0.869   6.045 -0.0048  0.3289  0.2335
 2132SOL    HW117858   4.162   0.798   6.038  0.6101  0.8405  0.6213
 2132SOL    HW217859   4.035   0.833   5.983 -0.3046 -0.2176  0.8618
 2133SOL     OW17860   0.429   2.150   3.310  0.4181 -0.3413 -0.2284
 2133SOL    HW117861   0.487   2.080   3.341  0.5111 -0.2673 -0.2339
 2133SOL    HW217862   0.380   2.160   3.391 -0.8288  0.5004 -1.0923
 2134SOL     OW17863   2.587   2.886   6.764  0.3427  0.4794 -0.0309
 2134SOL    HW117864   2.565   2.794   6.775  0.4788  0.7430  2.3461
 2134SOL    HW217865   2.659   2.877   6.702  1.8746  0.1461  1.7874
 2135SOL     OW17866   4.156   0.268   9.275 -0.2570 -0.3241  0.0458
 2135SOL    HW117867   4.079   0.324   9.284  0.6209  0.8989 -0.0777
 2135SOL    HW217868   4.163   0.248   9.369  2.0545 -2.3587 -0.5728
 2136SOL     OW17869   1.117   4.231   0.189  0.6094 -0.4590  0.1987
 2136SOL    HW117870   1.032   4.237   0.232  0.1823  0.3020 -0.7566
 2136SOL    HW217871   1.114   4.306   0.130 -0.2168 -1.5595 -1.1719
 2137SOL     OW17872   4.571   2.840   2.199 -0.5884  0.4997 -0.1418
 2137SOL    HW117873   4.511   2.765   2.202  1.1575 -0.8323  0.7371
 2137SOL    HW217874   4.642   2.819   2.139 -1.8950 -0.6957 -1.2803
 2138SOL     OW17875   1.055   3.279   5.121  0.2251 -0.1488  0.2687
 2138SOL    HW117876   1.067   3.268   5.215 -0.5980  0.3416  0.4338
 2138SOL    HW217877   0.960   3.292   5.129  0.5785  1.6641  1.3209
 2139SOL     OW17878   2.947   1.351   4.859 -0.0018 -0.4057  0.6076
 2139SOL    HW117879   3.014   1.334   4.793 -1.1318  2.1189 -1.2172
 2139SOL    HW217880   2.913   1.262   4.872  1.1733 -0.6611  1.9583
 2140SOL     OW17881   4.492   4.452   8.334  0.4836  0.3703  0.1756
 2140SOL    HW117882   4.537   4.534   8.315 -2.1137  2.0454  1.2136
 2140SOL    HW217883   4.440   4.439   8.255  0.8025 -1.5082  0.2820
 2141SOL     OW17884   0.535   1.113  15.296  0.5606  0.5131 -0.1890
 2141SOL    HW117885   0.520   1.024  15.263  0.5335  0.8427 -1.0780
 2141SOL    HW217886   0.443   1.130  15.317  0.5450 -1.8529  1.6333
 2142SOL     OW17887   1.339   1.128  16.897  0.1936 -0.3394  0.0218
 2142SOL    HW117888   1.260   1.077  16.914  0.1584 -0.7908 -1.5654
 2142SOL    HW217889   1.376   1.086  16.820  0.4439  3.1476 -1.7664
 2143SOL     OW17890   1.417   1.361   5.849  0.7061  0.2967  0.0613
 2143SOL    HW117891   1.494   1.400   5.809 -0.8535 -0.8798 -4.0757
 2143SOL    HW217892   1.391   1.284   5.798  0.1528 -0.8966  2.1124
 2144SOL     OW17893   3.511   0.841   7.233  0.2388  0.3725 -0.1082
 2144SOL    HW117894   3.509   0.929   7.271  1.9326 -0.0219  0.8879
 2144SOL    HW217895   3.573   0.794   7.288  0.8010 -0.9778 -1.8888
 2145SOL     OW17896   4.363   2.944   2.881  0.7617  0.1298 -0.4247
 2145SOL    HW117897   4.436   2.968   2.939  0.2594 -1.5652  0.9161
 2145SOL    HW217898   4.415   2.951   2.800  0.5489  0.0826 -0.5636
 2146SOL     OW17899   3.933   3.882   9.362 -0.5966  0.0239 -0.4709
 2146SOL    HW117900   3.944   3.797   9.320  0.6053 -0.4365  0.7604
 2146SOL    HW217901   3.842   3.906   9.348 -0.9293 -1.2769 -0.5490
 2147SOL     OW17902   3.260   0.730   7.145 -1.3848  0.0339  0.1869
 2147SOL    HW117903   3.336   0.745   7.202  0.3341 -0.6835 -1.9212
 2147SOL    HW217904   3.191   0.776   7.193 -0.5455  0.2801  1.1697
 2148SOL     OW17905   4.509   1.619  16.641 -0.1788 -0.2821  0.5686
 2148SOL    HW117906   4.422   1.636  16.678 -0.3586 -0.2496  0.1269
 2148SOL    HW217907   4.550   1.705  16.647 -0.4758 -0.2862  2.7667
 2149SOL     OW17908   0.916   1.433  12.259 -0.2163  0.2181 -0.1605
 2149SOL    HW117909   0.914   1.481  12.176  0.4101  0.1676 -0.2030
 2149SOL    HW217910   0.862   1.356  12.242  1.2328 -0.2343 -2.7004
 2150SOL     OW17911   0.976   0.333   3.458  0.0554 -0.4519  0.0072
 2150SOL    HW117912   0.883   0.319   3.441 -0.2016  1.0126  0.2068
 2150SOL    HW217913   1.023   0.268   3.405  0.8419 -0.0896  0.2599
 2151SOL     OW17914   2.747   0.143   7.635  0.1436 -0.5062 -0.2329
 2151SOL    HW117915   2.656   0.129   7.607  0.4512 -0.7506 -1.1119
 2151SOL    HW217916   2.755   0.238   7.626  0.5613 -0.5537 -0.3752
 2152SOL     OW17917   1.787   2.992   8.811 -0.2561  0.3191  1.1461
 2152SOL    HW117918   1.813   3.080   8.837 -0.1593  0.2429  1.3063
 2152SOL    HW217919   1.705   3.006   8.764  0.8473 -1.1904 -1.2008
 2153SOL     OW17920   4.532   4.521   6.084  0.3090  0.4032  0.2508
 2153SOL    HW117921   4.604   4.577   6.054 -0.9327  0.1175 -3.2766
 2153SOL    HW217922   4.574   4.446   6.124  1.2094  0.6470 -0.2329
 2154SOL     OW17923   2.670   2.009   3.004  0.3458  0.1673  0.1421
 2154SOL    HW117924   2.707   1.928   3.039 -1.0482  0.1480  1.5824
 2154SOL    HW217925   2.734   2.067   3.046  0.9494 -0.4205  0.0298
 2155SOL     OW17926   4.621   3.475   3.991  0.3040  0.0402  0.3418
 2155SOL    HW117927   4.621   3.417   3.914 -1.5922  2.5938 -1.6045
 2155SOL    HW217928   4.692   3.440   4.044  1.1641  1.3431  0.0272
 2156SOL     OW17929   1.082   3.007   2.682  0.7524 -0.3198  0.2985
 2156SOL    HW117930   1.155   2.980   2.737 -0.8660 -2.3062  1.4160
 2156SOL    HW217931   1.011   2.982   2.740  0.3171  0.6957  0.2034
 2157SOL     OW17932   1.308   1.469  17.153  0.0093  0.3143  0.5274
 2157SOL    HW117933   1.350   1.492  17.070 -0.7277 -0.3702 -0.0310
 2157SOL    HW217934   1.360   1.393  17.178  0.2112  0.6004  0.9852
 2158SOL     OW17935   3.502   1.835   3.979 -0.2739 -0.3935  0.0124
 2158SOL    HW117936   3.488   1.892   4.055 -0.4222  0.3971 -0.6151
 2158SOL    HW217937   3.414   1.843   3.943 -0.7838  0.1476  1.3735
 2159SOL     OW17938   0.808   3.083   9.869 -0.1729 -0.4310 -0.2457
 2159SOL    HW117939   0.885   3.059   9.818  1.0733  0.4022  1.2757
 2159SOL    HW217940   0.736   3.048   9.816 -0.5632  1.1412 -0.7571
 2160SOL     OW17941   1.871   1.806   7.692 -0.1910 -0.2919  0.5325
 2160SOL    HW117942   1.778   1.794   7.674  0.7755 -4.8089 -1.4556
 2160SOL    HW217943   1.905   1.844   7.611  0.0918 -2.1598 -0.2429
 2161SOL     OW17944   1.340   4.240  11.906 -0.6623  0.5724 -0.4279
 2161SOL    HW117945   1.383   4.218  11.988  1.7882  1.6466 -1.4465
 2161SOL    HW217946   1.301   4.158  11.875  0.4021  0.0236 -0.3201
 2162SOL     OW17947   0.755   3.190  12.563 -0.7348 -0.1635 -0.4464
 2162SOL    HW117948   0.682   3.252  12.554  0.3474  0.8460 -2.3006
 2162SOL    HW217949   0.815   3.245  12.513  1.0559 -0.9997  0.7997
 2163SOL     OW17950   4.017   0.850   7.104 -0.1550 -0.5202  0.2900
 2163SOL    HW117951   3.971   0.858   7.188 -3.0000  2.2942 -1.5604
 2163SOL    HW217952   3.947   0.801   7.061 -0.2762 -1.3988  1.4704
 2164SOL     OW17953   4.671   1.363   2.347 -0.7092 -0.0513 -0.7405
 2164SOL    HW117954   4.677   1.430   2.415  0.8705 -0.3786 -0.5439
 2164SOL    HW217955   0.026   1.390   2.295 -0.0685  0.1871  0.3373
 2165SOL     OW17956   1.353   4.127   7.444 -0.0240  0.1303 -0.0962
 2165SOL    HW117957   1.372   4.202   7.501 -0.2565 -1.5582  2.2384
 2165SOL    HW217958   1.258   4.119   7.451  0.0576 -1.2060 -0.5465
 2166SOL     OW17959   3.141   2.959   6.759  0.1683 -0.0717 -0.2947
 2166SOL    HW117960   3.069   2.941   6.819  0.3428 -0.3055 -0.1547
 2166SOL    HW217961   3.131   3.054   6.751  1.1157  0.1093  0.5974
 2167SOL     OW17962   4.370   3.800  13.322  0.1674 -0.2058 -0.3635
 2167SOL    HW117963   4.365   3.751  13.404 -0.2110 -0.4756 -0.5506
 2167SOL    HW217964   4.360   3.892  13.348 -0.3067  0.0710 -1.5345
 2168SOL     OW17965   2.933   3.366   1.028  0.5214 -0.5682  0.0537
 2168SOL    HW117966   2.850   3.338   0.989  0.4728  0.5792 -0.6792
 2168SOL    HW217967   2.905   3.425   1.098  0.8143  2.1278 -2.1030
 2169SOL     OW17968   1.213   2.991   3.128 -0.2183 -0.6595  0.1877
 2169SOL    HW117969   1.200   3.075   3.172  0.3335  0.3831 -1.6737
 2169SOL    HW217970   1.220   2.934   3.205 -0.3133  0.6999  1.2064
 2170SOL     OW17971   3.846   4.270   3.272  0.7749 -0.0149  0.4562
 2170SOL    HW117972   3.862   4.197   3.213  1.3612 -0.0897  0.7084
 2170SOL    HW217973   3.896   4.343   3.236 -0.7740  1.5905  1.5257
 2171SOL     OW17974   1.340   3.166   8.998  0.0662 -0.3791 -0.0977
 2171SOL    HW117975   1.319   3.127   9.082 -1.1091  1.3881  0.4283
 2171SOL    HW217976   1.430   3.135   8.995  0.3315  0.3293  0.6985
 2172SOL     OW17977   3.026   3.364   8.485  0.0451  0.5106  0.0034
 2172SOL    HW117978   3.070   3.305   8.546 -2.1804 -1.7268 -0.5570
 2172SOL    HW217979   3.062   3.346   8.399  0.8407 -1.9963  0.8541
 2173SOL     OW17980   0.671   4.716   3.515  0.0736  0.3201 -0.3108
 2173SOL    HW117981   0.678   0.084   3.482 -3.3066  0.7787  0.1917
 2173SOL    HW217982   0.595   4.685   3.465  0.8681 -3.0299  0.5719
 2174SOL     OW17983   1.456   0.183   7.649  0.6714 -0.0637  0.5070
 2174SOL    HW117984   1.417   0.202   7.563  1.4989  0.7933  0.3214
 2174SOL    HW217985   1.488   0.268   7.679  0.0174  0.2997  0.1533
 2175SOL     OW17986   1.767   3.005   3.942 -0.4579 -0.5091 -0.0790
 2175SOL    HW117987   1.728   2.984   3.857  1.0517  1.1652 -1.1940
 2175SOL    HW217988   1.752   2.923   3.990 -0.4682 -0.6273 -0.2854
 2176SOL     OW17989   3.356   3.259  10.376  0.8965  0.1171  0.2723
 2176SOL    HW117990   3.311   3.344  10.371 -2.4749 -1.5475  1.7552
 2176SOL    HW217991   3.277   3.207  10.357  0.0256  0.9005  1.7077
 2177SOL     OW17992   1.733   4.563   5.940  0.1171  0.8997 -0.0378
 2177SOL    HW117993   1.696   4.604   5.862 -1.4605 -0.3352  0.0640
 2177SOL    HW217994   1.800   4.626   5.969  1.2235  0.4882 -1.7131
 2178SOL     OW17995   1.478   0.426  12.128  0.5228  0.2603 -1.0393
 2178SOL    HW117996   1.410   0.487  12.156  3.0007  2.9613 -0.8433
 2178SOL    HW217997   1.553   0.481  12.151 -1.4535  2.1160  0.9805
 2179SOL     OW17998   2.598   3.481   3.704 -0.5054  0.4503  0.1386
 2179SOL    HW117999   2.679   3.431   3.703  1.1380  3.1206  0.0389
 2179SOL    HW218000   2.610   3.542   3.631  4.0434  1.5268  1.7582
 2180SOL     OW18001   0.239   0.052   5.219 -0.4354  0.1910  0.0916
 2180SOL    HW118002   0.290   0.133   5.210  0.4638 -0.1258  2.4318
 2180SOL    HW218003   0.161   0.091   5.256 -1.5192  1.2946 -3.3367
 2181SOL     OW18004   2.541   1.648  10.745  0.3306 -0.0478 -0.0622
 2181SOL    HW118005   2.485   1.623  10.819 -1.6240  0.2100 -1.4480
 2181SOL    HW218006   2.599   1.710  10.788 -1.0247  1.0963  0.1245
 2182SOL     OW18007   0.052   3.050   6.710  0.3251 -0.0541 -0.1426
 2182SOL    HW118008   0.021   3.009   6.629 -1.6655 -1.4213  1.3102
 2182SOL    HW218009   0.001   3.020   6.785 -1.4901 -1.6992 -2.0244
 2183SOL     OW18010   3.093   1.901  15.322 -0.0919  0.0243 -0.4560
 2183SOL    HW118011   3.043   1.882  15.243 -0.9024 -1.7825  0.4929
 2183SOL    HW218012   3.126   1.990  15.310 -1.9355  1.0201  1.6584
 2184SOL     OW18013   4.502   3.929   3.118  0.4190 -0.2612  0.2523
 2184SOL    HW118014   4.440   4.002   3.118  0.2148 -0.4338 -0.6677
 2184SOL    HW218015   4.568   3.949   3.052 -1.8552 -0.3194 -2.0096
 2185SOL     OW18016   4.260   2.274  11.692  0.3621  0.2748 -0.1564
 2185SOL    HW118017   4.319   2.340  11.657  0.3648 -0.5281 -1.6739
 2185SOL    HW218018   4.263   2.277  11.788  0.0037 -3.5875 -0.0057
 2186SOL     OW18019   1.979   0.201   1.007  0.0308 -0.3638 -0.8019
 2186SOL    HW118020   1.981   0.283   1.056 -1.4498  0.7777 -2.6502
 2186SOL    HW218021   1.944   0.147   1.078  0.0637  0.3965 -0.2042
 2187SOL     OW18022   1.938   0.478  16.923 -0.3346  0.1303 -0.0151
 2187SOL    HW118023   1.991   0.450  16.848 -0.9147 -0.0102 -0.3647
 2187SOL    HW218024   1.966   0.570  16.920 -0.3810  0.1791  1.1216
 2188SOL     OW18025   2.820   2.845   3.942  0.3480 -0.1392 -0.1859
 2188SOL    HW118026   2.838   2.878   4.030  0.3111 -0.9936  0.1435
 2188SOL    HW218027   2.765   2.766   3.946  0.4897 -0.1486  1.4962
 2189SOL     OW18028   4.717   1.028   0.896  0.0469  0.0143 -0.5282
 2189SOL    HW118029   0.071   1.082   0.918 -0.9330  0.9572  0.5680
 2189SOL    HW218030   4.663   1.059   0.968  0.0526 -1.3850  0.0732
 2190SOL     OW18031   0.099   0.916   3.603 -0.4742 -0.2206 -0.1965
 2190SOL    HW118032   0.113   1.010   3.618 -0.7222  0.1205 -2.2150
 2190SOL    HW218033   0.114   0.880   3.691  0.1362 -1.2529 -0.7254
 2191SOL     OW18034   2.326   0.628   2.490  0.5875 -0.5926 -0.1236
 2191SOL    HW118035   2.371   0.550   2.456 -0.9164 -1.6550  0.3198
 2191SOL    HW218036   2.235   0.602   2.475 -0.0215  0.9876  0.8531
 2192SOL     OW18037   0.136   3.108   7.786 -0.0130 -0.2426 -0.6698
 2192SOL    HW118038   0.190   3.094   7.709  1.3379 -2.2595  0.6309
 2192SOL    HW218039   0.058   3.144   7.745 -1.4340 -1.5743  0.8525
 2193SOL     OW18040   3.909   1.965  14.169 -0.0556 -0.0153  0.0145
 2193SOL    HW118041   3.901   1.908  14.245  0.2629 -0.3421 -0.2023
 2193SOL    HW218042   3.863   1.904  14.111 -1.1522  1.1241 -0.3228
 2194SOL     OW18043   3.826   3.906   7.983  0.1353 -0.0935  0.7760
 2194SOL    HW118044   3.920   3.891   7.986 -0.2275 -2.3399  1.1964
 2194SOL    HW218045   3.808   3.895   8.076  1.6907 -1.1576  0.9504
 2195SOL     OW18046   4.395   2.590   2.207 -0.4008 -0.1129  0.3204
 2195SOL    HW118047   4.321   2.542   2.244  1.1541 -0.7453  2.5671
 2195SOL    HW218048   4.427   2.519   2.151 -0.2197 -1.1190  1.7279
 2196SOL     OW18049   0.382   1.243  11.087 -0.3970 -0.1407  0.0565
 2196SOL    HW118050   0.357   1.216  11.175  0.6494  0.2709  0.4784
 2196SOL    HW218051   0.477   1.255  11.091 -0.5418  1.2704 -0.8362
 2197SOL     OW18052   2.128   3.744   2.138 -0.0492  0.0348  0.1450
 2197SOL    HW118053   2.156   3.660   2.175 -3.3151 -1.9866 -1.9528
 2197SOL    HW218054   2.108   3.716   2.049 -0.9678 -1.6433  0.8869
 2198SOL     OW18055   3.498   2.246   7.872  0.5964 -0.0695 -0.2893
 2198SOL    HW118056   3.437   2.191   7.921  0.6434 -0.6385 -0.8666
 2198SOL    HW218057   3.472   2.333   7.903 -0.8479 -0.5192 -0.2254
 2199SOL     OW18058   1.788   4.059   5.731 -0.4357 -0.2844  0.0098
 2199SOL    HW118059   1.788   3.974   5.775 -0.4278  0.2972  1.1335
 2199SOL    HW218060   1.865   4.054   5.674 -1.5312  1.6015 -1.6132
 2200SOL     OW18061   2.292   3.222   9.249 -0.5224 -0.6179  0.0096
 2200SOL    HW118062   2.387   3.222   9.239 -0.2575  0.9910  2.5411
 2200SOL    HW218063   2.274   3.128   9.239  2.3371 -1.3872  1.8479
 2201SOL     OW18064   1.734   1.709  13.785  0.0513  0.1911 -0.1900
 2201SOL    HW118065   1.704   1.664  13.706 -0.1285  1.0940 -0.6283
 2201SOL    HW218066   1.817   1.752  13.765  0.4480 -0.0256  0.9780
 2202SOL     OW18067   0.664   3.843   5.869 -0.3988 -0.1495 -0.0218
 2202SOL    HW118068   0.692   3.934   5.861 -1.4606  0.1999  0.2430
 2202SOL    HW218069   0.657   3.830   5.964 -2.9137  1.2770 -0.0310
 2203SOL     OW18070   4.316   0.893  11.457 -0.7180 -0.0513 -0.6772
 2203SOL    HW118071   4.411   0.888  11.446 -0.5481  2.3588 -0.3242
 2203SOL    HW218072   4.310   0.859  11.546  2.0189  1.4349  0.0751
 2204SOL     OW18073   1.484   1.580   7.178 -0.1091  0.1386  0.0115
 2204SOL    HW118074   1.566   1.530   7.169 -1.7563 -2.4153 -0.6952
 2204SOL    HW218075   1.492   1.654   7.118 -2.3228 -0.6096 -1.2081
 2205SOL     OW18076   0.967   4.127   2.450 -0.0180 -0.0577  0.3332
 2205SOL    HW118077   0.977   4.089   2.537 -0.5422 -0.7031  0.1079
 2205SOL    HW218078   0.883   4.168   2.469 -0.7566 -1.3932 -0.0829
 2206SOL     OW18079   0.443   0.464  11.887  0.4932  0.1746  0.0842
 2206SOL    HW118080   0.510   0.508  11.836  1.1994  0.2110  1.0398
 2206SOL    HW218081   0.480   0.458  11.975 -0.2439 -0.2400  0.3658
 2207SOL     OW18082   4.337   4.677   3.112  0.4856  0.3680 -0.4244
 2207SOL    HW118083   4.319   4.594   3.068 -1.2693  0.1485  0.7219
 2207SOL    HW218084   4.419   4.652   3.154  0.4028 -0.4544 -0.7344
 2208SOL     OW18085   4.327   4.009   0.010 -0.1606 -0.2512  0.3162
 2208SOL    HW118086   4.418   4.004  17.674  0.5247  1.7548  2.2476
 2208SOL    HW218087   4.291   3.926  17.671 -2.4866 -0.4034  3.6391
 2209SOL     OW18088   2.503   2.408   4.471  0.2690 -0.2032 -0.3310
 2209SOL    HW118089   2.426   2.434   4.420  0.8867  0.7760 -0.7624
 2209SOL    HW218090   2.495   2.314   4.487 -0.4143 -0.3060 -1.2583
 2210SOL     OW18091   1.494   3.337   3.623  0.5454 -0.1162  0.6728
 2210SOL    HW118092   1.507   3.313   3.531 -0.0680 -0.7179  0.7525
 2210SOL    HW218093   1.575   3.314   3.669  0.4776  1.4693  1.5844
 2211SOL     OW18094   3.168   2.844   6.531 -0.2440  0.3103  0.2701
 2211SOL    HW118095   3.171   2.906   6.603  0.9807 -0.0937  0.5730
 2211SOL    HW218096   3.077   2.815   6.523  0.2060 -1.1453  0.3929
 2212SOL     OW18097   2.746   2.911   2.900 -0.2242 -0.9512  0.1238
 2212SOL    HW118098   2.694   2.981   2.861  0.8500 -1.5329 -2.3428
 2212SOL    HW218099   2.763   2.857   2.823  0.2804 -3.2443  1.8439
 2213SOL     OW18100   2.720   0.661   9.500  0.4359 -0.6998  0.7302
 2213SOL    HW118101   2.723   0.675   9.595  0.7915 -1.4846  0.8378
 2213SOL    HW218102   2.641   0.606   9.496  0.0111 -0.2719  3.0964
 2214SOL     OW18103   1.282   3.180   2.003  0.9733  0.0136 -0.1289
 2214SOL    HW118104   1.218   3.233   1.955  1.1156 -1.6958 -2.2607
 2214SOL    HW218105   1.237   3.096   2.015 -2.0335  1.8394  1.0740
 2215SOL     OW18106   4.232   0.767   5.417 -0.2316  0.1721  0.0356
 2215SOL    HW118107   4.244   0.699   5.483  2.2657  0.2994 -0.3213
 2215SOL    HW218108   4.185   0.717   5.350  1.2492 -1.7061  0.4015
 2216SOL     OW18109   2.041   0.392  16.696 -0.6189  0.2833 -0.3606
 2216SOL    HW118110   2.053   0.471  16.645 -0.6965  0.1559 -0.5759
 2216SOL    HW218111   2.111   0.338  16.660 -0.3805  2.4137 -3.0187
 2217SOL     OW18112   3.536   1.022   6.202 -0.1444 -0.0918 -0.0134
 2217SOL    HW118113   3.469   0.966   6.241 -0.5034 -2.4243 -3.9879
 2217SOL    HW218114   3.598   1.028   6.274  0.0547  1.1531 -0.2767
 2218SOL     OW18115   1.960   0.711   4.723  0.0815  0.3289  0.4484
 2218SOL    HW118116   2.005   0.683   4.802  0.9074  0.0878 -0.1164
 2218SOL    HW218117   1.915   0.631   4.695 -0.4587  0.8673 -0.2401
 2219SOL     OW18118   3.289   0.902   4.559 -0.7620  0.3801  0.0819
 2219SOL    HW118119   3.311   0.987   4.520 -2.9776 -0.0505 -2.1288
 2219SOL    HW218120   3.316   0.842   4.488 -1.1514  1.3137 -0.8521
 2220SOL     OW18121   0.731   4.323   4.183 -0.1420  0.0826 -0.6111
 2220SOL    HW118122   0.710   4.229   4.188  0.0727  0.0269 -0.7734
 2220SOL    HW218123   0.824   4.333   4.201 -0.3921 -0.0674  0.7660
 2221SOL     OW18124   2.884   1.596  10.492  0.1248 -0.0234 -0.4702
 2221SOL    HW118125   2.848   1.682  10.474 -1.8019 -0.4748  1.2598
 2221SOL    HW218126   2.972   1.604  10.455 -0.2198  2.3032 -0.7691
 2222SOL     OW18127   4.525   1.062  15.765  0.2164 -0.0951 -0.9897
 2222SOL    HW118128   4.465   1.136  15.764  1.9286  1.3290  2.3544
 2222SOL    HW218129   4.606   1.112  15.776  1.7883 -2.4920 -1.8170
 2223SOL     OW18130   2.659   1.963   7.279 -0.1419  0.0776  0.1528
 2223SOL    HW118131   2.659   1.884   7.333  1.9855  1.0236  1.5325
 2223SOL    HW218132   2.751   1.981   7.299 -0.1499  1.0097 -0.6597
 2224SOL     OW18133   3.211   0.556  16.232 -0.2380  0.1615  0.2679
 2224SOL    HW118134   3.241   0.466  16.245  1.4966  0.6391 -0.3183
 2224SOL    HW218135   3.284   0.590  16.180 -1.3943 -0.4194 -1.7559
 2225SOL     OW18136   2.223   4.618   7.402  0.1161  0.4566 -0.0989
 2225SOL    HW118137   2.248   4.697   7.354  1.0281  0.8814  1.0664
 2225SOL    HW218138   2.228   4.639   7.496  0.5851 -0.0238 -0.0176
 2226SOL     OW18139   2.377   2.891  12.964  0.7051 -0.1733  0.3587
 2226SOL    HW118140   2.294   2.845  12.976 -1.2459  3.1110 -0.5954
 2226SOL    HW218141   2.341   2.979  12.954  0.7707 -0.1163  0.6093
 2227SOL     OW18142   0.931   3.530   4.792 -0.2358  0.2943 -0.6281
 2227SOL    HW118143   0.880   3.451   4.779  1.2804 -0.9158  0.7896
 2227SOL    HW218144   0.987   3.530   4.714  0.9725 -2.4637  0.2470
 2228SOL     OW18145   3.813   1.053   4.185 -0.4282 -0.3152 -0.3524
 2228SOL    HW118146   3.898   1.040   4.226 -0.2783  0.7854 -0.3310
 2228SOL    HW218147   3.768   1.120   4.236 -0.3270 -0.5812  0.0883
 2229SOL     OW18148   0.682   2.534   1.796  0.2672  0.0989 -0.3086
 2229SOL    HW118149   0.758   2.478   1.780  0.5660 -0.0179  1.5859
 2229SOL    HW218150   0.673   2.531   1.891  2.6965 -1.0966 -0.1245
 2230SOL     OW18151   1.298   0.593  13.866  0.5415 -0.2833 -0.2999
 2230SOL    HW118152   1.315   0.613  13.774 -0.6641 -0.0316 -0.4590
 2230SOL    HW218153   1.384   0.617  13.902  0.7873  0.5803 -1.4627
 2231SOL     OW18154   1.988   1.954   4.271 -0.0772 -0.5163 -0.2974
 2231SOL    HW118155   1.975   1.892   4.343 -2.0645 -0.1959 -0.3895
 2231SOL    HW218156   1.966   1.898   4.197  0.9044 -0.5468 -0.5641
 2232SOL     OW18157   2.721   0.967   2.833  0.3955  0.8404 -0.8821
 2232SOL    HW118158   2.815   0.964   2.822  0.5238  1.8275 -0.0960
 2232SOL    HW218159   2.691   0.913   2.759  0.9932 -0.3265 -0.2784
 2233SOL     OW18160   0.540   2.034   6.631 -0.4181 -0.1130 -0.4791
 2233SOL    HW118161   0.588   2.034   6.548 -0.7366 -0.2781 -0.6650
 2233SOL    HW218162   0.516   1.941   6.633 -1.2874  0.1373  0.3729
 2234SOL     OW18163   1.977   1.173   6.731  0.0590  0.2311  0.0760
 2234SOL    HW118164   2.051   1.230   6.753 -1.2623  1.4238  1.4428
 2234SOL    HW218165   1.912   1.220   6.784  1.0213  2.2965 -0.5743
 2235SOL     OW18166   2.000   2.442   8.839 -0.5166  0.3424 -0.4417
 2235SOL    HW118167   2.093   2.438   8.862 -0.6521  0.1522  0.0656
 2235SOL    HW218168   1.958   2.461   8.923  0.9252 -2.7661  0.9805
 2236SOL     OW18169   0.373   4.388  11.469 -0.0648 -0.2793  0.1787
 2236SOL    HW118170   0.370   4.476  11.506 -1.4542 -0.6022  0.8330
 2236SOL    HW218171   0.283   4.359  11.489  0.1845 -2.1305 -1.3448
 2237SOL     OW18172   0.153   0.929   2.933 -0.4198 -0.3281 -0.1714
 2237SOL    HW118173   0.071   0.913   2.979 -0.9093 -0.3620 -1.0636
 2237SOL    HW218174   0.127   1.011   2.891  0.1875 -0.5615 -0.9987
 2238SOL     OW18175   2.352   0.188   4.199 -0.0981  0.2323  0.4316
 2238SOL    HW118176   2.408   0.111   4.186  0.4023  0.4959  1.0368
 2238SOL    HW218177   2.393   0.247   4.135  1.3727 -3.4889 -2.0474
 2239SOL     OW18178   3.173   3.621   7.246 -0.6701 -0.4362 -0.4596
 2239SOL    HW118179   3.170   3.651   7.156 -0.9426  1.3472  0.1422
 2239SOL    HW218180   3.108   3.683   7.279  1.8103  0.8248  2.1417
 2240SOL     OW18181   1.975   2.605  14.566  0.2225 -0.2524 -0.3381
 2240SOL    HW118182   1.951   2.531  14.621 -2.8372  1.5566  0.7794
 2240SOL    HW218183   2.043   2.573  14.506  1.2263  0.5112  0.3820
 2241SOL     OW18184   3.709   3.018   3.460  0.0597 -0.5180 -0.0541
 2241SOL    HW118185   3.673   3.093   3.411  5.1178  2.1404  0.2958
 2241SOL    HW218186   3.796   3.055   3.471  0.5292 -1.2807 -1.2029
 2242SOL     OW18187   1.419   2.069  11.005 -0.1974 -0.6470  0.2126
 2242SOL    HW118188   1.492   2.131  10.999 -0.8797  0.1800  0.4992
 2242SOL    HW218189   1.372   2.085  11.087 -2.3437 -1.6986 -0.8083
 2243SOL     OW18190   1.661   1.433  14.723 -0.6620  0.1304 -0.0434
 2243SOL    HW118191   1.596   1.423  14.793 -1.7670 -0.0501 -1.1001
 2243SOL    HW218192   1.725   1.492  14.764 -1.6185  1.3954 -0.3748
 2244SOL     OW18193   0.802   2.041   0.689  0.5756  0.5619 -0.3413
 2244SOL    HW118194   0.757   1.957   0.698  1.3719  0.2123  0.3473
 2244SOL    HW218195   0.891   2.014   0.709  1.2633  0.5853 -3.3643
 2245SOL     OW18196   1.979   2.885   6.203  0.0406 -0.0059  0.1661
 2245SOL    HW118197   2.011   2.956   6.259  1.4598 -0.3379 -0.2287
 2245SOL    HW218198   1.994   2.916   6.114  2.5469 -1.2700  0.1513
 2246SOL     OW18199   3.825   0.834   3.311  0.4669 -0.4304 -0.2695
 2246SOL    HW118200   3.755   0.846   3.248  0.9996  2.6231 -0.2669
 2246SOL    HW218201   3.884   0.782   3.257  1.9976 -0.3047  1.2804
 2247SOL     OW18202   1.764   4.431  12.052 -0.4142 -0.0081 -0.2055
 2247SOL    HW118203   1.670   4.444  12.063 -0.7367 -0.7845 -2.1157
 2247SOL    HW218204   1.782   4.504  11.992 -0.4085 -0.7972 -1.1663
 2248SOL     OW18205   1.211   3.887  16.943 -0.0638  0.1811  0.3953
 2248SOL    HW118206   1.138   3.842  16.900  1.9048 -0.7553 -2.0056
 2248SOL    HW218207   1.254   3.807  16.971  0.2163  0.6082  1.1746
 2249SOL     OW18208   3.017   0.835   7.278  0.3230 -0.2146  0.2083
 2249SOL    HW118209   2.953   0.895   7.242 -1.1829 -1.5187  0.6852
 2249SOL    HW218210   3.040   0.869   7.365 -0.1017  0.5348  0.0173
 2250SOL     OW18211   3.636   1.556  13.914 -0.2456 -0.6944 -0.3665
 2250SOL    HW118212   3.593   1.470  13.918 -0.2483 -0.6138  1.5264
 2250SOL    HW218213   3.619   1.582  13.824  0.1718  1.1069  0.0863
 2251SOL     OW18214   3.518   4.148   5.968  0.2978 -0.4642  0.0562
 2251SOL    HW118215   3.510   4.197   5.886  1.3757 -0.3043  0.0445
 2251SOL    HW218216   3.473   4.066   5.949 -0.1035 -0.0614 -0.7290
 2252SOL     OW18217   2.241   3.331   5.230 -0.3587 -0.5983 -0.2419
 2252SOL    HW118218   2.208   3.341   5.140 -2.8079  0.8242  0.8191
 2252SOL    HW218219   2.231   3.422   5.257  0.0359 -1.1387  1.6721
 2253SOL     OW18220   0.964   0.373  15.915  0.3200  0.2886 -0.4966
 2253SOL    HW118221   0.937   0.464  15.928 -1.1851 -0.2253  0.0190
 2253SOL    HW218222   1.056   0.387  15.892  0.8147 -3.0019 -0.5097
 2254SOL     OW18223   3.877   1.539   5.194 -0.2032  0.3136 -0.1218
 2254SOL    HW118224   3.875   1.566   5.102  0.1597  1.2887  0.1616
 2254SOL    HW218225   3.944   1.599   5.225  0.2584 -0.8900  1.1974
 2255SOL     OW18226   2.688   1.113  10.972 -0.3871 -0.2003  0.2995
 2255SOL    HW118227   2.667   1.020  10.976  2.5067 -0.8262  1.3599
 2255SOL    HW218228   2.736   1.127  11.054  1.5763 -1.1023 -0.6794
 2256SOL     OW18229   1.723   1.035   7.277 -0.7682 -0.1848  0.0973
 2256SOL    HW118230   1.768   1.003   7.355 -1.8012 -0.2207  0.6761
 2256SOL    HW218231   1.635   1.000   7.296 -0.2063 -1.6773 -0.0494
 2257SOL     OW18232   4.621   3.730   5.338  0.3779 -0.2514  0.0943
 2257SOL    HW118233   4.615   3.650   5.286 -2.7294 -0.1255  0.3008
 2257SOL    HW218234   4.551   3.718   5.401 -0.2000 -2.1481 -0.9230
 2258SOL     OW18235   1.531   1.061   9.109 -0.1537  0.2097 -0.1462
 2258SOL    HW118236   1.475   0.987   9.134 -0.3116 -0.2222 -1.7808
 2258SOL    HW218237   1.497   1.131   9.165  1.9822 -0.6136  2.1691
 2259SOL     OW18238   0.181   0.930   7.779  0.0317  0.3818  0.4451
 2259SOL    HW118239   0.152   1.013   7.741  1.5701  0.9112  0.4361
 2259SOL    HW218240   0.134   0.950   7.860 -1.2570  0.6216 -0.3619
 2260SOL     OW18241   1.810   3.361   7.747 -0.0454  0.0659 -0.0594
 2260SOL    HW118242   1.784   3.418   7.820 -1.0342 -0.0745 -0.2937
 2260SOL    HW218243   1.815   3.416   7.669  0.4961 -1.4688 -1.1063
 2261SOL     OW18244   1.141   1.708   4.799 -0.0277 -0.0007 -0.2225
 2261SOL    HW118245   1.176   1.755   4.723 -0.9019 -1.5862 -1.6040
 2261SOL    HW218246   1.049   1.709   4.773 -0.6607  0.1559  1.9978
 2262SOL     OW18247   0.440   4.177  15.761  0.2483  0.1028 -0.2458
 2262SOL    HW118248   0.368   4.239  15.776  0.5993  0.0977  1.4666
 2262SOL    HW218249   0.415   4.097  15.807 -1.3256  0.9377  0.3585
 2263SOL     OW18250   1.668   0.292   4.835 -0.6451 -0.6792  0.0298
 2263SOL    HW118251   1.647   0.235   4.761 -0.4455  0.9380 -1.2530
 2263SOL    HW218252   1.617   0.243   4.901 -1.1212  1.0521  0.9512
 2264SOL     OW18253   3.108   1.276   7.826  0.3160  0.2896  0.6686
 2264SOL    HW118254   3.035   1.271   7.888  1.9821  0.5766  2.6710
 2264SOL    HW218255   3.144   1.360   7.857  1.3374  1.0246 -2.5518
 2265SOL     OW18256   1.351   1.656  12.865 -0.7326  0.4824  0.3881
 2265SOL    HW118257   1.272   1.651  12.811 -1.0907  2.6417  0.7303
 2265SOL    HW218258   1.391   1.573  12.838 -1.8235  0.1895 -0.3392
 2266SOL     OW18259   0.866   2.670  15.329 -0.4228  0.0350  0.2010
 2266SOL    HW118260   0.854   2.751  15.279 -1.6415  0.4000  1.0741
 2266SOL    HW218261   0.779   2.634  15.345  0.0116 -0.0130  2.5957
 2267SOL     OW18262   3.015   1.598   2.189 -0.3540 -0.0390 -0.5238
 2267SOL    HW118263   3.097   1.558   2.216 -0.1733  1.0366  0.4913
 2267SOL    HW218264   2.984   1.631   2.273 -0.2343  1.3072 -1.0016
 2268SOL     OW18265   4.214   1.330   4.885  0.4708 -0.1656  0.7116
 2268SOL    HW118266   4.305   1.306   4.867  0.0946 -1.3241  0.3731
 2268SOL    HW218267   4.174   1.266   4.826  1.0151  0.3567 -0.2252
 2269SOL     OW18268   0.189   3.075  14.903  0.2129  0.1852  0.1596
 2269SOL    HW118269   0.199   3.170  14.912 -2.9549  0.5618 -0.2637
 2269SOL    HW218270   0.237   3.037  14.977  1.6473  0.8403 -0.4282
 2270SOL     OW18271   3.229   3.708   8.401 -0.5448 -0.1981 -0.0672
 2270SOL    HW118272   3.232   3.641   8.332  0.8125  0.2574 -0.4441
 2270SOL    HW218273   3.150   3.681   8.448 -0.9831  0.3280 -0.5047
 2271SOL     OW18274   2.697   1.378   7.518 -0.0940  0.1458 -0.2026
 2271SOL    HW118275   2.622   1.434   7.496  1.4747  1.3263 -2.4633
 2271SOL    HW218276   2.699   1.391   7.613 -1.3105 -0.4673 -0.0882
 2272SOL     OW18277   3.460   4.152   2.703 -0.2034 -0.0626 -0.3045
 2272SOL    HW118278   3.473   4.236   2.747  1.9876 -0.4662 -0.1375
 2272SOL    HW218279   3.371   4.168   2.673  0.0036  1.1679 -0.2618
 2273SOL     OW18280   1.429   4.397   6.129  0.0041 -0.5436 -0.1997
 2273SOL    HW118281   1.456   4.328   6.191 -1.4600  0.3114  1.3797
 2273SOL    HW218282   1.362   4.348   6.081 -2.2149 -0.4694  2.8152
 2274SOL     OW18283   0.660   3.772   2.769 -0.2401  0.2140 -0.6481
 2274SOL    HW118284   0.649   3.677   2.760  1.1627  0.1138 -1.3551
 2274SOL    HW218285   0.634   3.781   2.860 -0.1974 -0.4181 -0.5683
 2275SOL     OW18286   0.366   0.914   9.395 -0.4608 -0.4176  0.2347
 2275SOL    HW118287   0.355   0.820   9.385  1.1410 -0.7184  1.1790
 2275SOL    HW218288   0.286   0.951   9.432  0.7615  0.7973  1.7172
 2276SOL     OW18289   3.093   2.625  14.047 -0.6595  0.1662  0.1937
 2276SOL    HW118290   3.074   2.695  13.984  0.5127 -0.7461 -1.1684
 2276SOL    HW218291   3.022   2.641  14.110 -0.3953 -0.0262  0.5429
 2277SOL     OW18292   2.166   0.799   1.056 -0.0929 -0.2375 -0.5280
 2277SOL    HW118293   2.129   0.723   1.012 -0.7570 -0.2019 -0.0252
 2277SOL    HW218294   2.252   0.762   1.076  0.2911  1.5357  1.1297
 2278SOL     OW18295   2.453   3.101  13.552  0.0275  0.3081 -0.2424
 2278SOL    HW118296   2.457   3.045  13.475 -0.1349  0.2688 -0.2206
 2278SOL    HW218297   2.541   3.141  13.557  0.1124  0.0132  0.7328
 2279SOL     OW18298   0.457   3.549  14.502  0.1918  0.1802 -0.2507
 2279SOL    HW118299   0.460   3.626  14.445  1.4647  1.5566  1.6668
 2279SOL    HW218300   0.475   3.593  14.585  1.6774 -1.4280  0.2867
 2280SOL     OW18301   1.102   3.123   4.532 -0.1606  0.2382  0.8908
 2280SOL    HW118302   1.083   3.038   4.492  1.1929 -0.4312  1.6586
 2280SOL    HW218303   1.169   3.161   4.475  0.7441 -0.0114  1.7855
 2281SOL     OW18304   1.827   0.138  17.333  0.2864 -0.0852 -0.0138
 2281SOL    HW118305   1.919   0.113  17.331  0.6595  1.4309 -1.1353
 2281SOL    HW218306   1.823   0.171  17.244  0.7872  0.3497  0.1314
 2282SOL     OW18307   3.747   3.307   8.569  0.2069 -0.5239  0.8432
 2282SOL    HW118308   3.807   3.239   8.539 -0.2291 -1.7473  2.7619
 2282SOL    HW218309   3.724   3.275   8.656 -0.7436 -0.6930  0.5199
 2283SOL     OW18310   4.165   0.131   3.393 -0.2950 -0.1887 -0.5744
 2283SOL    HW118311   4.257   0.129   3.368 -1.1181 -1.4086 -3.5380
 2283SOL    HW218312   4.171   0.198   3.461 -1.9508 -1.5832  0.9605
 2284SOL     OW18313   3.427   3.641  12.167  0.0174 -0.6821 -0.1313
 2284SOL    HW118314   3.508   3.599  12.140 -0.3602 -0.3498 -1.7900
 2284SOL    HW218315   3.388   3.561  12.202 -0.4044 -0.6535 -0.5284
 2285SOL     OW18316   4.626   1.718  11.554 -0.1651 -0.1025 -0.2065
 2285SOL    HW118317   4.717   1.734  11.526 -0.2364 -0.5664 -0.7096
 2285SOL    HW218318   4.645   1.653  11.622 -1.3490 -0.0600  0.1652
 2286SOL     OW18319   3.903   1.259   2.355 -0.3857  0.5485 -0.2475
 2286SOL    HW118320   3.993   1.281   2.379 -0.2140  0.1399 -0.5336
 2286SOL    HW218321   3.894   1.328   2.289 -0.5374 -2.0822 -2.9375
 2287SOL     OW18322   4.136   1.141   6.836  0.1602 -0.6185  0.1429
 2287SOL    HW118323   4.154   1.168   6.746  2.4799 -0.9007  0.5070
 2287SOL    HW218324   4.161   1.048   6.840 -1.6794 -1.0578  1.1629
 2288SOL     OW18325   1.122   0.414   9.290  0.1054 -0.1203  0.5271
 2288SOL    HW118326   1.091   0.351   9.355  0.0552 -0.5683  0.0760
 2288SOL    HW218327   1.214   0.409   9.318 -0.0319  1.0564  1.1668
 2289SOL     OW18328   1.370   1.231  13.146 -0.3793  0.4397  0.1072
 2289SOL    HW118329   1.339   1.289  13.216  0.3144  0.1988  0.6071
 2289SOL    HW218330   1.329   1.272  13.069  0.5111  2.0478  0.4741
 2290SOL     OW18331   3.905   2.885   2.701  0.5413 -0.1687  0.5154
 2290SOL    HW118332   3.952   2.827   2.760 -0.3723 -0.3349  1.0740
 2290SOL    HW218333   3.983   2.933   2.671 -1.2374  2.4240  0.0035
 2291SOL     OW18334   2.466   1.642   0.929 -0.3680  0.1255  0.0591
 2291SOL    HW118335   2.395   1.671   0.871 -1.5465  0.6138  1.7483
 2291SOL    HW218336   2.502   1.572   0.875  0.9439  1.9075 -1.3529
 2292SOL     OW18337   3.708   1.783   1.374  0.0693 -0.7822 -0.2364
 2292SOL    HW118338   3.796   1.816   1.354 -1.0273  2.5063  0.4360
 2292SOL    HW218339   3.729   1.690   1.366  0.0256 -0.9051  1.0639
 2293SOL     OW18340   2.655   4.620   3.507 -0.4246 -0.1345  0.5808
 2293SOL    HW118341   2.665   4.702   3.555 -1.0036 -0.3662  1.1034
 2293SOL    HW218342   2.560   4.603   3.507 -1.0206  3.0771  1.0662
 2294SOL     OW18343   1.141   2.333   1.074  0.6083  0.5437  0.2069
 2294SOL    HW118344   1.112   2.400   1.136 -1.3069 -0.9537  0.9544
 2294SOL    HW218345   1.112   2.255   1.122 -1.3527 -0.5912 -2.8233
 2295SOL     OW18346   1.943   0.149  11.967 -0.2496 -0.1992 -0.3414
 2295SOL    HW118347   2.016   0.087  11.963  1.7965  2.3704 -3.0094
 2295SOL    HW218348   1.960   0.196  11.885  0.6868 -0.1742 -0.1388
 2296SOL     OW18349   3.657   4.328  10.117  0.2290  1.0404 -0.8524
 2296SOL    HW118350   3.573   4.355  10.153  0.9522  0.0301  1.5766
 2296SOL    HW218351   3.698   4.412  10.094  3.9779 -1.0501 -1.8382
 2297SOL     OW18352   1.396   4.402   9.339  0.3982 -0.0929 -0.2861
 2297SOL    HW118353   1.369   4.311   9.345  0.0434  0.0425  0.1373
 2297SOL    HW218354   1.428   4.389   9.249  1.5440 -0.9912  0.2599
 2298SOL     OW18355   1.651   0.873   1.985  0.3064  0.7971  0.5071
 2298SOL    HW118356   1.607   0.839   2.063  0.4814  0.4063  0.4305
 2298SOL    HW218357   1.580   0.874   1.920  0.9365  1.4636 -0.1736
 2299SOL     OW18358   2.959   2.915   6.941  0.4270  0.2390  0.7294
 2299SOL    HW118359   2.894   2.851   6.970  0.3970  0.2819  0.7563
 2299SOL    HW218360   2.982   2.960   7.022  1.3587  1.5466 -0.2531
 2300SOL     OW18361   4.324   1.610   3.898 -0.2189 -0.6531 -0.5085
 2300SOL    HW118362   4.343   1.562   3.979  0.5702  3.5237  1.7820
 2300SOL    HW218363   4.398   1.669   3.886 -2.1435  2.1391  1.3452
 2301SOL     OW18364   0.077   0.288  15.572  0.0396  0.3243 -0.1559
 2301SOL    HW118365   0.087   0.199  15.537  0.1003  0.0541  0.5575
 2301SOL    HW218366   4.720   0.312  15.523  0.0975 -0.6522 -0.7175
 2302SOL     OW18367   2.707   2.565   2.955  0.0381 -0.5694  0.1142
 2302SOL    HW118368   2.704   2.581   2.860 -0.3019 -1.5001 -0.0345
 2302SOL    HW218369   2.797   2.534   2.964  0.2858  0.3683  0.8041
 2303SOL     OW18370   2.291   3.761   0.837  0.0141  0.4459  0.9394
 2303SOL    HW118371   2.259   3.775   0.926 -1.0695 -0.5161  0.7006
 2303SOL    HW218372   2.223   3.805   0.786  0.1257 -0.6676 -0.1645
 2304SOL     OW18373   1.507   0.595   4.435  0.3626  0.0695 -0.5055
 2304SOL    HW118374   1.482   0.575   4.345  1.1798  1.9717 -1.1518
 2304SOL    HW218375   1.565   0.520   4.454  0.9354  0.1662 -1.8570
 2305SOL     OW18376   1.109   3.157   9.503  0.4778  1.2697 -0.5363
 2305SOL    HW118377   1.194   3.173   9.543  0.3248 -0.9250  0.6763
 2305SOL    HW218378   1.089   3.072   9.544  1.4976  1.3030  0.0197
 2306SOL     OW18379   3.343   0.903  10.557  0.1683  0.0403  0.0685
 2306SOL    HW118380   3.415   0.848  10.588 -0.4647 -2.1526 -2.3466
 2306SOL    HW218381   3.288   0.894  10.635 -0.9837  2.0707 -0.5031
 2307SOL     OW18382   2.494   0.794   1.278  0.8204  0.3139 -0.0850
 2307SOL    HW118383   2.552   0.853   1.325  0.8980  0.1234  0.0555
 2307SOL    HW218384   2.526   0.814   1.190  1.2395 -0.6316 -0.1359
 2308SOL     OW18385   2.532   0.520   4.997  0.5105  0.1277 -0.3071
 2308SOL    HW118386   2.570   0.607   4.997  0.4867  0.1395  0.7016
 2308SOL    HW218387   2.534   0.499   5.090  2.6542  0.7977 -0.2152
 2309SOL     OW18388   2.951   0.423  15.154  0.2173 -0.0920 -0.5102
 2309SOL    HW118389   2.949   0.508  15.110  0.0578  1.0953  1.7824
 2309SOL    HW218390   2.944   0.368  15.076 -0.4656  0.5030 -0.8736
 2310SOL     OW18391   3.725   4.166   4.209 -0.2423  0.0822 -0.1717
 2310SOL    HW118392   3.664   4.213   4.152 -2.3637 -1.7010  0.6378
 2310SOL    HW218393   3.688   4.195   4.292 -0.6779 -1.4540  0.1702
 2311SOL     OW18394   4.550   0.862  10.369 -0.1194  0.5191  0.3077
 2311SOL    HW118395   4.551   0.819  10.455  0.2480 -1.0991 -0.5016
 2311SOL    HW218396   4.579   0.951  10.390 -0.4979  0.4101  1.2862
 2312SOL     OW18397   4.565   1.595   3.564 -0.3766  0.5448 -0.9096
 2312SOL    HW118398   4.471   1.609   3.552 -0.5333 -0.9944 -1.5469
 2312SOL    HW218399   4.560   1.516   3.618  0.0108  0.2200 -1.3506
 2313SOL     OW18400   2.761   0.408   4.573  0.0252  0.3349 -0.1597
 2313SOL    HW118401   2.738   0.348   4.502  0.6865  0.2540 -0.3011
 2313SOL    HW218402   2.751   0.344   4.644  3.4298 -0.5993 -0.4954
 2314SOL     OW18403   2.951   2.096   7.976 -0.2567 -0.7552  0.1770
 2314SOL    HW118404   2.989   2.160   8.037  2.1447 -0.4093 -1.6861
 2314SOL    HW218405   3.028   2.056   7.935 -0.5434  0.2401 -1.3123
 2315SOL     OW18406   2.816   0.102   0.483 -0.0927  0.2102  0.1578
 2315SOL    HW118407   2.897   0.120   0.435  0.3984 -1.4737  0.3456
 2315SOL    HW218408   2.854   0.133   0.566  1.4401  1.0867 -0.8826
 2316SOL     OW18409   2.219   2.507   4.343  0.0661 -0.3373 -0.3811
 2316SOL    HW118410   2.134   2.487   4.303  0.2695  0.1464 -1.0421
 2316SOL    HW218411   2.276   2.481   4.270 -0.9538  0.1020 -1.3302
 2317SOL     OW18412   0.116   3.251   5.035  0.4044  0.2654 -0.2244
 2317SOL    HW118413   0.059   3.290   4.969 -1.9795 -0.6971  1.2865
 2317SOL    HW218414   0.195   3.234   4.983 -0.5649  1.0722 -1.9598
 2318SOL     OW18415   4.308   2.221   2.365 -0.0292  0.2804 -0.2659
 2318SOL    HW118416   4.313   2.246   2.457  0.0834  0.5258 -0.3374
 2318SOL    HW218417   4.395   2.245   2.333 -0.0260  1.1449  0.4079
 2319SOL     OW18418   2.128   4.405   4.964 -0.1154 -0.4735  0.9468
 2319SOL    HW118419   2.216   4.420   4.999 -1.1714  0.7881  3.0879
 2319SOL    HW218420   2.139   4.315   4.934  2.6446  0.3119 -0.3631
 2320SOL     OW18421   1.780   3.140  17.065  0.6785  0.4152  0.3481
 2320SOL    HW118422   1.693   3.154  17.101  0.7590  2.0603 -0.0938
 2320SOL    HW218423   1.771   3.162  16.972  1.1073  2.0061  0.6845
 2321SOL     OW18424   2.974   1.492   6.779 -0.0441 -0.0580 -0.4589
 2321SOL    HW118425   2.921   1.413   6.792 -1.6824  1.3299  1.3565
 2321SOL    HW218426   3.000   1.511   6.869  0.0629  0.9383 -0.6972
 2322SOL     OW18427   1.569   0.167   8.000 -0.1223  0.5349  0.0531
 2322SOL    HW118428   1.620   0.094   7.968  0.6269  1.3979 -0.7278
 2322SOL    HW218429   1.611   0.204   8.078  0.6447  0.2155 -0.2189
 2323SOL     OW18430   0.405   1.772   6.028  0.0695  1.1065  0.2865
 2323SOL    HW118431   0.324   1.731   6.000  1.3508 -1.3175  0.0990
 2323SOL    HW218432   0.455   1.697   6.061  0.8154  1.2027 -0.6281
 2324SOL     OW18433   3.763   4.308  16.727 -0.3308 -0.2692 -0.5554
 2324SOL    HW118434   3.737   4.220  16.702  0.5857 -1.2802  2.0810
 2324SOL    HW218435   3.715   4.356  16.659  1.7046 -0.2578 -1.9655
 2325SOL     OW18436   4.343   4.703   7.820 -0.4851  0.0687 -0.0046
 2325SOL    HW118437   4.365   0.026   7.901  1.3041  0.4571 -0.7095
 2325SOL    HW218438   4.250   0.002   7.808 -0.4297 -1.3900 -2.8874
 2326SOL     OW18439   4.266   0.068  12.284 -0.2288  0.4033 -0.0142
 2326SOL    HW118440   4.263   0.144  12.226 -1.1821 -0.3519 -0.9573
 2326SOL    HW218441   4.304   4.720  12.232  0.7196  0.0281  1.1727
 2327SOL     OW18442   1.352   3.912   9.669 -0.0525  0.1611  0.3759
 2327SOL    HW118443   1.410   3.948   9.736  1.3496 -0.0401 -0.7495
 2327SOL    HW218444   1.273   3.879   9.712  1.6326 -2.0425  1.8036
 2328SOL     OW18445   3.102   3.282   9.020  0.1985  0.2077  0.6641
 2328SOL    HW118446   3.111   3.202   9.072 -0.3949  0.7800  1.6429
 2328SOL    HW218447   3.066   3.343   9.084 -0.4942  0.3155  0.1758
 2329SOL     OW18448   3.943   0.810   9.769 -0.0442  0.1160  0.5650
 2329SOL    HW118449   3.875   0.873   9.794  0.0937  0.7485 -0.6293
 2329SOL    HW218450   3.929   0.730   9.820 -2.0072  0.1944  0.1671
 2330SOL     OW18451   1.393   2.185   1.700  0.0212 -0.3244 -0.1311
 2330SOL    HW118452   1.430   2.238   1.630  0.5693 -1.2427 -0.5380
 2330SOL    HW218453   1.304   2.174   1.668 -0.4999 -0.9365  1.5066
 2331SOL     OW18454   3.913   3.218   9.538 -0.2002  0.5667  0.2684
 2331SOL    HW118455   3.979   3.267   9.588  2.3540 -1.0065 -1.5405
 2331SOL    HW218456   3.924   3.247   9.447 -0.8923  0.5190  0.1718
 2332SOL     OW18457   2.627   4.077   6.880  0.8245  0.3623  0.8867
 2332SOL    HW118458   2.619   4.084   6.975 -0.9102  0.1482  0.7520
 2332SOL    HW218459   2.681   3.998   6.871 -0.8177 -0.8684  1.9548
 2333SOL     OW18460   3.726   1.951   6.966  0.7803 -0.2130 -0.2592
 2333SOL    HW118461   3.690   2.038   6.981 -3.5508 -1.7410 -1.4977
 2333SOL    HW218462   3.748   1.954   6.873  0.1989  0.4863 -0.3720
 2334SOL     OW18463   2.166   3.861   1.060  0.2600 -0.0709 -0.0833
 2334SOL    HW118464   2.090   3.918   1.074  0.9767  0.8458  0.0570
 2334SOL    HW218465   2.220   3.871   1.139 -0.0125 -2.5974  0.4320
 2335SOL     OW18466   3.896   2.484   5.133 -0.3287 -0.3284  0.1709
 2335SOL    HW118467   3.851   2.494   5.049 -0.2075 -1.0127  0.0212
 2335SOL    HW218468   3.821   2.515   5.184 -1.8261 -1.5130 -1.2885
 2336SOL     OW18469   0.654   2.310   7.445  0.2557 -0.2131 -0.3315
 2336SOL    HW118470   0.680   2.390   7.400  2.8001 -0.9529 -0.2085
 2336SOL    HW218471   0.665   2.337   7.536 -0.9442 -2.0112  0.3342
 2337SOL     OW18472   0.145   3.162   3.537 -0.0879 -0.4182 -0.3624
 2337SOL    HW118473   0.088   3.227   3.580 -0.0041 -2.0278  2.1555
 2337SOL    HW218474   0.077   3.094   3.529 -2.0245  1.4744 -0.1524
 2338SOL     OW18475   3.684   2.901   4.606  0.1832  0.1416 -0.0763
 2338SOL    HW118476   3.647   2.917   4.693 -0.6312 -1.7496 -0.0716
 2338SOL    HW218477   3.618   2.943   4.551 -0.9194 -0.5310  0.7250
 2339SOL     OW18478   2.081   1.953  10.488 -0.1821  0.4110 -0.2771
 2339SOL    HW118479   2.168   1.922  10.515 -0.3567  1.0978  1.0784
 2339SOL    HW218480   2.025   1.929  10.562  0.2109  3.9187  1.1521
 2340SOL     OW18481   4.106   3.019  16.178 -0.6018  0.6048 -0.1967
 2340SOL    HW118482   4.188   2.986  16.141 -0.6058  0.9714 -0.5288
 2340SOL    HW218483   4.095   2.946  16.240  1.8278  0.4165 -0.0034
 2341SOL     OW18484   3.323   3.731   7.931 -0.4642 -0.7756 -0.0279
 2341SOL    HW118485   3.388   3.735   8.002 -1.2023 -2.1811  0.7372
 2341SOL    HW218486   3.261   3.664   7.962 -0.2648 -1.3090 -0.7951
 2342SOL     OW18487   4.602   3.311   8.355  0.2904  0.3552  0.0423
 2342SOL    HW118488   4.648   3.352   8.428 -0.4083  0.0701  0.6410
 2342SOL    HW218489   4.511   3.315   8.384  0.5209  2.0911  0.4822
 2343SOL     OW18490   0.697   1.572  16.327 -0.4138  0.0433 -0.1917
 2343SOL    HW118491   0.756   1.642  16.298 -0.9089 -0.0621 -1.4491
 2343SOL    HW218492   0.653   1.606  16.405 -1.1059 -0.0397 -0.5436
 2344SOL     OW18493   3.391   2.322   5.275 -0.2821 -0.3225 -0.4983
 2344SOL    HW118494   3.332   2.397   5.278 -0.9392 -0.8590  0.0684
 2344SOL    HW218495   3.339   2.262   5.221 -1.0969  0.0003 -0.0763
 2345SOL     OW18496   1.472   4.279   8.562  0.6417 -0.8971  0.1449
 2345SOL    HW118497   1.424   4.274   8.479  3.0686  2.5352 -1.5102
 2345SOL    HW218498   1.522   4.198   8.555  1.1085 -0.6152  0.2607
 2346SOL     OW18499   2.671   4.282   5.490  0.0853 -0.4063  0.5087
 2346SOL    HW118500   2.696   4.297   5.399 -2.2570 -0.3428 -0.0962
 2346SOL    HW218501   2.724   4.204   5.509 -1.0298 -2.0268 -3.0986
 2347SOL     OW18502   1.484   1.016   7.398 -0.1376  0.2793  0.2054
 2347SOL    HW118503   1.419   0.974   7.342  0.3527  1.1312 -1.0331
 2347SOL    HW218504   1.470   1.108   7.372 -2.4312  0.6378  2.7509
 2348SOL     OW18505   0.249   4.109   6.036  0.2521 -0.1909  0.1161
 2348SOL    HW118506   0.180   4.101   5.970 -0.0529  1.4271  0.2438
 2348SOL    HW218507   0.323   4.069   5.989 -0.1077 -0.5440 -0.1509
 2349SOL     OW18508   0.714   2.708   8.619 -0.1590  0.0118 -0.1966
 2349SOL    HW118509   0.808   2.691   8.619 -0.3266 -0.8729  1.2497
 2349SOL    HW218510   0.685   2.640   8.680 -1.2029 -1.4653 -2.3113
 2350SOL     OW18511   2.148   4.199   4.769 -0.0160  0.1965  0.3074
 2350SOL    HW118512   2.079   4.211   4.703  1.1396 -1.6996 -1.2777
 2350SOL    HW218513   2.212   4.160   4.709 -0.1603 -2.9622  2.1915
 2351SOL     OW18514   4.203   3.429  16.225  0.0890 -0.2773 -0.0935
 2351SOL    HW118515   4.262   3.496  16.258  0.2830  0.5494 -2.1579
 2351SOL    HW218516   4.256   3.350  16.237  1.6091  0.1857 -3.7011
 2352SOL     OW18517   3.641   1.850   7.831 -0.1675  0.1781  0.3772
 2352SOL    HW118518   3.730   1.884   7.819  0.3438 -1.0328  0.7073
 2352SOL    HW218519   3.640   1.809   7.918 -1.2300 -0.7280 -0.0581
 2353SOL     OW18520   2.665   1.089   8.769  0.2757 -0.0965 -0.1038
 2353SOL    HW118521   2.757   1.103   8.748 -0.3148 -0.0232 -2.7066
 2353SOL    HW218522   2.655   0.994   8.760  2.2081 -0.2646 -0.3066
 2354SOL     OW18523   0.544   1.229   3.455  0.5623  0.1119  0.0135
 2354SOL    HW118524   0.528   1.223   3.361  0.6018  1.3634 -0.0820
 2354SOL    HW218525   0.566   1.139   3.475 -2.8585 -0.5454  0.7979
 2355SOL     OW18526   1.193   0.870  12.106 -0.1880 -0.3129  0.1498
 2355SOL    HW118527   1.167   0.910  12.189  2.1534  1.1547  0.1792
 2355SOL    HW218528   1.130   0.918  12.052  0.0808 -0.5080 -0.3320
 2356SOL     OW18529   1.818   2.860  17.114  0.0723 -0.1772  0.1722
 2356SOL    HW118530   1.804   2.947  17.078  0.4049  0.6165  1.9464
 2356SOL    HW218531   1.883   2.878  17.182  1.2059 -1.0047 -0.6838
 2357SOL     OW18532   2.633   3.620  10.593  0.1904  0.0995  0.2296
 2357SOL    HW118533   2.656   3.584  10.507 -1.2785 -0.8361  0.2276
 2357SOL    HW218534   2.700   3.579  10.649 -1.7660 -0.5284  2.1144
 2358SOL     OW18535   2.386   1.698   8.067  0.1052  0.4619 -0.3537
 2358SOL    HW118536   2.341   1.713   8.150  1.0425 -0.6904  0.3626
 2358SOL    HW218537   2.382   1.783   8.022 -0.4119  0.6911  0.1305
 2359SOL     OW18538   3.764   2.162   3.982  0.0613 -0.2175 -0.3861
 2359SOL    HW118539   3.744   2.246   4.024 -0.3775 -1.0353  1.0028
 2359SOL    HW218540   3.701   2.167   3.910 -0.7884 -0.9663  0.3068
 2360SOL     OW18541   2.231   0.898   0.476 -0.8970  0.2797  0.4354
 2360SOL    HW118542   2.197   0.837   0.541  0.6025 -1.5693 -0.5198
 2360SOL    HW218543   2.320   0.915   0.505 -1.1669  2.2471  0.1777
 2361SOL     OW18544   4.590   2.880   4.456 -0.3745  0.1511 -0.0627
 2361SOL    HW118545   4.678   2.882   4.493 -1.4220 -0.4465  2.4289
 2361SOL    HW218546   4.597   2.964   4.411 -0.7099  0.9506  1.3949
 2362SOL     OW18547   2.019   1.841  10.763  0.1454  0.8193  0.3733
 2362SOL    HW118548   2.017   1.895  10.842  0.4393  2.0035 -0.4215
 2362SOL    HW218549   1.935   1.846  10.717 -0.4867  0.3000  1.4807
 2363SOL     OW18550   0.237   0.229   5.806 -0.2649 -0.5438 -0.0206
 2363SOL    HW118551   0.232   0.311   5.853  2.1585 -0.4484  0.0805
 2363SOL    HW218552   0.207   0.167   5.872 -0.1967 -0.6867 -0.1224
 2364SOL     OW18553   4.471   2.585   3.293  0.1054  0.2959 -0.1309
 2364SOL    HW118554   4.404   2.620   3.352 -1.6920 -0.0066 -1.9730
 2364SOL    HW218555   4.434   2.497   3.286  0.5633  0.2650 -2.3049
 2365SOL     OW18556   3.701   4.162   5.632  0.2106  0.1730 -0.1638
 2365SOL    HW118557   3.719   4.246   5.590  2.0314  0.1565  0.6110
 2365SOL    HW218558   3.613   4.180   5.664 -0.3078 -0.1326 -1.4027
 2366SOL     OW18559   1.174   4.580   9.456 -0.0225  0.1072 -0.0790
 2366SOL    HW118560   1.233   4.511   9.428 -1.1285 -1.0542  0.4406
 2366SOL    HW218561   1.183   4.567   9.551  1.5570 -1.0035 -0.3897
 2367SOL     OW18562   2.047   0.329   3.205  0.6525  0.4662 -0.2766
 2367SOL    HW118563   2.021   0.342   3.296  0.2235 -0.9306 -0.1973
 2367SOL    HW218564   1.967   0.353   3.158 -0.1277 -2.5382 -0.4630
 2368SOL     OW18565   0.320   2.594  16.922  0.4314  0.1895 -0.1113
 2368SOL    HW118566   0.240   2.639  16.896  0.3559  1.4148  2.2068
 2368SOL    HW218567   0.291   2.526  16.983  0.7580 -1.5322 -1.8506
 2369SOL     OW18568   0.734   1.371  14.048  0.0523  0.0179  0.0982
 2369SOL    HW118569   0.679   1.340  13.976  1.3007  2.0621 -1.7632
 2369SOL    HW218570   0.796   1.424  13.996 -0.0885 -1.8854 -2.0047
 2370SOL     OW18571   2.131   2.262   3.800 -0.3070 -0.0025  0.7041
 2370SOL    HW118572   2.108   2.236   3.889 -1.6841  0.5536  0.5000
 2370SOL    HW218573   2.064   2.324   3.772 -0.2843 -0.5990 -0.7141
 2371SOL     OW18574   1.288   2.935   4.828  0.2147  0.7540  0.4284
 2371SOL    HW118575   1.206   2.928   4.779  1.4935  0.8206 -1.7371
 2371SOL    HW218576   1.301   2.841   4.843 -0.8584 -0.0185 -3.4514
 2372SOL     OW18577   3.722   1.775   7.169 -0.1132  0.4204 -0.4194
 2372SOL    HW118578   3.721   1.823   7.086  0.0865  0.3940 -0.4370
 2372SOL    HW218579   3.720   1.846   7.234  1.0557 -0.9197  1.0690
 2373SOL     OW18580   4.564   0.910   6.227  0.0714  0.4366 -0.3387
 2373SOL    HW118581   4.587   0.900   6.319 -1.1044 -3.7229 -0.4671
 2373SOL    HW218582   4.611   0.834   6.192 -1.0794 -0.2113 -0.5077
 2374SOL     OW18583   4.109   0.066   3.128 -0.9265  0.4162  0.0350
 2374SOL    HW118584   4.115   0.084   3.222  3.6782  1.9876 -0.5924
 2374SOL    HW218585   4.192   0.022   3.111 -1.1234 -0.0788  0.3817
 2375SOL     OW18586   4.238   3.462   8.782 -0.3085 -0.3506 -0.1129
 2375SOL    HW118587   4.173   3.449   8.851  0.9301  1.9711  1.4972
 2375SOL    HW218588   4.280   3.379   8.762 -2.6363 -1.2027 -1.4469
 2376SOL     OW18589   1.534   0.205   0.188  0.1550  0.3285  0.1341
 2376SOL    HW118590   1.621   0.193   0.226  0.5691  0.7838 -0.6603
 2376SOL    HW218591   1.493   0.131   0.232  2.4663 -0.8707  0.2682
 2377SOL     OW18592   4.091   2.118   6.109 -0.3007 -0.5811  0.0355
 2377SOL    HW118593   4.087   2.052   6.178 -1.5494  1.6901  2.1227
 2377SOL    HW218594   4.169   2.167   6.136 -0.7000 -0.9300  1.7863
 2378SOL     OW18595   1.326   3.162   6.236 -0.2507  0.0248  0.2857
 2378SOL    HW118596   1.405   3.211   6.214  1.3218 -1.6232  2.1923
 2378SOL    HW218597   1.349   3.072   6.212  1.1771  1.0095 -2.0039
 2379SOL     OW18598   2.829   3.562   1.243  0.1192 -0.3054 -0.2335
 2379SOL    HW118599   2.770   3.488   1.229 -0.9624  0.3849  0.7344
 2379SOL    HW218600   2.899   3.528   1.299  0.2924  2.1251  1.0044
 2380SOL     OW18601   0.049   0.026  14.470  0.3694  0.4218  0.2279
 2380SOL    HW118602   0.127   0.001  14.421  0.8248 -0.2401  1.2687
 2380SOL    HW218603   0.061   0.120  14.476 -2.2090  0.7693 -0.1904
 2381SOL     OW18604   3.594   4.308   3.388 -0.2615 -0.5877 -0.3378
 2381SOL    HW118605   3.681   4.325   3.352 -0.5503 -0.3314 -0.9112
 2381SOL    HW218606   3.563   4.250   3.319 -1.3252  1.6076 -1.6550
 2382SOL     OW18607   1.440   0.166   3.237  0.8865 -0.0950 -0.1320
 2382SOL    HW118608   1.402   0.093   3.285  3.0629 -0.8949  0.3756
 2382SOL    HW218609   1.522   0.125   3.209  0.4482 -0.0155 -1.5386
 2383SOL     OW18610   0.823   4.577   4.100 -0.1308 -0.0792 -0.0609
 2383SOL    HW118611   0.834   4.594   4.194 -2.1045 -0.0412  0.1490
 2383SOL    HW218612   0.784   4.490   4.104  0.2640 -0.2834 -0.6753
 2384SOL     OW18613   2.426   2.780   0.770 -0.1454  0.1738 -0.1593
 2384SOL    HW118614   2.473   2.798   0.688  0.0302 -1.5129 -0.4272
 2384SOL    HW218615   2.404   2.687   0.764  0.9961 -0.0309 -1.2392
 2385SOL     OW18616   3.536   2.936  14.129  0.1193 -0.4267 -0.4665
 2385SOL    HW118617   3.509   2.942  14.037  0.3454  0.5526 -0.4664
 2385SOL    HW218618   3.457   2.890  14.157 -0.1631 -0.1686 -0.8335
 2386SOL     OW18619   0.644   4.059   4.262 -0.2645 -0.2260  0.6843
 2386SOL    HW118620   0.549   4.062   4.256 -0.3976 -1.5591  2.2025
 2386SOL    HW218621   0.655   3.984   4.204 -3.8210  2.1775 -3.0285
 2387SOL     OW18622   4.714   0.030   2.609 -0.0551  0.4717  0.1481
 2387SOL    HW118623   4.650   4.683   2.628  0.9034 -0.5775 -0.3727
 2387SOL    HW218624   0.048   4.704   2.547  1.0763  0.5699  1.0993
 2388SOL     OW18625   4.428   0.938  16.010  0.3124 -0.0543  0.6985
 2388SOL    HW118626   4.456   1.024  16.042  0.7288  0.0729  0.0047
 2388SOL    HW218627   4.446   0.944  15.916  1.0689 -0.6806  0.8058
 2389SOL     OW18628   0.236   3.848   7.595 -0.0143 -0.3135 -0.2814
 2389SOL    HW118629   0.271   3.759   7.590 -0.7773 -0.6793  0.9766
 2389SOL    HW218630   0.224   3.859   7.501 -0.4378  0.0698 -0.1802
 2390SOL     OW18631   2.302   3.980   5.889  0.1486 -0.1167  0.0814
 2390SOL    HW118632   2.354   4.038   5.833  1.5462 -0.5027  0.9569
 2390SOL    HW218633   2.314   4.014   5.978 -0.0096 -0.3417  0.1877
 2391SOL     OW18634   0.571   3.513  11.393  0.0185 -0.4279 -0.6056
 2391SOL    HW118635   0.586   3.434  11.445 -0.6741  0.1558  0.4890
 2391SOL    HW218636   0.479   3.533  11.410  0.5719  1.0358  0.6273
 2392SOL     OW18637   1.758   3.420   0.503  0.0803 -0.1152  0.0938
 2392SOL    HW118638   1.677   3.443   0.547 -0.7169  0.5654 -1.7104
 2392SOL    HW218639   1.754   3.325   0.501  1.2852 -0.2002  1.6644
 2393SOL     OW18640   1.168   3.650   5.405  0.0990 -0.2112 -0.5461
 2393SOL    HW118641   1.223   3.726   5.387  1.9549 -1.4503 -0.0031
 2393SOL    HW218642   1.081   3.689   5.412  0.3524  0.3488 -0.5446
 2394SOL     OW18643   1.570   3.005  14.603 -0.8442  0.1946 -0.2883
 2394SOL    HW118644   1.650   3.056  14.590  0.7210 -1.4949  2.6735
 2394SOL    HW218645   1.599   2.922  14.641 -1.4189  0.3603  0.5208
 2395SOL     OW18646   2.001   1.063   9.015 -0.1438  0.1316 -0.0884
 2395SOL    HW118647   2.051   1.097   9.090  0.0060  2.5424 -1.2745
 2395SOL    HW218648   1.926   1.026   9.061 -0.2257  1.2178  0.6584
 2396SOL     OW18649   2.982   3.446   1.421  0.1796 -0.3890 -0.8121
 2396SOL    HW118650   2.945   3.499   1.491  1.0945  0.6794 -1.1296
 2396SOL    HW218651   2.921   3.373   1.422  0.6086 -0.7574 -1.4375
 2397SOL     OW18652   1.169   4.448   8.326  0.3927  0.2869  0.3040
 2397SOL    HW118653   1.202   4.513   8.388 -1.0560  2.3795 -1.1025
 2397SOL    HW218654   1.075   4.452   8.343  0.8086 -1.0034  2.9216
 2398SOL     OW18655   3.604   1.126   7.763 -0.3666  0.3651 -0.2806
 2398SOL    HW118656   3.554   1.058   7.809  1.7980 -1.8507 -1.1764
 2398SOL    HW218657   3.541   1.194   7.741 -0.7682  1.1941  3.4390
 2399SOL     OW18658   2.251   4.014   5.383 -0.8046 -0.0410 -0.7239
 2399SOL    HW118659   2.316   3.985   5.446 -0.6181  0.5348 -0.6564
 2399SOL    HW218660   2.275   4.107   5.379  1.5399 -0.6284 -0.0988
 2400SOL     OW18661   0.541   1.110   5.082 -0.1960 -0.6454 -0.5119
 2400SOL    HW118662   0.625   1.145   5.051  0.2131 -0.9778  0.2434
 2400SOL    HW218663   0.551   1.120   5.176  0.7118 -1.4215 -0.5264
 2401SOL     OW18664   1.065   3.051   2.395  0.2778 -0.4751 -0.3024
 2401SOL    HW118665   1.066   2.955   2.390 -0.0693 -0.5470  0.9316
 2401SOL    HW218666   1.100   3.058   2.485 -3.0953  0.5519  0.9063
 2402SOL     OW18667   0.422   1.781   5.464  0.3939 -0.4808  0.4177
 2402SOL    HW118668   0.448   1.832   5.541  1.3624  1.7750 -1.4336
 2402SOL    HW218669   0.510   1.783   5.427  0.2509  0.6072  0.1454
 2403SOL     OW18670   2.721   1.838  12.710  0.5391 -0.0361 -0.2971
 2403SOL    HW118671   2.729   1.919  12.659 -1.1069 -0.0674 -0.6348
 2403SOL    HW218672   2.632   1.858  12.739  1.6733  1.5916  2.0756
 2404SOL     OW18673   4.162   2.265  12.466  0.0135  0.1290  0.4416
 2404SOL    HW118674   4.075   2.263  12.506 -0.2606  2.0722 -0.0619
 2404SOL    HW218675   4.224   2.286  12.536  1.1225 -2.5129  0.2528
 2405SOL     OW18676   0.166   0.005   6.589 -0.4830  0.5239  0.1844
 2405SOL    HW118677   0.075   4.719   6.562 -1.5953  3.6978  3.0133
 2405SOL    HW218678   0.174   4.662   6.659  0.0860  0.0393 -0.3367
 2406SOL     OW18679   0.134   3.460   3.401  0.4614  0.0088 -0.3319
 2406SOL    HW118680   0.146   3.543   3.354 -2.2729  1.3578  1.3296
 2406SOL    HW218681   0.215   3.467   3.451  0.6715  3.0124 -1.0989
 2407SOL     OW18682   1.316   2.748   5.723 -0.1923 -0.4297 -0.6457
 2407SOL    HW118683   1.365   2.731   5.804 -2.0939 -0.1760  0.5535
 2407SOL    HW218684   1.340   2.836   5.694  0.2554  0.0213  1.0575
 2408SOL     OW18685   0.767   3.739   7.284  0.1955 -0.5165 -0.1323
 2408SOL    HW118686   0.853   3.775   7.264 -0.2797 -0.2103 -1.6115
 2408SOL    HW218687   0.754   3.781   7.369  0.3996 -2.3645  0.8152
 2409SOL     OW18688   0.828   4.462   4.566  0.1506 -0.3880  0.1944
 2409SOL    HW118689   0.825   4.482   4.660 -2.3296  1.9338 -0.3786
 2409SOL    HW218690   0.794   4.548   4.541 -0.5841 -1.2827 -1.8626
 2410SOL     OW18691   4.016   0.791   1.164 -0.0565 -0.0831  0.1078
 2410SOL    HW118692   4.030   0.784   1.070  1.3350  0.4885  0.2670
 2410SOL    HW218693   4.036   0.885   1.172 -1.9582  0.4316 -1.0965
 2411SOL     OW18694   1.088   1.180   8.749  0.0433  0.3552  0.1831
 2411SOL    HW118695   1.010   1.137   8.784  0.2548  0.0474  0.2837
 2411SOL    HW218696   1.071   1.204   8.658  2.2308 -0.9480 -0.5677
 2412SOL     OW18697   0.129   0.384   8.741 -0.0591  0.0817 -0.4736
 2412SOL    HW118698   0.134   0.415   8.651  1.7576  2.3271  0.3938
 2412SOL    HW218699   0.056   0.323   8.739  0.6410 -0.8776  2.2064
 2413SOL     OW18700   3.827   3.567   4.901  0.7490 -0.0426 -0.4013
 2413SOL    HW118701   3.809   3.659   4.883 -0.4155 -0.1238  0.3322
 2413SOL    HW218702   3.755   3.520   4.860 -0.3339  0.1896  1.2137
 2414SOL     OW18703   3.521   2.622   3.470  0.4103  0.1092  0.4450
 2414SOL    HW118704   3.461   2.580   3.408 -0.5149 -0.2036  1.5426
 2414SOL    HW218705   3.573   2.689   3.425  0.7025 -0.3718  0.0745
 2415SOL     OW18706   1.590   3.343   3.961  0.0874  0.1075 -0.0293
 2415SOL    HW118707   1.664   3.389   4.002 -0.1575  0.8850 -0.4720
 2415SOL    HW218708   1.627   3.323   3.875 -3.4993 -2.5885 -0.9693
 2416SOL     OW18709   0.314   1.891  16.138 -0.1102  0.1956 -0.3786
 2416SOL    HW118710   0.233   1.926  16.176  0.4659  1.0327  0.0880
 2416SOL    HW218711   0.375   1.965  16.144  0.2726 -0.0993 -0.6557
 2417SOL     OW18712   3.556   2.275   5.646 -0.5714 -0.1437  0.1849
 2417SOL    HW118713   3.590   2.302   5.731  2.1289 -3.2874  0.1296
 2417SOL    HW218714   3.503   2.199   5.671 -0.5851 -0.5839 -1.1807
 2418SOL     OW18715   2.662   1.637   5.421 -0.1991 -0.2766 -0.2344
 2418SOL    HW118716   2.664   1.726   5.456  0.5358 -0.1443 -0.6402
 2418SOL    HW218717   2.704   1.630   5.336 -1.8557  0.4855 -1.1236
 2419SOL     OW18718   4.213   2.249   2.717 -0.1910  0.2976  0.6408
 2419SOL    HW118719   4.178   2.326   2.761 -2.4150 -0.1728 -0.3211
 2419SOL    HW218720   4.290   2.237   2.773  0.6024  0.3040 -0.4355
 2420SOL     OW18721   1.328   1.303   0.377  0.2492  0.8657  0.0246
 2420SOL    HW118722   1.250   1.354   0.355 -0.4020  0.5653  1.5924
 2420SOL    HW218723   1.274   1.226   0.396 -0.9491  1.5271 -0.6933
 2421SOL     OW18724   2.058   2.777  10.940  0.2769 -0.2409 -0.2979
 2421SOL    HW118725   2.139   2.726  10.931 -0.2704 -0.9695 -1.0688
 2421SOL    HW218726   2.047   2.769  11.035  0.5687  0.9727 -0.1660
 2422SOL     OW18727   4.079   3.611   9.674 -0.2657  0.2235  0.4947
 2422SOL    HW118728   4.002   3.667   9.665 -0.2110 -0.0877 -1.9112
 2422SOL    HW218729   4.133   3.645   9.602  0.0398 -1.0036  0.1464
 2423SOL     OW18730   3.633   0.286  10.746  0.6275  0.3862 -0.4739
 2423SOL    HW118731   3.693   0.303  10.818 -1.2795 -0.2521  1.2665
 2423SOL    HW218732   3.621   0.376  10.715 -0.0813 -0.2023 -1.9212
 2424SOL     OW18733   1.226   1.316   0.783  0.1172  0.3001  0.3994
 2424SOL    HW118734   1.178   1.284   0.706  1.9929 -0.7580 -0.3105
 2424SOL    HW218735   1.283   1.380   0.741  0.7070  0.5525  1.5819
 2425SOL     OW18736   3.894   1.196  12.534  0.5668 -0.3525  0.6415
 2425SOL    HW118737   3.960   1.206  12.466 -0.1605 -0.6547 -0.1040
 2425SOL    HW218738   3.811   1.208  12.489  0.6965 -1.2775  0.1565
 2426SOL     OW18739   0.885   4.706   5.448  0.2954 -0.2037  0.2288
 2426SOL    HW118740   0.891   4.617   5.483 -0.1470  0.4946  2.0687
 2426SOL    HW218741   0.859   0.030   5.527  1.9403  2.3499 -0.7242
 2427SOL     OW18742   4.426   0.184   3.415 -0.1847  0.3246 -0.0837
 2427SOL    HW118743   4.488   0.257   3.411 -0.2079  0.2299 -2.2954
 2427SOL    HW218744   4.486   0.111   3.433 -1.2532 -0.1209  1.6590
 2428SOL     OW18745   2.974   2.159   5.865 -0.4776 -0.0420 -0.4429
 2428SOL    HW118746   2.917   2.087   5.838  0.0900  0.9734 -4.3809
 2428SOL    HW218747   3.064   2.131   5.846  0.0308  1.4827 -0.2981
 2429SOL     OW18748   0.782   1.512   5.410 -0.0827 -0.1242 -0.0575
 2429SOL    HW118749   0.775   1.601   5.444  0.5678 -0.5503  1.1762
 2429SOL    HW218750   0.875   1.505   5.391 -0.0508  0.2988 -0.0503
 2430SOL     OW18751   0.917   2.836   5.678 -0.3324  0.4534 -0.0605
 2430SOL    HW118752   0.962   2.778   5.617  1.9938  1.2327  0.9199
 2430SOL    HW218753   0.834   2.797   5.707  0.1411 -1.2472 -0.9831
 2431SOL     OW18754   0.689   3.862   9.443 -0.7927 -0.7133 -0.1752
 2431SOL    HW118755   0.629   3.935   9.456  2.0158  1.3264  1.3307
 2431SOL    HW218756   0.639   3.789   9.480 -0.4515 -0.8404  0.0391
 2432SOL     OW18757   2.084   2.450   3.402  0.0737 -0.1034 -0.0686
 2432SOL    HW118758   2.136   2.472   3.325  0.6012 -0.6214  0.1451
 2432SOL    HW218759   2.117   2.361   3.395  0.9498  0.2402 -0.3234
 2433SOL     OW18760   1.821   1.779   6.289  0.2377 -0.4009 -0.5341
 2433SOL    HW118761   1.772   1.780   6.207 -0.0739  0.9663 -0.3466
 2433SOL    HW218762   1.795   1.698   6.332  1.9763  0.0253  1.3436
 2434SOL     OW18763   1.281   4.120   5.215 -0.2295 -0.1009  0.6400
 2434SOL    HW118764   1.346   4.160   5.272 -1.4824  1.7066  0.7912
 2434SOL    HW218765   1.285   4.031   5.251  3.2703  0.3605  1.3939
 2435SOL     OW18766   1.342   0.754   5.378  0.1329  0.6200  0.1708
 2435SOL    HW118767   1.285   0.753   5.301  1.5512 -0.1416 -0.8928
 2435SOL    HW218768   1.382   0.669   5.360 -2.1346 -0.2154 -0.8487
 2436SOL     OW18769   2.664   3.342   9.396  0.4562  0.4874  0.4125
 2436SOL    HW118770   2.609   3.340   9.474 -0.8601 -1.1125 -0.5605
 2436SOL    HW218771   2.742   3.364   9.447  0.7724  0.1116  0.0914
 2437SOL     OW18772   3.176   3.107  10.137  0.3273  0.8242 -0.5572
 2437SOL    HW118773   3.139   3.046  10.201 -1.5370  0.3048 -2.1398
 2437SOL    HW218774   3.124   3.080  10.062  0.7463 -1.1117 -0.1389
 2438SOL     OW18775   2.182   2.077   4.458 -0.2100 -0.0586  0.3620
 2438SOL    HW118776   2.135   2.159   4.470  2.3674  1.3231  1.0078
 2438SOL    HW218777   2.150   2.039   4.376  2.1139 -0.3182 -0.4337
 2439SOL     OW18778   4.505   2.690   5.169  0.0857 -0.4897  0.6384
 2439SOL    HW118779   4.528   2.755   5.104  1.8300 -1.6584  0.0858
 2439SOL    HW218780   4.413   2.673   5.148  0.1395 -2.3712  1.8727
 2440SOL     OW18781   2.046   0.891   8.053  0.1628  0.3728  0.7064
 2440SOL    HW118782   2.011   0.816   8.101 -0.1020  2.1452  3.2441
 2440SOL    HW218783   1.962   0.911   8.011 -0.0689 -0.4422  0.7733
 2441SOL     OW18784   2.324   2.751   3.663 -0.0902 -0.3701  0.4496
 2441SOL    HW118785   2.397   2.720   3.716  0.5998  0.8373  0.2291
 2441SOL    HW218786   2.375   2.806   3.603 -0.1049  0.0152  0.7836
 2442SOL     OW18787   2.298   2.805   5.273 -0.0716  0.1619 -0.6477
 2442SOL    HW118788   2.272   2.896   5.261 -1.1848 -0.0357  0.2559
 2442SOL    HW218789   2.253   2.770   5.196  0.4142  0.1668 -0.9336
 2443SOL     OW18790   2.203   3.707   7.084  0.0299  0.1983 -0.3538
 2443SOL    HW118791   2.132   3.679   7.026 -0.1764 -1.4539  0.6961
 2443SOL    HW218792   2.153   3.773   7.133 -2.8152 -2.4173  0.2900
 2444SOL     OW18793   0.839   2.167  13.299  0.2464 -0.0807 -0.6015
 2444SOL    HW118794   0.761   2.221  13.313  0.2509 -0.0309 -0.7676
 2444SOL    HW218795   0.915   2.215  13.331  0.6723 -1.0006 -0.2423
 2445SOL     OW18796   3.815   0.111   6.533 -0.5989  0.2968  0.4098
 2445SOL    HW118797   3.825   0.189   6.478 -2.1797 -1.0385 -1.8067
 2445SOL    HW218798   3.806   0.033   6.478 -1.4144  1.3230 -0.9013
 2446SOL     OW18799   0.555   2.996   3.610 -0.8779  0.4477  0.3273
 2446SOL    HW118800   0.480   3.030   3.561 -0.7686 -2.8945 -2.1695
 2446SOL    HW218801   0.608   2.972   3.534 -0.2144 -0.2902  1.0261
 2447SOL     OW18802   1.434   1.993  15.757  0.3297 -0.4583 -0.6736
 2447SOL    HW118803   1.358   2.040  15.792  2.1604  1.0929  1.2320
 2447SOL    HW218804   1.503   2.058  15.770 -0.7450  0.8911 -1.5900
 2448SOL     OW18805   4.196   1.297  11.115 -0.4448 -0.0638 -0.2386
 2448SOL    HW118806   4.277   1.333  11.149 -0.7408 -0.3183  0.7337
 2448SOL    HW218807   4.202   1.202  11.126 -0.5730 -0.0320  0.1000
 2449SOL     OW18808   0.361   1.018   5.834 -0.0622  0.1963 -0.5049
 2449SOL    HW118809   0.281   1.044   5.879 -1.0826  0.4977 -2.5053
 2449SOL    HW218810   0.419   1.094   5.827  1.7422 -1.0931  0.4511
 2450SOL     OW18811   4.253   2.002   4.871 -0.5902 -0.3177 -0.1470
 2450SOL    HW118812   4.222   2.060   4.802 -1.2198 -0.1326  0.2979
 2450SOL    HW218813   4.211   1.926   4.832 -1.4242 -0.0907  0.3165
 2451SOL     OW18814   3.165   4.556   6.126  0.0751 -0.0775 -0.9430
 2451SOL    HW118815   3.072   4.539   6.142  0.1202  0.6416  0.0594
 2451SOL    HW218816   3.159   4.639   6.078 -1.8851  0.9290  1.0941
 2452SOL     OW18817   1.241   0.343   3.911 -0.2490 -0.5496  0.0622
 2452SOL    HW118818   1.230   0.372   3.820 -0.8444  0.5113  0.4706
 2452SOL    HW218819   1.305   0.272   3.902 -2.1732 -2.5411  2.1012
 2453SOL     OW18820   3.318   0.083   8.667  0.2078 -0.2009  0.5663
 2453SOL    HW118821   3.391   0.135   8.702 -1.1144  1.1092  1.3912
 2453SOL    HW218822   3.293   0.143   8.598  1.9707  0.6251  0.6454
 2454SOL     OW18823   3.703   3.043  14.638  0.1376 -0.1423  0.0545
 2454SOL    HW118824   3.666   3.049  14.550 -0.6913 -1.6527  0.2846
 2454SOL    HW218825   3.725   2.950  14.638  0.3346 -0.0957  1.0631
 2455SOL     OW18826   0.310   3.523  16.679  0.3594  0.4786  0.9838
 2455SOL    HW118827   0.292   3.540  16.586  0.7437 -0.7342  0.6849
 2455SOL    HW218828   0.401   3.552  16.680  0.5191  0.0606 -0.4650
 2456SOL     OW18829   1.023   2.998   3.466 -0.1937 -0.8517  0.2382
 2456SOL    HW118830   1.082   2.940   3.419 -0.2999 -1.2135  0.5484
 2456SOL    HW218831   0.952   3.023   3.407  0.2162 -1.7368 -0.6184
 2457SOL     OW18832   2.120   4.446   2.240 -0.0638  0.2988  0.0155
 2457SOL    HW118833   2.053   4.509   2.216  1.1482  2.1142  1.4093
 2457SOL    HW218834   2.119   4.385   2.166  1.0610  0.2186  0.0595
 2458SOL     OW18835   2.085   2.636   2.597  0.4822 -0.5321 -0.2707
 2458SOL    HW118836   2.095   2.729   2.576  2.4583 -1.1131 -1.8807
 2458SOL    HW218837   2.011   2.650   2.656  0.3393  0.9336 -0.7807
 2459SOL     OW18838   4.129   1.903   0.600  0.6868 -0.3029  0.6874
 2459SOL    HW118839   4.096   1.851   0.527 -1.2593 -0.7965  1.9233
 2459SOL    HW218840   4.152   1.834   0.662 -1.3483  0.0119  1.7927
 2460SOL     OW18841   4.669   2.456   7.991 -0.0628 -0.6303 -0.5408
 2460SOL    HW118842   4.624   2.450   7.907  0.5720  0.2463 -0.9432
 2460SOL    HW218843   4.697   2.547   7.980  0.5028 -0.8233 -0.6528
 2461SOL     OW18844   2.812   3.980  13.232 -0.6168  0.4599  0.7721
 2461SOL    HW118845   2.892   3.933  13.212 -1.2414 -0.0526 -0.4971
 2461SOL    HW218846   2.818   3.985  13.328  1.0745  1.8531  0.6023
 2462SOL     OW18847   1.019   1.490   3.614 -0.1655 -0.3144  0.4421
 2462SOL    HW118848   0.939   1.491   3.666 -0.9772 -0.3746 -0.7925
 2462SOL    HW218849   1.012   1.395   3.599 -3.2728 -0.2115  1.1872
 2463SOL     OW18850   3.213   4.396   8.070 -0.3698  0.3363 -0.4136
 2463SOL    HW118851   3.252   4.476   8.104 -0.0461  0.0673 -0.1624
 2463SOL    HW218852   3.292   4.343   8.060 -0.4786 -0.2306  1.8888
 2464SOL     OW18853   3.960   1.764   6.777 -0.2004  0.7305  0.0155
 2464SOL    HW118854   3.877   1.735   6.739  0.4153  0.0221 -0.7690
 2464SOL    HW218855   4.012   1.751   6.698 -0.3200 -0.3771  0.1223
 2465SOL     OW18856   4.219   0.873   6.887 -0.6398 -0.3657 -0.1513
 2465SOL    HW118857   4.244   0.797   6.834 -0.9962 -1.5850  1.4328
 2465SOL    HW218858   4.163   0.838   6.956  1.1435  1.4586  2.2265
 2466SOL     OW18859   4.598   2.550   9.007  0.0880  0.2781 -0.7353
 2466SOL    HW118860   4.616   2.612   9.078  2.0616  0.3511 -1.3058
 2466SOL    HW218861   4.505   2.533   9.023  0.1224  1.0073  0.2279
 2467SOL     OW18862   1.460   0.748  12.807 -0.5332  0.3196 -0.0088
 2467SOL    HW118863   1.404   0.820  12.779 -1.4721  0.3803  1.9968
 2467SOL    HW218864   1.470   0.770  12.900 -1.8169 -0.3553  0.2886
 2468SOL     OW18865   4.353   2.808   8.137  0.0846 -0.5186 -0.1163
 2468SOL    HW118866   4.317   2.858   8.063 -3.0403 -0.4675  1.4521
 2468SOL    HW218867   4.443   2.804   8.103 -0.7416 -0.6276 -2.3186
 2469SOL     OW18868   2.437   2.692   1.772 -0.1898  0.4139  0.2411
 2469SOL    HW118869   2.438   2.670   1.679  0.3691  0.2125  0.2926
 2469SOL    HW218870   2.499   2.765   1.776  1.4677 -0.8570 -1.9243
 2470SOL     OW18871   3.400   4.303  11.354 -0.0194 -0.3457  0.5469
 2470SOL    HW118872   3.312   4.319  11.388 -0.6832 -1.8592 -0.4887
 2470SOL    HW218873   3.378   4.251  11.277 -0.7873 -1.9306  1.8442
 2471SOL     OW18874   1.124   0.828   9.289  0.1419 -0.1791  0.4910
 2471SOL    HW118875   1.157   0.902   9.238 -0.1951 -0.6026 -0.3404
 2471SOL    HW218876   1.032   0.852   9.301  0.6294  0.7651  2.3239
 2472SOL     OW18877   0.730   3.228   9.204 -0.2267  0.3653  0.2084
 2472SOL    HW118878   0.783   3.191   9.134 -2.0972 -1.0649 -0.4679
 2472SOL    HW218879   0.725   3.151   9.260  1.0780  0.4524  0.4275
 2473SOL     OW18880   1.899   1.725  17.154  0.7298 -0.2933 -0.1334
 2473SOL    HW118881   1.915   1.757  17.243  0.2781 -0.1338 -0.1128
 2473SOL    HW218882   1.894   1.630  17.165  1.7052 -0.3480 -0.1486
 2474SOL     OW18883   4.050   1.632   4.475 -0.1882 -0.3236 -0.2099
 2474SOL    HW118884   4.012   1.548   4.499 -0.0593 -0.0975  0.8134
 2474SOL    HW218885   3.983   1.664   4.414 -0.2270  1.3572  0.7168
 2475SOL     OW18886   1.098   3.769   2.302 -0.3111  0.1402  0.0373
 2475SOL    HW118887   1.006   3.794   2.299  0.0961  1.3025 -2.8260
 2475SOL    HW218888   1.137   3.851   2.330  0.2332 -0.7426  1.8680
 2476SOL     OW18889   2.464   0.821  16.750 -0.1275 -0.0040  0.7723
 2476SOL    HW118890   2.418   0.878  16.812 -2.1742 -0.8269  0.0216
 2476SOL    HW218891   2.458   0.738  16.798 -1.8049  0.0112  0.5819
 2477SOL     OW18892   0.166   1.106   5.974 -0.4499 -0.2425 -0.0289
 2477SOL    HW118893   0.146   1.081   6.064 -0.7723  0.5560  0.1247
 2477SOL    HW218894   0.085   1.154   5.953 -2.3475 -3.1601  0.5373
 2478SOL     OW18895   1.711   2.127   1.575 -0.1915  0.6361  0.4068
 2478SOL    HW118896   1.733   2.094   1.662 -1.3556 -1.0530  0.0499
 2478SOL    HW218897   1.631   2.076   1.564 -0.0832  0.6006 -0.2045
 2479SOL     OW18898   1.771   2.401   3.152 -0.3777 -0.1078  1.0530
 2479SOL    HW118899   1.818   2.323   3.122  0.0753  1.0040 -1.1244
 2479SOL    HW218900   1.721   2.432   3.076  2.6465  0.4000 -0.7253
 2480SOL     OW18901   3.337   3.280  11.550 -0.5541 -0.1846  0.2590
 2480SOL    HW118902   3.349   3.370  11.522 -0.1494 -0.0350  0.9160
 2480SOL    HW218903   3.372   3.283  11.639  0.4133  1.2831 -0.1815
 2481SOL     OW18904   1.902   4.328  14.439 -0.2023 -0.3442  0.2734
 2481SOL    HW118905   1.970   4.272  14.477  0.6162 -0.9493 -2.0871
 2481SOL    HW218906   1.893   4.299  14.349  0.5574  2.3131 -0.6730
 2482SOL     OW18907   2.910   0.810   3.956  0.6911 -0.1830 -0.1103
 2482SOL    HW118908   2.862   0.735   3.991 -1.5580 -0.1389 -3.1241
 2482SOL    HW218909   2.829   0.853   3.929 -0.6205 -0.5254  3.2859
 2483SOL     OW18910   3.403   0.848   0.875 -0.7220  0.1700  0.0105
 2483SOL    HW118911   3.378   0.877   0.962 -1.9726 -1.4340  0.1684
 2483SOL    HW218912   3.319   0.848   0.830 -0.5316  0.0122 -0.3466
 2484SOL     OW18913   1.042   1.624   1.783  0.2533 -0.6350 -0.0364
 2484SOL    HW118914   1.012   1.588   1.700  0.4657 -0.0312 -0.3736
 2484SOL    HW218915   0.956   1.624   1.825 -0.0878 -2.8276 -0.7510
 2485SOL     OW18916   2.231   3.728   5.798 -0.3021 -0.4964  0.5086
 2485SOL    HW118917   2.322   3.698   5.800  0.0992  0.7818  1.0000
 2485SOL    HW218918   2.244   3.815   5.835  0.7952 -0.3013 -0.3290
 2486SOL     OW18919   1.012   0.391   4.069  0.3654 -0.5005 -0.3210
 2486SOL    HW118920   1.075   0.380   3.997 -1.4627 -1.5044 -1.7848
 2486SOL    HW218921   0.984   0.300   4.080  0.8069 -0.4399  1.2373
 2487SOL     OW18922   0.284   1.311   8.986 -0.0161  0.1608  0.7029
 2487SOL    HW118923   0.253   1.222   9.001 -2.8310  0.6960 -1.8245
 2487SOL    HW218924   0.210   1.341   8.933 -0.6792 -0.9074  1.0270
 2488SOL     OW18925   2.121   0.521   4.481 -0.1523 -0.0464 -0.3490
 2488SOL    HW118926   2.035   0.548   4.448  0.8256  1.7367 -1.4093
 2488SOL    HW218927   2.097   0.438   4.523 -2.6393  0.1379 -1.4331
 2489SOL     OW18928   1.795   1.743   4.379  0.2329 -0.1641 -0.7873
 2489SOL    HW118929   1.794   1.673   4.314  0.2988 -2.0903  1.3159
 2489SOL    HW218930   1.847   1.706   4.450 -0.2029  0.3341 -0.2108
 2490SOL     OW18931   4.152   1.984   3.582 -0.3064 -0.1296 -0.0824
 2490SOL    HW118932   4.071   1.946   3.548 -0.0731 -0.3134 -0.4380
 2490SOL    HW218933   4.159   1.942   3.667  1.1883 -3.6402 -1.9368
 2491SOL     OW18934   0.388   2.724   5.227 -0.2996 -0.3839  0.0791
 2491SOL    HW118935   0.308   2.671   5.222 -0.5153 -0.1525  1.0054
 2491SOL    HW218936   0.363   2.790   5.163 -0.2060 -2.3116 -1.9768
 2492SOL     OW18937   3.933   0.884   0.596  0.0958  0.0133  0.1031
 2492SOL    HW118938   4.003   0.949   0.605  0.9014 -1.0491  1.5141
 2492SOL    HW218939   3.862   0.943   0.571 -0.8740 -1.4631 -0.6346
 2493SOL     OW18940   2.137   1.457   3.436  0.3165  0.3999 -0.2302
 2493SOL    HW118941   2.206   1.391   3.436  0.3872  0.4626 -3.7581
 2493SOL    HW218942   2.074   1.409   3.490  1.1189 -1.8171 -1.2751
 2494SOL     OW18943   1.826   3.755   4.653 -0.0610 -0.2401 -0.1391
 2494SOL    HW118944   1.831   3.801   4.569 -0.9071  1.3581  0.6897
 2494SOL    HW218945   1.885   3.679   4.656  0.0259 -0.1241  1.0222
 2495SOL     OW18946   2.578   2.499   5.096 -0.0581  0.1488 -0.0113
 2495SOL    HW118947   2.592   2.559   5.023  0.5804 -3.2762 -2.7528
 2495SOL    HW218948   2.656   2.516   5.149 -0.3008 -1.1834  0.7947
 2496SOL     OW18949   1.661   4.182  16.928  0.1697 -0.1079  0.3391
 2496SOL    HW118950   1.651   4.191  16.833  1.8002 -1.8461  0.0153
 2496SOL    HW218951   1.621   4.262  16.961  1.7982  1.1226 -0.6725
 2497SOL     OW18952   4.435   4.304   3.451 -0.1964 -0.6113 -0.1474
 2497SOL    HW118953   4.489   4.365   3.501  1.5165 -1.3838 -1.0383
 2497SOL    HW218954   4.477   4.314   3.366  2.6988  0.8989  1.4447
 2498SOL     OW18955   3.134   1.711  11.079  0.1152 -0.4407 -0.8077
 2498SOL    HW118956   3.158   1.638  11.136  1.8575  0.1659 -0.7776
 2498SOL    HW218957   3.216   1.760  11.067 -0.0508 -0.2668 -1.2224
 2499SOL     OW18958   4.387   0.690   0.146 -0.3848 -0.0839  0.1016
 2499SOL    HW118959   4.365   0.682   0.053  0.2368  0.0983 -0.0591
 2499SOL    HW218960   4.481   0.706   0.155 -0.0350 -1.3521 -1.4620
 2500SOL     OW18961   2.443   2.316   7.415  0.2687  0.6576 -0.1449
 2500SOL    HW118962   2.536   2.335   7.402 -0.1063  1.7290 -1.2430
 2500SOL    HW218963   2.423   2.359   7.498 -0.7418 -1.0421  0.4789
 2501SOL     OW18964   0.247   4.655   2.425  0.1824  0.4644  0.6039
 2501SOL    HW118965   0.307   4.714   2.470  0.1198  1.5884 -0.7854
 2501SOL    HW218966   0.231   4.591   2.494 -2.4122  0.3936 -0.0563
 2502SOL     OW18967   4.240   4.701  12.715  0.0055  0.7480  0.9069
 2502SOL    HW118968   4.194   4.646  12.652 -0.6647  2.9432 -0.5518
 2502SOL    HW218969   4.280   0.037  12.650 -1.4941  2.7969  1.7977
 2503SOL     OW18970   2.595   2.992   4.843  0.1064  0.6312  0.2752
 2503SOL    HW118971   2.543   3.017   4.767 -0.5289 -0.1195  0.4584
 2503SOL    HW218972   2.525   2.930   4.866  0.0366  0.5524 -0.1393
 2504SOL     OW18973   0.037   1.059   6.751 -0.2548 -0.3033 -0.0961
 2504SOL    HW118974   0.028   1.093   6.840  0.1106 -1.5323  0.4113
 2504SOL    HW218975   0.081   0.975   6.762  0.2107  0.3974  3.3916
 2505SOL     OW18976   1.257   1.428  11.245  0.0498  0.3856  0.0324
 2505SOL    HW118977   1.164   1.433  11.224  0.4602  0.0101 -1.8839
 2505SOL    HW218978   1.289   1.400  11.159  0.6292  0.1293  0.3308
 2506SOL     OW18979   2.255   2.060   1.736  0.3792 -0.6498 -0.0230
 2506SOL    HW118980   2.349   2.064   1.718  0.3711  2.1414  0.6886
 2506SOL    HW218981   2.246   1.978   1.785  1.9143 -2.3813 -2.6242
 2507SOL     OW18982   1.926   1.259   2.332 -0.6320 -0.4177  0.0998
 2507SOL    HW118983   1.985   1.184   2.345  1.3137  0.5505 -3.1430
 2507SOL    HW218984   1.845   1.217   2.361  0.1396 -0.4786  2.1048
 2508SOL     OW18985   4.531   3.483  10.689  0.3798 -0.1253  0.2162
 2508SOL    HW118986   4.482   3.563  10.706  1.5673  0.7353 -0.3802
 2508SOL    HW218987   4.464   3.417  10.669  0.1585  0.9060 -2.3941
 2509SOL     OW18988   0.954   0.596   3.562  0.4186 -0.3193 -0.1648
 2509SOL    HW118989   0.959   0.645   3.480  0.1455 -1.0982 -0.6439
 2509SOL    HW218990   1.016   0.523   3.552 -0.4656 -1.1217  0.1568
 2510SOL     OW18991   0.836   3.816   2.401 -0.3574 -0.0581 -0.2071
 2510SOL    HW118992   0.753   3.858   2.423  0.3488  0.4275  1.4728
 2510SOL    HW218993   0.833   3.728   2.439  0.6830  0.3309  0.7652
 2511SOL     OW18994   3.960   2.411  15.334 -0.6241 -0.1734  0.0677
 2511SOL    HW118995   4.052   2.391  15.316  0.0707  1.6821  1.5215
 2511SOL    HW218996   3.933   2.474  15.267 -0.8816 -1.8471 -1.3943
 2512SOL     OW18997   1.666   4.436   3.811 -0.4208  0.2381 -0.1025
 2512SOL    HW118998   1.738   4.375   3.795 -0.6659  0.1980 -1.0200
 2512SOL    HW218999   1.591   4.385   3.842  2.3149 -2.6675  1.7429
 2513SOL     OW19000   0.894   0.500  13.129  0.1677 -0.3308 -0.2943
 2513SOL    HW119001   0.950   0.561  13.176  0.7600 -1.4789  0.4894
 2513SOL    HW219002   0.958   0.429  13.121 -0.7680 -1.2827  0.6674
 2514SOL     OW19003   1.175   4.119  14.089  0.2058 -0.2873 -0.2288
 2514SOL    HW119004   1.244   4.058  14.065 -1.0407 -2.4281  1.7120
 2514SOL    HW219005   1.142   4.071  14.165  0.0300  2.1074  1.2102
 2515SOL     OW19006   1.830   3.342  11.159  0.2816 -0.6752  0.2538
 2515SOL    HW119007   1.811   3.371  11.248  0.4373  0.3922 -0.0649
 2515SOL    HW219008   1.765   3.277  11.133  1.4174 -1.2700 -1.1249
 2516SOL     OW19009   0.403   4.326   5.676  0.2171  0.4092 -0.3114
 2516SOL    HW119010   0.353   4.388   5.728 -1.6649 -0.7147 -0.7828
 2516SOL    HW219011   0.331   4.271   5.645  0.8794 -0.6205 -0.0271
 2517SOL     OW19012   1.923   4.215   7.482 -0.0744 -0.8237 -0.5989
 2517SOL    HW119013   1.897   4.300   7.517  0.9390 -0.3958 -0.9009
 2517SOL    HW219014   1.837   4.189   7.448 -0.6143 -0.7474  0.6926
 2518SOL     OW19015   4.163   0.333   6.668 -0.0503  0.4825  0.3281
 2518SOL    HW119016   4.258   0.325   6.675  0.2442  1.3076 -2.9312
 2518SOL    HW219017   4.147   0.250   6.713  0.2457 -0.3667 -1.1638
 2519SOL     OW19018   3.732   1.244   2.834  0.2251 -0.3728  0.1782
 2519SOL    HW119019   3.746   1.336   2.857 -1.6271  0.5617 -2.4580
 2519SOL    HW219020   3.737   1.250   2.739 -1.5471  0.9519  0.1718
 2520SOL     OW19021   0.756   0.008   6.005  0.0008  0.2906  0.5270
 2520SOL    HW119022   0.795   4.662   6.060 -0.7318 -0.5701 -0.0304
 2520SOL    HW219023   0.670   4.694   5.985 -0.3444  1.1547  0.4448
 2521SOL     OW19024   0.246   3.214   9.539  0.3315  0.4528 -0.1609
 2521SOL    HW119025   0.288   3.129   9.527  0.0845  0.2029  0.7497
 2521SOL    HW219026   0.178   3.212   9.472  0.9712 -0.2572 -0.7857
 2522SOL     OW19027   2.105   2.842  13.026 -0.4596  0.7554 -0.2843
 2522SOL    HW119028   2.129   2.750  13.013 -2.1718  0.2803 -0.1070
 2522SOL    HW219029   2.009   2.837  13.024 -0.5388  1.1271  1.7135
 2523SOL     OW19030   1.195   0.641   9.508  0.6396 -0.0201  0.2304
 2523SOL    HW119031   1.123   0.580   9.522  3.4125 -3.2572  0.5012
 2523SOL    HW219032   1.166   0.703   9.441  0.3729  0.5453  0.8686
 2524SOL     OW19033   1.432   1.969  14.615  0.0441  0.0013 -0.1547
 2524SOL    HW119034   1.487   2.034  14.658  0.6128 -1.4415  1.3030
 2524SOL    HW219035   1.344   1.974  14.654  0.1264 -0.4214  0.0816
 2525SOL     OW19036   1.660   0.774   0.667 -0.1051 -0.1505  0.2510
 2525SOL    HW119037   1.692   0.858   0.701 -3.0516  0.5548  1.3204
 2525SOL    HW219038   1.606   0.743   0.740  0.4200 -1.9251 -0.1305
 2526SOL     OW19039   0.685   2.290   8.459  0.1786  0.2276 -0.7692
 2526SOL    HW119040   0.729   2.245   8.531  1.3457  0.0964 -1.5606
 2526SOL    HW219041   0.606   2.322   8.503  1.0539 -0.7325  1.5018
 2527SOL     OW19042   3.377   3.833   7.196  0.8250  0.0476  0.0885
 2527SOL    HW119043   3.371   3.862   7.287  0.0805 -0.4546  0.2036
 2527SOL    HW219044   3.371   3.739   7.211 -0.5421  0.3192  1.3028
 2528SOL     OW19045   3.907   2.523   1.423 -0.0672  0.1199 -0.2742
 2528SOL    HW119046   3.946   2.497   1.340 -0.1888 -0.7846 -0.0495
 2528SOL    HW219047   3.815   2.538   1.402 -0.4079  0.3716  1.3909
 2529SOL     OW19048   2.778   2.555   3.865  0.4235  0.7129 -0.1951
 2529SOL    HW119049   2.753   2.464   3.846  0.2861  0.7460 -0.1742
 2529SOL    HW219050   2.855   2.551   3.921 -1.8491 -2.2645  2.7252
 2530SOL     OW19051   0.119   0.533   5.643 -0.9123  0.6317  0.2634
 2530SOL    HW119052   0.109   0.512   5.736  1.3956 -0.3481  0.2838
 2530SOL    HW219053   0.170   0.614   5.646  1.7329 -1.0150 -0.2217
 2531SOL     OW19054   1.598   1.136   3.135  0.4360  0.0352 -0.5499
 2531SOL    HW119055   1.661   1.071   3.165  3.4558  3.0350 -0.4585
 2531SOL    HW219056   1.533   1.131   3.205  2.3492 -0.0061  1.2364
 2532SOL     OW19057   1.777   3.877   3.869 -0.1910 -0.2741  0.0899
 2532SOL    HW119058   1.804   3.804   3.812  1.2516  0.6938 -0.4688
 2532SOL    HW219059   1.684   3.860   3.884 -0.3930  1.7714  1.1859
 2533SOL     OW19060   0.400   2.543   3.207  0.6108  0.4857  0.1562
 2533SOL    HW119061   0.415   2.465   3.154 -2.2415 -1.0266  1.6236
 2533SOL    HW219062   0.358   2.503   3.283  1.7250  0.1535  0.6062
 2534SOL     OW19063   1.160   0.898   4.178  0.5544 -0.2615  0.7229
 2534SOL    HW119064   1.130   0.819   4.134  1.4922 -0.5893  0.6718
 2534SOL    HW219065   1.254   0.888   4.196  1.1970  0.5020 -2.2640
 2535SOL     OW19066   0.623   0.337   7.331 -0.5547 -0.3365  0.3149
 2535SOL    HW119067   0.554   0.403   7.328  2.1163  2.4669  0.9241
 2535SOL    HW219068   0.581   0.272   7.388  0.4784 -0.2093  1.2064
 2536SOL     OW19069   2.500   2.145   1.147  0.2630  0.1904  0.8981
 2536SOL    HW119070   2.442   2.122   1.219 -0.6781 -0.6914 -0.1371
 2536SOL    HW219071   2.497   2.241   1.146  0.7123  0.1822 -1.5817
 2537SOL     OW19072   3.386   0.302   1.509  0.4349 -0.5518 -0.5555
 2537SOL    HW119073   3.442   0.226   1.526 -0.4132 -1.0311  0.1483
 2537SOL    HW219074   3.433   0.374   1.550 -0.5154  0.1891 -0.7567
 2538SOL     OW19075   1.819   1.479  13.333  0.1161  0.0747  0.0279
 2538SOL    HW119076   1.893   1.420  13.348 -1.0084 -1.8862 -2.1766
 2538SOL    HW219077   1.757   1.415  13.299  1.6320 -2.5419  2.2212
 2539SOL     OW19078   2.902   4.120   3.516  0.6481  0.1339 -0.4972
 2539SOL    HW119079   2.860   4.034   3.520 -0.1218  0.5683  0.8911
 2539SOL    HW219080   2.823   4.174   3.517  0.4749 -0.1571  0.8701
 2540SOL     OW19081   2.066   2.019  15.339  0.0909  0.0243 -0.3549
 2540SOL    HW119082   2.074   1.931  15.375 -3.5356 -0.1162  0.0833
 2540SOL    HW219083   1.970   2.024  15.340  0.0305 -1.0289 -0.5045
 2541SOL     OW19084   1.666   3.470  10.295 -0.3778  0.2732 -0.6623
 2541SOL    HW119085   1.585   3.421  10.277  0.1587 -0.9535  0.2873
 2541SOL    HW219086   1.667   3.527  10.218  2.2843  1.5194  0.3264
 2542SOL     OW19087   4.311   3.803  16.101 -0.1749  0.6243  0.1471
 2542SOL    HW119088   4.260   3.808  16.019  0.2111 -0.6381 -0.1601
 2542SOL    HW219089   4.375   3.872  16.085  0.6809 -0.3118 -0.4367
 2543SOL     OW19090   3.022   3.846  13.142  0.3643 -0.8665  0.3877
 2543SOL    HW119091   2.975   3.812  13.066  1.8287  0.1813 -0.9986
 2543SOL    HW219092   3.111   3.821  13.116  0.1353 -0.1710 -1.1102
 2544SOL     OW19093   2.200   0.386  12.822  0.0881 -0.2245  0.4945
 2544SOL    HW119094   2.141   0.461  12.823 -0.7231 -0.8591  0.5424
 2544SOL    HW219095   2.149   0.324  12.873 -0.8126  0.4949  0.4762
 2545SOL     OW19096   3.789   2.053   4.902  0.1073  0.5372  0.3765
 2545SOL    HW119097   3.765   2.064   4.994  0.1427  2.5770  0.1410
 2545SOL    HW219098   3.826   2.140   4.886 -0.6634  0.9413  0.8090
 2546SOL     OW19099   1.608   0.358   5.499 -0.0202 -0.0068 -0.6998
 2546SOL    HW119100   1.535   0.387   5.553 -0.8960  1.9036 -2.9408
 2546SOL    HW219101   1.667   0.318   5.564  0.6870  0.7776 -0.8601
 2547SOL     OW19102   1.085   0.480  11.559  0.4164  0.3328  0.1790
 2547SOL    HW119103   1.120   0.540  11.492 -3.5204  2.3496 -0.0710
 2547SOL    HW219104   1.104   0.393  11.524 -3.1846 -0.9267  1.3691
 2548SOL     OW19105   2.322   2.823   7.173  0.7079 -0.1933 -0.6098
 2548SOL    HW119106   2.297   2.733   7.192  3.0121 -1.4356 -3.4479
 2548SOL    HW219107   2.417   2.822   7.164  0.9167 -1.8399  1.6942
 2549SOL     OW19108   1.007   1.500   8.116  0.0084  0.1085 -0.2838
 2549SOL    HW119109   1.024   1.559   8.042 -2.8113  1.3810  0.1032
 2549SOL    HW219110   0.958   1.563   8.169  1.1567  0.1021  0.7829
 2550SOL     OW19111   3.881   1.308   8.442  0.0832  0.6814 -0.2423
 2550SOL    HW119112   3.903   1.215   8.441 -0.3337  0.5970 -1.8737
 2550SOL    HW219113   3.790   1.309   8.473 -0.1414 -0.2643 -0.8689
 2551SOL     OW19114   4.643   0.914   7.336 -0.4283  0.6798  0.1751
 2551SOL    HW119115   4.704   0.864   7.391 -2.4087 -0.7330  1.0937
 2551SOL    HW219116   4.629   0.980   7.404 -1.2706  0.7244 -0.0449
 2552SOL     OW19117   3.593   0.104   3.756  0.1774 -0.4107 -0.4062
 2552SOL    HW119118   3.531   0.166   3.717  2.0280  1.3857 -0.5070
 2552SOL    HW219119   3.665   0.164   3.775 -1.5132  1.3943  0.2930
 2553SOL     OW19120   0.425   1.286   0.024 -0.1475  0.4736  0.0863
 2553SOL    HW119121   0.343   1.287   0.073  0.3531 -0.3894  0.9253
 2553SOL    HW219122   0.487   1.287   0.097 -0.1681  0.7226  0.1002
 2554SOL     OW19123   2.130   4.368   2.932 -0.1577  0.0735 -0.2290
 2554SOL    HW119124   2.052   4.315   2.950  1.0474 -1.8196 -0.7095
 2554SOL    HW219125   2.148   4.384   3.025  2.5415 -2.6195 -0.3111
 2555SOL     OW19126   3.758   3.708  13.355  0.0787  0.0865  0.1580
 2555SOL    HW119127   3.747   3.799  13.382  0.6787 -0.0562  0.8943
 2555SOL    HW219128   3.842   3.680  13.391  0.4331  0.3074 -0.4997
 2556SOL     OW19129   3.700   4.625   3.581 -0.2619  0.2861 -0.5759
 2556SOL    HW119130   3.632   4.588   3.524 -1.1753 -1.6743  1.7702
 2556SOL    HW219131   3.652   4.684   3.640 -0.1262  0.0248 -0.2002
 2557SOL     OW19132   2.818   2.366   7.654 -0.4687  0.1384  0.2296
 2557SOL    HW119133   2.839   2.419   7.731 -2.0901 -2.5514  2.4973
 2557SOL    HW219134   2.785   2.284   7.690  1.3432  0.0572  1.7094
 2558SOL     OW19135   3.915   2.292  13.798  0.1737 -0.1084  0.2446
 2558SOL    HW119136   3.962   2.217  13.834  0.3539  0.7861  1.8460
 2558SOL    HW219137   3.923   2.347  13.876 -2.0188 -0.8211  0.9585
 2559SOL     OW19138   4.457   0.730   5.664 -0.2973  0.4611 -0.2537
 2559SOL    HW119139   4.427   0.797   5.603 -1.7864  1.2870  1.4099
 2559SOL    HW219140   4.379   0.716   5.717 -0.1170  2.1089  0.4165
 2560SOL     OW19141   3.402   0.555  17.019 -0.1543 -0.4237 -0.7417
 2560SOL    HW119142   3.376   0.577  17.109 -1.1214  2.3794 -1.7045
 2560SOL    HW219143   3.369   0.625  16.963 -1.1858  0.9325  1.5272
 2561SOL     OW19144   4.719   2.076   7.254  0.5760  0.5496 -0.1460
 2561SOL    HW119145   4.707   2.072   7.348  0.3128  1.0268 -0.1629
 2561SOL    HW219146   0.081   2.122   7.257 -0.6512  2.8910 -1.8298
 2562SOL     OW19147   4.213   1.939   3.871 -0.7553 -0.0358 -0.8550
 2562SOL    HW119148   4.242   2.030   3.875 -2.7803  0.5873 -0.4060
 2562SOL    HW219149   4.158   1.923   3.947 -0.1504 -1.0993 -0.6375
 2563SOL     OW19150   0.975   2.959  10.088 -0.6877  0.5696 -0.0500
 2563SOL    HW119151   0.909   3.029  10.085 -0.8713  0.4039  0.1164
 2563SOL    HW219152   0.984   2.933   9.996 -2.0554 -0.5502  0.1335
 2564SOL     OW19153   1.847   2.674   2.721  0.2607  0.8680  0.0516
 2564SOL    HW119154   1.816   2.738   2.657  1.7208  1.8096  0.2836
 2564SOL    HW219155   1.794   2.595   2.713 -0.0598  1.1997 -1.0362
 2565SOL     OW19156   4.058   0.112  13.114  0.2211  0.0206 -0.1072
 2565SOL    HW119157   4.138   0.161  13.094  0.1204 -0.5508 -1.8870
 2565SOL    HW219158   4.033   0.093  13.023 -1.7592 -0.0929  0.4614
 2566SOL     OW19159   3.460   1.190   8.147 -0.0518  0.2380  0.6156
 2566SOL    HW119160   3.460   1.129   8.220  1.0458  0.4900  0.8218
 2566SOL    HW219161   3.367   1.206   8.132 -0.9972 -4.7670  1.1031
 2567SOL     OW19162   2.527   3.901  10.354 -0.3314 -0.9214 -1.1836
 2567SOL    HW119163   2.457   3.955  10.316 -1.1293 -2.7614 -2.3039
 2567SOL    HW219164   2.489   3.816  10.333 -2.3335 -0.2304 -0.2686
 2568SOL     OW19165   1.686   1.876   1.715 -0.8177 -0.1609 -0.0597
 2568SOL    HW119166   1.766   1.862   1.765  0.2645  0.2450 -1.6988
 2568SOL    HW219167   1.636   1.920   1.784  1.4159 -0.6136  1.8267
 2569SOL     OW19168   1.600   4.225   8.151 -0.2764  0.2449 -0.2511
 2569SOL    HW119169   1.563   4.248   8.065  0.4803 -2.8745 -1.4037
 2569SOL    HW219170   1.526   4.219   8.212 -0.7992  1.6481 -0.7310
 2570SOL     OW19171   1.801   3.325   1.838 -0.4293  0.1571 -0.2202
 2570SOL    HW119172   1.732   3.385   1.810  0.2588  0.6661 -0.7979
 2570SOL    HW219173   1.809   3.262   1.766 -2.7153 -0.3683 -0.0254
 2571SOL     OW19174   2.298   2.513   5.626 -0.1760  0.0877  0.4098
 2571SOL    HW119175   2.231   2.449   5.648  0.3248 -0.3425  0.6729
 2571SOL    HW219176   2.360   2.506   5.699 -0.1620  0.9099  0.4792
 2572SOL     OW19177   0.303   3.218   0.625 -0.1199  0.1634  0.6840
 2572SOL    HW119178   0.298   3.290   0.688  1.1510  1.3784 -0.5866
 2572SOL    HW219179   0.399   3.209   0.621 -0.3689 -0.0859 -4.5577
 2573SOL     OW19180   2.449   4.490   9.985 -0.2510  0.4460 -0.0679
 2573SOL    HW119181   2.460   4.584   9.974 -2.2732  1.1058  3.4564
 2573SOL    HW219182   2.508   4.474  10.059  0.6795 -0.4236 -1.0043
 2574SOL     OW19183   0.921   0.590   6.743  0.1856  0.4444 -0.4832
 2574SOL    HW119184   0.962   0.675   6.762  1.7701 -0.3863 -0.2194
 2574SOL    HW219185   0.935   0.606   6.650  0.4758  1.8236 -0.2018
 2575SOL     OW19186   0.604   2.882   9.426  0.5005 -0.5118 -0.6003
 2575SOL    HW119187   0.601   2.840   9.340  0.9430 -0.6095 -0.5687
 2575SOL    HW219188   0.698   2.873   9.444  0.5747 -0.1577 -0.8060
 2576SOL     OW19189   4.116   4.577   9.295 -0.3765 -0.0382 -0.6442
 2576SOL    HW119190   4.209   4.571   9.273 -0.8453  0.7707 -2.8487
 2576SOL    HW219191   4.123   4.611   9.384  0.6327  2.6940 -1.7789
 2577SOL     OW19192   4.131   2.577   5.811  0.2810  0.7321  0.4757
 2577SOL    HW119193   4.089   2.578   5.725  1.4446 -0.9468 -0.0989
 2577SOL    HW219194   4.056   2.561   5.869  0.7536  1.6431  1.3428
 2578SOL     OW19195   0.382   3.074   8.683  0.4589  0.2172 -0.1388
 2578SOL    HW119196   0.298   3.091   8.642 -0.1555  1.3435  1.5721
 2578SOL    HW219197   0.423   3.160   8.694 -0.0195  0.3652  0.4530
 2579SOL     OW19198   1.503   1.312   3.921  0.0891 -0.0202 -0.0938
 2579SOL    HW119199   1.471   1.313   4.012  2.0609 -1.4998  0.6124
 2579SOL    HW219200   1.551   1.394   3.922  1.0862 -0.6010  0.7952
 2580SOL     OW19201   0.821   1.604  15.272  0.0416  0.1296  0.0297
 2580SOL    HW119202   0.746   1.554  15.305  0.4538 -0.0881  0.6231
 2580SOL    HW219203   0.777   1.658  15.205  2.5982  0.4059 -1.4083
 2581SOL     OW19204   0.242   3.150  13.456  1.1278 -0.3785  0.5764
 2581SOL    HW119205   0.212   3.060  13.468 -1.1336  0.4763  1.2368
 2581SOL    HW219206   0.189   3.185  13.384 -0.6323 -0.5386  1.8047
 2582SOL     OW19207   0.533   1.292   8.873  0.0984 -0.1445 -0.1331
 2582SOL    HW119208   0.452   1.312   8.920  1.1719 -1.0101  2.0668
 2582SOL    HW219209   0.587   1.349   8.927 -0.5514  3.4044 -3.2363
 2583SOL     OW19210   1.569   4.201  12.810  0.5264 -0.6620  0.0432
 2583SOL    HW119211   1.561   4.291  12.780 -1.1541 -1.9630 -3.4587
 2583SOL    HW219212   1.634   4.203  12.880 -0.0997  3.1520  0.5059
 2584SOL     OW19213   1.405   0.717   4.639  0.3265  0.4624 -0.2378
 2584SOL    HW119214   1.430   0.804   4.610 -0.6468  1.1758  1.0920
 2584SOL    HW219215   1.441   0.668   4.565 -1.7337  0.4750 -1.2297
 2585SOL     OW19216   1.207   1.620   8.519  0.1752 -0.0317  0.2143
 2585SOL    HW119217   1.167   1.672   8.589 -2.3332 -1.2765 -0.3032
 2585SOL    HW219218   1.231   1.540   8.566  1.8331  0.1015 -0.3927
 2586SOL     OW19219   2.055   0.614   0.919 -0.2308 -0.5538  0.2307
 2586SOL    HW119220   2.125   0.571   0.871  0.6826 -1.7702  2.6203
 2586SOL    HW219221   1.974   0.585   0.876 -0.9516 -0.0633  1.2562
 2587SOL     OW19222   2.479   3.787   4.155  0.1919 -0.1798  1.0372
 2587SOL    HW119223   2.534   3.761   4.081  1.6264  2.5130  1.1604
 2587SOL    HW219224   2.544   3.840   4.200 -1.1654  2.0030  0.4587
 2588SOL     OW19225   3.128   3.842   5.988 -0.4215  0.4940 -0.6961
 2588SOL    HW119226   3.185   3.906   6.030 -1.7092  1.7867 -0.9290
 2588SOL    HW219227   3.187   3.769   5.970 -2.3853 -0.7823 -1.9713
 2589SOL     OW19228   4.661   3.531  10.265  0.5245 -0.1153 -0.0447
 2589SOL    HW119229   0.015   3.510  10.211  1.3414  2.2246  0.2034
 2589SOL    HW219230   4.701   3.550  10.350 -0.9502 -1.4566  0.9541
 2590SOL     OW19231   0.480   0.541  17.056 -0.3056  0.0027  0.2975
 2590SOL    HW119232   0.521   0.542  17.142  1.1280  1.9220 -0.3998
 2590SOL    HW219233   0.407   0.483  17.077 -0.8294  0.8689  0.8549
 2591SOL     OW19234   4.168   2.164   0.597 -0.1042  0.1662 -0.1282
 2591SOL    HW119235   4.142   2.074   0.615 -1.1273  0.8879  1.9871
 2591SOL    HW219236   4.093   2.206   0.555  1.3985  1.3861 -1.6083
 2592SOL     OW19237   0.983   3.885  12.202 -0.0577  0.6759 -0.2476
 2592SOL    HW119238   0.977   3.807  12.148 -0.6148  0.5777 -0.0468
 2592SOL    HW219239   1.034   3.844  12.271 -1.3554 -0.4012  0.0733
 2593SOL     OW19240   3.953   2.029   8.547  0.0283 -0.7749 -0.5490
 2593SOL    HW119241   3.892   2.055   8.478  1.1962 -0.5064 -1.4628
 2593SOL    HW219242   3.886   2.026   8.616 -1.1546 -0.8392 -1.7072
 2594SOL     OW19243   2.361   1.120  17.079 -0.1795  0.3680 -0.3717
 2594SOL    HW119244   2.405   1.088  17.000  0.3621  1.2703 -0.4345
 2594SOL    HW219245   2.430   1.142  17.141 -1.3020  0.8634  0.6905
 2595SOL     OW19246   0.823   2.010   5.619  0.3413  0.0423  0.2157
 2595SOL    HW119247   0.776   2.053   5.547 -0.5279 -1.0143  0.1528
 2595SOL    HW219248   0.890   2.076   5.637  2.3324 -2.4644  2.0153
 2596SOL     OW19249   0.304   1.790  15.811  0.2648  0.4868  1.1603
 2596SOL    HW119250   0.398   1.777  15.810  0.2867  0.6361  1.2108
 2596SOL    HW219251   0.296   1.778  15.906 -1.6438 -0.9893  0.8154
 2597SOL     OW19252   1.275   3.066   0.270  0.1058 -0.2587 -0.5230
 2597SOL    HW119253   1.183   3.053   0.246  0.2659 -2.2254 -0.0914
 2597SOL    HW219254   1.269   3.131   0.340 -0.0763 -0.1842 -0.6068
 2598SOL     OW19255   0.493   4.385   6.337  0.2523 -0.0834 -0.5455
 2598SOL    HW119256   0.477   4.320   6.405  1.1556 -1.4308 -1.6238
 2598SOL    HW219257   0.444   4.455   6.380  0.2527  0.3349 -1.2305
 2599SOL     OW19258   3.648   2.110   8.062  0.6454 -0.5296 -0.9545
 2599SOL    HW119259   3.554   2.112   8.081  0.5997  1.5640 -1.3673
 2599SOL    HW219260   3.637   2.158   7.980  0.6592 -1.6207 -1.5912
 2600SOL     OW19261   2.121   0.713   0.648 -0.5278  0.0596 -0.3830
 2600SOL    HW119262   2.117   0.747   0.737  2.3630  1.5491 -0.8146
 2600SOL    HW219263   2.044   0.657   0.644 -0.3000 -0.3290  0.7126
 2601SOL     OW19264   2.091   3.873   1.418  0.2537 -0.2932  0.1382
 2601SOL    HW119265   2.012   3.891   1.366 -0.7418  2.5533  2.6417
 2601SOL    HW219266   2.122   3.786   1.394  0.3097  0.9942 -4.4882
 2602SOL     OW19267   3.486   1.740   5.605  0.3169  0.3454  0.3058
 2602SOL    HW119268   3.456   1.786   5.527  1.1728  0.9246  0.3123
 2602SOL    HW219269   3.570   1.779   5.629  0.1766 -0.7298  2.5553
 2603SOL     OW19270   1.814   0.512   8.922 -0.0864 -0.4086 -0.0256
 2603SOL    HW119271   1.890   0.455   8.909  1.1881  0.8614  1.7726
 2603SOL    HW219272   1.860   0.589   8.957 -1.6335  0.5379 -0.1142
 2604SOL     OW19273   4.701   4.663   5.894 -0.0199 -0.3356  0.0274
 2604SOL    HW119274   4.714   4.624   5.807 -0.7425  1.6467 -0.9575
 2604SOL    HW219275   4.663   0.024   5.869  0.2662 -0.3856 -0.5743
 2605SOL     OW19276   2.218   4.238   6.365 -0.1381 -0.6263  0.5694
 2605SOL    HW119277   2.239   4.297   6.436 -0.0366 -1.0140  0.8597
 2605SOL    HW219278   2.132   4.208   6.392  0.7403 -2.7970  0.9633
 2606SOL     OW19279   2.133   2.497   2.092  0.0113  0.4073 -0.1244
 2606SOL    HW119280   2.067   2.566   2.084 -1.8793 -1.6584 -2.2611
 2606SOL    HW219281   2.153   2.512   2.185 -1.5937  0.4740  0.2094
 2607SOL     OW19282   2.393   0.991  13.545  0.6141 -0.3732  0.1503
 2607SOL    HW119283   2.443   0.991  13.463  1.5312  1.9173  0.7098
 2607SOL    HW219284   2.354   0.906  13.526  1.1521 -0.7689  0.8004
 2608SOL     OW19285   2.596   1.925   0.250  0.3195 -0.0698 -0.0386
 2608SOL    HW119286   2.691   1.914   0.256  0.0584 -1.9251  0.6520
 2608SOL    HW219287   2.578   1.866   0.176 -2.5617  1.8531 -0.8758
 2609SOL     OW19288   1.716   0.950   8.207  0.3502 -0.3468 -0.1288
 2609SOL    HW119289   1.796   0.971   8.255  0.8062 -1.2596 -0.4997
 2609SOL    HW219290   1.750   0.974   8.120 -0.3062 -0.3201 -0.3740
 2610SOL     OW19291   0.476   4.673   5.956  0.8246 -0.1287 -0.1615
 2610SOL    HW119292   0.469   4.694   5.863  2.6714  0.4998 -0.1630
 2610SOL    HW219293   0.388   4.688   5.991  1.2600 -0.6612  1.1798
 2611SOL     OW19294   0.423   3.438   9.235  0.2894 -0.9038 -0.2037
 2611SOL    HW119295   0.503   3.472   9.276 -0.3780 -0.7215  0.9510
 2611SOL    HW219296   0.415   3.350   9.271 -2.3220 -1.0112 -1.0514
 2612SOL     OW19297   3.948   3.618   6.975  0.1893  0.1677  0.3694
 2612SOL    HW119298   3.872   3.635   7.029  1.1682 -2.2811  2.5277
 2612SOL    HW219299   4.000   3.577   7.044  2.6609  1.4013 -0.7514
 2613SOL     OW19300   2.127   1.043   5.449  0.5500 -0.3079 -0.0990
 2613SOL    HW119301   2.102   0.990   5.525 -1.7703  0.9570  0.0313
 2613SOL    HW219302   2.182   0.978   5.405  3.0266  1.2119  0.7213
 2614SOL     OW19303   3.875   0.471   5.869  0.8869  0.3813  0.1695
 2614SOL    HW119304   3.885   0.485   5.775  0.9592 -0.7369  0.0046
 2614SOL    HW219305   3.803   0.408   5.878  2.3990 -1.1545  1.4544
 2615SOL     OW19306   0.624   1.452  14.982  0.1838  0.0848 -0.1446
 2615SOL    HW119307   0.623   1.505  15.061  1.2192  2.3140 -1.6325
 2615SOL    HW219308   0.555   1.486  14.925  0.7287  0.3286 -0.6568
 2616SOL     OW19309   0.688   4.261   4.729 -0.0666  0.1378 -0.0305
 2616SOL    HW119310   0.765   4.253   4.785  1.2489 -1.3855 -2.0615
 2616SOL    HW219311   0.691   4.182   4.676 -3.8875  1.3243 -1.9875
 2617SOL     OW19312   1.451   2.937  10.587  0.2787  0.4419 -0.3044
 2617SOL    HW119313   1.541   2.913  10.611 -0.1357 -0.4462  0.3663
 2617SOL    HW219314   1.448   2.886  10.506  1.9792 -0.7703  0.3747
 2618SOL     OW19315   1.982   0.371   7.322 -0.0795  1.2366 -0.1120
 2618SOL    HW119316   1.889   0.351   7.333 -0.3154  2.2811 -0.2735
 2618SOL    HW219317   2.003   0.356   7.230 -2.2344 -1.3158 -0.1835
 2619SOL     OW19318   2.120   1.332   6.370  0.7555  0.1768 -0.4043
 2619SOL    HW119319   2.052   1.383   6.415 -0.7056  0.3366 -2.8184
 2619SOL    HW219320   2.106   1.238   6.380  0.7044  0.3148  0.8591
 2620SOL     OW19321   3.510   0.741  16.382 -0.0059 -0.3252 -0.0881
 2620SOL    HW119322   3.502   0.658  16.336 -2.8958 -0.4074  0.5500
 2620SOL    HW219323   3.604   0.754  16.398 -0.0254  0.1267 -0.3330
 2621SOL     OW19324   3.437   0.029   8.955 -0.2854 -0.3318 -0.1489
 2621SOL    HW119325   3.395   0.015   8.870 -3.1566  2.5019  0.7699
 2621SOL    HW219326   3.381   0.100   8.986 -0.0474  0.0953 -0.7089
 2622SOL     OW19327   0.450   3.673  14.733  0.3381 -0.2500  0.5430
 2622SOL    HW119328   0.358   3.696  14.745  0.2193 -0.1456 -0.5948
 2622SOL    HW219329   0.496   3.756  14.747 -1.2066  0.3707  1.8785
 2623SOL     OW19330   0.769   3.781  16.797  0.4419 -0.4764  0.2227
 2623SOL    HW119331   0.850   3.831  16.794 -0.4309  0.8920 -0.6912
 2623SOL    HW219332   0.755   3.757  16.889 -1.3859 -2.8720 -0.6891
 2624SOL     OW19333   1.310   4.308   4.910 -0.5566  0.4936  0.1478
 2624SOL    HW119334   1.225   4.278   4.878 -0.7661 -0.2848  1.4402
 2624SOL    HW219335   1.319   4.237   4.974  0.6695  0.2159 -0.3351
 2625SOL     OW19336   3.741   0.969   4.680 -0.2411  0.2715  0.1803
 2625SOL    HW119337   3.796   0.912   4.627  0.2839 -0.5837  1.6311
 2625SOL    HW219338   3.791   0.962   4.762  2.4521  0.0188 -1.4827
 2626SOL     OW19339   2.080   1.029   2.348 -0.0680  0.8824  0.3825
 2626SOL    HW119340   2.175   1.025   2.332 -0.3838 -0.4797 -1.1333
 2626SOL    HW219341   2.043   0.992   2.268  0.3175 -2.2721  1.6606
 2627SOL     OW19342   0.907   2.454   3.728 -0.3509  0.6634  1.1961
 2627SOL    HW119343   0.962   2.375   3.731 -0.2903  0.5590 -3.8059
 2627SOL    HW219344   0.831   2.432   3.675 -0.0091  0.3581  0.8381
 2628SOL     OW19345   4.300   2.379  15.713 -0.4604  0.1775  0.6322
 2628SOL    HW119346   4.361   2.331  15.657  1.7496  1.0650  2.2725
 2628SOL    HW219347   4.281   2.453  15.656 -0.2954 -0.2693 -0.0099
 2629SOL     OW19348   0.834   3.677  14.131  0.3839 -0.0389 -0.0226
 2629SOL    HW119349   0.889   3.621  14.076 -0.2291 -0.5390 -0.1224
 2629SOL    HW219350   0.778   3.616  14.179  0.0069  0.8857  0.7085
 2630SOL     OW19351   3.742   1.559   8.300 -0.4164 -0.1575  0.1096
 2630SOL    HW119352   3.669   1.497   8.313 -0.0975 -0.4127  0.6976
 2630SOL    HW219353   3.824   1.512   8.317  0.6736  0.8981 -2.2285
 2631SOL     OW19354   2.098   0.548   3.979  0.4110  0.4383 -0.0412
 2631SOL    HW119355   2.035   0.485   3.945 -0.2633  1.1623 -0.1359
 2631SOL    HW219356   2.129   0.495   4.052 -0.9186 -1.1503 -0.6262
 2632SOL     OW19357   2.827   0.205   3.378  0.1394  0.0894  0.2319
 2632SOL    HW119358   2.860   0.227   3.291 -0.6329  1.0902  0.1958
 2632SOL    HW219359   2.784   0.288   3.398 -4.3513 -1.9375 -1.0730
 2633SOL     OW19360   0.657   2.260   6.736  0.0201 -0.6184  0.3977
 2633SOL    HW119361   0.750   2.243   6.751 -0.1328 -1.6333  0.2205
 2633SOL    HW219362   0.628   2.175   6.702 -1.4948  0.7070 -1.6181
 2634SOL     OW19363   3.113   1.516   1.459 -0.6453 -0.1135 -0.0623
 2634SOL    HW119364   3.073   1.479   1.537 -1.6919 -1.4280 -1.2233
 2634SOL    HW219365   3.204   1.487   1.468 -0.6945 -0.2665 -0.0697
 2635SOL     OW19366   1.858   1.012   3.274  0.1606  0.1844  0.0481
 2635SOL    HW119367   1.904   1.018   3.191 -2.5640 -0.9854 -1.5454
 2635SOL    HW219368   1.845   0.917   3.277  2.8643 -0.1434  1.0065
 2636SOL     OW19369   0.633   0.552  14.100 -0.0763  0.1555 -0.1686
 2636SOL    HW119370   0.547   0.565  14.060  0.2205 -0.2091 -0.9294
 2636SOL    HW219371   0.680   0.510  14.028  1.2290 -1.9428  1.9021
 2637SOL     OW19372   3.054   2.856   0.735  0.3650 -0.1792  0.0305
 2637SOL    HW119373   3.026   2.765   0.723 -1.0663  0.3311 -0.4631
 2637SOL    HW219374   3.038   2.906   0.656  0.7172 -2.0392 -1.2123
 2638SOL     OW19375   1.737   2.302   1.339 -0.3449  0.1198  0.3503
 2638SOL    HW119376   1.777   2.343   1.416 -0.9056 -1.1279  1.3033
 2638SOL    HW219377   1.771   2.214   1.354 -2.5726 -0.8279 -0.0861
 2639SOL     OW19378   3.542   3.615   1.204  0.5137  0.1009  0.5256
 2639SOL    HW119379   3.546   3.521   1.186 -0.7601 -0.2265  2.0497
 2639SOL    HW219380   3.448   3.628   1.204 -0.1246 -4.2352 -1.5411
 2640SOL     OW19381   1.624   1.532   3.919 -0.5372  0.2419 -0.0507
 2640SOL    HW119382   1.719   1.541   3.916 -0.2856 -2.0683  1.0629
 2640SOL    HW219383   1.616   1.604   3.857  0.0243 -0.7927 -1.3349
 2641SOL     OW19384   3.814   1.762   4.931  0.3532 -0.1428 -1.0350
 2641SOL    HW119385   3.899   1.720   4.936  0.4260  0.1946  0.6313
 2641SOL    HW219386   3.834   1.855   4.921  0.9383 -0.3897 -2.1848
 2642SOL     OW19387   0.376   2.023   5.849  0.0868  0.0733 -0.5749
 2642SOL    HW119388   0.447   2.004   5.787 -0.7570 -1.2000 -1.1390
 2642SOL    HW219389   0.393   1.950   5.908  0.2337  1.0316  0.5774
 2643SOL     OW19390   1.576   3.248  17.298  0.1262 -0.2052 -0.0078
 2643SOL    HW119391   1.600   3.307  17.227  1.3899  0.9606  1.3892
 2643SOL    HW219392   1.643   3.264  17.365  0.2313  2.7444 -0.8265
 2644SOL     OW19393   2.189   4.047   6.851  0.3955  0.1245 -0.1930
 2644SOL    HW119394   2.122   4.063   6.785 -0.2349 -0.9413  0.1798
 2644SOL    HW219395   2.142   4.051   6.934  0.0775 -0.0634 -0.3609
 2645SOL     OW19396   1.469   1.209  16.092 -0.4206 -0.0275 -0.7911
 2645SOL    HW119397   1.450   1.185  16.182 -0.2970 -2.8667 -1.5192
 2645SOL    HW219398   1.499   1.124  16.059  0.4967  1.1819 -3.0846
 2646SOL     OW19399   4.027   0.126   6.872 -0.2751  0.3575  0.5840
 2646SOL    HW119400   4.049   0.070   6.799  1.2124  1.0634  0.5053
 2646SOL    HW219401   3.938   0.141   6.840 -0.1240 -0.1405 -0.0461
 2647SOL     OW19402   0.497   1.729  14.855 -0.4610  0.2789  0.2417
 2647SOL    HW119403   0.567   1.735  14.789  0.3365 -0.4075  1.0194
 2647SOL    HW219404   0.454   1.653  14.815 -0.6242 -0.7721  2.4178
 2648SOL     OW19405   4.202   3.776   5.522  0.4448 -0.4713  0.5916
 2648SOL    HW119406   4.228   3.758   5.432  2.4602 -0.3644  1.1429
 2648SOL    HW219407   4.194   3.871   5.513 -1.8947 -0.9210 -2.1829
 2649SOL     OW19408   3.470   2.692  13.825 -0.1754 -0.6426  0.0233
 2649SOL    HW119409   3.481   2.714  13.732 -0.8840 -1.2296 -0.1987
 2649SOL    HW219410   3.510   2.775  13.851  2.6443 -1.7660 -0.6618
 2650SOL     OW19411   4.537   4.722   5.038  0.2245  0.6295 -0.4002
 2650SOL    HW119412   4.496   4.638   5.020  0.3970  0.6710 -0.9802
 2650SOL    HW219413   4.557   0.027   4.949 -0.0473 -1.0743 -0.9835
 2651SOL     OW19414   1.981   2.208  13.244  0.3851  0.4665  0.1831
 2651SOL    HW119415   1.907   2.200  13.184 -1.4279 -0.4848  2.5448
 2651SOL    HW219416   1.939   2.205  13.330 -0.3511  2.1963 -0.1129
 2652SOL     OW19417   2.026   3.423  17.548  0.1497  0.2855 -0.6546
 2652SOL    HW119418   1.951   3.476  17.520 -0.9345 -0.3574  1.0340
 2652SOL    HW219419   2.034   3.363  17.474 -2.6736  0.7404 -1.3301
 2653SOL     OW19420   2.937   1.788   7.421  0.9604  0.4434  0.0909
 2653SOL    HW119421   2.904   1.801   7.510 -1.0495  2.0255 -0.8712
 2653SOL    HW219422   2.860   1.734   7.404  0.9197  0.5832 -0.1671
 2654SOL     OW19423   1.890   4.464   1.675 -0.4323 -0.2451 -0.6775
 2654SOL    HW119424   1.973   4.420   1.660 -0.2127 -0.1299  0.2284
 2654SOL    HW219425   1.918   4.555   1.665  1.7410 -0.9097 -0.5745
 2655SOL     OW19426   2.839   3.573   8.858 -0.1913 -0.0547  0.2527
 2655SOL    HW119427   2.833   3.482   8.830 -0.4651  0.3573 -1.0458
 2655SOL    HW219428   2.754   3.591   8.898  0.2699 -0.6181  1.4901
 2656SOL     OW19429   2.298   0.866   8.376  0.0208 -0.4571  0.0878
 2656SOL    HW119430   2.218   0.858   8.429 -0.6147 -2.4567 -1.1956
 2656SOL    HW219431   2.300   0.773   8.354 -0.8852 -1.0724  2.5499
 2657SOL     OW19432   1.648   4.099   2.256 -0.5578 -0.0994  0.2161
 2657SOL    HW119433   1.588   4.028   2.232 -0.8156 -0.3532  1.6096
 2657SOL    HW219434   1.663   4.140   2.171 -0.0372  1.0371  0.8452
 2658SOL     OW19435   3.515   2.887   7.732  0.0730  0.5087  0.6905
 2658SOL    HW119436   3.572   2.953   7.770  1.1220  0.4433 -0.7744
 2658SOL    HW219437   3.446   2.893   7.798  1.5722 -0.5341  2.3175
 2659SOL     OW19438   4.255   1.351   4.434  0.0326 -0.7239  0.7031
 2659SOL    HW119439   4.161   1.336   4.437 -0.1458  0.6846  1.9295
 2659SOL    HW219440   4.256   1.441   4.468  0.6386 -1.0379  1.5114
 2660SOL     OW19441   1.046   4.031   9.398 -0.3899  0.4576  0.0655
 2660SOL    HW119442   0.972   3.982   9.363 -2.0207  3.8060 -1.2487
 2660SOL    HW219443   1.108   3.959   9.408 -1.7968 -0.3906  2.4976
 2661SOL     OW19444   1.173   3.534   2.675  0.4742 -0.0869 -0.1610
 2661SOL    HW119445   1.103   3.556   2.613 -1.4809 -2.5628  1.1168
 2661SOL    HW219446   1.238   3.524   2.606  1.9554 -1.7736  1.4736
 2662SOL     OW19447   1.109   2.165   6.217  0.1085  0.0648 -0.1850
 2662SOL    HW119448   1.124   2.247   6.265 -0.6381 -0.0857  0.2936
 2662SOL    HW219449   1.150   2.185   6.132  1.8157 -0.7913  0.4319
 2663SOL     OW19450   4.355   0.162  12.534  0.2825  0.0049  0.3810
 2663SOL    HW119451   4.449   0.169  12.551  0.5982 -2.2701 -0.5051
 2663SOL    HW219452   4.342   0.131  12.445 -2.3237 -0.8690  1.0857
 2664SOL     OW19453   0.199   3.266   7.389 -0.6311 -0.2067 -0.1630
 2664SOL    HW119454   0.288   3.273   7.355 -0.5258  1.1864  0.3789
 2664SOL    HW219455   0.157   3.276   7.303 -2.1732 -3.2186  0.2348
 2665SOL     OW19456   0.963   3.311  13.016 -0.5301  0.5924  0.2711
 2665SOL    HW119457   0.869   3.313  13.032 -0.2450 -1.8231  2.2262
 2665SOL    HW219458   1.000   3.226  13.041 -0.6080  0.4944  0.0499
 2666SOL     OW19459   3.565   0.549  14.262  0.2158 -0.7378  0.3515
 2666SOL    HW119460   3.638   0.538  14.322  1.7016  2.7975 -0.7809
 2666SOL    HW219461   3.561   0.458  14.232 -1.2053 -0.1667 -1.2464
 2667SOL     OW19462   0.749   1.765   2.453 -0.5903  0.0755 -0.3369
 2667SOL    HW119463   0.710   1.682   2.480 -1.6708 -0.4641 -3.4816
 2667SOL    HW219464   0.753   1.750   2.358 -0.6050  1.4406 -0.5566
 2668SOL     OW19465   3.901   1.115   7.748  0.7615 -0.2267 -0.2027
 2668SOL    HW119466   3.924   1.046   7.809 -1.2668 -0.8469 -0.1258
 2668SOL    HW219467   3.827   1.152   7.797  1.2128  0.3632  0.0384
 2669SOL     OW19468   1.767   0.794  11.040 -0.1159  0.0274  0.3137
 2669SOL    HW119469   1.675   0.791  11.064  0.1096  0.5492  1.2203
 2669SOL    HW219470   1.745   0.794  10.946  0.4365 -1.4693  0.1886
 2670SOL     OW19471   1.741   3.468   2.461 -0.7192  0.0323 -0.4311
 2670SOL    HW119472   1.818   3.469   2.404  0.3680 -0.5368  1.0288
 2670SOL    HW219473   1.694   3.395   2.421 -0.7271 -0.1354 -0.1087
 2671SOL     OW19474   0.443   4.085   4.748 -0.6149 -0.2455 -0.0570
 2671SOL    HW119475   0.504   4.078   4.821  0.2496 -2.4727 -0.9980
 2671SOL    HW219476   0.376   4.151   4.767  0.3846  1.8388 -3.9006
 2672SOL     OW19477   3.340   3.592   9.024  0.4517  0.1444 -0.0428
 2672SOL    HW119478   3.362   3.685   9.017  0.7481  0.2297  1.9568
 2672SOL    HW219479   3.255   3.582   8.982  0.3668  0.2845  0.0941
 2673SOL     OW19480   2.316   3.794   6.342 -0.5207 -0.7987 -0.0530
 2673SOL    HW119481   2.245   3.855   6.323 -0.3997 -0.1280  1.6264
 2673SOL    HW219482   2.356   3.780   6.256 -0.5731  0.0175 -0.2095
 2674SOL     OW19483   2.238   2.886   4.292 -0.1186  0.0129 -0.1235
 2674SOL    HW119484   2.145   2.905   4.291 -0.2821 -0.8360 -1.2402
 2674SOL    HW219485   2.274   2.947   4.356  0.0396 -0.6519  0.4176
 2675SOL     OW19486   1.495   2.999   2.489 -0.1533  0.0201 -0.5517
 2675SOL    HW119487   1.466   3.023   2.577 -1.8778 -0.1119 -1.0805
 2675SOL    HW219488   1.417   2.997   2.433 -0.4838  2.3116 -0.1812
 2676SOL     OW19489   4.523   2.215  16.473 -0.1514 -0.2406  0.1492
 2676SOL    HW119490   4.604   2.221  16.422 -1.1305  2.6706 -1.0625
 2676SOL    HW219491   4.504   2.304  16.503 -0.6433 -0.0444 -0.7549
 2677SOL     OW19492   2.499   3.117  17.429 -0.0435 -0.5965  0.0202
 2677SOL    HW119493   2.436   3.048  17.449 -0.8857  0.6829  1.8113
 2677SOL    HW219494   2.565   3.071  17.378  1.9750 -0.8075  2.8608
 2678SOL     OW19495   0.960   2.489   5.175 -0.1793 -0.4882  0.2976
 2678SOL    HW119496   1.044   2.443   5.177  0.2940  0.4643  2.8378
 2678SOL    HW219497   0.923   2.461   5.259 -2.3844 -0.1997 -0.5824
 2679SOL     OW19498   1.820   4.642   2.973 -0.4532 -0.5370  0.5791
 2679SOL    HW119499   1.904   4.636   3.019  0.7276 -3.3865 -1.9693
 2679SOL    HW219500   1.791   4.551   2.971 -2.4987  0.1479 -0.5105
 2680SOL     OW19501   2.151   0.217   1.307 -0.3229  0.2619 -0.8677
 2680SOL    HW119502   2.162   0.250   1.396  0.0463 -0.2491 -0.7215
 2680SOL    HW219503   2.060   0.242   1.292 -0.3611  0.2345 -0.6901
 2681SOL     OW19504   1.195   0.027   4.354 -0.6071  0.2971 -0.4030
 2681SOL    HW119505   1.234   4.718   4.272  0.7332  0.5919  0.1258
 2681SOL    HW219506   1.105   0.016   4.324 -0.8342  0.1563  0.3563
 2682SOL     OW19507   0.671   2.692  12.381  0.1524  0.8969 -0.1213
 2682SOL    HW119508   0.724   2.739  12.444  0.3460 -0.1727  0.5138
 2682SOL    HW219509   0.606   2.642  12.431 -0.6957 -0.9921 -3.1133
 2683SOL     OW19510   2.781   1.579   3.522 -0.2366  0.0591 -0.1418
 2683SOL    HW119511   2.815   1.543   3.440  1.1205 -0.9936  0.8837
 2683SOL    HW219512   2.815   1.668   3.516 -1.0247  0.3592 -0.1264
 2684SOL     OW19513   3.089   0.615   2.791 -0.2605  0.1418  0.2896
 2684SOL    HW119514   3.001   0.591   2.820 -0.2748  0.4387  0.5004
 2684SOL    HW219515   3.093   0.707   2.817 -1.2616  0.0252  0.8472
 2685SOL     OW19516   1.570   0.161   9.629  0.6704  0.5378 -0.6135
 2685SOL    HW119517   1.578   0.108   9.708  2.5135  0.3985 -0.8954
 2685SOL    HW219518   1.476   0.160   9.611  0.3529  1.1285  1.0087
 2686SOL     OW19519   1.787   1.932   6.556 -0.2436  0.5566  0.2427
 2686SOL    HW119520   1.839   1.917   6.477 -0.0105  0.3762  0.4279
 2686SOL    HW219521   1.781   1.843   6.590 -0.5151  0.4714 -0.0314
 2687SOL     OW19522   1.455   1.721  14.508 -0.4860  0.0570  0.0264
 2687SOL    HW119523   1.472   1.804  14.552  1.1389 -0.3913  0.2635
 2687SOL    HW219524   1.437   1.747  14.417 -0.7112 -1.0834 -0.2557
 2688SOL     OW19525   0.843   2.542  13.262 -0.0576  0.7447  0.1220
 2688SOL    HW119526   0.827   2.604  13.333 -1.5473  2.5590 -1.8119
 2688SOL    HW219527   0.925   2.501  13.287 -1.4344 -1.7805  0.4986
 2689SOL     OW19528   3.241   3.508   4.124 -0.2995 -0.4468 -0.1893
 2689SOL    HW119529   3.262   3.544   4.038 -1.2434 -0.7469 -0.5477
 2689SOL    HW219530   3.297   3.554   4.186 -1.3929 -0.9189  1.1403
 2690SOL     OW19531   3.185   4.156   9.280  0.0705 -0.1734  0.5648
 2690SOL    HW119532   3.129   4.110   9.218 -1.1980 -0.0206  1.5945
 2690SOL    HW219533   3.273   4.148   9.243  0.1801 -2.9514  1.4018
 2691SOL     OW19534   1.785   4.532   7.628 -0.3822  0.3794  0.1662
 2691SOL    HW119535   1.700   4.566   7.599  0.0500  0.1000 -1.4386
 2691SOL    HW219536   1.748   4.461   7.680 -1.6665 -1.2039 -2.9176
 2692SOL     OW19537   3.808   3.083   5.771  0.2613 -0.1222 -0.2924
 2692SOL    HW119538   3.771   3.120   5.691 -1.0178  0.0644  0.3919
 2692SOL    HW219539   3.881   3.141   5.792 -0.2483  0.5162 -0.2757
 2693SOL     OW19540   2.988   3.523  16.224 -0.0542  0.3738  0.1215
 2693SOL    HW119541   2.910   3.568  16.194  1.0023  1.4551 -0.9823
 2693SOL    HW219542   3.041   3.602  16.235  0.2772  0.6438 -3.6104
 2694SOL     OW19543   3.511   2.843   8.985  0.7752  0.2629 -0.2740
 2694SOL    HW119544   3.419   2.821   8.997  0.5293  0.4145 -1.9066
 2694SOL    HW219545   3.510   2.939   8.985  0.8001  0.2612 -0.7962
 2695SOL     OW19546   3.675   4.685   3.252  0.0069 -0.1201  0.5389
 2695SOL    HW119547   3.616   4.648   3.317 -0.6671 -1.7808 -1.0070
 2695SOL    HW219548   3.631   0.047   3.256 -0.2498 -0.3332  2.0234
 2696SOL     OW19549   2.972   0.472  14.102  0.2252  0.3373  0.7832
 2696SOL    HW119550   3.032   0.522  14.157  1.4306  0.0143 -0.2361
 2696SOL    HW219551   2.938   0.548  14.054 -0.9439  0.4599  1.8224
 2697SOL     OW19552   4.655   0.923   3.994  0.4675  0.5060 -0.5557
 2697SOL    HW119553   4.689   0.843   4.033 -0.7960 -1.1680 -2.8635
 2697SOL    HW219554   4.694   0.993   4.046  0.2819  0.6527 -0.6145
 2698SOL     OW19555   4.432   0.617   9.807  0.2347 -0.5012  0.1990
 2698SOL    HW119556   4.424   0.599   9.901  0.9712 -0.4514  0.2710
 2698SOL    HW219557   4.343   0.648   9.796  0.2696  0.1873  1.9145
 2699SOL     OW19558   2.005   1.195  11.245  0.1934 -0.4653  0.5287
 2699SOL    HW119559   2.037   1.117  11.290 -1.1500 -1.2714  0.0918
 2699SOL    HW219560   1.915   1.162  11.248 -0.0757  0.2569  0.3004
 2700SOL     OW19561   3.440   3.888   6.780 -0.4626  0.1830 -0.1714
 2700SOL    HW119562   3.472   3.977   6.796  0.3472 -0.2054  0.3288
 2700SOL    HW219563   3.520   3.839   6.800 -0.6750  0.4498  1.3491
 2701SOL     OW19564   0.547   1.683   1.884 -0.0461 -0.3749 -0.0176
 2701SOL    HW119565   0.477   1.746   1.895  1.2829  0.9121  1.0030
 2701SOL    HW219566   0.517   1.608   1.935 -0.8745  1.2646  1.8851
 2702SOL     OW19567   0.281   0.997  10.971  0.3788 -0.0452  0.5273
 2702SOL    HW119568   0.361   0.985  11.022 -0.8447 -0.0924  2.4265
 2702SOL    HW219569   0.300   1.084  10.934  0.5267 -0.3172 -0.0342
 2703SOL     OW19570   1.895   0.030   2.678 -0.4294  0.4618 -0.6828
 2703SOL    HW119571   1.915   0.003   2.588  1.7548  2.1247 -0.7114
 2703SOL    HW219572   1.818   4.699   2.698 -0.4619  0.1752 -1.5644
 2704SOL     OW19573   1.936   3.593  15.067  0.0016 -0.5070 -0.3518
 2704SOL    HW119574   1.858   3.627  15.110 -0.2022 -0.2035 -0.9613
 2704SOL    HW219575   1.958   3.525  15.131  1.4468 -1.2623 -1.6494
 2705SOL     OW19576   3.187   1.935   7.913  0.0549  0.0649  0.3414
 2705SOL    HW119577   3.239   1.949   7.834 -1.8482  2.2690 -0.5314
 2705SOL    HW219578   3.260   1.914   7.971  1.4106  0.7668 -1.1106
 2706SOL     OW19579   0.408   2.383   8.545 -0.5390  0.0751 -0.4260
 2706SOL    HW119580   0.421   2.440   8.621 -0.5702 -0.4137 -0.0521
 2706SOL    HW219581   0.372   2.301   8.578 -1.6066  1.3124  1.5002
 2707SOL     OW19582   2.695   4.493   8.294  0.2081 -0.2559 -0.1062
 2707SOL    HW119583   2.638   4.437   8.346 -0.5119  0.9094  0.3466
 2707SOL    HW219584   2.740   4.537   8.365  2.2685 -0.3071 -1.3815
 2708SOL     OW19585   1.715   1.750   6.750 -0.0839  1.0015 -0.1721
 2708SOL    HW119586   1.635   1.799   6.730 -0.5042 -0.3773 -1.8631
 2708SOL    HW219587   1.731   1.772   6.842  2.0960 -0.1960 -0.2539
 2709SOL     OW19588   4.266   4.234   4.966 -0.3677  0.1991  0.1293
 2709SOL    HW119589   4.259   4.153   5.016  2.4673  0.9579  1.7669
 2709SOL    HW219590   4.186   4.250   4.916 -0.5921 -1.1121  0.0652
 2710SOL     OW19591   3.283   1.694  17.018  0.3701  0.0924 -0.2264
 2710SOL    HW119592   3.233   1.774  17.035  0.9535  0.2287  0.8785
 2710SOL    HW219593   3.227   1.625  17.053 -0.5194 -0.3709 -2.5897
 2711SOL     OW19594   0.747   1.140   1.951 -0.4007  0.2422 -0.3498
 2711SOL    HW119595   0.809   1.089   2.002 -0.5275  0.9252  0.4900
 2711SOL    HW219596   0.683   1.158   2.020 -0.9004 -0.1287 -0.7129
 2712SOL     OW19597   3.776   1.924  11.122 -0.3544  0.4522 -0.0287
 2712SOL    HW119598   3.850   1.901  11.066  0.4815 -1.2118  1.8010
 2712SOL    HW219599   3.793   2.016  11.143  0.3028  0.2185  0.4356
 2713SOL     OW19600   3.673   0.489  15.993  0.5953  0.1481  0.2947
 2713SOL    HW119601   3.645   0.399  15.973 -1.8698  1.1230 -0.7326
 2713SOL    HW219602   3.591   0.528  16.024  0.9865  2.2136 -1.2477
 2714SOL     OW19603   3.923   1.471  13.300 -0.4935  0.0414  0.3115
 2714SOL    HW119604   3.871   1.393  13.282 -2.8952  1.3067  1.7349
 2714SOL    HW219605   3.986   1.435  13.362 -0.9392 -0.8446  0.2499
 2715SOL     OW19606   3.836   2.535   8.311 -0.3701 -0.2914  0.3005
 2715SOL    HW119607   3.844   2.627   8.287 -0.6163  0.3138  2.5232
 2715SOL    HW219608   3.843   2.493   8.225 -0.2485 -1.3535  0.8320
 2716SOL     OW19609   2.287   2.988   8.366 -0.4272 -0.1575  1.1752
 2716SOL    HW119610   2.200   2.997   8.405 -1.3163 -0.7568 -0.6671
 2716SOL    HW219611   2.340   3.035   8.429  1.9861 -1.2715 -0.0052
 2717SOL     OW19612   4.632   0.205  13.400 -0.5132 -0.3687  0.5875
 2717SOL    HW119613   4.633   0.113  13.426  0.1443 -1.2383 -2.5490
 2717SOL    HW219614   4.539   0.230  13.400  0.0241  1.5910 -2.8248
 2718SOL     OW19615   2.370   1.362   6.146  0.1247 -0.3064  0.0274
 2718SOL    HW119616   2.368   1.385   6.238 -0.2142 -0.7200  0.1181
 2718SOL    HW219617   2.441   1.299   6.132  0.2601 -0.5674  1.8854
 2719SOL     OW19618   2.410   3.713  13.703 -0.1274 -0.0799  0.1026
 2719SOL    HW119619   2.370   3.629  13.680 -0.1184  0.4054 -1.6788
 2719SOL    HW219620   2.384   3.760  13.624  1.3325 -0.2251 -0.4721
 2720SOL     OW19621   0.233   2.240   9.626  0.2031  0.4068 -0.2041
 2720SOL    HW119622   0.182   2.174   9.672  0.2075 -0.8870 -2.0242
 2720SOL    HW219623   0.248   2.310   9.689  1.3438 -2.9111  3.2233
 2721SOL     OW19624   2.737   4.466   4.379  0.2040 -0.6517 -0.1719
 2721SOL    HW119625   2.677   4.516   4.434  0.4872 -0.0805 -0.3794
 2721SOL    HW219626   2.815   4.521   4.371 -0.1041  0.0571  1.7471
 2722SOL     OW19627   3.301   4.078   0.562  0.7661  0.0399  0.1725
 2722SOL    HW119628   3.311   4.161   0.608 -2.0534 -0.3139  1.4658
 2722SOL    HW219629   3.213   4.055   0.592  0.0587  3.5936  0.8558
 2723SOL     OW19630   3.198   0.598   1.884 -0.6045  0.2457 -0.3176
 2723SOL    HW119631   3.213   0.660   1.955 -1.9538 -0.2704  0.4247
 2723SOL    HW219632   3.181   0.656   1.810  2.7359  2.0301  0.3370
 2724SOL     OW19633   0.836   2.673   7.121 -0.4647  0.0306 -0.1212
 2724SOL    HW119634   0.868   2.602   7.064  0.2902 -0.0824  0.4421
 2724SOL    HW219635   0.918   2.707   7.158 -0.9993  1.6122 -0.4182
 2725SOL     OW19636   2.035   0.174   0.092  0.0598  0.0951  0.6211
 2725SOL    HW119637   2.082   0.098   0.126  0.5014  1.6787  3.5225
 2725SOL    HW219638   2.101   0.241   0.104 -0.6388  0.9596 -0.3919
 2726SOL     OW19639   2.004   2.626   6.237  0.0875  0.4829  0.0395
 2726SOL    HW119640   2.057   2.630   6.316 -1.7204  1.9228  1.1929
 2726SOL    HW219641   1.984   2.718   6.222 -2.3726  0.1530  1.1616
 2727SOL     OW19642   3.351   2.902   2.687  0.0868 -0.9543  0.0917
 2727SOL    HW119643   3.430   2.937   2.645  0.2431  0.7699  1.7882
 2727SOL    HW219644   3.352   2.817   2.643 -0.1758 -0.2960 -1.1903
 2728SOL     OW19645   3.756   1.197   4.415  0.4685  0.0985 -0.0531
 2728SOL    HW119646   3.676   1.248   4.431 -0.0031 -1.1976  1.7876
 2728SOL    HW219647   3.721   1.117   4.455 -1.3352  0.1532 -1.4659
 2729SOL     OW19648   4.349   4.179  16.076 -0.1021 -0.0217  0.2558
 2729SOL    HW119649   4.421   4.125  16.045 -0.3460 -1.4504  2.2293
 2729SOL    HW219650   4.306   4.211  15.997  1.4633  0.8433 -0.2532
 2730SOL     OW19651   1.189   4.515  12.068 -0.2346  0.3472  0.3623
 2730SOL    HW119652   1.211   4.457  12.141  0.9684 -1.7817 -1.7004
 2730SOL    HW219653   1.103   4.481  12.043 -0.2604  0.0508  0.8525
 2731SOL     OW19654   4.712   1.242  12.187  0.1346 -0.7137  0.4074
 2731SOL    HW119655   0.008   1.179  12.257 -3.6059  1.4944  3.3776
 2731SOL    HW219656   0.078   1.277  12.177 -0.4885  0.7796  0.2006
 2732SOL     OW19657   1.130   2.067   2.590  0.0714  0.6296 -0.1048
 2732SOL    HW119658   1.173   2.117   2.659  0.3957  0.1902  0.0138
 2732SOL    HW219659   1.042   2.084   2.625  0.4005  0.0113  1.0117
 2733SOL     OW19660   4.115   4.317  16.117  0.5090  0.2892  0.5079
 2733SOL    HW119661   4.066   4.234  16.123 -0.2266  0.8078  1.7011
 2733SOL    HW219662   4.203   4.284  16.104  1.4168  1.8134  2.9327
 2734SOL     OW19663   0.634   0.301   4.492 -0.2778 -0.1223 -0.0965
 2734SOL    HW119664   0.708   0.261   4.446  0.1916 -0.2929  0.8098
 2734SOL    HW219665   0.673   0.296   4.580  1.1717 -0.6790 -0.7651
 2735SOL     OW19666   4.112   0.462   7.467  0.2213  0.0271  0.1009
 2735SOL    HW119667   4.083   0.378   7.502  1.7406 -0.0543  1.1822
 2735SOL    HW219668   4.094   0.458   7.374  0.4831  0.5584  0.0232
 2736SOL     OW19669   0.142   2.667   7.993 -0.2189  0.0785  0.1418
 2736SOL    HW119670   0.198   2.721   7.938  0.0868 -0.4242 -0.0363
 2736SOL    HW219671   0.139   2.719   8.074 -0.2620  0.8144 -0.3395
 2737SOL     OW19672   3.009   2.784  10.240  0.1909  0.4708 -0.7624
 2737SOL    HW119673   3.014   2.717  10.172 -1.5788 -0.0384 -0.3841
 2737SOL    HW219674   3.092   2.775  10.287 -0.4446  1.3987  0.5406
 2738SOL     OW19675   0.714   3.959   9.868  0.0039 -0.1051 -0.1438
 2738SOL    HW119676   0.773   3.997   9.802 -0.3700  1.0573  0.1940
 2738SOL    HW219677   0.633   4.002   9.837 -1.3594 -1.4843  1.5471
 2739SOL     OW19678   4.350   1.883  15.889 -0.0075  0.8233 -0.3719
 2739SOL    HW119679   4.398   1.966  15.887  0.7342  0.4278  0.7364
 2739SOL    HW219680   4.352   1.873  15.984  0.3269  1.7445 -0.2794
 2740SOL     OW19681   4.506   2.996  14.906 -0.3745  0.5432  0.1869
 2740SOL    HW119682   4.455   3.035  14.835  2.6141  1.7084 -1.2879
 2740SOL    HW219683   4.437   2.962  14.964  1.0775 -1.7239  0.5699
 2741SOL     OW19684   4.087   4.702  15.572  0.2645 -0.7996  0.0174
 2741SOL    HW119685   4.104   4.658  15.488 -1.1128  2.2713 -1.8516
 2741SOL    HW219686   4.006   4.656  15.594  0.5849 -0.2989  2.2005
 2742SOL     OW19687   4.186   0.745   2.429 -0.0960  0.0133 -0.2081
 2742SOL    HW119688   4.273   0.726   2.394 -0.0310 -1.4071  0.7514
 2742SOL    HW219689   4.178   0.841   2.425 -1.8615 -0.1223 -0.2364
 2743SOL     OW19690   4.025   3.543   3.097 -0.8538  0.1191 -0.1012
 2743SOL    HW119691   4.041   3.478   3.029  0.3303 -1.0324  1.2884
 2743SOL    HW219692   4.062   3.628   3.072 -0.0619  0.2640  1.5254
 2744SOL     OW19693   3.989   0.978  17.107 -0.6249 -0.0839 -0.0185
 2744SOL    HW119694   4.015   0.904  17.052 -1.7476 -0.7555  0.3607
 2744SOL    HW219695   4.049   1.046  17.077 -0.5677  1.0525  2.6609
 2745SOL     OW19696   4.197   3.194  15.953  0.4202  0.5728  0.1804
 2745SOL    HW119697   4.128   3.259  15.961  0.8807  0.9375  1.1338
 2745SOL    HW219698   4.177   3.139  16.029  0.9254 -2.4353 -1.8502
 2746SOL     OW19699   4.560   4.205   0.687 -0.2785  0.4638  0.4938
 2746SOL    HW119700   4.590   4.248   0.607  2.1146 -1.2159  0.4948
 2746SOL    HW219701   4.516   4.125   0.657 -0.6681  1.1835 -0.8688
 2747SOL     OW19702   0.935   3.230  13.383 -0.4022  0.4557 -0.4032
 2747SOL    HW119703   0.843   3.250  13.399 -0.5843 -0.3704 -0.3955
 2747SOL    HW219704   0.949   3.231  13.288  3.2845  0.1846  0.1171
 2748SOL     OW19705   1.523   3.721   0.541  0.1240 -0.8358  0.1377
 2748SOL    HW119706   1.617   3.731   0.531 -0.0845  1.9529  0.9265
 2748SOL    HW219707   1.496   3.806   0.506  2.3081 -0.3226 -0.3017
 2749SOL     OW19708   2.471   0.699   6.140  0.2642 -0.0620 -0.2557
 2749SOL    HW119709   2.487   0.611   6.175 -0.3167  1.0299  2.7840
 2749SOL    HW219710   2.378   0.714   6.157  0.4727  0.8449  0.0682
 2750SOL     OW19711   0.975   0.184   8.461 -0.0128 -0.3703 -0.4289
 2750SOL    HW119712   1.017   0.146   8.383  2.3645  0.8058  0.2771
 2750SOL    HW219713   1.045   0.191   8.526  0.8909 -1.1679 -1.2994
 2751SOL     OW19714   3.080   1.893  17.063  0.9800 -0.4625 -0.1249
 2751SOL    HW119715   3.003   1.877  17.009 -0.3392  0.5562  1.4407
 2751SOL    HW219716   3.088   1.987  17.048 -0.9344 -0.1787  0.6010
 2752SOL     OW19717   2.348   1.965   5.255  0.7158 -0.2458 -0.2546
 2752SOL    HW119718   2.380   1.977   5.165 -0.2020  2.2182 -0.2515
 2752SOL    HW219719   2.363   1.870   5.263  0.8339 -0.0854  1.4802
 2753SOL     OW19720   2.704   3.512  17.577 -0.8396 -0.0115  0.1649
 2753SOL    HW119721   2.647   3.541  17.648  1.0461  0.4212  1.5021
 2753SOL    HW219722   2.634   3.484  17.518 -2.0300 -0.8189  1.9764
 2754SOL     OW19723   3.582   1.815   8.944  0.0895 -0.2978  0.2031
 2754SOL    HW119724   3.591   1.859   8.859 -1.7665  2.1016  1.2742
 2754SOL    HW219725   3.659   1.758   8.940  0.8044  0.7167 -0.4998
 2755SOL     OW19726   0.820   4.236  14.837  0.3756 -0.1854 -0.7324
 2755SOL    HW119727   0.741   4.186  14.816 -0.7164  1.7660 -1.3151
 2755SOL    HW219728   0.880   4.168  14.867  0.0319  0.1640  0.7760
 2756SOL     OW19729   4.513   0.575   8.892 -0.3881  0.1624 -0.6580
 2756SOL    HW119730   4.449   0.617   8.949 -0.1103  2.3003 -1.8883
 2756SOL    HW219731   4.536   0.504   8.951 -0.2978  1.4734  0.8859
 2757SOL     OW19732   0.086   1.331  11.903  0.5018 -0.1308 -0.1826
 2757SOL    HW119733   0.139   1.256  11.930 -0.2797 -0.0377  1.6088
 2757SOL    HW219734   0.052   1.370  11.983  0.5471  0.5076 -0.4773
 2758SOL     OW19735   2.171   1.003  13.021 -0.4639  0.2989  0.0436
 2758SOL    HW119736   2.093   0.953  12.999 -1.0025  1.1026  0.1151
 2758SOL    HW219737   2.172   1.044  12.935 -2.3630 -1.0527 -0.6167
 2759SOL     OW19738   0.385   1.947   3.049  0.6024 -0.2981  0.5139
 2759SOL    HW119739   0.446   1.977   2.981 -0.7940  0.9494 -0.1770
 2759SOL    HW219740   0.344   1.872   3.007  0.6075 -0.5728  0.9934
 2760SOL     OW19741   0.728   3.079  10.286 -0.8735 -0.1232 -0.5185
 2760SOL    HW119742   0.702   2.988  10.303 -1.5929 -0.3444 -2.8066
 2760SOL    HW219743   0.816   3.075  10.323 -1.6842 -1.9092  1.2065
 2761SOL     OW19744   3.501   0.290  14.204  0.4433 -0.0260 -0.5105
 2761SOL    HW119745   3.516   0.268  14.295 -0.8094  2.3203  0.2723
 2761SOL    HW219746   3.442   0.219  14.179  1.2738  0.0309 -2.6989
 2762SOL     OW19747   0.521   1.689  11.232  0.3993  0.3441  0.4974
 2762SOL    HW119748   0.549   1.644  11.152  3.9403 -0.2001  2.0436
 2762SOL    HW219749   0.444   1.740  11.210  1.8726  0.9268 -3.4143
 2763SOL     OW19750   0.314   3.200   6.354  0.3145 -0.3714  0.2072
 2763SOL    HW119751   0.295   3.276   6.299 -1.0407 -2.4720 -2.2654
 2763SOL    HW219752   0.312   3.233   6.443 -0.5906 -0.9623  0.4154
 2764SOL     OW19753   3.389   0.346  13.837  0.3345  0.2782 -0.3981
 2764SOL    HW119754   3.445   0.300  13.775 -0.7263 -2.9388  1.0266
 2764SOL    HW219755   3.347   0.270  13.878  1.4776  0.8562  1.8092
 2765SOL     OW19756   3.492   4.501  11.950  1.0031  0.2353 -0.1745
 2765SOL    HW119757   3.460   4.425  11.999  1.4526 -1.2038 -2.0742
 2765SOL    HW219758   3.434   4.500  11.873 -0.5515  0.1969  0.9964
 2766SOL     OW19759   3.680   1.713  17.388 -0.2846  0.5559  0.4320
 2766SOL    HW119760   3.766   1.749  17.365  0.3224 -0.8300  0.5219
 2766SOL    HW219761   3.684   1.631  17.337 -4.0566 -0.8761  2.4345
 2767SOL     OW19762   0.580   2.632  16.920 -0.2485 -0.2727 -0.7911
 2767SOL    HW119763   0.596   2.617  16.827 -1.0912  0.3956 -1.0409
 2767SOL    HW219764   0.486   2.645  16.933 -0.3910 -2.2042  0.1567
 2768SOL     OW19765   2.605   3.733   3.910 -0.2281  0.6097  0.5422
 2768SOL    HW119766   2.661   3.788   3.855  0.9203 -0.4989  0.5975
 2768SOL    HW219767   2.547   3.694   3.844  2.0262  0.2486 -1.2183
 2769SOL     OW19768   4.721   2.585   9.826  0.3746  0.1439 -0.0569
 2769SOL    HW119769   0.007   2.630   9.910  1.0510 -1.8857  0.9598
 2769SOL    HW219770   4.688   2.659   9.775  0.8393 -0.8545 -1.7715
 2770SOL     OW19771   3.295   1.972   4.666 -0.6227  0.0458 -0.5773
 2770SOL    HW119772   3.342   1.893   4.694 -0.8986  0.4356  0.9650
 2770SOL    HW219773   3.342   2.045   4.707  3.6059 -2.5713 -0.7336
 2771SOL     OW19774   1.061   1.488   2.943  0.2781 -0.3588  0.3462
 2771SOL    HW119775   1.085   1.546   3.016  1.1798 -2.4508  1.7175
 2771SOL    HW219776   1.129   1.497   2.877  0.4673 -1.1611  0.4314
 2772SOL     OW19777   0.324   0.280   7.701  0.5007  0.0210 -0.5738
 2772SOL    HW119778   0.241   0.280   7.654 -0.8201 -4.4424  1.7293
 2772SOL    HW219779   0.364   0.193   7.697  1.2508  0.3450 -0.0559
 2773SOL     OW19780   2.548   1.435   3.312 -0.2917  0.3459 -0.5216
 2773SOL    HW119781   2.625   1.402   3.358  0.1608  0.6850 -1.0411
 2773SOL    HW219782   2.583   1.461   3.227  1.1522 -0.1815 -0.0910
 2774SOL     OW19783   4.232   4.456   6.393  0.6128 -0.1294  0.0705
 2774SOL    HW119784   4.325   4.467   6.412  0.8366 -1.6314 -0.1539
 2774SOL    HW219785   4.213   4.546   6.366 -1.7988 -1.0103 -1.1677
 2775SOL     OW19786   3.944   4.112  16.167 -0.8160 -0.2737  0.0016
 2775SOL    HW119787   3.901   4.085  16.248 -1.5458 -2.4674 -1.1320
 2775SOL    HW219788   3.955   4.023  16.135 -1.2111  0.2294 -1.5396
 2776SOL     OW19789   2.823   0.805   0.091 -0.5319  0.2142 -0.6452
 2776SOL    HW119790   2.750   0.844   0.139  1.3626  1.7799  0.9076
 2776SOL    HW219791   2.857   0.749   0.161 -1.4634  0.8903  0.3569
 2777SOL     OW19792   0.703   4.322   7.378  0.1447  0.4956  0.0576
 2777SOL    HW119793   0.618   4.321   7.422  0.4773 -1.0178  0.6460
 2777SOL    HW219794   0.690   4.343   7.285 -0.7403  0.5037  0.1837
 2778SOL     OW19795   2.357   1.759   2.519 -0.5704 -0.3336 -0.0862
 2778SOL    HW119796   2.405   1.682   2.549  1.4985  1.0765  0.2045
 2778SOL    HW219797   2.282   1.709   2.487 -0.2839  0.5318 -2.1485
 2779SOL     OW19798   3.506   1.398   8.312  0.4012 -0.2636  0.1881
 2779SOL    HW119799   3.557   1.365   8.386  2.2765  2.7237  0.2558
 2779SOL    HW219800   3.509   1.328   8.246  0.8933 -0.1335  0.0696
 2780SOL     OW19801   4.112   1.333   8.302  0.2536 -0.0582  0.2129
 2780SOL    HW119802   4.047   1.334   8.373 -1.5080  2.3684 -1.4266
 2780SOL    HW219803   4.108   1.426   8.279  0.0959 -0.7414 -2.5095
 2781SOL     OW19804   2.027   4.604  16.689 -0.1883 -0.6723  0.3083
 2781SOL    HW119805   2.001   4.695  16.703  1.4397 -0.1643  0.0267
 2781SOL    HW219806   2.108   4.615  16.641 -1.9369  0.0258 -2.4589
 2782SOL     OW19807   1.643   0.439  17.439 -0.3598 -0.0702  0.7540
 2782SOL    HW119808   1.711   0.499  17.469 -0.4196  0.4714 -0.1948
 2782SOL    HW219809   1.616   0.403  17.523  0.2379  0.0682  1.0038
 2783SOL     OW19810   4.563   0.428   3.484  0.3765 -0.3148  0.4371
 2783SOL    HW119811   4.587   0.489   3.553  2.3454 -0.0921 -0.4435
 2783SOL    HW219812   4.569   0.486   3.408 -2.0395  0.9052  1.1687
 2784SOL     OW19813   0.962   3.654   9.170  0.7711 -0.4227 -0.3529
 2784SOL    HW119814   0.878   3.648   9.124  0.9373 -1.1793 -0.5622
 2784SOL    HW219815   0.939   3.719   9.236  0.5328 -2.0190  1.1333
 2785SOL     OW19816   0.114   1.507   7.021  0.7540 -0.3479 -0.1403
 2785SOL    HW119817   0.113   1.603   7.018 -0.6187 -0.3696 -0.2814
 2785SOL    HW219818   0.021   1.486   7.017  0.7359 -0.6418  1.7977
 2786SOL     OW19819   2.469   1.318   0.503 -0.0319  0.2590 -0.2902
 2786SOL    HW119820   2.402   1.339   0.438 -0.6338 -1.8383 -0.3479
 2786SOL    HW219821   2.549   1.338   0.454  0.2647 -0.8626 -0.2448
 2787SOL     OW19822   1.599   2.604   3.623  0.1356 -0.3780 -0.5275
 2787SOL    HW119823   1.661   2.669   3.589 -0.3130  0.4071  0.1771
 2787SOL    HW219824   1.625   2.527   3.571 -0.6008 -1.7416  1.1353
 2788SOL     OW19825   4.227   1.459   2.944 -0.4441  0.1266 -0.3661
 2788SOL    HW119826   4.237   1.465   2.849 -1.7690  1.2082 -0.4306
 2788SOL    HW219827   4.252   1.548   2.967 -0.2864 -0.3131  1.1378
 2789SOL     OW19828   1.415   1.685   4.067  0.5209  0.5471 -0.1047
 2789SOL    HW119829   1.479   1.756   4.073  1.5599 -0.3263 -0.8414
 2789SOL    HW219830   1.470   1.619   4.025  0.2794  2.0586 -2.7301
 2790SOL     OW19831   3.395   0.114   7.683  0.2584 -0.3037  0.1515
 2790SOL    HW119832   3.398   0.205   7.711  0.2910 -0.3047  0.1508
 2790SOL    HW219833   3.336   0.088   7.753 -2.1290  0.2889 -1.6203
 2791SOL     OW19834   1.098   3.256   0.611 -0.0518 -0.3246 -0.2226
 2791SOL    HW119835   1.063   3.168   0.595  0.9411 -0.8243  0.3585
 2791SOL    HW219836   1.160   3.264   0.538 -0.3285 -3.1406 -0.7675
 2792SOL     OW19837   1.895   1.147   0.922  0.6090 -0.4452  0.2481
 2792SOL    HW119838   1.935   1.225   0.961 -1.9580 -0.5975  3.1486
 2792SOL    HW219839   1.966   1.083   0.915  0.3620 -0.7118  0.1784
 2793SOL     OW19840   4.656   2.965   8.910 -0.2231 -0.2505 -0.2047
 2793SOL    HW119841   0.002   2.917   8.862  0.0538 -0.2981  0.2324
 2793SOL    HW219842   4.678   3.058   8.901 -0.4530 -0.2370 -0.6185
 2794SOL     OW19843   3.865   1.449  14.817 -0.7411 -0.0414  0.2288
 2794SOL    HW119844   3.872   1.544  14.816  0.8079 -0.1418  2.6399
 2794SOL    HW219845   3.871   1.430  14.723  1.1218 -0.2010  0.3691
 2795SOL     OW19846   3.657   2.582  15.015 -0.2134  0.2113 -0.1930
 2795SOL    HW119847   3.701   2.642  14.954 -1.2183  1.9827  0.8255
 2795SOL    HW219848   3.639   2.633  15.093 -3.3734 -0.3150 -0.6003
 2796SOL     OW19849   1.071   1.381   0.328  0.2064  1.1712  0.1050
 2796SOL    HW119850   1.047   1.360   0.237  0.4248 -1.3745  0.6497
 2796SOL    HW219851   1.076   1.476   0.319 -0.8227  0.9684 -2.5696
 2797SOL     OW19852   4.316   2.442   4.276  0.5944  0.2914  0.0526
 2797SOL    HW119853   4.268   2.523   4.263 -1.3942 -0.4987  2.4423
 2797SOL    HW219854   4.367   2.419   4.198  0.6875 -1.1522  0.5425
 2798SOL     OW19855   2.180   1.399   0.382  0.7283  0.2678 -0.3506
 2798SOL    HW119856   2.162   1.420   0.290 -1.2669 -2.9061 -0.6804
 2798SOL    HW219857   2.133   1.316   0.381 -0.3348  0.8702 -0.9474
 2799SOL     OW19858   0.051   2.488   1.920  0.5047 -0.2179  0.3652
 2799SOL    HW119859   0.128   2.484   1.862  1.6329 -0.5893  1.8968
 2799SOL    HW219860   0.078   2.419   1.980  0.3793 -0.7861 -0.2311
 2800SOL     OW19861   2.294   0.079   6.315 -0.3315  0.2355  0.3858
 2800SOL    HW119862   2.249   0.017   6.372 -1.2053  2.1501  1.7844
 2800SOL    HW219863   2.389   0.068   6.326 -0.5871 -1.1701  1.2778
 2801SOL     OW19864   0.046   2.709   4.792 -0.1971  0.7675 -0.4472
 2801SOL    HW119865   0.023   2.787   4.842  1.8589 -0.0799  1.8185
 2801SOL    HW219866   0.095   2.673   4.865  0.6425  0.7840 -1.0067
 2802SOL     OW19867   0.206   4.294   5.139 -0.1594 -0.0420 -0.0538
 2802SOL    HW119868   0.282   4.353   5.143  0.3862 -0.7047 -0.6329
 2802SOL    HW219869   0.137   4.359   5.125 -1.2020 -0.9701  0.8463
 2803SOL     OW19870   2.142   0.812  16.181  0.7013  0.2295 -0.7360
 2803SOL    HW119871   2.235   0.805  16.164  0.6158  1.0075 -1.5227
 2803SOL    HW219872   2.128   0.878  16.113 -0.8073  1.0052  0.3108
 2804SOL     OW19873   2.655   1.763   7.859  0.3181  0.4089  0.0976
 2804SOL    HW119874   2.657   1.696   7.927 -0.4104  0.3977  0.1074
 2804SOL    HW219875   2.568   1.764   7.818  0.1152 -4.7482  0.4560
 2805SOL     OW19876   1.484   1.976   7.648 -0.3636 -0.2388  0.6291
 2805SOL    HW119877   1.516   1.893   7.611  1.8608  1.0814 -0.4484
 2805SOL    HW219878   1.539   1.983   7.725  1.9740 -0.9649 -0.9673
 2806SOL     OW19879   2.569   1.711   2.232 -0.7257 -0.3114  0.0229
 2806SOL    HW119880   2.625   1.658   2.289 -0.2105  0.2186  0.0133
 2806SOL    HW219881   2.599   1.801   2.242 -0.2995 -0.5982  1.3350
 2807SOL     OW19882   0.748   2.380  12.409 -0.1246  0.7751  0.1718
 2807SOL    HW119883   0.814   2.317  12.436  1.0654  1.5049 -1.0252
 2807SOL    HW219884   0.756   2.442  12.481 -0.1875  1.0971 -0.0969
 2808SOL     OW19885   3.115   3.065   3.243  0.3348  0.0728 -0.0909
 2808SOL    HW119886   3.115   3.148   3.197  1.1041 -0.5523 -1.2285
 2808SOL    HW219887   3.058   3.018   3.182 -0.5551  1.4208 -0.2908
 2809SOL     OW19888   0.402   0.734  11.666  0.5050 -0.0970  0.0839
 2809SOL    HW119889   0.461   0.659  11.670  0.2131 -0.3907 -1.2204
 2809SOL    HW219890   0.447   0.792  11.605  0.6978 -0.6331 -0.2838
 2810SOL     OW19891   2.371   2.264  14.146 -0.2813  0.3337 -0.2419
 2810SOL    HW119892   2.446   2.230  14.097 -0.5794  0.8331 -1.0493
 2810SOL    HW219893   2.392   2.255  14.239  1.6134  1.2457 -0.5754
 2811SOL     OW19894   1.916   4.699   4.960 -0.0651  0.5221 -0.2085
 2811SOL    HW119895   1.944   0.067   4.975  2.6715 -0.4767  0.7480
 2811SOL    HW219896   1.874   4.684   5.045 -0.0021 -0.6528 -0.3851
 2812SOL     OW19897   3.407   1.329   7.428 -0.0806  0.4435  0.4119
 2812SOL    HW119898   3.456   1.395   7.477  0.0624  1.0112 -0.4985
 2812SOL    HW219899   3.317   1.354   7.449 -0.3103 -0.0414  0.0009
 2813SOL     OW19900   1.234   0.903   8.800 -0.1595  0.4424 -0.3725
 2813SOL    HW119901   1.179   0.975   8.770 -1.1213 -0.3984 -0.6185
 2813SOL    HW219902   1.277   0.868   8.722  1.2609 -0.1769  0.6785
 2814SOL     OW19903   1.829   3.948  13.756 -0.1468 -0.4928 -0.2842
 2814SOL    HW119904   1.789   3.879  13.809  0.4776  1.3810  2.6244
 2814SOL    HW219905   1.921   3.922  13.753  0.0326  0.1217 -0.1751
 2815SOL     OW19906   0.446   4.211   3.210  0.1119 -0.4476  0.0621
 2815SOL    HW119907   0.444   4.250   3.297 -1.8868 -0.3678 -0.0169
 2815SOL    HW219908   0.352   4.201   3.196  0.1630 -2.5796  1.2153
 2816SOL     OW19909   4.721   4.315   6.207  0.1418  0.6802 -0.3214
 2816SOL    HW119910   0.092   4.308   6.187  0.5597  0.2680  1.7529
 2816SOL    HW219911   4.713   4.324   6.302 -2.3632 -1.5177 -0.3060
 2817SOL     OW19912   4.560   1.647   2.048 -0.4709 -0.2987 -0.1485
 2817SOL    HW119913   4.471   1.617   2.062 -0.5165 -0.1757 -0.1736
 2817SOL    HW219914   4.543   1.722   1.990 -0.7688  1.1218  1.7860
 2818SOL     OW19915   0.646   3.179   5.816 -0.6019 -0.0061 -0.2857
 2818SOL    HW119916   0.551   3.171   5.827 -0.5694  1.1775  0.8746
 2818SOL    HW219917   0.662   3.108   5.755  1.0207  0.0235  0.1228
 2819SOL     OW19918   1.693   4.429   2.332  0.0972  0.2033  0.1485
 2819SOL    HW119919   1.732   4.447   2.246 -0.5535 -0.9268 -0.3948
 2819SOL    HW219920   1.606   4.468   2.330  0.7216  1.5545 -0.4460
 2820SOL     OW19921   0.507   2.117   7.287  0.0875 -0.0436  0.9366
 2820SOL    HW119922   0.547   2.174   7.352  0.7789  0.8535 -0.2766
 2820SOL    HW219923   0.421   2.159   7.284  1.1907  2.0725 -1.2364
 2821SOL     OW19924   2.869   1.336   8.571  0.3972  0.6459 -0.2765
 2821SOL    HW119925   2.939   1.293   8.620 -0.3430  3.1720  2.9819
 2821SOL    HW219926   2.895   1.428   8.577 -1.7236  1.4425 -3.4036
 2822SOL     OW19927   1.235   4.596   8.533  0.1378  0.1432  0.5664
 2822SOL    HW119928   1.177   4.596   8.609  0.9937  2.5609  1.2195
 2822SOL    HW219929   1.309   4.635   8.580  1.0466  1.1301 -1.6788
 2823SOL     OW19930   1.769   2.231   1.848  0.7231  0.0321 -0.4275
 2823SOL    HW119931   1.833   2.302   1.851 -0.2998  0.9357 -0.1223
 2823SOL    HW219932   1.728   2.242   1.762 -2.3910 -2.1714  0.7779
 2824SOL     OW19933   2.379   0.892   4.793  0.0883 -0.2220 -0.5652
 2824SOL    HW119934   2.284   0.886   4.797  0.2937 -2.7172  0.3010
 2824SOL    HW219935   2.396   0.890   4.699 -2.4458 -1.1111 -1.0092
 2825SOL     OW19936   3.596   4.523   4.932 -0.2487 -0.2078 -0.4305
 2825SOL    HW119937   3.549   4.587   4.880 -1.7270 -1.8666 -1.1424
 2825SOL    HW219938   3.677   4.574   4.940  0.6845 -1.9216  1.0472
 2826SOL     OW19939   2.523   4.026   5.318 -0.0007 -0.4199 -0.0631
 2826SOL    HW119940   2.499   3.946   5.365  2.2089 -0.7564  0.4661
 2826SOL    HW219941   2.617   4.015   5.305 -0.0016  0.4885 -0.8710
 2827SOL     OW19942   3.593   1.816   9.497  0.5959  0.3293  0.0604
 2827SOL    HW119943   3.612   1.908   9.476  2.0080 -0.1855 -0.9088
 2827SOL    HW219944   3.562   1.786   9.412  2.0135  2.5177 -1.2470
 2828SOL     OW19945   3.973   4.401   8.632 -0.1467 -0.0636  0.4849
 2828SOL    HW119946   4.029   4.388   8.555  0.5292 -2.2141  1.3534
 2828SOL    HW219947   3.986   4.326   8.689  1.4843  0.0012  0.1989
 2829SOL     OW19948   1.393   3.681   3.472 -0.2425 -0.0593 -0.1797
 2829SOL    HW119949   1.487   3.664   3.472 -0.4793 -1.3532  0.9320
 2829SOL    HW219950   1.375   3.647   3.560  1.5992  1.9395  0.9796
 2830SOL     OW19951   3.327   1.091  16.603  0.4960 -0.3858  0.0775
 2830SOL    HW119952   3.413   1.114  16.639  0.3765  3.1167 -1.8583
 2830SOL    HW219953   3.322   0.996  16.614 -1.4825 -0.4718 -1.4270
 2831SOL     OW19954   1.925   0.277   4.904  0.5941  0.1080 -0.9289
 2831SOL    HW119955   1.847   0.280   4.849 -0.5793 -2.5285  0.5636
 2831SOL    HW219956   1.897   0.346   4.964 -2.3220 -2.0198  0.1814
 2832SOL     OW19957   4.338   3.745   3.257  0.1086  0.0610  0.1140
 2832SOL    HW119958   4.381   3.660   3.242 -2.0655 -0.8068 -1.1544
 2832SOL    HW219959   4.406   3.808   3.235  0.4906 -0.5548 -0.4872
 2833SOL     OW19960   1.649   1.350   6.247  0.3815 -0.3244 -0.3978
 2833SOL    HW119961   1.614   1.413   6.311  1.3550  0.7163 -0.8879
 2833SOL    HW219962   1.670   1.268   6.292  0.5375 -0.3048 -0.4345
 2834SOL     OW19963   0.176   2.699   6.635 -0.0638 -0.8942  0.7181
 2834SOL    HW119964   0.218   2.620   6.600 -0.6672 -1.0723  0.4034
 2834SOL    HW219965   0.151   2.666   6.721 -0.9930  2.2575  1.6617
 2835SOL     OW19966   4.380   2.520   2.751 -0.0339  0.6929  0.2412
 2835SOL    HW119967   4.433   2.535   2.829 -0.4669 -0.3595  0.7442
 2835SOL    HW219968   4.438   2.484   2.684  0.1926  2.3066 -0.4167
 2836SOL     OW19969   1.234   0.992   9.096 -0.2623  0.3804  0.1568
 2836SOL    HW119970   1.266   1.077   9.066  2.0315 -1.0038 -1.2402
 2836SOL    HW219971   1.254   0.957   9.010  0.6359 -0.6605  0.7976
 2837SOL     OW19972   0.938   0.551   2.169  0.1875  0.2927 -0.0342
 2837SOL    HW119973   0.918   0.645   2.163 -2.3955 -0.3253 -1.1157
 2837SOL    HW219974   0.880   0.526   2.241  1.2410 -0.5886  0.4903
 2838SOL     OW19975   4.125   2.806   4.817  0.5218 -0.4541 -0.4382
 2838SOL    HW119976   4.203   2.843   4.777 -0.0151 -0.1575 -1.2301
 2838SOL    HW219977   4.101   2.742   4.750  0.9955  1.2253 -2.2100
 2839SOL     OW19978   0.051   0.264  14.723 -0.0190  0.0147  0.0302
 2839SOL    HW119979   4.680   0.264  14.700 -0.1757 -1.7114  0.6621
 2839SOL    HW219980   0.092   0.278  14.637  1.7603  1.3152  1.1125
 2840SOL     OW19981   3.346   1.917   8.713  0.0247 -0.0265  0.0255
 2840SOL    HW119982   3.264   1.962   8.692  0.2391 -0.1274 -1.0350
 2840SOL    HW219983   3.395   1.915   8.631  0.2510  0.9225  0.1356
 2841SOL     OW19984   3.936   1.513   7.383 -0.1349 -0.2415  0.5372
 2841SOL    HW119985   3.954   1.447   7.451 -1.5238 -0.0496  1.0944
 2841SOL    HW219986   3.868   1.472   7.329 -2.1493  0.7081  2.3183
 2842SOL     OW19987   1.137   0.622   9.094  0.1633  0.5502  0.1453
 2842SOL    HW119988   1.124   0.554   9.160  0.4205  1.0350  0.6924
 2842SOL    HW219989   1.118   0.699   9.146  2.0187  1.1118 -0.0124
 2843SOL     OW19990   0.546   3.032   7.486  0.1198 -0.1318 -0.3694
 2843SOL    HW119991   0.491   2.982   7.427 -1.2367 -0.7499  1.4354
 2843SOL    HW219992   0.520   3.122   7.463  1.8620  0.2952 -0.6548
 2844SOL     OW19993   1.343   3.883   5.296 -0.0470  0.2643 -0.1280
 2844SOL    HW119994   1.396   3.866   5.218  1.9072 -1.0969  1.4984
 2844SOL    HW219995   1.406   3.893   5.367 -2.7477  1.6686  2.0860
 2845SOL     OW19996   2.945   0.721  12.777  0.1825  0.2299 -0.3515
 2845SOL    HW119997   2.936   0.788  12.846 -0.9493  0.1509 -0.4227
 2845SOL    HW219998   2.915   0.637  12.811  0.4257  0.1075 -0.4394
 2846SOL     OW19999   4.000   0.673   3.936  0.0730  0.2093 -0.6042
 2846SOL    HW120000   4.022   0.703   3.848  1.4593 -3.5436 -1.5353
 2846SOL    HW220001   3.907   0.696   3.933 -0.5504 -2.2095  0.3121
 2847SOL     OW20002   2.594   1.816   0.008 -0.1003 -0.4179 -0.3327
 2847SOL    HW120003   2.651   1.843  17.626 -2.2727  1.1387 -1.4399
 2847SOL    HW220004   2.510   1.830  17.654 -0.6166  2.0459  1.4291
 2848SOL     OW20005   0.954   3.244   4.114  0.3345  0.2590 -0.0546
 2848SOL    HW120006   0.894   3.201   4.053 -1.7729  1.5346  1.1417
 2848SOL    HW220007   1.037   3.200   4.098 -0.0313 -0.9925  1.6019
 2849SOL     OW20008   1.137   1.123   2.925 -0.0788  0.5022 -0.7547
 2849SOL    HW120009   1.229   1.140   2.903  0.5253  2.9222  3.6194
 2849SOL    HW220010   1.096   1.102   2.842 -3.7034  1.5047  0.7890
 2850SOL     OW20011   0.908   1.415  14.899 -0.1291 -0.2226  0.1293
 2850SOL    HW120012   0.819   1.447  14.911 -0.6531 -1.3419 -0.7665
 2850SOL    HW220013   0.889   1.322  14.910 -2.1660  0.3401  1.1808
 2851SOL     OW20014   2.647   1.394   0.292  0.1940  0.3389 -0.0747
 2851SOL    HW120015   2.737   1.371   0.272 -0.7167 -1.6287 -1.9602
 2851SOL    HW220016   2.662   1.479   0.333 -1.4878  0.1568  0.9402
 2852SOL     OW20017   1.919   1.990   4.956  0.0608  0.3936  0.7777
 2852SOL    HW120018   1.853   2.053   4.985  0.3577  1.3663 -0.7261
 2852SOL    HW220019   1.999   2.041   4.952  1.1070 -1.1753  1.5344
 2853SOL     OW20020   3.158   1.594   7.411  1.0767 -0.0816 -0.3728
 2853SOL    HW120021   3.213   1.646   7.353  0.4487  1.1515  0.1297
 2853SOL    HW220022   3.091   1.661   7.425 -0.6485 -1.7346 -0.6836
 2854SOL     OW20023   2.554   2.275  10.043  0.3042  0.1760  0.3352
 2854SOL    HW120024   2.627   2.317   9.998 -0.1506 -0.7098 -1.2152
 2854SOL    HW220025   2.566   2.181  10.030  0.0203  0.0256  1.1471
 2855SOL     OW20026   4.415   2.228   3.778 -0.5214 -0.8472  0.1474
 2855SOL    HW120027   4.328   2.260   3.799 -0.7761  0.6673 -3.2323
 2855SOL    HW220028   4.413   2.150   3.833  0.6343 -1.8485 -1.2302
 2856SOL     OW20029   0.937   4.545   6.799  0.0233  0.0665 -0.0206
 2856SOL    HW120030   0.880   4.529   6.724 -0.9265 -3.1711  1.4038
 2856SOL    HW220031   1.020   4.509   6.768 -0.6698 -2.8794  1.5733
 2857SOL     OW20032   0.523   1.656   1.573  0.3854  0.0199 -0.6245
 2857SOL    HW120033   0.556   1.621   1.656 -2.9197 -0.1975  0.6064
 2857SOL    HW220034   0.525   1.749   1.596 -0.3519 -0.3220  0.8637
 2858SOL     OW20035   1.244   2.180   2.816  0.1601 -0.1546 -0.0675
 2858SOL    HW120036   1.211   2.177   2.906  0.6898 -3.6317  0.0301
 2858SOL    HW220037   1.303   2.104   2.814  0.0411 -0.2506  0.1113
 2859SOL     OW20038   4.149   2.107   1.488 -0.0403  0.2225  0.1553
 2859SOL    HW120039   4.100   2.159   1.551 -1.6398  1.3233 -1.9689
 2859SOL    HW220040   4.185   2.175   1.431  1.4060 -1.9853 -1.6050
 2860SOL     OW20041   3.111   4.430   3.998  0.4030  0.0436 -0.4196
 2860SOL    HW120042   3.201   4.402   4.014 -0.1449 -1.1880  0.5394
 2860SOL    HW220043   3.092   4.367   3.929 -1.4261 -0.2717  0.3690
 2861SOL     OW20044   1.101   0.695   5.080  0.2012  0.0004  0.2622
 2861SOL    HW120045   1.061   0.612   5.106 -1.8627  1.7814  2.7704
 2861SOL    HW220046   1.193   0.673   5.070  0.0800 -0.2937 -0.2245
 2862SOL     OW20047   1.142   0.165   7.018  0.3690 -0.5351 -0.1886
 2862SOL    HW120048   1.166   0.087   6.969  2.1326  0.1368 -0.4027
 2862SOL    HW220049   1.053   0.171   6.984  1.1410  0.2201 -2.0477
 2863SOL     OW20050   1.995   0.754   6.681  0.3034  0.3827  0.4598
 2863SOL    HW120051   1.954   0.675   6.645  0.4133  0.5200  0.0399
 2863SOL    HW220052   1.975   0.745   6.774  1.9218 -1.8024  0.5849
 2864SOL     OW20053   1.436   1.389   8.780  0.0062 -0.0799  0.0408
 2864SOL    HW120054   1.393   1.381   8.695  1.9006 -0.3936 -0.8809
 2864SOL    HW220055   1.484   1.469   8.762 -0.9804  0.5485  0.1919
 2865SOL     OW20056   0.811   1.962   6.989  0.0543  0.4247 -0.0774
 2865SOL    HW120057   0.720   1.962   7.019 -0.1139 -0.1790 -0.5844
 2865SOL    HW220058   0.843   1.979   7.078  0.0249  0.0866 -0.0003
 2866SOL     OW20059   1.037   2.911   9.201  0.2419  0.1976 -0.0129
 2866SOL    HW120060   1.117   2.863   9.179 -0.8638 -1.0011 -1.4771
 2866SOL    HW220061   1.073   2.999   9.192 -0.9349  0.6678 -0.0903
 2867SOL     OW20062   3.599   0.856   5.712  0.5711  0.0462 -0.3285
 2867SOL    HW120063   3.557   0.778   5.748  2.6381 -1.4181 -1.0772
 2867SOL    HW220064   3.627   0.912   5.785 -0.5117  1.4958 -1.0434
 2868SOL     OW20065   3.526   2.925   4.816  0.1800  0.1173 -0.3019
 2868SOL    HW120066   3.448   2.969   4.849 -0.6236 -1.4199 -0.1769
 2868SOL    HW220067   3.529   2.846   4.870 -1.0984  2.2155  2.8446
 2869SOL     OW20068   1.647   4.198   4.266 -0.7068 -0.2840  0.2739
 2869SOL    HW120069   1.582   4.135   4.298 -2.6714  0.5633 -2.1059
 2869SOL    HW220070   1.674   4.247   4.343  1.7855  0.0342 -0.7910
 2870SOL     OW20071   2.202   2.960   9.813  0.0274  0.3066 -0.7349
 2870SOL    HW120072   2.149   2.884   9.788  1.2949 -0.8481  0.0058
 2870SOL    HW220073   2.187   2.970   9.907  3.0772  1.6189 -0.3824
 2871SOL     OW20074   1.272   2.771   7.571  0.7119  0.2102 -0.5195
 2871SOL    HW120075   1.352   2.792   7.522  1.1642  0.3901  0.2804
 2871SOL    HW220076   1.228   2.853   7.549  0.2649 -0.5892 -2.6142
 2872SOL     OW20077   2.742   3.073   9.162 -0.7124 -0.2423 -0.4489
 2872SOL    HW120078   2.713   2.985   9.137 -0.0615 -1.6794  3.8801
 2872SOL    HW220079   2.837   3.071   9.175 -0.5638 -2.7309 -1.7733
 2873SOL     OW20080   2.570   1.479  16.187 -0.2385 -0.2801  0.9503
 2873SOL    HW120081   2.569   1.570  16.218  0.9982  0.0261  0.1143
 2873SOL    HW220082   2.510   1.470  16.113  1.1018 -0.7695 -0.0841
 2874SOL     OW20083   1.933   3.468   2.015 -0.4411  0.1876  0.4407
 2874SOL    HW120084   2.013   3.518   1.999 -1.0236  0.4489 -1.6871
 2874SOL    HW220085   1.909   3.422   1.934  1.0536  0.3388 -0.0887
 2875SOL     OW20086   1.140   0.668   3.769 -0.4299 -0.5537 -0.0992
 2875SOL    HW120087   1.213   0.619   3.806 -0.2123  0.3505  0.6846
 2875SOL    HW220088   1.096   0.604   3.712  1.2746 -0.8502 -1.0534
 2876SOL     OW20089   2.714   3.307   0.882 -0.2405  0.2369 -0.4130
 2876SOL    HW120090   2.753   3.236   0.832  1.5798 -0.7377  2.3961
 2876SOL    HW220091   2.654   3.344   0.817 -3.5451  1.1520  3.1222
 2877SOL     OW20092   2.959   0.534  11.025  0.1859  0.4363  0.0092
 2877SOL    HW120093   2.984   0.444  11.004 -3.6498 -0.5408 -0.2914
 2877SOL    HW220094   2.889   0.542  10.961  1.4945  0.0719 -1.4845
 2878SOL     OW20095   4.229   2.196   3.392 -0.4859  0.3613  0.0627
 2878SOL    HW120096   4.157   2.256   3.373 -0.2491  0.8624  0.7686
 2878SOL    HW220097   4.199   2.147   3.469  1.4510 -0.8070  0.0771
 2879SOL     OW20098   0.254   2.833   7.808  0.2555 -0.1365 -0.5334
 2879SOL    HW120099   0.178   2.887   7.788 -0.3632 -0.4765  0.9020
 2879SOL    HW220100   0.238   2.759   7.749  0.3104 -1.5177  1.1552
 2880SOL     OW20101   0.984   2.667   8.699  0.3525  0.0757 -0.0197
 2880SOL    HW120102   0.972   2.747   8.751 -1.3348 -0.6743  0.7333
 2880SOL    HW220103   1.060   2.689   8.644 -1.1625  2.6345 -1.0680
 2881SOL     OW20104   0.931   2.721   6.522  0.2852  0.2932 -0.9312
 2881SOL    HW120105   1.008   2.778   6.531  0.8681 -0.5713 -0.3575
 2881SOL    HW220106   0.908   2.730   6.430 -0.2889 -1.9832 -1.0023
 2882SOL     OW20107   0.008   0.144  15.923  0.1098 -0.0212  0.0652
 2882SOL    HW120108   0.002   0.056  15.885  0.5858 -0.1196  0.2168
 2882SOL    HW220109   4.666   0.141  15.994 -1.2879  0.0455 -1.1803
 2883SOL     OW20110   2.793   2.650   3.303  0.3101 -0.0266  0.0196
 2883SOL    HW120111   2.747   2.732   3.321  1.0452 -0.3368  3.3117
 2883SOL    HW220112   2.715   2.598   3.283  0.1139 -0.2183  1.2899
 2884SOL     OW20113   4.429   0.581  10.318 -0.1841  0.2093  0.2867
 2884SOL    HW120114   4.521   0.600  10.333 -0.4096  0.0152  1.9117
 2884SOL    HW220115   4.430   0.486  10.302  1.4060  0.2415  0.1939
 2885SOL     OW20116   3.991   3.142   2.056  0.4472  0.3559 -0.3539
 2885SOL    HW120117   4.021   3.122   1.967  0.6288  0.0828 -0.2333
 2885SOL    HW220118   3.898   3.161   2.056  0.2076 -0.8442  1.4568
 2886SOL     OW20119   3.787   2.066  11.587  0.0039  0.1569  0.8444
 2886SOL    HW120120   3.789   1.976  11.619  1.2957 -0.6980 -1.6814
 2886SOL    HW220121   3.872   2.097  11.617  0.3786 -0.7992  0.7358
 2887SOL     OW20122   3.937   4.230   5.907  0.0207 -0.0548 -0.0512
 2887SOL    HW120123   3.886   4.311   5.907  0.5577  0.2814  0.3430
 2887SOL    HW220124   3.902   4.188   5.985 -1.4064  1.3573  0.0779
 2888SOL     OW20125   0.834   4.541   6.187  0.5202 -0.2774 -0.1266
 2888SOL    HW120126   0.854   4.585   6.269 -0.8828  0.4739 -0.1871
 2888SOL    HW220127   0.794   4.463   6.227  0.2388  0.8858  1.8444
 2889SOL     OW20128   1.883   4.338   9.693 -0.0377 -0.4762 -0.1425
 2889SOL    HW120129   1.791   4.322   9.713 -0.0257  1.1956  1.2402
 2889SOL    HW220130   1.920   4.267   9.747 -1.6953 -2.0797 -1.1201
 2890SOL     OW20131   1.697   0.555   8.223  0.6714 -0.2464  0.2185
 2890SOL    HW120132   1.673   0.463   8.235  1.7452 -0.5276  0.2158
 2890SOL    HW220133   1.687   0.581   8.315  2.9044 -0.0149  0.3937
 2891SOL     OW20134   2.373   0.008   7.620 -0.1146 -0.4823  0.3873
 2891SOL    HW120135   2.374   4.636   7.601 -0.4990 -0.2862 -0.5844
 2891SOL    HW220136   2.433   0.045   7.555 -0.2128 -1.0272 -0.0156
 2892SOL     OW20137   4.408   2.863   2.595 -0.6858 -0.0845 -0.1911
 2892SOL    HW120138   4.493   2.889   2.631  0.0502 -2.2544 -0.3542
 2892SOL    HW220139   4.419   2.768   2.606 -1.0493 -0.0124  0.7315
 2893SOL     OW20140   0.406   4.175  17.296  0.3702 -0.6904 -0.1753
 2893SOL    HW120141   0.323   4.165  17.248  0.1306  0.8608 -0.0561
 2893SOL    HW220142   0.448   4.254  17.265 -1.3808  0.8803  1.4634
 2894SOL     OW20143   1.710   2.350  12.410 -0.3973  1.1055 -0.0736
 2894SOL    HW120144   1.685   2.289  12.341 -3.1742  2.2566 -0.0855
 2894SOL    HW220145   1.797   2.318  12.436  0.0883  1.1649 -1.6559
 2895SOL     OW20146   1.553   2.427   2.980 -0.5530  0.1738  0.5930
 2895SOL    HW120147   1.463   2.457   2.971 -1.0011 -1.9574 -1.9436
 2895SOL    HW220148   1.550   2.332   2.982 -2.3567  0.2111 -0.5669
 2896SOL     OW20149   0.503   2.567  12.549  0.4123 -0.1714  0.2700
 2896SOL    HW120150   0.537   2.498  12.606 -1.0109 -1.1266 -0.0318
 2896SOL    HW220151   0.430   2.603  12.599 -1.4353 -1.9131 -1.1649
 2897SOL     OW20152   2.879   4.463   3.303 -0.3837 -0.4263  0.3258
 2897SOL    HW120153   2.898   4.395   3.368 -1.5206 -1.4709 -0.4310
 2897SOL    HW220154   2.864   4.540   3.359  1.5488 -1.7891  2.7131
 2898SOL     OW20155   2.602   4.288   5.875  0.1028 -0.3328 -0.2568
 2898SOL    HW120156   2.679   4.344   5.868  0.2355 -0.6876 -1.7696
 2898SOL    HW220157   2.545   4.320   5.945  2.8200 -0.9759  2.2425
 2899SOL     OW20158   3.589   3.677   9.163 -0.5021 -0.0043  0.1241
 2899SOL    HW120159   3.585   3.694   9.257 -0.0942 -1.3462  0.3821
 2899SOL    HW220160   3.507   3.628   9.158  0.4842 -1.7879  1.2974
 2900SOL     OW20161   3.336   0.606  13.728 -0.3604  0.2742  0.3522
 2900SOL    HW120162   3.418   0.622  13.775  0.2296 -2.1293  0.1528
 2900SOL    HW220163   3.312   0.515  13.745 -0.1416  0.5790  2.3152
 2901SOL     OW20164   0.989   1.147   3.276 -0.1679 -0.1111  0.0155
 2901SOL    HW120165   0.913   1.194   3.311 -1.2876 -1.2121 -0.9250
 2901SOL    HW220166   1.024   1.202   3.206  1.4016 -1.8936 -0.6061
 2902SOL     OW20167   4.105   0.025   5.564  0.0415  0.1131 -0.8254
 2902SOL    HW120168   4.047   0.061   5.630 -0.7578 -0.4980 -1.1888
 2902SOL    HW220169   4.157   4.693   5.623  1.2025  1.7839 -0.3228
 2903SOL     OW20170   3.989   2.462  11.881 -0.1302 -0.4620  0.4145
 2903SOL    HW120171   4.067   2.490  11.929 -1.1725 -1.6045  2.7564
 2903SOL    HW220172   3.995   2.533  11.816  0.9648 -0.2552  0.7405
 2904SOL     OW20173   3.725   2.112   8.755 -0.0203  0.2899 -0.1004
 2904SOL    HW120174   3.770   2.173   8.814 -0.3800 -0.7401  1.2509
 2904SOL    HW220175   3.638   2.153   8.750 -0.7300 -0.9660  1.6637
 2905SOL     OW20176   1.843   0.443  11.307  0.0596 -0.1333  0.0826
 2905SOL    HW120177   1.830   0.433  11.213  0.5643 -0.6918  0.0705
 2905SOL    HW220178   1.864   0.536  11.318  1.1378 -0.2695 -0.8492
 2906SOL     OW20179   2.725   3.349   4.349 -0.3596 -0.5148  0.5072
 2906SOL    HW120180   2.642   3.395   4.337  0.5772  0.8927 -0.7260
 2906SOL    HW220181   2.739   3.336   4.255  2.0275 -1.7716  1.0480
 2907SOL     OW20182   4.280   3.600   4.517 -0.2074  0.1092  0.0218
 2907SOL    HW120183   4.239   3.655   4.584  0.7445  0.5371  0.2617
 2907SOL    HW220184   4.208   3.562   4.467 -1.3407  0.5598  1.3249
 2908SOL     OW20185   2.372   1.824  12.422 -0.2950  0.1229  0.1277
 2908SOL    HW120186   2.378   1.768  12.500  2.3425 -1.2298 -1.0614
 2908SOL    HW220187   2.304   1.778  12.374 -0.2730 -0.8045  0.9987
 2909SOL     OW20188   3.074   4.667   5.412  0.2442 -0.5421  0.5142
 2909SOL    HW120189   3.073   4.574   5.435  0.5784 -0.9682 -1.1223
 2909SOL    HW220190   3.039   4.659   5.323  0.5890  0.0407  0.3233
 2910SOL     OW20191   3.819   4.083   8.810  0.2294  0.3256 -0.8255
 2910SOL    HW120192   3.913   4.092   8.825 -0.4021 -0.1777  3.3083
 2910SOL    HW220193   3.785   4.160   8.856 -0.2556 -1.1724  1.3211
 2911SOL     OW20194   1.966   2.083  14.713 -0.2450 -0.2159  0.3293
 2911SOL    HW120195   1.961   1.989  14.695 -0.7814 -0.3381  1.1452
 2911SOL    HW220196   1.874   2.095  14.735 -0.8068 -0.4271 -1.8969
 2912SOL     OW20197   2.129   0.658   4.933 -0.0126  0.1669 -0.2078
 2912SOL    HW120198   2.177   0.578   4.912 -1.3935 -0.4338 -1.0235
 2912SOL    HW220199   2.193   0.690   4.997  0.8621 -1.7109 -0.1495
 2913SOL     OW20200   1.181   2.791   3.898  0.3405  0.7332  0.5371
 2913SOL    HW120201   1.206   2.814   3.809  2.4301 -0.2460  0.8755
 2913SOL    HW220202   1.101   2.842   3.913 -0.6469  0.1160 -2.6835
 2914SOL     OW20203   0.860   2.363   5.382 -0.0244  0.2927  0.1442
 2914SOL    HW120204   0.803   2.294   5.349  0.5554 -0.4625  0.7466
 2914SOL    HW220205   0.897   2.305   5.448  0.4600  0.8653  0.3855
 2915SOL     OW20206   3.346   4.573   8.215  0.5817  0.1827  0.3161
 2915SOL    HW120207   3.406   4.533   8.278  1.6469 -0.7346 -1.2948
 2915SOL    HW220208   3.325   4.659   8.252  1.3004  1.0772 -1.3917
 2916SOL     OW20209   4.574   3.475   2.273  0.8582 -0.0495 -0.1274
 2916SOL    HW120210   4.643   3.410   2.269  0.8937 -0.1668  2.9031
 2916SOL    HW220211   4.538   3.470   2.361 -0.4668 -0.2767 -0.6827
 2917SOL     OW20212   1.787   3.800   1.317  0.4784 -0.0327  0.2786
 2917SOL    HW120213   1.737   3.731   1.274 -1.5573  2.5717 -1.5806
 2917SOL    HW220214   1.751   3.883   1.285  0.7366 -0.1170 -0.2394
 2918SOL     OW20215   3.078   3.300   3.938 -0.6151 -0.0901 -0.0542
 2918SOL    HW120216   3.122   3.353   3.871 -1.0911 -0.0472 -0.3338
 2918SOL    HW220217   2.993   3.300   3.894 -1.1380 -1.3211  0.9688
 2919SOL     OW20218   3.455   0.797  10.830  0.2844  0.6216  0.1864
 2919SOL    HW120219   3.545   0.821  10.853  0.5734 -0.3327  0.0151
 2919SOL    HW220220   3.418   0.792  10.918 -1.8347  2.7555 -0.5554
 2920SOL     OW20221   3.390   0.550   7.457 -0.2721  0.6362  0.0597
 2920SOL    HW120222   3.325   0.578   7.523 -0.7026  0.1017 -0.1407
 2920SOL    HW220223   3.334   0.486   7.414  2.5073 -2.2396  0.7546
 2921SOL     OW20224   1.978   1.364   3.009  0.7732  0.1505 -0.1149
 2921SOL    HW120225   2.044   1.347   3.077  0.3009 -0.4916  0.1864
 2921SOL    HW220226   2.013   1.314   2.935  1.2982 -0.4952  0.5656
 2922SOL     OW20227   1.099   1.684   5.470  0.3097  0.8249 -0.3392
 2922SOL    HW120228   1.028   1.714   5.528  0.0198 -1.2531  0.4038
 2922SOL    HW220229   1.170   1.650   5.524 -0.2379 -1.2709 -0.9101
 2923SOL     OW20230   0.165   3.176   5.600  0.2130  0.1418  0.7865
 2923SOL    HW120231   0.233   3.113   5.623  2.0733  2.1373  0.8497
 2923SOL    HW220232   0.088   3.133   5.637 -0.2211  0.8383  0.6920
 2924SOL     OW20233   0.982   3.741   4.361 -0.1255 -0.3514  0.3407
 2924SOL    HW120234   1.054   3.770   4.417 -0.9319 -0.3201  1.3438
 2924SOL    HW220235   0.904   3.780   4.401 -1.0362 -1.3915 -0.4370
 2925SOL     OW20236   0.322   1.378  14.936 -0.3083  0.1648 -0.1082
 2925SOL    HW120237   0.372   1.419  14.865 -2.7400  0.5018 -1.6166
 2925SOL    HW220238   0.243   1.433  14.941 -0.0380  0.6429 -0.9923
 2926SOL     OW20239   4.275   4.403   2.463 -0.1553 -0.0832  0.1800
 2926SOL    HW120240   4.336   4.341   2.422 -0.0210  0.5224 -0.5306
 2926SOL    HW220241   4.237   4.347   2.531  0.6747 -1.9131 -0.8574
 2927SOL     OW20242   3.519   2.284   4.944  0.0109  0.5811 -0.1960
 2927SOL    HW120243   3.524   2.227   5.020 -1.0768 -0.8514 -1.2010
 2927SOL    HW220244   3.573   2.245   4.875 -0.7446  1.5251 -1.3255
 2928SOL     OW20245   4.248   0.235   5.955  0.0801  0.2511 -0.2395
 2928SOL    HW120246   4.157   0.226   5.985  0.4138 -0.8592  0.4466
 2928SOL    HW220247   4.293   0.214   6.037 -0.7072  0.1062  0.1576
 2929SOL     OW20248   2.933   4.035   6.504  0.2622 -0.0861 -0.8055
 2929SOL    HW120249   2.846   4.040   6.465  0.3456  1.3533 -0.8264
 2929SOL    HW220250   2.905   4.066   6.590  0.5620 -0.5142 -0.5513
 2930SOL     OW20251   1.004   3.859   5.093 -0.2181  0.3202  0.4857
 2930SOL    HW120252   1.048   3.788   5.046 -0.3404  1.9211 -2.0376
 2930SOL    HW220253   1.077   3.911   5.127 -1.2515  0.7807  2.0314
 2931SOL     OW20254   4.009   0.560   6.742 -0.4478 -0.2369 -0.5774
 2931SOL    HW120255   4.059   0.620   6.686  0.8260 -1.0786 -0.3328
 2931SOL    HW220256   4.069   0.487   6.729 -0.1149 -0.2088  0.7652
 2932SOL     OW20257   2.443   2.232   8.394 -0.6416 -0.3392 -0.0349
 2932SOL    HW120258   2.519   2.199   8.443 -1.6095  1.8540  2.9671
 2932SOL    HW220259   2.385   2.263   8.464 -1.5253 -0.9523 -0.4956
 2933SOL     OW20260   3.333   2.257   2.820  0.4966 -0.0986  0.0973
 2933SOL    HW120261   3.417   2.288   2.786  0.9841 -1.6746 -0.1118
 2933SOL    HW220262   3.280   2.337   2.822 -0.1283 -0.4659 -1.2757
 2934SOL     OW20263   4.336   2.512   7.396  0.0662 -0.0545  0.0145
 2934SOL    HW120264   4.394   2.581   7.428  0.6386 -1.0970  1.2093
 2934SOL    HW220265   4.392   2.449   7.351  1.4215  0.3185  1.1884
 2935SOL     OW20266   4.722   2.482  14.751 -0.0313  0.4194  0.2934
 2935SOL    HW120267   0.002   2.492  14.847 -0.8226  0.0546  0.3493
 2935SOL    HW220268   4.717   2.575  14.726 -0.8549  0.6418  1.2863
 2936SOL     OW20269   0.743   2.849  17.334  0.5043  0.2951 -0.0920
 2936SOL    HW120270   0.664   2.804  17.303  0.9594 -1.8609  1.9099
 2936SOL    HW220271   0.806   2.807  17.276  1.0057 -0.7601  1.2217
 2937SOL     OW20272   1.066   2.617  12.572 -0.1260 -0.1336 -0.1555
 2937SOL    HW120273   1.087   2.524  12.561  2.3102  0.3911  0.0875
 2937SOL    HW220274   0.977   2.605  12.607 -0.6657  2.5711 -0.6475
 2938SOL     OW20275   3.195   2.684  16.412  0.5991 -0.4327  0.2327
 2938SOL    HW120276   3.262   2.738  16.372 -0.0240 -0.5785 -0.9887
 2938SOL    HW220277   3.236   2.654  16.494 -0.0902  1.5819  1.3037
 2939SOL     OW20278   1.545   1.000   6.655 -0.5441  0.2654 -1.0961
 2939SOL    HW120279   1.637   0.995   6.627 -0.0476  1.4882  0.3090
 2939SOL    HW220280   1.536   1.089   6.688 -1.3395 -0.6465  1.1612
 2940SOL     OW20281   0.709   0.710  10.275  0.1941  0.6436 -0.2191
 2940SOL    HW120282   0.616   0.725  10.291 -0.0285 -1.8989  0.8898
 2940SOL    HW220283   0.715   0.648  10.202  1.7431  1.6646 -0.9755
 2941SOL     OW20284   1.447   0.709   9.551  0.3799  0.0164 -0.4034
 2941SOL    HW120285   1.364   0.662   9.561 -0.5591  1.3454 -1.8280
 2941SOL    HW220286   1.492   0.658   9.618 -0.1367  1.2013  0.8401
 2942SOL     OW20287   3.870   2.526  14.637 -0.0361  0.3886  0.2605
 2942SOL    HW120288   3.818   2.588  14.585 -0.2718  1.6009  1.9546
 2942SOL    HW220289   3.913   2.472  14.570 -0.0473  1.3154 -0.4926
 2943SOL     OW20290   1.259   1.824   1.988  0.9516 -0.1324  0.8169
 2943SOL    HW120291   1.314   1.813   1.910  0.8749 -1.2866  0.9229
 2943SOL    HW220292   1.215   1.904   1.963 -0.1800 -0.5686  1.4021
 2944SOL     OW20293   1.991   3.194   7.354  0.0419 -0.2356  0.3937
 2944SOL    HW120294   1.991   3.104   7.320 -1.5121 -1.1307  2.7816
 2944SOL    HW220295   2.061   3.181   7.417 -0.0894 -1.4083  0.3094
 2945SOL     OW20296   0.314   2.008   2.680 -0.1433 -0.5680  0.1181
 2945SOL    HW120297   0.264   1.928   2.695 -0.1307 -0.2496  1.9009
 2945SOL    HW220298   0.387   2.007   2.742 -1.0182  0.2837  1.1700
 2946SOL     OW20299   1.518   3.646   7.375 -0.1746 -0.3033  0.4365
 2946SOL    HW120300   1.500   3.717   7.438 -0.6219 -0.0719  0.0486
 2946SOL    HW220301   1.566   3.584   7.429 -1.8338 -0.5869  1.6019
 2947SOL     OW20302   2.636   2.826   9.061  0.1360  0.0046 -0.0565
 2947SOL    HW120303   2.572   2.758   9.040 -0.1302 -0.5688  2.5776
 2947SOL    HW220304   2.711   2.802   9.008 -0.0548 -2.3070  0.7187
 2948SOL     OW20305   3.237   3.217   7.163  0.3776  0.0683  0.1961
 2948SOL    HW120306   3.224   3.301   7.118  2.2709 -0.1868 -0.8472
 2948SOL    HW220307   3.290   3.163   7.104  1.8519  0.0392  1.5457
 2949SOL     OW20308   0.360   0.655   9.245 -0.0753  0.2228  0.1882
 2949SOL    HW120309   0.269   0.674   9.221 -0.1851 -0.3023  0.1862
 2949SOL    HW220310   0.392   0.614   9.165 -0.6651 -0.7465  0.4515
 2950SOL     OW20311   0.668   1.483   5.150 -0.1904  0.2409  0.0544
 2950SOL    HW120312   0.672   1.476   5.245 -2.3430  0.2265  0.1212
 2950SOL    HW220313   0.761   1.489   5.125  0.8755 -1.9409  3.4258
 2951SOL     OW20314   1.891   4.152   8.905 -0.1894 -0.7333 -0.2991
 2951SOL    HW120315   1.819   4.113   8.858 -1.0763 -0.3519  0.7381
 2951SOL    HW220316   1.856   4.157   8.994  0.4551 -4.0590  0.1368
 2952SOL     OW20317   0.286   1.597  11.840  0.2161  0.6455 -0.4684
 2952SOL    HW120318   0.367   1.645  11.854  0.4868  0.0479 -0.0281
 2952SOL    HW220319   0.222   1.657  11.801 -0.6256 -1.4363 -2.3279
 2953SOL     OW20320   1.339   0.106   7.893 -0.0853  0.0840  0.1592
 2953SOL    HW120321   1.344   0.186   7.840 -3.0074  0.2617  0.1602
 2953SOL    HW220322   1.432   0.105   7.918 -0.0139  0.5546 -0.0753
 2954SOL     OW20323   3.031   1.484  10.154 -0.3856  0.1724 -0.2448
 2954SOL    HW120324   2.945   1.450  10.130  0.3383 -3.0585  1.7367
 2954SOL    HW220325   3.073   1.479  10.068  0.6540  0.8578  0.2248
 2955SOL     OW20326   2.151   2.963  11.889  0.2977  0.1622 -0.1945
 2955SOL    HW120327   2.097   2.956  11.809 -1.8251  1.1870  1.1407
 2955SOL    HW220328   2.191   3.044  11.858  0.7745 -0.2916 -0.7615
 2956SOL     OW20329   1.173   3.467   9.210 -0.5640 -0.3600 -0.7949
 2956SOL    HW120330   1.105   3.531   9.187 -1.4778 -1.4701 -1.2309
 2956SOL    HW220331   1.130   3.438   9.291  1.3974  1.0300  0.7628
 2957SOL     OW20332   2.167   3.198   6.794 -0.4666  0.8091 -0.5068
 2957SOL    HW120333   2.245   3.253   6.804  1.5895 -2.0377 -0.9493
 2957SOL    HW220334   2.177   3.135   6.866  1.0186 -0.1140 -1.5305
 2958SOL     OW20335   2.757   0.365   3.144 -0.5623  0.4969  0.2281
 2958SOL    HW120336   2.818   0.434   3.171  1.4850 -1.0236 -0.4939
 2958SOL    HW220337   2.749   0.387   3.051  0.6960  1.6856  0.4095
 2959SOL     OW20338   2.178   2.280   3.006 -0.1381 -0.1781 -0.1581
 2959SOL    HW120339   2.235   2.280   2.929 -0.2281 -1.9716 -0.2260
 2959SOL    HW220340   2.146   2.190   2.998  0.8004 -0.4522 -0.9094
 2960SOL     OW20341   1.177   0.423   3.643 -0.3811 -0.0918  0.0773
 2960SOL    HW120342   1.269   0.423   3.615 -0.3821 -2.1488  0.0942
 2960SOL    HW220343   1.150   0.334   3.621  2.1074 -0.6839 -0.5288
 2961SOL     OW20344   2.683   0.989   3.315  0.1071  0.0885 -0.6039
 2961SOL    HW120345   2.767   1.027   3.342  0.2188 -1.3974  1.1626
 2961SOL    HW220346   2.699   0.968   3.223 -1.2229  2.0060 -1.2491
 2962SOL     OW20347   1.672   3.840   4.437  0.0644  0.5472  0.3566
 2962SOL    HW120348   1.594   3.882   4.474 -0.7429 -1.4611  0.9937
 2962SOL    HW220349   1.636   3.794   4.361 -1.3507  0.7310  0.9030
 2963SOL     OW20350   3.342   0.567  14.022 -0.0837 -0.2224 -0.7089
 2963SOL    HW120351   3.406   0.623  13.978 -1.3744 -1.1449 -3.7536
 2963SOL    HW220352   3.372   0.483  13.986  1.7986  0.2270 -0.2013
 2964SOL     OW20353   3.525   0.610   3.016  0.1169  0.4121  0.2008
 2964SOL    HW120354   3.555   0.691   2.976 -1.5857  1.0760  0.2664
 2964SOL    HW220355   3.436   0.630   3.046  0.2647 -0.0843  0.9701
 2965SOL     OW20356   1.342   2.082   2.259 -0.1077  0.7320 -0.6326
 2965SOL    HW120357   1.347   2.049   2.170 -0.0317 -3.5001  0.9590
 2965SOL    HW220358   1.368   2.002   2.304  0.8819  0.4754 -1.6663
 2966SOL     OW20359   0.797   2.530   4.939  0.5065  0.4243 -0.3857
 2966SOL    HW120360   0.719   2.545   4.992  1.8413  1.6446  1.2642
 2966SOL    HW220361   0.867   2.539   5.004 -0.8198  3.1273  0.6622
 2967SOL     OW20362   0.217   2.814   2.635 -0.0767 -0.5021 -1.0562
 2967SOL    HW120363   0.278   2.886   2.653 -0.5998 -0.0897 -0.9222
 2967SOL    HW220364   0.267   2.739   2.606  0.7516 -0.1338 -0.5982
 2968SOL     OW20365   3.990   3.282   5.883 -0.4755 -0.2009  0.2444
 2968SOL    HW120366   4.019   3.288   5.792 -1.0690 -0.5634  0.0322
 2968SOL    HW220367   3.952   3.370   5.888 -2.5469 -1.2550  3.0351
 2969SOL     OW20368   2.853   2.987  14.974  0.3298  0.7060  0.2211
 2969SOL    HW120369   2.895   3.010  14.891 -1.1149  0.9442 -0.4465
 2969SOL    HW220370   2.854   2.892  14.968 -1.7148  0.6344  1.1062
 2970SOL     OW20371   0.327   3.899   9.384  0.1009  0.1227  0.2748
 2970SOL    HW120372   0.263   3.835   9.414 -0.1889  0.2970  0.0287
 2970SOL    HW220373   0.325   3.890   9.289  1.8191 -1.0846  0.3498
 2971SOL     OW20374   0.637   3.345   3.760  0.2393 -0.0408  0.0652
 2971SOL    HW120375   0.562   3.359   3.819 -0.3910  0.6706 -0.9058
 2971SOL    HW220376   0.611   3.281   3.694 -0.3687  0.9375 -0.6470
 2972SOL     OW20377   3.359   3.308  10.048 -0.4346 -0.4581 -0.3508
 2972SOL    HW120378   3.381   3.263   9.966  2.5594  1.2764 -0.5273
 2972SOL    HW220379   3.288   3.256  10.085 -1.5006  1.2049 -0.0743
 2973SOL     OW20380   2.707   1.870   4.675 -0.3553 -0.3109 -0.4293
 2973SOL    HW120381   2.746   1.827   4.598 -2.3865  0.1114 -1.6875
 2973SOL    HW220382   2.775   1.933   4.700 -2.1448  1.5620 -0.3208
 2974SOL     OW20383   3.281   0.502   9.596 -0.2629  0.2798 -0.5759
 2974SOL    HW120384   3.282   0.418   9.550  1.5570  0.1246 -0.2467
 2974SOL    HW220385   3.359   0.546   9.562  0.1659  0.2257  0.3602
 2975SOL     OW20386   2.762   4.276  14.759 -0.9863 -0.7438  0.2120
 2975SOL    HW120387   2.668   4.284  14.775 -0.9616 -0.1185  0.0574
 2975SOL    HW220388   2.793   4.257  14.848  1.3783 -2.0147 -0.8708
 2976SOL     OW20389   3.800   3.841   7.694  0.5523  0.4311  0.0824
 2976SOL    HW120390   3.800   3.847   7.789  0.4459  3.3242 -0.1022
 2976SOL    HW220391   3.841   3.756   7.681 -1.1961 -0.4054  0.1192
 2977SOL     OW20392   0.602   3.110   8.136  0.7513 -0.3808 -0.6318
 2977SOL    HW120393   0.691   3.126   8.106  0.5122  1.7453 -0.1967
 2977SOL    HW220394   0.597   3.017   8.110  1.0324 -1.0856  1.8495
 2978SOL     OW20395   4.111   3.260   7.418 -0.0602  0.2228 -0.0029
 2978SOL    HW120396   4.168   3.212   7.358 -1.4669 -0.4561 -0.7783
 2978SOL    HW220397   4.025   3.241   7.381 -1.1034  0.9841  1.9876
 2979SOL     OW20398   0.972   1.919   3.251  0.1844 -0.2449  0.4142
 2979SOL    HW120399   0.921   1.990   3.289  0.4784 -0.2071  0.7345
 2979SOL    HW220400   0.997   1.871   3.330 -1.5886 -2.4153 -0.3290
 2980SOL     OW20401   0.140   1.812   7.059  0.4728 -0.3264 -0.3735
 2980SOL    HW120402   0.162   1.836   7.149 -0.2132 -0.1100 -0.2663
 2980SOL    HW220403   0.069   1.870   7.033  1.7927  0.6716 -1.7845
 2981SOL     OW20404   1.219   1.433  11.498  1.0404 -0.0615 -0.4016
 2981SOL    HW120405   1.184   1.522  11.486 -1.2479 -0.9006  0.0336
 2981SOL    HW220406   1.233   1.419  11.405 -3.2575 -0.5832 -0.9333
 2982SOL     OW20407   4.194   1.659   0.473 -0.5183  0.1043  0.3473
 2982SOL    HW120408   4.217   1.653   0.566 -2.3951 -0.5679  0.7680
 2982SOL    HW220409   4.112   1.610   0.467  0.1165 -0.8331 -0.7136
 2983SOL     OW20410   2.044   4.096   5.616 -0.2364 -0.1292 -0.9851
 2983SOL    HW120411   2.127   4.058   5.587 -0.1263 -0.4319 -0.2674
 2983SOL    HW220412   2.071   4.150   5.690  1.4021  1.2749 -2.5953
 2984SOL     OW20413   4.331   3.200   1.671  0.0318 -0.3324  0.5169
 2984SOL    HW120414   4.319   3.125   1.612 -0.1539  1.5103 -1.8198
 2984SOL    HW220415   4.423   3.186   1.695  0.1045 -3.7651 -1.7509
 2985SOL     OW20416   0.024   0.638  12.597  0.2183  0.0795 -0.0013
 2985SOL    HW120417   0.050   0.700  12.665 -0.1376 -0.4993  0.6648
 2985SOL    HW220418   0.093   0.576  12.621  0.5294  0.1143 -0.8185
 2986SOL     OW20419   1.487   0.229  12.331  0.8416 -0.6079 -0.1212
 2986SOL    HW120420   1.466   0.268  12.246  0.7701 -0.4640 -0.0378
 2986SOL    HW220421   1.472   0.303  12.390  0.6677 -1.3063  0.7058
 2987SOL     OW20422   1.124   1.253   7.948  0.4198 -0.2844  0.1277
 2987SOL    HW120423   1.052   1.305   7.984  0.3270  0.1064 -0.6218
 2987SOL    HW220424   1.096   1.238   7.858 -0.6445  2.0942  0.0641
 2988SOL     OW20425   0.505   1.641  14.323  0.4351 -0.2519  0.1641
 2988SOL    HW120426   0.582   1.587  14.339  1.5052  2.0761  2.8650
 2988SOL    HW220427   0.443   1.601  14.383 -0.3183 -2.1253 -1.8620
 2989SOL     OW20428   0.258   2.649   8.427 -0.2976 -0.5366 -0.1040
 2989SOL    HW120429   0.343   2.688   8.447 -1.0850  1.0708  0.1368
 2989SOL    HW220430   0.287   2.577   8.372  0.4226  0.0233 -0.4678
 2990SOL     OW20431   1.786   3.038  15.597  0.4810 -0.2443 -0.1201
 2990SOL    HW120432   1.793   2.993  15.512  0.9395  0.4098 -0.4290
 2990SOL    HW220433   1.870   3.083  15.609 -0.4150  1.4929 -0.3930
 2991SOL     OW20434   4.458   3.382   4.777  0.3431  0.3372 -0.3398
 2991SOL    HW120435   4.431   3.384   4.869 -0.7961  0.6893 -0.6847
 2991SOL    HW220436   4.461   3.477   4.767  0.6749  0.5820  2.0287
 2992SOL     OW20437   1.611   0.340   4.489 -0.2498 -0.2270  0.3987
 2992SOL    HW120438   1.530   0.300   4.457 -0.4113 -1.0846  1.8695
 2992SOL    HW220439   1.641   0.264   4.539  0.4532  1.3029  2.3314
 2993SOL     OW20440   2.297   2.939  17.472  0.1868 -0.1890  0.0336
 2993SOL    HW120441   2.212   2.983  17.464 -1.0881 -3.0072 -2.4709
 2993SOL    HW220442   2.301   2.893  17.387  1.4392  1.5067 -0.8222
 2994SOL     OW20443   2.516   0.552   7.040  0.0015  0.0025 -0.6087
 2994SOL    HW120444   2.455   0.590   6.975 -1.3045 -0.7593  0.1678
 2994SOL    HW220445   2.521   0.628   7.098  2.7317  0.4102 -1.4129
 2995SOL     OW20446   0.499   2.736   9.147  0.1730  0.0364  0.4143
 2995SOL    HW120447   0.570   2.733   9.083  0.1746 -1.0932  0.4604
 2995SOL    HW220448   0.426   2.782   9.106  0.4850 -0.2568 -0.4775
 2996SOL     OW20449   3.275   0.149   2.958  0.1898  0.0945 -0.4731
 2996SOL    HW120450   3.324   0.229   2.978 -0.6923  0.3288  0.8043
 2996SOL    HW220451   3.243   0.122   3.044 -0.4087  3.6554  0.4171
 2997SOL     OW20452   3.352   0.292   8.050  0.1845 -0.4548 -0.3220
 2997SOL    HW120453   3.410   0.357   8.088  0.3202 -0.6151 -0.2569
 2997SOL    HW220454   3.387   0.311   7.963  0.9589  0.6116  0.2252
 2998SOL     OW20455   4.288   3.147   5.470 -0.5276  0.7499 -0.3218
 2998SOL    HW120456   4.320   3.107   5.551 -1.8782 -0.8790 -0.5659
 2998SOL    HW220457   4.354   3.117   5.408 -0.5322 -3.0454  1.4408
 2999SOL     OW20458   3.330   0.984   2.994  0.0131 -0.0860 -1.0190
 2999SOL    HW120459   3.345   1.070   2.954 -0.6372  0.4420 -0.1347
 2999SOL    HW220460   3.406   0.936   2.961  0.5909 -0.0144  0.2352
 3000SOL     OW20461   3.079   2.744  11.544  0.1205 -0.6613  0.2642
 3000SOL    HW120462   3.039   2.680  11.603  2.1561 -1.4562  0.7591
 3000SOL    HW220463   3.169   2.726  11.571 -0.6110 -2.8608  1.2238
 3001SOL     OW20464   1.345   4.065   3.618  0.2511  0.2484  0.3407
 3001SOL    HW120465   1.316   4.152   3.591  0.4352 -0.2498 -1.4543
 3001SOL    HW220466   1.438   4.082   3.632  0.7000 -2.0410  0.1620
 3002SOL     OW20467   2.191   2.094   1.305 -0.2793  0.0553  0.1463
 3002SOL    HW120468   2.140   2.124   1.380  0.0003 -2.6539  1.4113
 3002SOL    HW220469   2.275   2.114   1.347 -0.4779  3.5925 -1.1423
 3003SOL     OW20470   1.370   0.634   5.082 -0.2423 -0.2887 -0.3078
 3003SOL    HW120471   1.452   0.608   5.124  0.6080 -1.1179 -2.4553
 3003SOL    HW220472   1.405   0.606   4.997 -1.3316 -0.4864 -0.6951
 3004SOL     OW20473   4.408   3.100   3.963 -0.5185  0.0402  0.1486
 3004SOL    HW120474   4.410   3.152   4.043 -3.1063  0.8638 -0.3331
 3004SOL    HW220475   4.391   3.011   3.995  0.6927  0.7520  2.7749
 3005SOL     OW20476   2.413   0.796  16.136  0.0301  0.0791  0.1997
 3005SOL    HW120477   2.450   0.875  16.095 -1.8495  0.9761  0.2441
 3005SOL    HW220478   2.487   0.766  16.189  0.0093 -1.5661 -0.6999
 3006SOL     OW20479   0.052   0.050   8.774 -0.1956  0.2884  0.1296
 3006SOL    HW120480   0.078   0.032   8.684 -0.8110 -0.5813  0.1236
 3006SOL    HW220481   4.680   0.057   8.759  0.1839  0.0626 -2.4636
 3007SOL     OW20482   3.889   3.400   9.259 -0.5021  0.2984 -0.3017
 3007SOL    HW120483   3.902   3.311   9.226 -1.7041 -0.1116  0.3237
 3007SOL    HW220484   3.817   3.378   9.318  1.1667  1.3702  2.1057
 3008SOL     OW20485   2.593   0.045   5.971 -0.2373  0.1162  0.1101
 3008SOL    HW120486   2.615   0.136   5.949 -2.6270  0.9068  1.0387
 3008SOL    HW220487   2.673   0.002   5.939  0.3335  1.7441 -0.6608
 3009SOL     OW20488   3.495   3.458  16.210 -0.2602 -0.5127  0.2345
 3009SOL    HW120489   3.457   3.469  16.122  0.2764 -1.1260 -0.0683
 3009SOL    HW220490   3.452   3.378  16.240  0.3256 -0.6424  0.7210
 3010SOL     OW20491   2.626   3.356   1.279 -0.5437 -0.3931 -0.3065
 3010SOL    HW120492   2.574   3.426   1.240  0.4223  0.3827 -0.1882
 3010SOL    HW220493   2.599   3.284   1.221 -1.7217 -1.4617  1.5930
 3011SOL     OW20494   1.468   4.413   2.770  0.4953 -0.2014  0.3057
 3011SOL    HW120495   1.393   4.446   2.820 -0.3570 -0.3222 -0.8723
 3011SOL    HW220496   1.425   4.376   2.693  0.9615 -1.1256  0.4902
 3012SOL     OW20497   1.480   2.936   3.857 -0.5231  0.4117  0.4379
 3012SOL    HW120498   1.544   2.939   3.786  0.5310  0.2076  1.3898
 3012SOL    HW220499   1.403   2.914   3.804 -0.2927 -0.2434  0.3784
 3013SOL     OW20500   4.462   2.899  13.151 -0.4341 -0.0708  0.0266
 3013SOL    HW120501   4.520   2.961  13.108 -0.7315  0.5345  0.4954
 3013SOL    HW220502   4.378   2.923  13.112 -0.3936  0.8360  0.4998
 3014SOL     OW20503   2.783   1.165  12.176 -0.4523 -0.5019 -0.1630
 3014SOL    HW120504   2.871   1.195  12.156  0.0877 -1.5802  0.6392
 3014SOL    HW220505   2.804   1.080  12.214  0.0825 -0.0576  0.5236
 3015SOL     OW20506   2.437   4.325   4.288 -0.3685 -0.1369 -0.0115
 3015SOL    HW120507   2.342   4.322   4.273 -0.5792  2.7480  0.9134
 3015SOL    HW220508   2.454   4.400   4.231  0.0853 -0.0458  0.2418
 3016SOL     OW20509   2.072   3.697   8.901 -0.1960  0.2867  0.1188
 3016SOL    HW120510   2.138   3.647   8.854 -0.2624  2.0630 -1.8416
 3016SOL    HW220511   2.119   3.780   8.911  1.1218 -0.3293 -1.0048
 3017SOL     OW20512   4.680   0.131   5.235 -0.0493  0.4896  0.0297
 3017SOL    HW120513   4.642   0.096   5.155  1.5447  1.9800 -1.3759
 3017SOL    HW220514   4.664   0.225   5.223 -0.7404  0.3491 -0.1293
 3018SOL     OW20515   3.245   4.291   7.431  0.5391 -0.1244  0.4549
 3018SOL    HW120516   3.156   4.309   7.460 -0.1120 -0.6656 -1.1698
 3018SOL    HW220517   3.249   4.368   7.375 -0.8472 -2.0723 -2.3489
 3019SOL     OW20518   0.514   3.959   8.283 -0.0335  0.1152 -0.0828
 3019SOL    HW120519   0.427   3.935   8.315 -0.1285 -1.1295 -1.2790
 3019SOL    HW220520   0.554   3.873   8.271  0.1723  0.1250  0.5099
 3020SOL     OW20521   0.222   2.247   2.819 -0.5680 -0.1871 -0.2039
 3020SOL    HW120522   0.232   2.159   2.783  2.7140  0.2053 -0.2595
 3020SOL    HW220523   0.206   2.216   2.908 -3.0295  0.8960 -0.2624
 3021SOL     OW20524   4.203   0.408   0.230 -0.3436  0.3210  0.0773
 3021SOL    HW120525   4.233   0.321   0.256 -0.5903  0.7017  1.6191
 3021SOL    HW220526   4.259   0.466   0.282 -0.4242  2.1596 -1.8867
 3022SOL     OW20527   3.032   0.913   4.757  0.2079  0.7860 -0.0614
 3022SOL    HW120528   2.945   0.879   4.736 -0.4812  1.2501  2.1346
 3022SOL    HW220529   3.068   0.945   4.674 -1.2650  0.1407 -0.9625
 3023SOL     OW20530   4.193   2.483  16.874  0.1382 -0.0761  0.3152
 3023SOL    HW120531   4.235   2.464  16.958 -1.4744  0.6306  1.2707
 3023SOL    HW220532   4.215   2.395  16.841 -2.5104 -0.0636 -1.4475
 3024SOL     OW20533   0.556   1.407   8.217 -0.0321  0.2018  0.2030
 3024SOL    HW120534   0.539   1.432   8.308 -0.9675  0.6712 -0.1029
 3024SOL    HW220535   0.596   1.323   8.239  0.1032  0.5321  1.2164
 3025SOL     OW20536   2.112   2.915   2.578  0.4408  0.1632 -0.1708
 3025SOL    HW120537   2.181   2.965   2.620  1.2217 -1.0011 -0.0748
 3025SOL    HW220538   2.102   2.969   2.499  0.3547 -0.6223 -0.6966
 3026SOL     OW20539   4.561   3.385   5.632  0.1089 -0.1530  0.3810
 3026SOL    HW120540   4.525   3.419   5.550 -0.9526 -1.4001  0.3192
 3026SOL    HW220541   4.609   3.311   5.595 -1.7139  0.3698 -3.0930
 3027SOL     OW20542   3.758   4.317   8.925 -0.2343 -0.0611  0.5056
 3027SOL    HW120543   3.719   4.305   9.011  0.5125 -1.9314  0.5911
 3027SOL    HW220544   3.745   4.412   8.920 -2.0957 -0.2110  2.5369
 3028SOL     OW20545   0.591   0.785   5.467  0.0995  0.5262  0.1531
 3028SOL    HW120546   0.665   0.845   5.478  1.0322 -0.3030 -1.5557
 3028SOL    HW220547   0.515   0.843   5.471 -2.4405 -2.6463 -3.0992
 3029SOL     OW20548   2.573   1.563  17.573 -0.7439  0.3857 -0.1711
 3029SOL    HW120549   2.510   1.500  17.607 -1.7810  1.1610 -0.6631
 3029SOL    HW220550   2.588   1.625  17.644  0.2596  0.2011 -0.2189
 3030SOL     OW20551   1.772   4.329  11.604  0.1411 -0.5137 -0.1044
 3030SOL    HW120552   1.826   4.285  11.538  0.8855 -1.3326  1.0301
 3030SOL    HW220553   1.792   4.421  11.587  0.1367 -0.1201  2.0645
 3031SOL     OW20554   0.967   3.700   8.422 -0.4084  0.1254  0.0189
 3031SOL    HW120555   0.906   3.678   8.351 -0.0105 -2.8320  0.5835
 3031SOL    HW220556   1.033   3.632   8.412 -0.4223  0.2958 -1.1952
 3032SOL     OW20557   0.824   0.500   1.544  0.4855  0.3351 -0.0800
 3032SOL    HW120558   0.734   0.515   1.572  0.6111  3.2048 -1.2912
 3032SOL    HW220559   0.851   0.418   1.585  3.2514  1.4624  0.3674
 3033SOL     OW20560   3.965   1.984   2.571 -0.2782  0.0859  0.3393
 3033SOL    HW120561   3.933   1.908   2.521  0.9328  0.7304 -1.4375
 3033SOL    HW220562   4.001   2.031   2.496  0.7842 -2.5782 -0.8246
 3034SOL     OW20563   2.738   4.077  16.316 -0.0248 -0.3850 -0.3839
 3034SOL    HW120564   2.800   4.149  16.332 -0.1403 -0.3387 -0.1439
 3034SOL    HW220565   2.669   4.104  16.377  1.6180 -0.0764  1.3345
 3035SOL     OW20566   3.988   4.139   4.045  0.0740  0.1854  0.1536
 3035SOL    HW120567   3.899   4.129   4.078  0.5124  0.2062  1.3258
 3035SOL    HW220568   3.994   4.233   4.059 -0.9381  0.7159 -2.8777
 3036SOL     OW20569   2.413   4.582  11.504  0.3215 -0.5243 -0.4383
 3036SOL    HW120570   2.414   4.649  11.435 -1.7635 -0.6550 -0.5847
 3036SOL    HW220571   2.322   4.554  11.496  0.0380  0.2873 -0.1119
 3037SOL     OW20572   1.470   4.568   2.340 -0.1825 -0.1337  0.1862
 3037SOL    HW120573   1.400   4.629   2.365 -1.6000 -1.6677 -0.0785
 3037SOL    HW220574   1.409   4.498   2.318 -0.2765 -0.3172  1.0087
 3038SOL     OW20575   1.065   4.515   3.631 -0.2007  0.6519  0.5279
 3038SOL    HW120576   1.014   4.515   3.712 -0.5386  0.8062  0.3145
 3038SOL    HW220577   1.011   4.561   3.567 -0.5765 -1.1359 -0.4060
 3039SOL     OW20578   3.967   2.327   6.979  0.3675  0.5383  0.0461
 3039SOL    HW120579   3.963   2.410   6.931 -1.4350  0.5611  0.2225
 3039SOL    HW220580   3.909   2.336   7.055 -2.5070 -0.3209 -2.0767
 3040SOL     OW20581   1.738   3.761   5.752 -0.5957  0.5677 -0.7087
 3040SOL    HW120582   1.807   3.734   5.691  0.8431 -2.1315  2.1179
 3040SOL    HW220583   1.783   3.726   5.829 -1.2849  0.0484 -0.5461
 3041SOL     OW20584   0.578   1.549  10.997 -0.3091 -0.1882 -0.0458
 3041SOL    HW120585   0.590   1.458  11.027  1.4099  0.5570  1.5757
 3041SOL    HW220586   0.663   1.558  10.954 -0.7967  0.6934 -0.8088
 3042SOL     OW20587   2.341   3.618   5.380  0.2038 -0.1952 -0.5091
 3042SOL    HW120588   2.400   3.562   5.430 -0.1822 -1.5459 -1.5598
 3042SOL    HW220589   2.373   3.699   5.419  0.7544  0.0737 -1.5196
 3043SOL     OW20590   0.578   2.790   1.753 -0.4919  0.0130 -0.1537
 3043SOL    HW120591   0.630   2.712   1.770  0.3063  0.6380  0.2870
 3043SOL    HW220592   0.573   2.833   1.838  1.5643  2.7600 -1.4271
 3044SOL     OW20593   2.559   0.054   6.309  0.0893 -0.3050 -0.0576
 3044SOL    HW120594   2.553   4.682   6.290  1.1610  0.0530 -2.1896
 3044SOL    HW220595   2.654   0.066   6.307  0.1459 -0.8377 -0.7409
 3045SOL     OW20596   0.612   0.040  17.228 -0.1753  0.4313 -0.2582
 3045SOL    HW120597   0.656   0.124  17.235  0.0845  0.2263  0.5708
 3045SOL    HW220598   0.608   0.016  17.320 -0.5207 -0.4252 -0.4933
 3046SOL     OW20599   3.342   1.386  16.976  0.0551  0.3123 -0.2640
 3046SOL    HW120600   3.345   1.290  16.969 -2.8098  0.1021  1.4274
 3046SOL    HW220601   3.266   1.390  17.034  0.8659  1.4881  0.7138
 3047SOL     OW20602   2.503   4.534   4.081 -0.6641 -0.2568  0.3710
 3047SOL    HW120603   2.431   4.535   4.018  0.9929  2.1108 -1.5176
 3047SOL    HW220604   2.578   4.544   4.022  1.2388 -0.7486  2.7394
 3048SOL     OW20605   3.646   3.671   2.106  0.0922  0.0643  0.1758
 3048SOL    HW120606   3.614   3.660   2.017  1.6072  0.8986 -0.4720
 3048SOL    HW220607   3.740   3.687   2.095  0.0829  1.2004  1.6593
 3049SOL     OW20608   4.187   3.765   3.040  0.8328 -0.3647 -0.4059
 3049SOL    HW120609   4.241   3.709   2.983  0.5620 -1.0522  0.0248
 3049SOL    HW220610   4.240   3.767   3.120  1.7227  0.4649 -1.0077
 3050SOL     OW20611   4.634   1.343   3.985 -0.8057 -0.0874 -0.3365
 3050SOL    HW120612   4.618   1.348   4.079  2.3696  0.4498  0.1785
 3050SOL    HW220613   0.003   1.313   3.980 -0.3350  1.2695  0.0773
 3051SOL     OW20614   1.245   0.699   2.645  0.3651 -0.1741 -0.2893
 3051SOL    HW120615   1.334   0.715   2.612  0.4544 -1.6162 -0.7595
 3051SOL    HW220616   1.246   0.710   2.740 -0.9469 -1.7792 -0.0935
 3052SOL     OW20617   0.256   2.625  14.579  0.3011 -0.4625 -0.4309
 3052SOL    HW120618   0.236   2.557  14.514 -2.3212  0.4790 -0.5896
 3052SOL    HW220619   0.172   2.663  14.601  1.4392  0.8772  1.5272
 3053SOL     OW20620   2.383   3.106   9.680 -0.0177 -0.0488  0.7787
 3053SOL    HW120621   2.352   3.074   9.595  0.3645  0.5494  0.4150
 3053SOL    HW220622   2.317   3.075   9.742  1.8412 -2.1917  1.7154
 3054SOL     OW20623   1.358   2.113   7.229 -0.2199 -0.5737 -0.2388
 3054SOL    HW120624   1.354   2.111   7.325  0.8186  2.0059 -0.1455
 3054SOL    HW220625   1.427   2.179   7.230  0.4246 -1.2642  1.6327
 3055SOL     OW20626   2.380   3.224  11.112  0.1010  0.2020 -0.3782
 3055SOL    HW120627   2.296   3.254  11.079 -0.1726  0.5043  0.6279
 3055SOL    HW220628   2.361   3.195  11.201  0.4252  0.5843 -0.1829
 3056SOL     OW20629   2.216   0.261  12.081  0.1257  0.2865  0.1883
 3056SOL    HW120630   2.182   0.275  12.169 -1.2449  1.2848 -0.5109
 3056SOL    HW220631   2.143   0.281  12.023  0.0145  3.0340  1.2666
 3057SOL     OW20632   0.061   0.553   7.739  0.0002  0.7719 -0.0385
 3057SOL    HW120633   4.718   0.612   7.778 -1.2716 -0.4724 -0.2647
 3057SOL    HW220634   0.104   0.503   7.809  0.9911  0.6780 -0.7202
 3058SOL     OW20635   0.322   4.531  11.019 -0.0664 -0.3546 -0.4357
 3058SOL    HW120636   0.375   4.454  10.998 -0.2198  0.2281 -2.8952
 3058SOL    HW220637   0.341   4.591  10.947 -0.6715 -1.0906 -1.2150
 3059SOL     OW20638   3.284   1.065   6.758 -0.1430 -0.3686  0.1824
 3059SOL    HW120639   3.316   1.103   6.840  0.2162  1.2243 -0.6857
 3059SOL    HW220640   3.353   1.105   6.705 -0.4327 -1.6981 -1.2044
 3060SOL     OW20641   3.379   0.745   8.402 -0.1555 -0.1465  0.0046
 3060SOL    HW120642   3.305   0.737   8.341  1.2114  0.7321 -1.7783
 3060SOL    HW220643   3.370   0.664   8.453  0.7905 -0.5917 -0.5373
 3061SOL     OW20644   3.904   4.118  15.301 -0.0609 -0.2080  0.5979
 3061SOL    HW120645   3.831   4.093  15.245 -1.4396 -0.0603  2.3219
 3061SOL    HW220646   3.865   4.129  15.388 -0.3209  0.9359  0.3330
 3062SOL     OW20647   2.264   1.317   1.864  0.4034  0.0151 -0.8618
 3062SOL    HW120648   2.219   1.310   1.780  1.7371 -1.3606 -1.4585
 3062SOL    HW220649   2.346   1.275   1.838 -0.7970 -1.3590 -2.4208
 3063SOL     OW20650   0.822   4.098  15.141 -0.4147  0.2642 -0.1450
 3063SOL    HW120651   0.781   4.057  15.217 -2.6258 -0.5905 -1.8028
 3063SOL    HW220652   0.795   4.043  15.067  1.0342  1.3182 -1.4441
 3064SOL     OW20653   3.556   1.508   2.418 -0.4605  0.4029  0.3356
 3064SOL    HW120654   3.605   1.567   2.476 -0.9283  2.1953 -1.1084
 3064SOL    HW220655   3.607   1.522   2.338 -1.7530 -1.7963 -0.8494
 3065SOL     OW20656   1.548   0.178   5.070 -0.0077  0.1461  0.0160
 3065SOL    HW120657   1.604   0.183   5.147  0.1068 -2.3968  0.0929
 3065SOL    HW220658   1.561   0.086   5.048  0.0599  0.3427 -0.7777
 3066SOL     OW20659   4.358   2.589   3.530 -0.0114 -0.1132 -0.0252
 3066SOL    HW120660   4.267   2.579   3.559 -0.3835 -0.7754 -1.4418
 3066SOL    HW220661   4.397   2.563   3.614  2.1050  3.7095  0.1905
 3067SOL     OW20662   0.358   2.910   7.331 -0.2992 -0.2387 -0.0425
 3067SOL    HW120663   0.371   2.924   7.237 -1.1010  0.3268 -0.0707
 3067SOL    HW220664   0.314   2.825   7.339 -0.3913 -0.3254 -1.3947
 3068SOL     OW20665   0.675   2.447  11.762 -0.0355  0.5581  0.2230
 3068SOL    HW120666   0.587   2.433  11.727  1.0322  0.0169 -2.2666
 3068SOL    HW220667   0.689   2.535  11.726  2.8498 -0.8391 -1.9898
 3069SOL     OW20668   0.407   2.840   0.957  0.4439  0.1755 -0.0642
 3069SOL    HW120669   0.392   2.772   0.891  0.8608  0.7465 -0.7430
 3069SOL    HW220670   0.421   2.785   1.034 -0.5667  0.5501  0.3815
 3070SOL     OW20671   4.339   3.286   4.187 -0.0801  0.2860 -0.5553
 3070SOL    HW120672   4.245   3.295   4.203 -0.2533 -1.6673 -0.4811
 3070SOL    HW220673   4.377   3.311   4.271  2.0352 -1.5458 -0.9602
 3071SOL     OW20674   4.226   0.784   9.810 -0.0606 -1.0051  0.0863
 3071SOL    HW120675   4.130   0.779   9.805 -0.1663  0.0540  1.0014
 3071SOL    HW220676   4.235   0.805   9.903 -0.0006  1.6661 -0.5271
 3072SOL     OW20677   0.881   0.062  11.874 -0.0714  0.0128 -1.0329
 3072SOL    HW120678   0.857   0.068  11.781 -1.3060 -1.1791 -0.7869
 3072SOL    HW220679   0.976   0.065  11.861  0.0083  1.4006 -0.0899
 3073SOL     OW20680   0.292   2.717  12.597 -0.1407 -0.4153 -0.0835
 3073SOL    HW120681   0.211   2.739  12.643 -1.7715 -0.9443 -2.7391
 3073SOL    HW220682   0.264   2.756  12.514  2.8896  0.1940 -0.8219
 3074SOL     OW20683   0.818   0.144   9.354  0.3606  0.2126  0.1394
 3074SOL    HW120684   0.741   0.188   9.317 -1.7088 -2.8459  0.8233
 3074SOL    HW220685   0.798   0.063   9.308 -0.6337 -0.1437  1.1913
 3075SOL     OW20686   3.257   0.631   4.714  0.2916 -0.1859  0.2496
 3075SOL    HW120687   3.342   0.668   4.737  0.3842 -0.4682  0.3665
 3075SOL    HW220688   3.207   0.713   4.711 -0.3037 -0.5603 -0.0685
 3076SOL     OW20689   0.281   3.387  10.371 -0.5207  0.7389 -0.4197
 3076SOL    HW120690   0.284   3.391  10.276 -1.9374 -0.1099 -0.4913
 3076SOL    HW220691   0.373   3.371  10.396  0.3598  0.6650 -3.7146
 3077SOL     OW20692   4.350   1.221   3.929 -0.0221 -0.0668 -0.0096
 3077SOL    HW120693   4.325   1.171   4.007  1.9528 -1.1219 -0.0618
 3077SOL    HW220694   4.441   1.236   3.953 -0.2524  1.7648 -0.2815
 3078SOL     OW20695   2.427   2.760   4.127  0.1244  0.2030  0.2319
 3078SOL    HW120696   2.356   2.742   4.065 -0.2461 -1.3637  1.1253
 3078SOL    HW220697   2.369   2.808   4.186 -1.6513 -0.5910 -0.8508
 3079SOL     OW20698   3.481   2.025   5.743  0.0282  0.3886 -0.8268
 3079SOL    HW120699   3.558   2.007   5.688 -0.2306  2.6166 -1.9311
 3079SOL    HW220700   3.506   1.967   5.814 -1.3010 -1.2186 -1.6794
 3080SOL     OW20701   3.941   0.041   2.398 -0.0692  0.3038 -0.4011
 3080SOL    HW120702   3.859   0.051   2.349  0.6936  1.6651 -1.3731
 3080SOL    HW220703   3.958   0.134   2.412  0.8715  0.1784 -0.7533
 3081SOL     OW20704   1.884   0.904   5.265  0.0366  0.2950  0.1193
 3081SOL    HW120705   1.857   0.996   5.261 -2.1116 -0.3276  0.7603
 3081SOL    HW220706   1.980   0.910   5.269  0.0415  1.0184 -1.0020
 3082SOL     OW20707   1.527   2.248  17.558 -0.3152  0.1059 -0.0567
 3082SOL    HW120708   1.474   2.239  17.637  0.9220 -1.0616  0.6547
 3082SOL    HW220709   1.597   2.185  17.576 -0.9211 -0.3418  0.7108
 3083SOL     OW20710   3.875   0.791   5.139  0.2333  0.8587 -0.2719
 3083SOL    HW120711   3.902   0.862   5.197 -0.9364  2.3097 -1.5312
 3083SOL    HW220712   3.855   0.725   5.206  1.4223 -0.0784 -0.8344
 3084SOL     OW20713   3.398   4.200  14.228  0.1976 -0.1916 -0.2823
 3084SOL    HW120714   3.399   4.171  14.137 -3.0926  0.0947 -0.4348
 3084SOL    HW220715   3.489   4.211  14.255  0.0878 -0.8061  0.3045
 3085SOL     OW20716   4.345   0.068   9.184  0.1904  0.2460  0.1958
 3085SOL    HW120717   4.260   0.104   9.207 -1.5969 -1.6834 -3.4412
 3085SOL    HW220718   4.326   0.028   9.099 -0.9417  0.0124  0.5618
 3086SOL     OW20719   0.793   3.154   3.898 -0.5558 -0.3225 -0.1530
 3086SOL    HW120720   0.718   3.096   3.887 -2.2134  1.4427  1.6912
 3086SOL    HW220721   0.770   3.230   3.845 -0.4432 -0.6228 -0.6280
 3087SOL     OW20722   4.373   2.262  17.390  0.4074 -0.1655  0.0171
 3087SOL    HW120723   4.300   2.205  17.416 -0.0013  0.7049  0.8021
 3087SOL    HW220724   4.418   2.208  17.326  0.2566 -0.3464  0.0624
 3088SOL     OW20725   4.037   2.627  12.620  0.5463  0.0185 -0.1059
 3088SOL    HW120726   4.049   2.692  12.689  0.9799 -1.1620  0.9272
 3088SOL    HW220727   3.986   2.557  12.659 -0.2686  0.5383 -0.2235
 3089SOL     OW20728   0.159   2.173   2.381  0.4250 -0.5156  0.4153
 3089SOL    HW120729   0.103   2.132   2.447 -0.2226  0.1237  0.2574
 3089SOL    HW220730   0.249   2.157   2.410 -0.0254  1.2466  2.7870
 3090SOL     OW20731   3.357   0.112   8.288 -0.2380 -0.4840  0.4975
 3090SOL    HW120732   3.358   0.180   8.221  2.8690 -1.2501 -0.2332
 3090SOL    HW220733   3.344   0.162   8.369  0.3261 -0.0537  0.3202
 3091SOL     OW20734   1.516   4.713   9.110 -0.1245 -0.2541  0.0514
 3091SOL    HW120735   1.502   0.027   9.198 -1.3847 -1.3554  0.2975
 3091SOL    HW220736   1.578   4.642   9.127 -1.0845 -1.3603 -1.1332
 3092SOL     OW20737   1.555   3.310   6.139  0.6214  0.0752 -0.6660
 3092SOL    HW120738   1.558   3.330   6.045 -0.1721  2.3684 -0.1972
 3092SOL    HW220739   1.642   3.272   6.148 -0.2409 -1.8483 -0.5369
 3093SOL     OW20740   0.582   3.728   1.532  0.7133 -0.1952  0.0171
 3093SOL    HW120741   0.525   3.745   1.608 -1.9593 -1.2008 -1.7573
 3093SOL    HW220742   0.668   3.751   1.566  0.0642  2.8766 -0.3349
 3094SOL     OW20743   0.648   0.261  14.555  0.2922  0.3572 -0.2187
 3094SOL    HW120744   0.641   0.294  14.466  0.5557  1.3545  0.1336
 3094SOL    HW220745   0.742   0.252  14.568  0.2932  0.2913 -0.2714
 3095SOL     OW20746   1.104   2.559   9.119  0.1186  0.3604 -0.4179
 3095SOL    HW120747   1.052   2.529   9.044  1.8315  1.0210 -1.8630
 3095SOL    HW220748   1.114   2.478   9.170  1.3532  0.5287 -0.3911
 3096SOL     OW20749   1.485   1.887   6.733 -0.2151 -0.5195 -0.5052
 3096SOL    HW120750   1.413   1.898   6.671  0.7033  1.7916 -1.1659
 3096SOL    HW220751   1.447   1.911   6.818 -1.4192  0.2182 -1.2573
 3097SOL     OW20752   1.002   2.898  12.724  0.1810  0.5350 -0.2671
 3097SOL    HW120753   1.003   2.869  12.815 -2.4167  0.0342 -0.3955
 3097SOL    HW220754   1.064   2.833  12.689 -3.5712 -2.6892 -0.8829
 3098SOL     OW20755   4.230   3.445   2.003 -0.2257  0.3143  0.1813
 3098SOL    HW120756   4.229   3.444   1.908  2.2852 -0.4522  0.1674
 3098SOL    HW220757   4.257   3.535   2.018 -0.7645  0.7492 -1.5029
 3099SOL     OW20758   2.998   2.544   4.104  0.1195  0.3410  0.1279
 3099SOL    HW120759   3.040   2.629   4.112 -0.6309  0.6087  1.2259
 3099SOL    HW220760   3.073   2.487   4.087 -3.1239 -2.9101 -3.5223
 3100SOL     OW20761   1.029   2.965   5.044  0.7708 -0.0853 -0.3998
 3100SOL    HW120762   0.993   3.000   4.963  1.6796  1.3866 -0.1784
 3100SOL    HW220763   1.042   3.046   5.095 -2.0921  0.6768 -0.9123
 3101SOL     OW20764   0.105   2.444   8.550 -0.1373  0.3033  0.1548
 3101SOL    HW120765   0.174   2.496   8.508  0.4038  0.1235  0.8295
 3101SOL    HW220766   0.093   2.503   8.625  0.7910  0.0413  0.5033
 3102SOL     OW20767   0.173   3.465   5.572 -0.7275  0.4947  0.1440
 3102SOL    HW120768   0.080   3.489   5.567 -0.5368  1.5011  1.2415
 3102SOL    HW220769   0.175   3.370   5.569  1.2628  0.5727 -1.2372
 3103SOL     OW20770   2.043   0.103   7.123  0.1147 -0.3776 -0.3335
 3103SOL    HW120771   1.980   0.055   7.177  0.7690 -1.6029 -0.6588
 3103SOL    HW220772   2.097   0.147   7.189  0.1700 -1.7474  0.5290
 3104SOL     OW20773   1.564   3.280   3.353 -0.1263 -0.5270  0.0546
 3104SOL    HW120774   1.584   3.371   3.332  1.7224 -0.6702  1.2382
 3104SOL    HW220775   1.517   3.269   3.270 -1.7485 -0.6470  0.9910
 3105SOL     OW20776   0.358   1.191   4.136 -0.1800 -0.1129 -0.1153
 3105SOL    HW120777   0.286   1.254   4.130  0.2410  0.5364  1.8685
 3105SOL    HW220778   0.341   1.147   4.053 -0.1019  0.5121 -0.4662
 3106SOL     OW20779   4.127   1.127   7.110  0.2914 -0.6753  0.5034
 3106SOL    HW120780   4.082   1.045   7.090 -2.0039  0.9303 -0.8985
 3106SOL    HW220781   4.149   1.144   7.019  2.0081  0.6708  1.1544
 3107SOL     OW20782   1.357   4.395   0.195 -0.0773 -0.2007 -0.1372
 3107SOL    HW120783   1.281   4.416   0.141 -1.2726 -1.0423  1.2260
 3107SOL    HW220784   1.418   4.387   0.122  0.2346 -1.4623  0.2725
 3108SOL     OW20785   2.638   3.579   9.032  0.2288  0.9089  0.0372
 3108SOL    HW120786   2.545   3.583   9.010 -0.4262 -1.0779  2.5133
 3108SOL    HW220787   2.637   3.594   9.126  1.0028 -2.5237  0.5577
 3109SOL     OW20788   0.629   0.397   6.477  0.5454 -0.3914  0.0123
 3109SOL    HW120789   0.632   0.389   6.572 -0.8306 -1.3371 -0.0288
 3109SOL    HW220790   0.712   0.355   6.455  0.2746 -0.9863  0.1473
 3110SOL     OW20791   0.625   0.072   7.915 -0.2037 -0.4196 -0.0628
 3110SOL    HW120792   0.657   4.704   7.921 -0.0321 -0.3626 -0.1192
 3110SOL    HW220793   0.630   0.088   8.009  1.7532  0.0682 -0.2289
 3111SOL     OW20794   2.707   2.063   8.115 -0.6691  0.6362 -0.5229
 3111SOL    HW120795   2.768   2.028   8.050 -0.5589  0.8646 -0.5431
 3111SOL    HW220796   2.761   2.132   8.152  0.9073 -0.0721 -1.5435
 3112SOL     OW20797   2.514   4.515  13.511  0.5385  0.4150 -0.5446
 3112SOL    HW120798   2.506   4.442  13.450 -0.2717 -1.6111  1.9310
 3112SOL    HW220799   2.473   4.585  13.460 -1.8125 -0.4851  0.0766
 3113SOL     OW20800   0.826   3.629  17.055 -0.0851 -0.3932  0.4203
 3113SOL    HW120801   0.811   3.535  17.047  1.5707 -0.4970 -1.4029
 3113SOL    HW220802   0.882   3.631  17.133  0.0479  0.9994  0.2868
 3114SOL     OW20803   1.252   2.789   1.922  0.0202 -1.0642  0.6775
 3114SOL    HW120804   1.269   2.757   2.010 -0.7533 -0.1330  1.1642
 3114SOL    HW220805   1.180   2.848   1.942  0.3256 -0.7438  0.8264
 3115SOL     OW20806   2.947   4.066   4.804  0.2334 -0.6233  0.2807
 3115SOL    HW120807   2.997   4.145   4.827 -1.3022  0.5264 -0.3637
 3115SOL    HW220808   2.971   4.047   4.713 -3.2835 -0.9762 -0.5530
 3116SOL     OW20809   0.735   2.765  10.389 -0.4485 -0.4103  0.0742
 3116SOL    HW120810   0.782   2.769  10.472 -0.1506 -0.8863 -0.0740
 3116SOL    HW220811   0.657   2.721  10.422  0.2803 -2.5268 -1.0111
 3117SOL     OW20812   1.293   4.508   5.116 -0.1679 -0.0376  0.5626
 3117SOL    HW120813   1.364   4.572   5.127 -0.0319 -0.0613 -0.1599
 3117SOL    HW220814   1.343   4.455   5.053 -0.0974  3.3787 -2.2784
 3118SOL     OW20815   0.009   2.900  13.296  0.3187 -0.1939 -0.3235
 3118SOL    HW120816   0.095   2.913  13.336  0.3165 -0.0331 -0.3685
 3118SOL    HW220817   4.690   2.833  13.350  1.5279 -1.1045 -0.5266
 3119SOL     OW20818   1.734   3.045   9.762 -0.1264  0.3779 -0.0108
 3119SOL    HW120819   1.674   3.013   9.694  1.7675 -0.0376 -1.4717
 3119SOL    HW220820   1.749   3.132   9.726 -0.8949  1.1146  1.4196
 3120SOL     OW20821   0.260   2.326   4.126  0.0307  0.5858  0.3751
 3120SOL    HW120822   0.215   2.398   4.081  1.8902  0.0156 -2.3825
 3120SOL    HW220823   0.206   2.324   4.205 -2.3905  0.1207 -1.2958
 3121SOL     OW20824   1.964   3.451   8.588  0.2405  0.4716 -0.2869
 3121SOL    HW120825   1.964   3.537   8.548  1.9594  1.6110  2.1273
 3121SOL    HW220826   1.915   3.486   8.663  0.3280  0.1399 -0.0735
 3122SOL     OW20827   4.512   1.823  15.213 -0.6905 -0.2303  0.5127
 3122SOL    HW120828   4.446   1.892  15.222 -0.8921 -0.3713  0.1182
 3122SOL    HW220829   4.483   1.789  15.128 -1.7336  0.6981  0.5023
 3123SOL     OW20830   3.105   3.505  11.470  0.1257  0.2901 -0.4917
 3123SOL    HW120831   3.045   3.431  11.479  1.5173 -0.9650 -1.5630
 3123SOL    HW220832   3.071   3.587  11.507  1.8212  1.3036 -1.1938
 3124SOL     OW20833   3.359   0.772   3.267  0.3273  0.2157  0.0938
 3124SOL    HW120834   3.368   0.776   3.362 -2.7379  0.7292  0.3829
 3124SOL    HW220835   3.448   0.798   3.243  0.5100 -1.1693 -0.7142
 3125SOL     OW20836   0.877   0.191   3.731  0.1506  0.2127 -0.0058
 3125SOL    HW120837   0.964   0.153   3.743  0.4561  1.1839  0.8466
 3125SOL    HW220838   0.841   0.128   3.669  1.3346 -0.8111  0.3383
 3126SOL     OW20839   2.162   1.045   2.632  0.1846  0.2967 -0.5320
 3126SOL    HW120840   2.135   1.035   2.540 -0.8325  0.5224 -0.2514
 3126SOL    HW220841   2.149   0.955   2.663  2.2215  0.3630  0.4908
 3127SOL     OW20842   4.397   4.253   5.658  0.1342 -0.6722  0.3201
 3127SOL    HW120843   4.369   4.210   5.739 -1.4018  1.4690  0.9136
 3127SOL    HW220844   4.449   4.183   5.618  0.1608 -0.8173  0.6004
 3128SOL     OW20845   0.724   1.687   0.027 -0.1678 -0.2520 -0.1769
 3128SOL    HW120846   0.776   1.732  17.651 -0.5209  0.7183  0.2124
 3128SOL    HW220847   0.640   1.733   0.022 -0.5736 -1.0563 -0.9516
 3129SOL     OW20848   3.936   2.940   3.295  0.6432  0.3953  0.0273
 3129SOL    HW120849   3.934   2.994   3.374 -0.0074  0.8825 -0.3222
 3129SOL    HW220850   3.965   3.007   3.233  0.7438 -0.5078 -0.8976
 3130SOL     OW20851   2.686   4.223   1.034 -0.1933 -0.0445  0.2872
 3130SOL    HW120852   2.605   4.211   1.084 -0.1690  0.8008  0.5347
 3130SOL    HW220853   2.750   4.245   1.102 -0.4475 -0.6061  0.7035
 3131SOL     OW20854   2.816   0.752   2.172 -0.1892 -0.2133 -0.2595
 3131SOL    HW120855   2.865   0.818   2.123 -0.3728  0.8599  0.9964
 3131SOL    HW220856   2.871   0.676   2.151 -0.6313 -1.3434  2.6158
 3132SOL     OW20857   0.843   0.925   3.135  0.1504 -0.3803 -0.3397
 3132SOL    HW120858   0.902   0.949   3.207  0.3736 -0.5351 -0.4691
 3132SOL    HW220859   0.788   1.003   3.130  0.0785 -0.2724  2.0077
 3133SOL     OW20860   3.612   4.133   5.247  0.6375 -0.2574  0.4298
 3133SOL    HW120861   3.535   4.146   5.191  0.9699 -4.0343 -0.9311
 3133SOL    HW220862   3.638   4.225   5.250 -2.7346  0.7073 -0.2495
 3134SOL     OW20863   3.352   0.552   6.382 -0.4877 -0.4530  0.1075
 3134SOL    HW120864   3.278   0.519   6.433 -1.3110 -1.3704 -1.6606
 3134SOL    HW220865   3.314   0.548   6.295  0.6510  5.1764 -0.6575
 3135SOL     OW20866   1.449   1.979   1.495  0.1222 -0.1752 -0.2149
 3135SOL    HW120867   1.465   2.007   1.586 -0.7701 -1.3129  0.2957
 3135SOL    HW220868   1.392   1.905   1.518 -0.3455 -0.1516 -1.3076
 3136SOL     OW20869   4.382   3.260   8.686 -0.2978  0.1036 -0.3148
 3136SOL    HW120870   4.389   3.262   8.590  0.7663  1.8971 -0.2052
 3136SOL    HW220871   4.437   3.182   8.694 -0.9966 -0.6506 -2.7553
 3137SOL     OW20872   0.118   3.121   4.601  0.0545  0.9326  0.5308
 3137SOL    HW120873   0.092   3.213   4.589  0.2989  0.8907 -0.3002
 3137SOL    HW220874   0.194   3.116   4.542 -1.0320 -1.1883 -0.6663
 3138SOL     OW20875   4.518   4.277   7.094 -0.2636 -0.4026 -0.3119
 3138SOL    HW120876   4.473   4.242   7.016 -0.0669 -1.0566 -0.1371
 3138SOL    HW220877   4.450   4.335   7.128  2.1187  2.3796 -0.3800
 3139SOL     OW20878   2.693   0.409  11.817  0.6147 -0.4543 -0.2539
 3139SOL    HW120879   2.660   0.329  11.777 -0.4221 -0.3461  0.3995
 3139SOL    HW220880   2.787   0.402  11.801  0.5580  0.7902 -1.1292
 3140SOL     OW20881   3.007   3.257   7.975  0.3760  0.1605 -0.7924
 3140SOL    HW120882   3.030   3.179   8.025 -1.6155  0.8055  1.1400
 3140SOL    HW220883   2.922   3.287   8.008  0.7155 -0.8042  0.9181
 3141SOL     OW20884   2.035   2.377   5.585 -0.4348  0.0536  0.1806
 3141SOL    HW120885   1.956   2.327   5.603  0.2318 -1.1933 -0.3374
 3141SOL    HW220886   2.103   2.309   5.595  1.7276  2.5332  2.2803
 3142SOL     OW20887   2.384   0.724  15.151 -0.7056 -0.3079  0.2318
 3142SOL    HW120888   2.477   0.706  15.135 -1.4852 -1.6154 -2.7639
 3142SOL    HW220889   2.362   0.689  15.237 -0.1186  0.0242  0.5191
 3143SOL     OW20890   1.392   1.978   0.925  0.0969 -0.3808 -0.0870
 3143SOL    HW120891   1.325   2.044   0.908 -0.2661 -0.7152  0.0567
 3143SOL    HW220892   1.361   1.947   1.010 -0.9138  1.7022  0.2978
 3144SOL     OW20893   0.756   4.027   6.130 -0.3068  0.0401  0.0197
 3144SOL    HW120894   0.755   3.966   6.204 -0.2294  1.1079  0.9010
 3144SOL    HW220895   0.668   4.063   6.137 -0.5380 -0.4781 -0.1773
 3145SOL     OW20896   0.468   0.469   4.755  0.1771  0.0261 -0.1893
 3145SOL    HW120897   0.492   0.555   4.789  2.8603 -0.4820 -0.7706
 3145SOL    HW220898   0.487   0.503   4.667 -0.5258 -1.6385 -0.9834
 3146SOL     OW20899   3.606   1.664  15.624  0.4430 -0.0866 -0.5035
 3146SOL    HW120900   3.557   1.627  15.550  1.5006 -0.2705 -1.1023
 3146SOL    HW220901   3.665   1.591  15.643  1.2918  0.9876  1.0022
 3147SOL     OW20902   1.384   1.856   4.531  0.0937 -0.1523  0.0014
 3147SOL    HW120903   1.374   1.773   4.485 -2.2881  0.3048 -0.3070
 3147SOL    HW220904   1.447   1.892   4.468  1.5646 -1.4985  0.6883
 3148SOL     OW20905   3.897   1.647   6.069 -0.7094  0.0159  0.4309
 3148SOL    HW120906   3.895   1.622   5.977 -0.5764 -0.2083  0.4882
 3148SOL    HW220907   3.880   1.741   6.064  1.5094  0.3224 -0.9452
 3149SOL     OW20908   2.921   1.862   5.239 -0.2455  0.1934 -0.0655
 3149SOL    HW120909   2.986   1.830   5.176  0.5797 -1.2824  1.5541
 3149SOL    HW220910   2.856   1.792   5.231  0.5169 -0.6658  1.3923
 3150SOL     OW20911   1.293   1.940  10.789  0.5098  0.0123  0.1400
 3150SOL    HW120912   1.311   2.007  10.854 -2.7851 -0.6468  1.7400
 3150SOL    HW220913   1.310   1.982  10.705  0.7811 -0.3293  0.0215
 3151SOL     OW20914   2.656   4.132  15.658  0.4370  1.1207 -0.1477
 3151SOL    HW120915   2.718   4.084  15.713  0.3250  1.4178  0.2348
 3151SOL    HW220916   2.662   4.083  15.575 -2.0935 -2.1507  1.5765
 3152SOL     OW20917   2.734   3.010   7.755 -0.0437 -0.4755  0.0455
 3152SOL    HW120918   2.692   2.970   7.679 -1.9816 -1.8854  1.8637
 3152SOL    HW220919   2.813   3.055   7.724 -1.0621  0.4251 -1.2719
 3153SOL     OW20920   1.088   4.038   7.472 -0.4360  0.2518  0.4990
 3153SOL    HW120921   1.029   4.105   7.438 -2.1267 -2.3476 -1.6658
 3153SOL    HW220922   1.075   4.049   7.566 -0.5557  0.8288  0.4113
 3154SOL     OW20923   2.266   0.481   3.085  0.4720 -0.0605  0.1807
 3154SOL    HW120924   2.206   0.442   3.150  0.7874 -1.3207 -0.2883
 3154SOL    HW220925   2.243   0.574   3.089  1.7592  0.3477 -2.2314
 3155SOL     OW20926   3.028   1.722   6.412 -0.0652  0.0195  0.3402
 3155SOL    HW120927   2.954   1.705   6.469 -0.7799 -2.1930 -1.2625
 3155SOL    HW220928   2.975   1.756   6.339 -0.8672 -0.4278  0.7192
 3156SOL     OW20929   1.115   1.685   5.968 -0.1540  0.4351 -0.0331
 3156SOL    HW120930   1.081   1.597   5.983 -1.9495  1.1491  0.1051
 3156SOL    HW220931   1.034   1.735   5.968 -1.1043 -1.1271 -0.1926
 3157SOL     OW20932   3.708   2.960   0.571  0.5279  0.3096  0.4114
 3157SOL    HW120933   3.753   2.877   0.588 -0.7866 -0.7183 -1.0782
 3157SOL    HW220934   3.613   2.944   0.564  0.4244  1.0054  0.2095
 3158SOL     OW20935   1.038   4.472  16.327 -0.5688  0.1169 -0.3148
 3158SOL    HW120936   0.958   4.421  16.317  1.0522 -2.5584  0.0747
 3158SOL    HW220937   1.024   4.533  16.255 -2.7359 -1.8310 -1.5449
 3159SOL     OW20938   4.224   2.109   8.303  0.0596 -0.2797 -0.0974
 3159SOL    HW120939   4.151   2.169   8.288 -0.8614 -1.6220 -0.8882
 3159SOL    HW220940   4.241   2.080   8.214  0.1197 -2.7499  0.7270
 3160SOL     OW20941   0.999   2.884   4.430 -0.1762  0.3745  0.9249
 3160SOL    HW120942   0.924   2.839   4.471 -1.3625  0.5779 -1.0202
 3160SOL    HW220943   0.987   2.867   4.337  0.0038 -1.4959  1.2295
 3161SOL     OW20944   2.647   2.719  11.010  0.1733 -0.0168 -0.5054
 3161SOL    HW120945   2.721   2.777  11.026  0.8920 -1.0996  0.1307
 3161SOL    HW220946   2.684   2.649  10.956 -0.4829 -1.3450  0.7629
 3162SOL     OW20947   2.628   2.594   4.197  0.2010 -0.7263  0.5727
 3162SOL    HW120948   2.570   2.670   4.185 -1.5040 -2.3523 -1.4150
 3162SOL    HW220949   2.570   2.523   4.171  0.8708 -0.7047 -1.0179
 3163SOL     OW20950   4.384   4.521   7.172  0.0983 -0.6444  0.2247
 3163SOL    HW120951   4.451   4.582   7.202  0.3332 -1.0972  0.6199
 3163SOL    HW220952   4.321   4.581   7.131 -1.7633 -2.8735 -0.1750
 3164SOL     OW20953   1.877   3.484   7.506 -0.8175  0.2425 -0.3733
 3164SOL    HW120954   1.850   3.432   7.430  0.5057  2.0137 -2.0431
 3164SOL    HW220955   1.966   3.449   7.513 -0.1143  1.9116 -1.0156
 3165SOL     OW20956   3.185   3.212   3.536 -0.0413  0.1690 -0.2008
 3165SOL    HW120957   3.179   3.117   3.541 -1.0951  0.2420 -0.1720
 3165SOL    HW220958   3.213   3.225   3.445  0.6185 -1.3629 -0.2247
 3166SOL     OW20959   1.920   1.310   8.903 -0.3462  0.5934 -0.2152
 3166SOL    HW120960   1.832   1.290   8.934  0.0932  1.1551  1.3647
 3166SOL    HW220961   1.960   1.228   8.933 -3.0085 -0.8230 -0.5295
 3167SOL     OW20962   2.320   3.577  12.474  0.0330 -0.3240  0.0697
 3167SOL    HW120963   2.318   3.623  12.391 -0.6486  1.3693  1.0205
 3167SOL    HW220964   2.302   3.653  12.530 -1.4651  1.1528 -2.4599
 3168SOL     OW20965   2.381   1.998  10.066  0.6461  0.1889  0.3514
 3168SOL    HW120966   2.384   2.040   9.980  2.5478  0.2030  0.4277
 3168SOL    HW220967   2.475   1.991  10.084  0.7993 -0.2559 -0.6002
 3169SOL     OW20968   1.801   3.955  12.466  0.1519  0.0643 -0.0307
 3169SOL    HW120969   1.725   4.013  12.463 -1.6816 -2.3734  0.2524
 3169SOL    HW220970   1.829   3.989  12.551  0.1411  2.1256 -0.8412
 3170SOL     OW20971   3.247   3.612  16.024 -0.1475 -0.5923  0.2485
 3170SOL    HW120972   3.211   3.647  16.105 -0.3773  0.1241 -0.1575
 3170SOL    HW220973   3.197   3.531  16.035 -1.9783  0.7089  1.3690
 3171SOL     OW20974   4.322   0.058   4.379  0.1158  0.0915 -0.7314
 3171SOL    HW120975   4.338   0.124   4.447 -0.3458  0.3317 -0.8553
 3171SOL    HW220976   4.292   0.114   4.308 -0.8463  1.4380  0.7218
 3172SOL     OW20977   3.784   0.670   7.665  0.0136  0.4446  0.0986
 3172SOL    HW120978   3.870   0.711   7.674 -0.0741  0.6798 -0.1521
 3172SOL    HW220979   3.723   0.742   7.646  2.6594  2.7693  0.4632
 3173SOL     OW20980   1.382   1.420   8.281 -0.2080  0.2618 -0.2349
 3173SOL    HW120981   1.465   1.396   8.240 -0.1161  1.1263 -0.5348
 3173SOL    HW220982   1.385   1.514   8.294 -3.1582  0.2306  0.5761
 3174SOL     OW20983   0.153   3.516   4.164  0.0617 -0.2963 -0.2118
 3174SOL    HW120984   0.125   3.570   4.238 -0.5608 -0.0306 -0.6315
 3174SOL    HW220985   0.233   3.477   4.196  1.1349  1.0744 -1.2040
 3175SOL     OW20986   0.549   0.113   6.437  0.6387 -0.1725 -0.2225
 3175SOL    HW120987   0.571   0.203   6.460  0.9129 -0.3050  0.0239
 3175SOL    HW220988   0.628   0.061   6.447  0.9717  0.6407  1.3810
 3176SOL     OW20989   3.270   2.871   1.566  0.1124 -0.5487  0.0566
 3176SOL    HW120990   3.243   2.801   1.627  1.0815 -1.8275 -0.9955
 3176SOL    HW220991   3.224   2.838   1.489  0.7867  4.9313 -2.6443
 3177SOL     OW20992   1.203   2.782   8.549  0.0165  0.4019 -0.5745
 3177SOL    HW120993   1.270   2.759   8.613 -0.2332  0.9510 -0.1082
 3177SOL    HW220994   1.259   2.767   8.473 -0.6392 -4.7577 -0.0159
 3178SOL     OW20995   1.922   2.105   2.729  0.1587 -0.5877  0.3343
 3178SOL    HW120996   1.970   2.066   2.655  0.1606 -2.7985  1.5135
 3178SOL    HW220997   1.962   2.063   2.805 -0.1745 -1.6326 -0.0607
 3179SOL     OW20998   4.443   0.071   8.060 -0.4155  0.2254  0.2502
 3179SOL    HW120999   4.528   0.104   8.031 -1.2193  1.8945 -0.2014
 3179SOL    HW221000   4.405   0.148   8.102  0.6788  0.9084 -0.0137
 3180SOL     OW21001   3.747   0.900   0.878  0.1075 -0.2676 -0.2032
 3180SOL    HW121002   3.756   0.875   0.786 -5.3518 -2.4099 -0.1626
 3180SOL    HW221003   3.660   0.939   0.868  0.7627  0.8996 -1.3775
 3181SOL     OW21004   4.101   1.163   6.489  0.0481 -0.0101 -0.6752
 3181SOL    HW121005   4.016   1.120   6.505  1.1404 -1.3373  1.4864
 3181SOL    HW221006   4.077   1.231   6.426 -2.3010 -0.1999 -0.0007
 3182SOL     OW21007   0.611   2.120  17.323  0.6707  0.5162 -0.0472
 3182SOL    HW121008   0.519   2.127  17.350  1.1540 -0.4718  1.8370
 3182SOL    HW221009   0.645   2.206  17.347  0.3689  0.8759 -0.9053
 3183SOL     OW21010   3.963   0.757   0.888  0.2120 -0.3520 -0.4046
 3183SOL    HW121011   3.869   0.773   0.895  0.6073  0.9772  2.1928
 3183SOL    HW221012   3.986   0.781   0.799 -0.2096  1.1354 -0.1144
 3184SOL     OW21013   1.040   2.767   2.464  0.1928  0.4676  0.3591
 3184SOL    HW121014   1.047   2.695   2.401  0.3546  1.7940 -1.1600
 3184SOL    HW221015   1.126   2.764   2.506  0.8054 -1.8706 -1.0997
 3185SOL     OW21016   2.642   4.618   9.103  0.0147  0.4283  1.0035
 3185SOL    HW121017   2.698   4.603   9.027 -0.5619  1.2204  0.4327
 3185SOL    HW221018   2.610   4.702   9.070  0.3774 -0.1498 -0.7665
 3186SOL     OW21019   0.665   0.751  16.982 -0.0588  0.0375  0.2377
 3186SOL    HW121020   0.649   0.830  17.034  1.9721  1.3857 -1.1757
 3186SOL    HW221021   0.724   0.701  17.039  1.6440 -0.5039 -2.0056
 3187SOL     OW21022   3.386   2.679   2.569 -0.2284 -1.0055 -0.1135
 3187SOL    HW121023   3.323   2.610   2.547 -0.7239 -0.3240 -0.8229
 3187SOL    HW221024   3.424   2.702   2.484  0.1759 -0.4092  0.2304
 3188SOL     OW21025   3.439   0.033  13.988 -0.6489 -0.0309 -0.6392
 3188SOL    HW121026   3.482   0.049  13.904 -0.3687  2.5202 -0.0071
 3188SOL    HW221027   3.510   0.016  14.050 -0.9646  1.5105  0.1162
 3189SOL     OW21028   2.777   3.594   4.761  0.3397 -0.2556 -0.3782
 3189SOL    HW121029   2.786   3.539   4.838 -0.0656 -0.0993 -0.2220
 3189SOL    HW221030   2.721   3.662   4.799 -0.9644 -0.2000 -2.4021
 3190SOL     OW21031   4.608   2.219   3.156  0.2798 -0.1885 -0.4621
 3190SOL    HW121032   4.576   2.214   3.246 -0.5194 -1.4775 -0.8144
 3190SOL    HW221033   4.627   2.130   3.127 -0.2503  0.0729 -1.6283
 3191SOL     OW21034   3.687   0.024  14.125  0.6519  1.1281 -0.2348
 3191SOL    HW121035   3.646   0.033  14.212 -3.5046 -1.1705 -1.9507
 3191SOL    HW221036   3.712   4.656  14.147  0.2880  0.8565 -0.9501
 3192SOL     OW21037   4.696   0.573   2.817 -0.3491  1.0083  0.2733
 3192SOL    HW121038   4.700   0.560   2.723  0.9646 -3.3913  0.9466
 3192SOL    HW221039   4.624   0.511   2.823  0.1343  0.5637  1.4581
 3193SOL     OW21040   1.956   3.475   4.671 -0.0034 -0.3460  0.2281
 3193SOL    HW121041   2.024   3.509   4.729  1.2661 -1.8081 -0.3912
 3193SOL    HW221042   2.006   3.442   4.597 -1.5751 -1.5490 -0.3023
 3194SOL     OW21043   2.493   3.455   8.371  0.0600  0.4421 -0.8515
 3194SOL    HW121044   2.501   3.380   8.312 -1.7429 -1.9620  1.9613
 3194SOL    HW221045   2.488   3.526   8.307  1.5137  0.3291 -1.0835
 3195SOL     OW21046   2.483   0.218   4.614 -0.5817 -0.4960 -0.9430
 3195SOL    HW121047   2.462   0.174   4.697  2.0357  0.4500  0.2098
 3195SOL    HW221048   2.572   0.187   4.603 -0.3433 -0.0855 -0.1662
 3196SOL     OW21049   1.876   3.157   2.106  0.0804 -0.4420  0.4867
 3196SOL    HW121050   1.784   3.180   2.118 -0.2710 -0.6139 -1.9067
 3196SOL    HW221051   1.917   3.244   2.096  2.2562 -1.6649 -1.1847
 3197SOL     OW21052   3.687   1.219   3.650  0.1376  0.1540 -0.0636
 3197SOL    HW121053   3.746   1.223   3.725  1.5818 -1.2136 -1.1166
 3197SOL    HW221054   3.724   1.140   3.609 -1.5643 -0.7376  0.1230
 3198SOL     OW21055   1.500   2.990  17.241  0.1042 -0.6467 -0.1380
 3198SOL    HW121056   1.573   2.967  17.299  1.2622 -1.4818 -1.9333
 3198SOL    HW221057   1.508   3.085  17.253 -0.7108 -0.7299  1.0464
 3199SOL     OW21058   2.121   0.079  14.512 -0.2346  0.1571  0.0080
 3199SOL    HW121059   2.135   0.137  14.438 -0.5045  0.8783  0.5268
 3199SOL    HW221060   2.117   0.139  14.586  0.9192  1.3120 -0.8924
 3200SOL     OW21061   4.404   3.925   6.370 -0.5960 -0.1209  0.3640
 3200SOL    HW121062   4.326   3.964   6.412  0.2425 -0.1958  2.0040
 3200SOL    HW221063   4.363   3.885   6.294 -2.6776  0.7320  1.0116
 3201SOL     OW21064   3.303   0.164   5.117 -0.0707 -0.5020 -0.4507
 3201SOL    HW121065   3.295   0.258   5.130  0.7999 -0.4797 -0.1191
 3201SOL    HW221066   3.397   0.153   5.125 -0.1488 -1.3000 -0.6016
 3202SOL     OW21067   3.698   0.366   8.191 -0.0955  0.0916 -0.0777
 3202SOL    HW121068   3.608   0.398   8.191 -0.0877  0.0998  0.6621
 3202SOL    HW221069   3.747   0.413   8.258  0.6247 -0.6043 -0.1102
 3203SOL     OW21070   2.387   0.633   0.969  0.4623  0.3081  0.4142
 3203SOL    HW121071   2.339   0.577   0.908 -0.1548  0.5546  0.6718
 3203SOL    HW221072   2.430   0.691   0.906 -0.2879  0.7444  0.3121
 3204SOL     OW21073   1.313   3.869   8.468  0.0263  0.1219 -0.3467
 3204SOL    HW121074   1.317   3.806   8.539 -0.1284 -0.7618 -1.1254
 3204SOL    HW221075   1.405   3.877   8.443  0.2306  1.9732  1.0268
 3205SOL     OW21076   3.955   1.207   5.611 -0.3284  0.5932  0.4298
 3205SOL    HW121077   3.968   1.285   5.556  0.5304  0.0431 -0.1512
 3205SOL    HW221078   3.961   1.145   5.539  3.2952  1.2554  0.1890
 3206SOL     OW21079   1.708   2.448   2.687  0.0293  0.3819  0.1473
 3206SOL    HW121080   1.747   2.442   2.774  1.6510 -0.6862 -0.6439
 3206SOL    HW221081   1.621   2.412   2.698 -0.2580  1.4537  1.3651
 3207SOL     OW21082   1.570   0.439  14.655 -1.0049  0.0508  0.0830
 3207SOL    HW121083   1.501   0.412  14.716 -0.4907 -0.1656  0.5637
 3207SOL    HW221084   1.590   0.529  14.677 -2.2453  0.3760 -0.0994
 3208SOL     OW21085   3.774   0.334   0.557 -0.3759 -0.4637  0.1267
 3208SOL    HW121086   3.699   0.333   0.616  0.8557 -0.4669  1.6791
 3208SOL    HW221087   3.757   0.411   0.503 -1.0103 -0.8073 -0.1681
 3209SOL     OW21088   4.530   1.619   2.599  0.1608  0.0007  0.8335
 3209SOL    HW121089   4.486   1.702   2.616 -1.4472 -0.3064 -1.7997
 3209SOL    HW221090   4.566   1.643   2.513  2.3321  0.2681  1.8021
 3210SOL     OW21091   2.278   3.769  17.307 -0.0122 -0.1007 -0.2354
 3210SOL    HW121092   2.284   3.676  17.327  0.8999  0.2160  0.9778
 3210SOL    HW221093   2.296   3.760  17.213  0.4464  3.2940 -0.5026
 3211SOL     OW21094   1.627   0.387   3.076 -0.5015  0.1906  0.4026
 3211SOL    HW121095   1.701   0.406   3.133 -0.3870 -2.5720  1.1810
 3211SOL    HW221096   1.635   0.295   3.051 -2.1923 -0.1333  1.0326
 3212SOL     OW21097   0.234   1.980   5.308 -0.3206 -0.7579 -0.7017
 3212SOL    HW121098   0.278   1.897   5.327 -1.6733 -1.1752  0.5564
 3212SOL    HW221099   0.306   2.028   5.266 -2.2864  1.6091 -1.3849
 3213SOL     OW21100   2.224   1.098   0.079 -0.5271 -0.3593  0.0128
 3213SOL    HW121101   2.196   1.010   0.103 -0.3007 -0.8021 -1.3928
 3213SOL    HW221102   2.175   1.152   0.141 -0.8641 -0.5240 -0.1139
 3214SOL     OW21103   3.976   1.337   4.441  0.2223  0.3554 -0.6916
 3214SOL    HW121104   3.910   1.268   4.439 -0.8306  1.4583 -3.5223
 3214SOL    HW221105   3.963   1.360   4.349 -3.9447  2.6576  0.5183
 3215SOL     OW21106   4.709   4.493   2.721 -0.2869  0.1653  0.4803
 3215SOL    HW121107   4.711   4.415   2.667  1.3385 -0.9539  2.1289
 3215SOL    HW221108   4.616   4.507   2.740 -0.1241 -2.6908  3.5127
 3216SOL     OW21109   0.839   2.629   4.535  0.4561  0.3079 -0.1120
 3216SOL    HW121110   0.811   2.664   4.620 -1.8993 -1.8617 -0.0077
 3216SOL    HW221111   0.781   2.682   4.480  0.1515 -2.6058 -2.5887
 3217SOL     OW21112   0.130   2.821   5.221  0.0619  0.8512  0.3235
 3217SOL    HW121113   0.065   2.799   5.288 -1.2631 -1.8047 -1.8199
 3217SOL    HW221114   0.159   2.910   5.239 -2.9467  1.8852 -0.0289
 3218SOL     OW21115   2.286   1.302   0.864 -0.8704 -0.2873  0.1141
 3218SOL    HW121116   2.344   1.352   0.921 -2.2799 -0.9022  2.0827
 3218SOL    HW221117   2.222   1.274   0.929 -1.2337 -0.2130 -0.2151
 3219SOL     OW21118   2.642   2.201   4.915  0.3826 -0.1020  0.2040
 3219SOL    HW121119   2.713   2.167   4.969  2.0270  0.4383 -1.6105
 3219SOL    HW221120   2.684   2.280   4.882 -0.7254  0.1093 -0.7209
 3220SOL     OW21121   1.167   0.454   8.253  0.3390  0.0868  0.7380
 3220SOL    HW121122   1.186   0.546   8.239 -0.0627  0.4083  2.4046
 3220SOL    HW221123   1.239   0.413   8.204 -2.0878 -2.5066 -0.7241
 3221SOL     OW21124   1.867   1.025  10.838 -0.6010  0.2300  0.1696
 3221SOL    HW121125   1.796   0.960  10.835 -0.7990  0.4099  1.0128
 3221SOL    HW221126   1.856   1.076  10.757 -0.5644 -0.0117  0.0106
 3222SOL     OW21127   3.619   3.192   8.783 -0.0913  0.3203  0.4266
 3222SOL    HW121128   3.642   3.140   8.860 -1.0435  1.1131  1.2504
 3222SOL    HW221129   3.585   3.275   8.817  2.7583  1.6213  0.1159
 3223SOL     OW21130   2.048   1.582   0.561  0.6992 -0.0789  0.2839
 3223SOL    HW121131   2.110   1.541   0.501  1.2050 -0.3529  0.9906
 3223SOL    HW221132   2.014   1.505   0.608  1.5943 -1.2354 -0.9512
 3224SOL     OW21133   0.549   3.752   3.044  0.1564  0.2545  0.0471
 3224SOL    HW121134   0.531   3.775   3.135  1.6659 -0.3923  0.5085
 3224SOL    HW221135   0.570   3.660   3.061 -0.9328  0.0867  0.4710
 3225SOL     OW21136   0.641   4.141   2.593  0.5896  0.2708  0.2772
 3225SOL    HW121137   0.590   4.188   2.658 -0.0034  1.3215 -0.9305
 3225SOL    HW221138   0.594   4.159   2.511  0.8729  1.6744  0.4249
 3226SOL     OW21139   3.972   4.344  13.303 -0.2429  0.0952  0.5677
 3226SOL    HW121140   4.055   4.303  13.281 -0.1520  0.8847 -0.5945
 3226SOL    HW221141   3.997   4.432  13.276  0.7419 -0.8059 -1.3907
 3227SOL     OW21142   1.024   1.233   7.000 -0.2187 -0.8173 -0.3551
 3227SOL    HW121143   1.064   1.227   7.086  0.9272 -0.2338 -0.8425
 3227SOL    HW221144   1.003   1.141   6.979 -0.9113 -0.8010  0.2942
 3228SOL     OW21145   3.404   4.263   7.920 -0.4078  0.4299  0.1678
 3228SOL    HW121146   3.353   4.232   7.844 -1.4699  2.0843  0.2050
 3228SOL    HW221147   3.488   4.220   7.906 -1.5727 -1.7217 -0.3398
 3229SOL     OW21148   2.135   4.520  11.566  0.0451  0.2330  0.0585
 3229SOL    HW121149   2.066   4.497  11.503  1.0876 -0.1767 -0.9163
 3229SOL    HW221150   2.086   4.563  11.636 -0.1335  1.5212 -0.8650
 3230SOL     OW21151   2.855   3.220   6.081  0.3821  0.0017  0.4306
 3230SOL    HW121152   2.782   3.186   6.029  1.6273 -0.2416 -1.1450
 3230SOL    HW221153   2.900   3.146   6.121  1.4987  0.3540 -0.1851
 3231SOL     OW21154   2.524   3.073  14.882 -0.2665  0.3522  0.0778
 3231SOL    HW121155   2.465   3.055  14.809  2.5872 -0.1130 -2.1232
 3231SOL    HW221156   2.597   3.112  14.834 -0.4064 -1.3428 -1.5093
 3232SOL     OW21157   4.684   4.525  10.527 -0.0646  0.4584  0.5154
 3232SOL    HW121158   4.649   4.600  10.574 -1.3493  0.3588 -0.2743
 3232SOL    HW221159   0.037   4.497  10.581 -0.1199 -0.2812  0.2052
 3233SOL     OW21160   1.634   1.240  13.295  0.5296 -0.3345 -0.2452
 3233SOL    HW121161   1.565   1.254  13.230 -0.7540 -0.0756  1.1665
 3233SOL    HW221162   1.598   1.178  13.358  0.4570  2.0357  2.0607
 3234SOL     OW21163   2.064   0.585  14.200 -0.1229 -0.4611 -0.1152
 3234SOL    HW121164   2.027   0.510  14.153  1.1853 -1.3191  0.2347
 3234SOL    HW221165   2.091   0.551  14.285  0.2213  0.5828  0.1981
 3235SOL     OW21166   4.255   3.997  14.911  0.0844  0.2267 -0.0633
 3235SOL    HW121167   4.215   4.063  14.854  0.6785 -0.6611 -1.5311
 3235SOL    HW221168   4.304   3.959  14.838  0.6201  0.5906  0.1049
 3236SOL     OW21169   2.417   1.679   4.694 -0.6182 -0.6970  0.4019
 3236SOL    HW121170   2.349   1.733   4.736 -0.1656 -1.3593  1.9844
 3236SOL    HW221171   2.492   1.739   4.694 -1.2834  0.1306 -1.2207
 3237SOL     OW21172   0.962   0.621  12.046  0.3218 -0.5197  0.2832
 3237SOL    HW121173   0.978   0.666  12.129  0.3995 -0.5156  0.2656
 3237SOL    HW221174   1.050   0.625  12.009  0.8916 -1.5336  1.5406
 3238SOL     OW21175   4.202   1.170   7.994  0.0648  0.0446  0.2000
 3238SOL    HW121176   4.145   1.245   7.980 -1.4817 -1.1930 -0.2247
 3238SOL    HW221177   4.282   1.207   7.958 -0.0818 -1.8206 -2.0505
 3239SOL     OW21178   2.489   1.555   5.634 -0.4267  0.7042 -0.2302
 3239SOL    HW121179   2.561   1.590   5.580 -1.1078  0.4021 -1.3299
 3239SOL    HW221180   2.544   1.502   5.692  0.7970  1.3363 -0.7906
 3240SOL     OW21181   1.252   4.617  16.637  0.5280  0.0025 -0.7680
 3240SOL    HW121182   1.292   4.696  16.671  0.0756 -0.2312  0.3019
 3240SOL    HW221183   1.315   4.588  16.571  1.4621  0.4375 -0.0516
 3241SOL     OW21184   3.770   3.641  12.380 -0.2731  0.8296  0.5652
 3241SOL    HW121185   3.760   3.682  12.466 -0.3574  2.6374 -0.3052
 3241SOL    HW221186   3.853   3.595  12.393 -0.8075 -0.1458  0.5064
 3242SOL     OW21187   3.443   1.243  17.394  0.0639  0.5814 -0.1907
 3242SOL    HW121188   3.350   1.221  17.385  0.4111 -0.8034 -0.4450
 3242SOL    HW221189   3.489   1.161  17.377 -0.6913  0.2659 -0.7414
 3243SOL     OW21190   1.089   0.749  15.280  0.0039 -0.0528 -0.0720
 3243SOL    HW121191   1.071   0.655  15.272  1.2910 -0.2802 -0.2283
 3243SOL    HW221192   1.153   0.753  15.209  0.1180 -0.9172 -0.0251
 3244SOL     OW21193   2.762   3.795   8.478 -0.1486 -0.3221 -0.4665
 3244SOL    HW121194   2.810   3.858   8.532 -0.1441 -1.2709  0.6260
 3244SOL    HW221195   2.831   3.788   8.412  1.5470  0.9649  1.1557
 3245SOL     OW21196   1.672   4.506   6.662 -0.5716  0.3194 -0.4311
 3245SOL    HW121197   1.638   4.469   6.744 -0.1770 -0.5846 -0.6739
 3245SOL    HW221198   1.589   4.530   6.621  1.0161  2.6503 -2.2997
 3246SOL     OW21199   3.510   2.646   4.906  1.0213 -0.2770  0.3209
 3246SOL    HW121200   3.483   2.560   4.875  1.0504  0.1084 -0.7541
 3246SOL    HW221201   3.436   2.677   4.957  0.7925  1.4771 -1.1035
 3247SOL     OW21202   0.599   0.857  11.492  0.2601 -0.0891 -0.4004
 3247SOL    HW121203   0.570   0.878  11.404 -3.2308  2.1750  1.2935
 3247SOL    HW221204   0.611   0.762  11.481  0.5798  0.0476 -1.1967
 3248SOL     OW21205   2.705   4.638   5.295 -0.5633  0.2406  0.0500
 3248SOL    HW121206   2.631   4.658   5.237  0.2541 -1.1084 -1.4603
 3248SOL    HW221207   2.675   4.657   5.384 -3.0117 -1.5293 -0.3767
 3249SOL     OW21208   3.566   3.996   5.461 -0.0720  0.5978  0.7133
 3249SOL    HW121209   3.600   4.025   5.376 -0.6595 -1.1123 -0.1002
 3249SOL    HW221210   3.636   4.030   5.516 -0.5082  1.3829  0.7810
 3250SOL     OW21211   3.550   4.475  14.576 -0.5822 -0.4689 -0.0338
 3250SOL    HW121212   3.501   4.484  14.494  0.2574 -1.8960 -0.6827
 3250SOL    HW221213   3.640   4.463  14.546 -0.5223  2.3657 -0.9732
 3251SOL     OW21214   0.494   1.205   8.580 -0.3568  0.0644 -0.2120
 3251SOL    HW121215   0.590   1.206   8.582 -0.3339 -1.1033 -0.5700
 3251SOL    HW221216   0.478   1.204   8.674  0.1776  0.1552 -0.1219
 3252SOL     OW21217   4.313   4.592   8.582  0.4588  0.2229  0.2517
 3252SOL    HW121218   4.283   4.627   8.498  2.9373  0.6664 -0.4353
 3252SOL    HW221219   4.257   4.517   8.598 -0.5992  0.7018 -1.1717
 3253SOL     OW21220   1.236   1.245   3.823 -0.3777 -0.4581 -0.2659
 3253SOL    HW121221   1.178   1.293   3.882  0.3297  0.2254 -0.1176
 3253SOL    HW221222   1.187   1.164   3.825 -2.2168  0.6990  0.9449
 3254SOL     OW21223   0.188   4.128   8.954  0.4622 -0.6081 -0.2308
 3254SOL    HW121224   0.177   4.189   8.881 -2.1046 -1.0064 -0.1700
 3254SOL    HW221225   0.147   4.054   8.910  1.8432 -1.6147  0.1791
 3255SOL     OW21226   4.056   4.567  13.203  0.1344  0.4407  0.3690
 3255SOL    HW121227   4.035   4.659  13.194 -2.1322 -0.1880 -0.5303
 3255SOL    HW221228   4.123   4.554  13.136 -0.1862 -1.9128  0.4971
 3256SOL     OW21229   3.927   0.330  13.223 -0.2385 -0.2211  0.0590
 3256SOL    HW121230   3.962   0.243  13.203  3.1869  0.9291  0.9276
 3256SOL    HW221231   4.007   0.370  13.257 -0.5904  0.4144  0.1367
 3257SOL     OW21232   1.916   4.236   5.130 -0.2598  0.2777 -0.1526
 3257SOL    HW121233   1.959   4.156   5.099 -1.3505  1.1399 -3.9949
 3257SOL    HW221234   1.973   4.304   5.094 -0.9895 -0.2031 -2.2425
 3258SOL     OW21235   0.736   2.292  17.504 -0.5330  0.2905 -0.0558
 3258SOL    HW121236   0.705   2.268  17.592 -0.2707  2.1013  0.5337
 3258SOL    HW221237   0.820   2.333  17.523 -0.0858 -1.0967  0.8877
 3259SOL     OW21238   0.560   4.687   1.716 -0.1823  0.0184 -0.0880
 3259SOL    HW121239   0.523   4.634   1.646 -0.2425 -1.6662  1.2148
 3259SOL    HW221240   0.480   4.715   1.761  1.6880  0.6735  2.8322
 3260SOL     OW21241   1.876   0.587  13.894  0.4538  0.3887 -0.3926
 3260SOL    HW121242   1.851   0.677  13.875  1.7916  1.0753  1.1620
 3260SOL    HW221243   1.799   0.561  13.944  0.5718  2.3560  0.8020
 3261SOL     OW21244   2.439   0.656  17.171  0.3859  0.8667 -0.4521
 3261SOL    HW121245   2.493   0.611  17.108  1.4526 -0.3662  1.3471
 3261SOL    HW221246   2.400   0.727  17.120 -0.5547  0.8602  0.2339
 3262SOL     OW21247   0.096   2.420  13.231  0.2021 -0.3021  0.2841
 3262SOL    HW121248   0.062   2.497  13.185 -2.0002 -1.7810 -0.5618
 3262SOL    HW221249   0.168   2.456  13.282  0.1130  3.3549 -2.1216
 3263SOL     OW21250   2.403   4.045   5.050  0.1853 -0.0123 -0.4011
 3263SOL    HW121251   2.429   4.017   5.138  0.1306 -0.5283 -0.5514
 3263SOL    HW221252   2.486   4.075   5.013  0.8281 -0.4944  0.6311
 3264SOL     OW21253   0.556   4.237   8.975  0.3909  0.6123 -0.4190
 3264SOL    HW121254   0.572   4.151   8.936 -0.1331 -0.1971  1.1459
 3264SOL    HW221255   0.465   4.250   8.946 -0.5441 -0.9233  1.8639
 3265SOL     OW21256   3.856   1.614   0.747  0.2012  0.7249  0.7607
 3265SOL    HW121257   3.896   1.581   0.667  1.8368  0.9681  1.4742
 3265SOL    HW221258   3.764   1.594   0.730  0.8913 -2.0149  0.2402
 3266SOL     OW21259   1.045   1.190  12.502 -0.0312 -0.5381  0.5052
 3266SOL    HW121260   0.983   1.227  12.565 -0.8816 -0.3840 -0.4180
 3266SOL    HW221261   1.047   1.248  12.426  0.3337 -2.8583 -1.2700
 3267SOL     OW21262   1.821   0.074  15.928  0.2178  0.2514  0.2581
 3267SOL    HW121263   1.903   0.080  15.976  1.3338  0.3070 -1.6714
 3267SOL    HW221264   1.844   0.080  15.836 -1.6273  2.1257 -0.0844
 3268SOL     OW21265   1.504   2.711  12.118 -0.2692 -0.0944 -0.1570
 3268SOL    HW121266   1.543   2.771  12.054 -0.9997  0.5952  0.0560
 3268SOL    HW221267   1.547   2.728  12.201 -0.7085 -1.2201  0.3028
 3269SOL     OW21268   3.704   0.028  12.702 -0.2238  0.3733  0.4970
 3269SOL    HW121269   3.688   4.656  12.700 -0.0180  0.3829 -1.8267
 3269SOL    HW221270   3.731   0.053  12.613 -1.3140 -0.2307 -0.0015
 3270SOL     OW21271   1.135   3.816   4.662  0.3932  0.6255 -0.2120
 3270SOL    HW121272   1.211   3.844   4.612  0.8150  0.3817  0.2913
 3270SOL    HW221273   1.182   3.751   4.715 -1.6540  0.2105  1.1101
 3271SOL     OW21274   3.604   0.043  11.940  0.3764 -1.0631  0.2002
 3271SOL    HW121275   3.575   4.675  11.930 -0.0326 -0.6288 -2.5570
 3271SOL    HW221276   3.558   0.085  12.013  1.6383 -2.6733  1.9177
 3272SOL     OW21277   0.476   1.546   7.278  0.3140 -0.5236  0.3794
 3272SOL    HW121278   0.557   1.502   7.254  1.1852  2.3184 -1.8836
 3272SOL    HW221279   0.433   1.487   7.339 -2.7649  2.0650  0.6985
 3273SOL     OW21280   0.065   2.173   8.280 -0.0632  0.8724 -0.2839
 3273SOL    HW121281   0.043   2.265   8.296  0.0497  1.2148 -2.0021
 3273SOL    HW221282   0.160   2.175   8.263  0.0276  0.6279  0.2112
 3274SOL     OW21283   4.262   1.272   7.618  0.6121 -0.3189  0.5349
 3274SOL    HW121284   4.244   1.285   7.525  0.7798 -2.2106  0.2373
 3274SOL    HW221285   4.274   1.177   7.617 -0.7109 -0.4808  0.9008
 3275SOL     OW21286   3.877   2.935   7.617  0.5893 -0.0613  0.2338
 3275SOL    HW121287   3.797   2.966   7.574 -0.1541  0.0059  1.6671
 3275SOL    HW221288   3.878   2.980   7.702 -1.6087 -0.5129  0.4933
 3276SOL     OW21289   3.836   4.125   3.520 -0.5859 -0.3085 -0.3708
 3276SOL    HW121290   3.755   4.161   3.555 -0.4968  0.3843 -0.8733
 3276SOL    HW221291   3.830   4.151   3.428 -3.0231  1.7877  0.3797
 3277SOL     OW21292   0.877   4.014   8.766 -0.1182 -0.5487  0.2097
 3277SOL    HW121293   0.933   3.971   8.832 -0.6309  0.4265  1.2746
 3277SOL    HW221294   0.926   4.092   8.743 -1.1923  0.1874  0.4110
 3278SOL     OW21295   4.095   4.315  13.564 -0.1053  0.2532 -0.6780
 3278SOL    HW121296   4.138   4.272  13.638  0.7120 -0.4332 -1.5474
 3278SOL    HW221297   4.164   4.319  13.497  2.1632  2.7171  1.7638
 3279SOL     OW21298   2.517   0.725  17.503  0.0898  0.0899 -0.6094
 3279SOL    HW121299   2.590   0.787  17.515 -0.2381  0.8077 -2.2714
 3279SOL    HW221300   2.486   0.760  17.419 -0.4902  0.9043 -0.0633
 3280SOL     OW21301   3.173   2.904   3.573  0.2725  0.0977  0.5564
 3280SOL    HW121302   3.096   2.862   3.612  0.7023 -1.5257 -0.3458
 3280SOL    HW221303   3.246   2.881   3.630  0.9674 -0.8251 -0.7111
 3281SOL     OW21304   4.666   1.554  15.193 -0.0643  0.4469 -0.8127
 3281SOL    HW121305   4.697   1.644  15.182 -1.9195  1.0888 -0.7863
 3281SOL    HW221306   4.577   1.544  15.158 -0.6859  1.4035  0.4915
 3282SOL     OW21307   4.548   0.299   0.630  0.3735  0.2023  0.3327
 3282SOL    HW121308   4.626   0.311   0.683 -0.6771  0.4074  1.8414
 3282SOL    HW221309   4.553   0.205   0.611  3.5663  0.8642 -1.9654
 3283SOL     OW21310   3.134   2.059   3.984  0.5426 -0.1343 -0.5113
 3283SOL    HW121311   3.050   2.086   3.946  0.2819  0.3801  0.4363
 3283SOL    HW221312   3.108   1.982   4.033  2.5001 -0.1693  0.4646
 3284SOL     OW21313   2.111   2.194  14.511  0.3214 -0.0175  0.2413
 3284SOL    HW121314   2.045   2.145  14.560  1.8834 -1.5804  0.7910
 3284SOL    HW221315   2.061   2.212  14.432  0.0101  0.8297  0.6195
 3285SOL     OW21316   0.949   1.579   2.620 -0.0975  0.3599 -0.1550
 3285SOL    HW121317   1.026   1.634   2.609  0.0188 -0.1996 -2.1994
 3285SOL    HW221318   0.949   1.542   2.531 -0.9405 -1.3469  0.5622
 3286SOL     OW21319   0.174   0.687  12.922 -0.0328  0.5182 -0.3284
 3286SOL    HW121320   0.269   0.681  12.927  0.0570  1.0562 -1.3684
 3286SOL    HW221321   0.153   0.754  12.856  0.0326 -1.5431 -2.4267
 3287SOL     OW21322   1.915   4.289   6.182  1.2000  0.2466  0.0868
 3287SOL    HW121323   1.832   4.272   6.138  1.6006  0.8297 -0.9035
 3287SOL    HW221324   1.888   4.356   6.245  0.5367  0.6720 -0.6420
 3288SOL     OW21325   4.578   1.153   7.498  0.0745  0.6083 -0.0453
 3288SOL    HW121326   4.491   1.120   7.520  0.3202 -0.4140 -0.5930
 3288SOL    HW221327   4.555   1.246   7.490 -0.3643  0.5436  0.4668
 3289SOL     OW21328   3.580   3.407  13.411  0.3880 -0.1221 -0.3971
 3289SOL    HW121329   3.674   3.425  13.414  0.2367  0.5386  0.4280
 3289SOL    HW221330   3.589   3.317  13.379 -1.7415 -0.1265 -0.9690
 3290SOL     OW21331   0.124   2.407   1.387 -0.8731 -0.0110  0.0089
 3290SOL    HW121332   0.067   2.333   1.407  3.0301 -2.4387  2.1494
 3290SOL    HW221333   0.078   2.479   1.431 -1.0347 -1.4565  2.2342
 3291SOL     OW21334   3.456   0.480   4.968 -0.3460  0.8173  0.2685
 3291SOL    HW121335   3.514   0.416   4.927 -1.1347  0.8438 -0.9181
 3291SOL    HW221336   3.478   0.559   4.918  0.1467  0.2988 -0.3282
 3292SOL     OW21337   2.776   1.828  10.357 -0.2581  0.3356  0.2094
 3292SOL    HW121338   2.857   1.879  10.359  0.7452 -1.2546  0.1870
 3292SOL    HW221339   2.715   1.892  10.394 -2.2597 -1.6529  0.2980
 3293SOL     OW21340   0.336   2.509  17.296 -0.4378  1.0689 -0.0236
 3293SOL    HW121341   0.406   2.549  17.347 -1.7871  2.0526  1.0406
 3293SOL    HW221342   0.388   2.451  17.241  1.5063  1.0814  1.8423
 3294SOL     OW21343   3.687   1.604   2.651  0.5067 -0.1106  0.4254
 3294SOL    HW121344   3.662   1.693   2.675  2.7533  0.5694  0.2589
 3294SOL    HW221345   3.736   1.580   2.729  0.8589 -1.7180 -0.2951
 3295SOL     OW21346   1.798   0.211   2.861  0.0822 -0.4144 -0.3814
 3295SOL    HW121347   1.765   0.133   2.906 -2.6250  0.8229 -0.1736
 3295SOL    HW221348   1.828   0.178   2.777  1.8826  0.3632 -0.0383
 3296SOL     OW21349   4.162   3.181   6.062 -0.4172 -0.0359  0.0149
 3296SOL    HW121350   4.126   3.180   6.151  0.3973 -0.8088  0.3300
 3296SOL    HW221351   4.101   3.235   6.011 -0.1792  0.6830  0.5030
 3297SOL     OW21352   1.679   1.423  17.456  0.2922  0.6371  0.3928
 3297SOL    HW121353   1.698   1.400  17.365  0.9801  0.6417  0.5337
 3297SOL    HW221354   1.592   1.393  17.478  0.5408 -1.2223 -1.1494
 3298SOL     OW21355   2.800   1.044  10.277 -0.7278 -0.2251 -0.3558
 3298SOL    HW121356   2.746   1.091  10.214 -0.6442 -0.0661 -0.3089
 3298SOL    HW221357   2.871   0.999  10.233  0.2084  0.3665  0.5435
 3299SOL     OW21358   3.405   3.307  11.803  0.3462 -0.0506  0.2827
 3299SOL    HW121359   3.412   3.394  11.842  0.0598  0.1872 -0.2036
 3299SOL    HW221360   3.477   3.268  11.853  0.7357 -0.1941 -0.4036
 3300SOL     OW21361   4.439   2.893   6.998 -0.1175  0.2972  0.5445
 3300SOL    HW121362   4.364   2.833   7.007  0.1681 -0.4347 -2.0031
 3300SOL    HW221363   4.398   2.977   7.016 -2.0846 -0.5570  0.0735
 3301SOL     OW21364   4.165   2.231   7.136  0.5676 -0.0513 -0.0381
 3301SOL    HW121365   4.103   2.259   7.069  0.2170  0.2080  0.3956
 3301SOL    HW221366   4.248   2.274   7.114 -0.1748  1.3850 -0.0041
 3302SOL     OW21367   1.698   2.938   3.695  0.2144  0.6094 -0.9059
 3302SOL    HW121368   1.703   3.009   3.631  0.9754  0.7693 -0.6737
 3302SOL    HW221369   1.756   2.868   3.666 -0.4525 -0.2706 -0.1307
 3303SOL     OW21370   3.288   0.189   6.627 -0.1859 -0.5533  0.6520
 3303SOL    HW121371   3.369   0.151   6.660  0.4938  0.6642  0.3892
 3303SOL    HW221372   3.304   0.279   6.656 -1.9353  0.2670 -0.9107
 3304SOL     OW21373   2.031   3.956   7.970  0.4251 -0.7625  0.6408
 3304SOL    HW121374   2.086   3.904   7.911 -1.2102 -2.6715  0.7635
 3304SOL    HW221375   2.049   3.905   8.050  1.4026  0.6178  1.2912
 3305SOL     OW21376   1.939   0.137  16.757 -0.3452  0.0263  0.1793
 3305SOL    HW121377   1.967   0.220  16.720 -1.3274  0.2574 -0.0244
 3305SOL    HW221378   1.956   0.160  16.849  2.1306  1.0541 -0.5378
 3306SOL     OW21379   4.181   1.925   7.776 -0.1552 -0.0253 -0.2671
 3306SOL    HW121380   4.181   1.915   7.681  1.1055 -2.4669 -0.0156
 3306SOL    HW221381   4.250   1.990   7.789  0.7878 -0.8829 -0.9424
 3307SOL     OW21382   1.608   0.561   0.198  0.3128  0.1785  0.3666
 3307SOL    HW121383   1.547   0.633   0.180 -0.4038 -0.9086 -1.5970
 3307SOL    HW221384   1.618   0.522   0.111 -2.3068  1.2305 -0.4221
 3308SOL     OW21385   4.695   3.657   2.086 -0.6700  0.4144 -0.3528
 3308SOL    HW121386   4.648   3.607   2.153 -0.3911  0.1112 -0.3850
 3308SOL    HW221387   0.047   3.598   2.087 -1.3523 -0.4059  1.6039
 3309SOL     OW21388   0.409   4.464   5.116 -0.2118  0.4728  0.1689
 3309SOL    HW121389   0.451   4.468   5.030 -1.5392  0.0941 -0.4795
 3309SOL    HW221390   0.461   4.523   5.171 -1.3407  1.7537 -0.1546
 3310SOL     OW21391   4.496   0.469   6.136 -0.3359  0.1343 -0.6612
 3310SOL    HW121392   4.513   0.449   6.228  0.3746 -0.2000 -0.8674
 3310SOL    HW221393   4.521   0.561   6.129 -3.1419  0.8685 -0.9051
 3311SOL     OW21394   1.446   2.353   2.652 -0.4170 -0.4914  0.1872
 3311SOL    HW121395   1.487   2.300   2.584  0.2394 -0.8914  0.9004
 3311SOL    HW221396   1.403   2.296   2.715  1.1527  0.2520  1.9464
 3312SOL     OW21397   0.344   0.215   3.116  0.2680 -0.4932 -0.4859
 3312SOL    HW121398   0.290   0.243   3.042 -4.1842 -1.5171  2.3130
 3312SOL    HW221399   0.331   0.120   3.112  1.6468 -0.7303  0.6556
 3313SOL     OW21400   1.910   3.570   3.421 -0.4462 -0.0345  0.2901
 3313SOL    HW121401   1.981   3.529   3.470 -1.8786 -0.9559  1.5553
 3313SOL    HW221402   1.908   3.511   3.346  0.8750  0.0966  0.1428
 3314SOL     OW21403   3.313   1.415  10.532  0.0817 -0.6659  0.2917
 3314SOL    HW121404   3.281   1.375  10.451 -0.9195  0.6896  0.0028
 3314SOL    HW221405   3.283   1.342  10.587 -0.3221 -0.1864  0.7089
 3315SOL     OW21406   0.094   4.603   6.181  0.4376  0.4906 -0.2146
 3315SOL    HW121407   0.133   4.517   6.198 -0.9668  0.1874  1.5719
 3315SOL    HW221408   0.095   4.602   6.085  1.0488  1.5538 -0.2122
 3316SOL     OW21409   1.889   4.542  16.913  0.0969  0.1744  0.4663
 3316SOL    HW121410   1.950   4.542  16.987 -0.7386 -0.4774  1.1634
 3316SOL    HW221411   1.945   4.558  16.838  0.9664  1.1721  1.3236
 3317SOL     OW21412   2.128   1.272   8.724 -0.4286 -0.2395 -0.7051
 3317SOL    HW121413   2.185   1.346   8.701  0.1235  0.4790  2.8032
 3317SOL    HW221414   2.059   1.311   8.779  0.0693 -0.6810  0.2411
 3318SOL     OW21415   1.180   1.654   6.759 -0.4919  0.1107  0.3363
 3318SOL    HW121416   1.266   1.611   6.763  0.0179  1.1382  0.3310
 3318SOL    HW221417   1.120   1.581   6.746 -0.5371  0.0718  0.7519
 3319SOL     OW21418   2.324   1.500   7.605 -0.1030 -0.1280  0.3147
 3319SOL    HW121419   2.269   1.443   7.551  0.0512 -0.3809  0.4242
 3319SOL    HW221420   2.344   1.441   7.677  0.5112 -0.9578 -0.5330
 3320SOL     OW21421   2.825   1.097  10.670  0.0678  0.4769 -0.1476
 3320SOL    HW121422   2.899   1.155  10.685 -1.1937  1.2942  2.9073
 3320SOL    HW221423   2.765   1.131  10.736 -0.5014 -1.9100  0.5824
 3321SOL     OW21424   1.518   3.517   2.867  0.1776  0.0835  0.0888
 3321SOL    HW121425   1.466   3.494   2.790  1.6530 -0.3006 -0.7946
 3321SOL    HW221426   1.605   3.518   2.827 -0.0368 -4.0898 -0.4781
 3322SOL     OW21427   0.018   0.677   4.079  0.1758  0.4951 -0.1560
 3322SOL    HW121428   0.105   0.691   4.117  0.3773  2.0349 -1.1634
 3322SOL    HW221429   4.712   0.607   4.138  0.0111  1.9601  1.5130
 3323SOL     OW21430   2.777   3.919  15.763 -0.2776  0.1846 -0.0747
 3323SOL    HW121431   2.793   3.864  15.687 -1.0781 -2.0360  1.3352
 3323SOL    HW221432   2.768   3.853  15.833  0.1876  0.0217 -0.1694
 3324SOL     OW21433   3.487   0.525  11.013 -0.5892  0.5911 -0.0175
 3324SOL    HW121434   3.578   0.538  11.039 -0.6722 -2.1654  1.6069
 3324SOL    HW221435   3.491   0.563  10.925  0.9217 -1.2180 -0.7183
 3325SOL     OW21436   1.363   1.681   5.874  0.5207  0.3053 -0.1455
 3325SOL    HW121437   1.276   1.676   5.914 -0.0967  2.4736 -1.2423
 3325SOL    HW221438   1.418   1.667   5.951 -0.5454  1.1462  0.7721
 3326SOL     OW21439   3.097   1.699   7.095 -0.0978 -0.3789  0.6493
 3326SOL    HW121440   3.072   1.629   7.035 -1.5996  0.3457  0.4384
 3326SOL    HW221441   3.161   1.651   7.148 -0.8024 -1.8353  0.1811
 3327SOL     OW21442   0.352   3.506   3.543 -0.2122  0.3268 -0.3357
 3327SOL    HW121443   0.402   3.550   3.612  0.7119  0.2265 -0.9394
 3327SOL    HW221444   0.415   3.522   3.473  2.3230  0.7056  1.9914
 3328SOL     OW21445   2.574   2.521  15.335 -0.5200  0.2259  0.0947
 3328SOL    HW121446   2.510   2.592  15.348 -0.5306  0.0715  0.8447
 3328SOL    HW221447   2.535   2.485  15.255 -0.8103  0.0415  0.3188
 3329SOL     OW21448   0.977   1.237   7.719  0.1570 -0.3277  0.3015
 3329SOL    HW121449   1.020   1.301   7.661  0.3417  0.6380  1.4976
 3329SOL    HW221450   0.908   1.199   7.665  0.4989  1.0945 -1.1767
 3330SOL     OW21451   4.110   2.829   7.542 -0.8808 -0.2552  0.2451
 3330SOL    HW121452   4.142   2.824   7.632 -0.7563  0.2412  0.2253
 3330SOL    HW221453   4.033   2.884   7.555 -0.9598 -0.3813  0.3147
 3331SOL     OW21454   0.755   2.715   8.940  0.1754 -0.0127 -0.0153
 3331SOL    HW121455   0.841   2.742   8.909  0.7152 -0.9680  0.6229
 3331SOL    HW221456   0.688   2.764   8.891 -0.6820 -1.7773 -0.6176
 3332SOL     OW21457   1.338   1.109  11.020 -0.4199 -0.4045 -0.2201
 3332SOL    HW121458   1.360   1.059  11.099  0.5411  0.5736  0.1388
 3332SOL    HW221459   1.354   1.041  10.955  2.5374 -1.0714  1.1547
 3333SOL     OW21460   2.841   0.275   9.501 -0.1527  0.1543 -0.1605
 3333SOL    HW121461   2.838   0.352   9.445 -0.2627  0.6156  0.4856
 3333SOL    HW221462   2.829   0.209   9.432 -1.4577  0.0005  0.2176
 3334SOL     OW21463   4.591   3.384   0.014 -0.8432 -0.2557  0.0118
 3334SOL    HW121464   4.672   3.357  17.662 -0.7771  0.9041 -0.5826
 3334SOL    HW221465   4.542   3.304  17.689  1.1716 -1.0965 -1.9068
 3335SOL     OW21466   0.700   0.251  10.423  0.0469  0.1936 -0.2794
 3335SOL    HW121467   0.722   0.343  10.435 -3.0074  0.6081  2.1716
 3335SOL    HW221468   0.613   0.251  10.383  0.1109 -0.3916 -0.4273
 3336SOL     OW21469   3.466   0.664  16.118 -0.0362 -0.2515  0.3511
 3336SOL    HW121470   3.424   0.690  16.036 -1.3379 -3.0286  0.1227
 3336SOL    HW221471   3.537   0.727  16.111 -1.9488  1.8596 -0.1392
 3337SOL     OW21472   3.648   3.739  11.001 -0.2342  0.1681 -0.2376
 3337SOL    HW121473   3.675   3.739  10.909  0.1106 -0.0071 -0.1363
 3337SOL    HW221474   3.599   3.657  11.007 -0.1206 -0.0604 -2.5839
 3338SOL     OW21475   1.454   2.857  11.104 -0.2912 -0.3336  0.3366
 3338SOL    HW121476   1.415   2.904  11.031  1.3812 -0.8502 -0.8924
 3338SOL    HW221477   1.539   2.827  11.070 -0.3347 -1.4128  1.1761
 3339SOL     OW21478   2.467   1.506   7.346 -0.1910  0.0569 -0.1080
 3339SOL    HW121479   2.400   1.518   7.413  0.3527  1.0066  0.2570
 3339SOL    HW221480   2.435   1.433   7.294  0.0801 -1.0520  1.2729
 3340SOL     OW21481   0.638   2.215   8.214 -0.1526  0.0486  0.2773
 3340SOL    HW121482   0.649   2.232   8.307  2.3408 -1.3216  0.2273
 3340SOL    HW221483   0.733   2.206   8.208 -0.0393  2.0941 -1.1977
 3341SOL     OW21484   4.556   0.890   3.521 -0.4694  0.1244 -0.0293
 3341SOL    HW121485   4.644   0.882   3.557 -0.4282 -0.0279 -0.1654
 3341SOL    HW221486   4.566   0.945   3.443  0.0589  2.1842  1.4995
 3342SOL     OW21487   3.318   1.730   5.167  0.3375 -0.3658  0.3689
 3342SOL    HW121488   3.375   1.807   5.165  0.9217 -0.8437 -1.6436
 3342SOL    HW221489   3.264   1.751   5.243  0.7319  1.7864  0.0681
 3343SOL     OW21490   2.009   0.892  10.051  0.3341 -0.7053  0.0469
 3343SOL    HW121491   2.035   0.895  10.144 -0.8218 -0.4246  0.3606
 3343SOL    HW221492   2.046   0.809  10.020  2.0747 -0.6722  2.0518
 3344SOL     OW21493   0.613   2.454   0.992 -0.1993 -0.3107  0.3740
 3344SOL    HW121494   0.623   2.386   1.059 -0.8470 -0.4438  0.3386
 3344SOL    HW221495   0.581   2.396   0.923 -1.6326 -1.0832  1.6736
 3345SOL     OW21496   2.606   0.161   2.604 -0.1302 -0.4370 -0.2406
 3345SOL    HW121497   2.538   0.123   2.659 -1.6980  0.7169 -1.3436
 3345SOL    HW221498   2.654   0.081   2.581  2.9803  1.2236  0.4783
 3346SOL     OW21499   3.471   2.565   1.559  0.4554 -0.0299 -0.0935
 3346SOL    HW121500   3.378   2.555   1.580  1.1626 -1.8750  2.1049
 3346SOL    HW221501   3.466   2.608   1.473  0.4391  0.7225  0.2799
 3347SOL     OW21502   0.226   3.448   8.466 -0.3734 -0.1406  0.4884
 3347SOL    HW121503   0.226   3.543   8.458 -1.7878 -0.3149 -1.6095
 3347SOL    HW221504   0.307   3.427   8.420  0.5476  1.7073  1.2658
 3348SOL     OW21505   3.629   2.275  10.174  0.1468  0.2023  0.3288
 3348SOL    HW121506   3.567   2.323  10.228  0.9352  0.7173  0.7859
 3348SOL    HW221507   3.689   2.254  10.245  0.8947 -0.5196 -0.5020
 3349SOL     OW21508   1.185   4.222   9.218  0.2746  0.1617 -0.2391
 3349SOL    HW121509   1.153   4.174   9.141 -1.1431  0.8738 -0.1099
 3349SOL    HW221510   1.211   4.148   9.273  0.2744  1.1554  1.0879
 3350SOL     OW21511   3.171   2.387   0.559 -0.1276  0.6781  0.0541
 3350SOL    HW121512   3.122   2.330   0.499 -0.9335 -0.0448  1.4094
 3350SOL    HW221513   3.108   2.434   0.613  0.0695 -0.2294  1.0756
 3351SOL     OW21514   3.043   2.220   8.494 -0.3159  0.7280  0.7871
 3351SOL    HW121515   2.967   2.268   8.460 -0.4161  0.9073  1.2765
 3351SOL    HW221516   3.075   2.274   8.565  1.4518 -1.6790  1.8092
 3352SOL     OW21517   2.770   4.421   7.447 -0.1650 -0.1934 -0.0900
 3352SOL    HW121518   2.848   4.421   7.503 -0.7655  3.6346  0.7450
 3352SOL    HW221519   2.809   4.369   7.377 -0.0750 -0.3835  0.1035
 3353SOL     OW21520   4.406   0.144   5.483  0.1267  0.2205 -0.3188
 3353SOL    HW121521   4.456   0.074   5.524 -0.5854 -1.3376 -2.0916
 3353SOL    HW221522   4.475   0.206   5.461  1.1885 -1.2153 -1.0228
 3354SOL     OW21523   3.062   0.124   0.313 -0.3777  0.1490  0.1288
 3354SOL    HW121524   3.153   0.153   0.323  0.2670 -1.8645  0.2415
 3354SOL    HW221525   3.041   0.161   0.227 -1.1351 -0.9187 -0.1481
 3355SOL     OW21526   3.782   0.907  14.126  0.0481  0.3472  1.4917
 3355SOL    HW121527   3.732   0.979  14.088 -1.3062 -2.0108 -1.1916
 3355SOL    HW221528   3.871   0.943  14.127 -0.6928  2.1762  1.8982
 3356SOL     OW21529   3.337   4.647   1.541 -0.6202 -0.1740  0.3130
 3356SOL    HW121530   3.267   4.679   1.484  0.5191 -1.6917 -1.9017
 3356SOL    HW221531   3.417   4.698   1.530  1.0677 -2.5466  1.5256
 3357SOL     OW21532   1.471   1.280   6.733 -0.5577 -0.0414  0.1581
 3357SOL    HW121533   1.554   1.324   6.752 -1.0463  1.1665 -0.4996
 3357SOL    HW221534   1.409   1.347   6.762  1.6710  2.4203 -0.7203
 3358SOL     OW21535   4.109   1.555  12.537 -0.6421 -0.4742 -0.2353
 3358SOL    HW121536   4.086   1.625  12.476  1.4572 -0.1090 -0.6006
 3358SOL    HW221537   4.142   1.486  12.479 -1.0830 -0.5869 -0.3549
 3359SOL     OW21538   3.563   0.981  10.303 -0.1803 -0.2008  0.1193
 3359SOL    HW121539   3.575   1.021  10.390 -1.0271 -0.2039  0.2369
 3359SOL    HW221540   3.566   1.058  10.247  1.0571 -2.9724 -3.5556
 3360SOL     OW21541   3.556   4.446   4.098 -0.7805 -0.4407  0.5501
 3360SOL    HW121542   3.622   4.408   4.040  0.8083  1.2289  1.2557
 3360SOL    HW221543   3.525   4.514   4.038  1.0868 -0.5317 -0.5120
 3361SOL     OW21544   3.049   3.594   4.310  0.3541 -0.0369 -0.0677
 3361SOL    HW121545   3.064   3.673   4.258 -1.0347  0.7532  0.7429
 3361SOL    HW221546   3.076   3.529   4.244  1.6912 -0.1227  0.5675
 3362SOL     OW21547   1.711   2.919   5.276 -0.0463 -0.5562  0.0994
 3362SOL    HW121548   1.622   2.885   5.279 -0.0577 -0.6474 -1.4030
 3362SOL    HW221549   1.708   2.954   5.187  1.3608  0.8746  0.6010
 3363SOL     OW21550   1.847   2.271   5.288  0.1460  0.1578  0.0438
 3363SOL    HW121551   1.820   2.299   5.201  0.0538  0.9454  0.3303
 3363SOL    HW221552   1.934   2.230   5.281 -0.1532 -0.2621 -1.1881
 3364SOL     OW21553   3.104   3.869   4.250  0.1047  0.5042  0.7596
 3364SOL    HW121554   3.108   3.961   4.275  1.2725 -0.1954  3.1991
 3364SOL    HW221555   3.051   3.874   4.171  0.7306  1.3757  0.3995
 3365SOL     OW21556   3.555   3.006  10.580  0.2702 -0.0414  0.1328
 3365SOL    HW121557   3.618   3.014  10.651  0.0876 -3.1194  0.6419
 3365SOL    HW221558   3.543   2.911  10.571 -1.9341  0.2566 -0.2818
 3366SOL     OW21559   3.072   1.922   3.395 -0.0515 -0.6363  0.1402
 3366SOL    HW121560   3.073   1.827   3.408  0.4614 -0.8276 -1.2602
 3366SOL    HW221561   3.162   1.941   3.420 -0.3091 -0.1751  0.7103
 3367SOL     OW21562   0.743   2.829   5.028  0.4157 -0.0921 -0.1852
 3367SOL    HW121563   0.812   2.893   5.010  1.6632 -1.3452  0.0717
 3367SOL    HW221564   0.765   2.801   5.117  0.8864  0.4808 -0.1266
 3368SOL     OW21565   0.036   4.217   3.474 -0.0086  0.2897  0.2509
 3368SOL    HW121566   4.680   4.167   3.450  0.9410 -1.1284  0.0617
 3368SOL    HW221567   0.034   4.213   3.570  1.1598 -0.0065  0.2689
 3369SOL     OW21568   4.169   0.907   9.176 -0.2017 -0.2576  0.5268
 3369SOL    HW121569   4.092   0.928   9.230  1.0049  0.3417  2.0249
 3369SOL    HW221570   4.151   0.822   9.135  0.8325 -0.7490  1.0883
 3370SOL     OW21571   4.069   3.315  17.078  0.0969 -0.3055 -0.3275
 3370SOL    HW121572   3.999   3.334  17.015 -1.5684 -2.1331  0.9657
 3370SOL    HW221573   4.010   3.296  17.152  2.6627 -0.0389  1.7928
 3371SOL     OW21574   1.957   3.635   9.286 -0.4229 -0.2104  0.0259
 3371SOL    HW121575   1.991   3.664   9.371 -0.1691 -1.8961  0.5121
 3371SOL    HW221576   1.882   3.580   9.310 -0.2766 -0.8233 -0.9514
 3372SOL     OW21577   3.632   4.139   8.308 -0.0303 -0.2425 -0.2011
 3372SOL    HW121578   3.716   4.097   8.286  0.5441 -0.6474  2.8129
 3372SOL    HW221579   3.629   4.128   8.403 -0.4798  1.1788 -0.0639
 3373SOL     OW21580   1.912   1.173   4.301 -0.1645  0.6695  0.3055
 3373SOL    HW121581   1.879   1.150   4.215 -1.8315  1.2148  0.7989
 3373SOL    HW221582   1.907   1.090   4.348  1.7364 -1.0063 -2.4597
 3374SOL     OW21583   0.874   4.483   9.365  0.0056  0.3219 -0.0732
 3374SOL    HW121584   0.823   4.496   9.285 -2.1451 -0.5463  1.1649
 3374SOL    HW221585   0.959   4.521   9.341  0.2581 -1.5113 -2.0958
 3375SOL     OW21586   2.173   0.918   4.415  0.4748  0.5426 -0.4614
 3375SOL    HW121587   2.165   0.965   4.333 -0.7983 -0.0813 -0.6959
 3375SOL    HW221588   2.091   0.931   4.463 -0.4111 -0.6845 -1.6280
 3376SOL     OW21589   2.697   4.151   7.151  0.2305 -0.0723  0.1049
 3376SOL    HW121590   2.792   4.162   7.143  0.0252  0.0374 -2.3061
 3376SOL    HW221591   2.696   4.083   7.218  2.8682 -0.9157 -0.6887
 3377SOL     OW21592   4.720   3.196   5.952  0.0755 -0.1257 -0.8495
 3377SOL    HW121593   4.625   3.180   5.952 -0.0143  0.5034  0.5604
 3377SOL    HW221594   4.721   3.290   5.934  1.3219 -0.0467 -0.3422
 3378SOL     OW21595   3.174   4.646  12.489  0.6984 -0.4808  0.0635
 3378SOL    HW121596   3.245   4.643  12.553 -1.2940 -2.2083  2.1989
 3378SOL    HW221597   3.153   4.554  12.506 -0.9397 -0.2979 -1.0013
 3379SOL     OW21598   3.064   4.251   6.383 -0.2686  0.0438  0.2241
 3379SOL    HW121599   3.014   4.310   6.438 -0.2873 -2.2287  2.6684
 3379SOL    HW221600   3.051   4.167   6.427 -1.4818 -0.2182 -0.6479
 3380SOL     OW21601   2.831   2.418  16.863  0.4072 -0.5419 -0.0437
 3380SOL    HW121602   2.739   2.445  16.857  0.6846  0.0162 -1.5304
 3380SOL    HW221603   2.869   2.465  16.789 -0.9168  0.1497 -0.3023
 3381SOL     OW21604   3.352   3.570   5.479  0.2302  0.3763  0.3664
 3381SOL    HW121605   3.411   3.639   5.509  0.7970 -0.5761  1.4421
 3381SOL    HW221606   3.413   3.501   5.451 -0.9033 -0.7978  0.7832
 3382SOL     OW21607   0.817   1.344  11.375 -0.3555  0.0402  0.2949
 3382SOL    HW121608   0.724   1.332  11.353 -0.2447  0.2715 -0.3155
 3382SOL    HW221609   0.822   1.284  11.449  0.7277  1.5120  1.4016
 3383SOL     OW21610   0.045   1.933  15.226  0.9712  0.0562 -0.0617
 3383SOL    HW121611   4.709   2.009  15.219  0.1999 -0.5029  0.2105
 3383SOL    HW221612   4.698   1.867  15.240  2.6600 -1.6591  0.1886
 3384SOL     OW21613   4.672   0.553   8.282  0.6375 -0.0472 -0.3319
 3384SOL    HW121614   4.695   0.460   8.273 -0.5392 -0.5600  1.9541
 3384SOL    HW221615   0.012   0.587   8.217  0.4217  1.8187  0.4427
 3385SOL     OW21616   4.153   1.150   2.106 -0.5088  0.7201 -0.0963
 3385SOL    HW121617   4.191   1.151   2.018 -1.5530  0.9701 -0.5451
 3385SOL    HW221618   4.113   1.236   2.113  0.7224  1.3989 -1.6435
 3386SOL     OW21619   0.520   3.505   3.321 -0.6255  0.3278 -0.0452
 3386SOL    HW121620   0.587   3.559   3.279 -1.0588  1.9229  1.3462
 3386SOL    HW221621   0.564   3.420   3.327  0.0500  0.8152  1.8032
 3387SOL     OW21622   3.258   0.940  17.513 -0.0537  0.0342 -0.1365
 3387SOL    HW121623   3.181   0.914  17.565  0.1949  0.8918  0.6741
 3387SOL    HW221624   3.326   0.923  17.578 -0.4792  0.8034  0.5138
 3388SOL     OW21625   2.781   1.129  16.734 -0.2095  0.1771 -0.3393
 3388SOL    HW121626   2.877   1.137  16.737 -0.3944  1.5764  1.6065
 3388SOL    HW221627   2.762   1.062  16.669  0.2941  0.0568 -0.3637
 3389SOL     OW21628   3.578   2.097  15.184  0.0195 -0.1281  0.6244
 3389SOL    HW121629   3.498   2.150  15.174 -0.5736 -1.8123 -3.5173
 3389SOL    HW221630   3.552   2.014  15.144 -0.6233  1.0201 -1.3781
 3390SOL     OW21631   0.375   1.095  14.903  0.1165 -0.2451 -0.2481
 3390SOL    HW121632   0.339   1.183  14.910  2.0793  0.6015 -0.5947
 3390SOL    HW221633   0.299   1.047  14.871  0.1060 -1.6151  1.8403
 3391SOL     OW21634   1.337   2.355   8.584  0.1749  0.0637 -0.4179
 3391SOL    HW121635   1.334   2.294   8.658 -1.4620  0.6557 -0.0108
 3391SOL    HW221636   1.423   2.394   8.603  0.4399 -1.6121  1.8818
 3392SOL     OW21637   3.045   2.331   8.113  0.4984 -1.2489  0.6393
 3392SOL    HW121638   3.084   2.395   8.172 -0.2584  1.5128 -1.8608
 3392SOL    HW221639   2.954   2.358   8.122  0.5759 -0.4005 -1.1703
 3393SOL     OW21640   4.257   1.934   1.980  0.1122  0.1750  0.4643
 3393SOL    HW121641   4.231   1.860   1.925  1.3377  1.0199 -1.2844
 3393SOL    HW221642   4.346   1.907   2.003  0.9459  1.9675 -0.6470
 3394SOL     OW21643   2.348   1.088   0.702 -1.0582 -0.1555  0.0910
 3394SOL    HW121644   2.377   1.119   0.616 -0.4148  0.0431  0.3845
 3394SOL    HW221645   2.316   1.169   0.742  1.5206  0.8193  0.1403
 3395SOL     OW21646   0.575   3.869   2.535 -0.2390  0.2032 -0.4081
 3395SOL    HW121647   0.604   3.960   2.543  1.3546 -0.4027  0.6571
 3395SOL    HW221648   0.619   3.844   2.616 -3.4706  0.2744  1.3909
 3396SOL     OW21649   2.332   2.982   5.708 -0.4401 -0.2011  0.8864
 3396SOL    HW121650   2.288   3.051   5.658  2.1803 -1.0511 -2.6576
 3396SOL    HW221651   2.339   2.914   5.641 -2.7498  0.5965 -0.1740
 3397SOL     OW21652   2.298   0.630   8.960 -0.1570 -0.2483  0.5323
 3397SOL    HW121653   2.204   0.649   8.962 -0.5288 -2.0371 -0.0251
 3397SOL    HW221654   2.313   0.586   9.044  0.5674 -0.4953  0.2693
 3398SOL     OW21655   2.885   1.585  16.990 -0.3432 -0.7814  0.2561
 3398SOL    HW121656   2.904   1.546  16.904  1.9789 -0.7610  0.7691
 3398SOL    HW221657   2.866   1.673  16.958 -0.4857 -0.7813  0.3408
 3399SOL     OW21658   4.196   2.909  15.299  0.0157  0.1475 -0.0448
 3399SOL    HW121659   4.104   2.890  15.281  0.5313 -0.9070 -1.6162
 3399SOL    HW221660   4.224   2.933  15.210  1.3984 -0.9792  0.0771
 3400SOL     OW21661   0.657   4.358   8.720  0.3121 -0.1008  0.4984
 3400SOL    HW121662   0.583   4.376   8.663  1.0959  2.0412  0.1214
 3400SOL    HW221663   0.622   4.327   8.803 -1.8530  2.6436  0.5998
 3401SOL     OW21664   3.522   2.508   3.732 -0.1424 -0.1033  0.0872
 3401SOL    HW121665   3.528   2.413   3.741  0.5583 -0.1162 -0.5164
 3401SOL    HW221666   3.581   2.511   3.656 -0.6280  1.2778 -0.2360
 3402SOL     OW21667   4.212   0.424   9.027  0.0618  0.0808  0.4183
 3402SOL    HW121668   4.199   0.369   9.104  0.6776 -0.2834  0.2582
 3402SOL    HW221669   4.160   0.375   8.964  1.4826 -0.3699 -0.4173
 3403SOL     OW21670   1.111   1.769   8.733  0.0897 -0.2153 -0.0879
 3403SOL    HW121671   1.121   1.772   8.828  0.1516 -4.4737  0.0727
 3403SOL    HW221672   1.020   1.797   8.724  0.4618  0.8019 -0.6261
 3404SOL     OW21673   0.112   0.907  13.639 -0.2245 -0.8290 -0.0059
 3404SOL    HW121674   0.163   0.978  13.678 -1.0948 -0.1555 -0.1222
 3404SOL    HW221675   0.168   0.854  13.582 -1.5149 -2.3197  0.1202
 3405SOL     OW21676   2.744   2.722   3.597  0.0943  0.4349 -0.0415
 3405SOL    HW121677   2.692   2.661   3.545 -0.2131  0.1834  0.5612
 3405SOL    HW221678   2.699   2.732   3.681  1.1475 -2.6219  0.8665
 3406SOL     OW21679   4.597   3.785  10.514 -0.0552 -0.0957 -0.0693
 3406SOL    HW121680   4.660   3.714  10.528 -1.4075 -1.5491 -1.3167
 3406SOL    HW221681   4.648   3.866  10.522 -0.9397  0.3597  0.8918
 3407SOL     OW21682   1.543   0.291   4.182  0.2307  0.0617  0.2209
 3407SOL    HW121683   1.472   0.355   4.188  0.5921  0.4704  0.2012
 3407SOL    HW221684   1.502   0.231   4.244 -1.2516 -0.0231 -0.8418
 3408SOL     OW21685   3.935   2.750   6.567  0.7060 -0.2531  0.2831
 3408SOL    HW121686   3.842   2.738   6.587 -0.1523 -0.4936 -3.7828
 3408SOL    HW221687   3.949   2.838   6.601 -0.4224  0.7049 -1.7002
 3409SOL     OW21688   3.991   2.210  17.519 -0.2051 -0.1277  0.1273
 3409SOL    HW121689   4.078   2.202  17.480  0.2347  2.3858  0.5760
 3409SOL    HW221690   3.984   2.305  17.517  1.3597  0.0040  0.8268
 3410SOL     OW21691   3.185   4.596   2.709  0.5099  0.1500  0.8368
 3410SOL    HW121692   3.235   4.671   2.676  2.7988 -0.7863  2.1993
 3410SOL    HW221693   3.097   4.631   2.692  0.6834  0.5898  0.8430
 3411SOL     OW21694   4.543   3.563  14.326  0.1782  0.8992 -0.4964
 3411SOL    HW121695   4.507   3.484  14.288  0.7679  0.6221 -0.4755
 3411SOL    HW221696   4.637   3.551  14.314 -0.3678 -2.0865 -1.8165
 3412SOL     OW21697   3.265   1.401   3.830 -0.3579  0.3960 -0.0319
 3412SOL    HW121698   3.347   1.354   3.846 -0.3567  0.2447 -0.4631
 3412SOL    HW221699   3.298   1.464   3.766  0.7600  0.0661  0.2200
 3413SOL     OW21700   4.067   2.773   1.901 -0.8754  0.0260 -0.1236
 3413SOL    HW121701   4.047   2.858   1.941 -0.2397 -1.5355  3.5699
 3413SOL    HW221702   4.073   2.720   1.981  0.5895 -2.1317 -1.6703
 3414SOL     OW21703   1.712   0.190   5.308 -0.1050  0.7835  0.2714
 3414SOL    HW121704   1.803   0.192   5.338 -0.2823  0.5195  0.8363
 3414SOL    HW221705   1.675   0.252   5.370  2.4846  0.5384  2.0673
 3415SOL     OW21706   1.388   0.332   8.156 -0.1074  0.4984  0.3114
 3415SOL    HW121707   1.443   0.352   8.232 -0.0672  2.2588 -0.1764
 3415SOL    HW221708   1.417   0.245   8.128  0.9453  0.8028  0.4547
 3416SOL     OW21709   2.768   3.242  10.300  0.0489 -0.1615 -0.2959
 3416SOL    HW121710   2.786   3.153  10.273  1.0068  0.1082 -0.5359
 3416SOL    HW221711   2.843   3.254  10.358  0.6825 -2.0096 -0.7476
 3417SOL     OW21712   4.215   3.300  10.088  0.2775 -0.0053 -0.4881
 3417SOL    HW121713   4.142   3.298  10.026  0.4420  0.7691 -0.7046
 3417SOL    HW221714   4.164   3.272  10.164 -0.0758 -1.9441 -1.4485
 3418SOL     OW21715   2.185   3.697  15.226 -0.1929  0.6847 -0.6605
 3418SOL    HW121716   2.173   3.610  15.265  1.0488  0.3257 -1.0811
 3418SOL    HW221717   2.098   3.729  15.201 -0.2754  0.7328 -0.3103
 3419SOL     OW21718   3.667   3.059  17.092  0.3189 -0.6413  0.2425
 3419SOL    HW121719   3.617   3.114  17.032  0.1947 -1.1272 -0.1061
 3419SOL    HW221720   3.601   2.993  17.115  0.4115 -0.8370 -0.0412
 3420SOL     OW21721   1.196   0.312   6.614 -0.7993 -0.4756  0.2971
 3420SOL    HW121722   1.192   0.371   6.539 -0.3771  0.7220  1.2143
 3420SOL    HW221723   1.125   0.252   6.591 -2.1060  0.1629  2.6718
 3421SOL     OW21724   1.966   2.341   2.372 -0.3797 -0.4079 -0.2981
 3421SOL    HW121725   2.026   2.286   2.422 -0.0463 -0.1320 -0.3986
 3421SOL    HW221726   2.030   2.409   2.352 -0.6355 -0.1344 -0.1874
 3422SOL     OW21727   1.989   0.007   7.705  0.0747  0.3969  0.1448
 3422SOL    HW121728   1.925   4.661   7.682  0.3373  0.1458  0.1468
 3422SOL    HW221729   2.073   4.683   7.706 -0.0712  0.0719 -2.6215
 3423SOL     OW21730   4.471   1.367  16.623 -0.2370  0.2353  0.4648
 3423SOL    HW121731   4.499   1.458  16.629  1.6097 -0.4189  1.7817
 3423SOL    HW221732   4.559   1.333  16.608  0.0437  1.1476  0.0556
 3424SOL     OW21733   1.375   2.108  17.381 -0.2576 -0.2011 -0.6176
 3424SOL    HW121734   1.456   2.154  17.403  0.7000 -1.7441 -0.9552
 3424SOL    HW221735   1.312   2.137  17.447  1.1504  1.6549 -0.0771
 3425SOL     OW21736   0.208   2.213   3.128  0.1479  0.2035 -0.2863
 3425SOL    HW121737   0.171   2.191   3.213  0.3669  0.1594 -0.2014
 3425SOL    HW221738   0.300   2.197   3.151  0.8214  1.4308 -2.0466
 3426SOL     OW21739   4.301   1.256  12.586  0.1326  0.0926 -0.2159
 3426SOL    HW121740   4.383   1.206  12.588 -0.0176 -0.1619 -0.7360
 3426SOL    HW221741   4.318   1.321  12.654 -1.4291  0.5783 -0.2949
 3427SOL     OW21742   3.572   4.061   3.261  0.0353  0.4373  0.1672
 3427SOL    HW121743   3.655   4.014   3.263 -0.1136  0.1444 -0.4305
 3427SOL    HW221744   3.578   4.087   3.169  2.3483 -0.0668  0.1775
 3428SOL     OW21745   3.946   1.282   5.040 -0.9304 -0.3815  0.5623
 3428SOL    HW121746   4.017   1.311   4.983 -2.2879  2.2127  0.1796
 3428SOL    HW221747   3.918   1.363   5.082 -2.4614  0.2315 -1.6958
 3429SOL     OW21748   0.297   2.491   1.795 -0.2332 -0.0520  0.2889
 3429SOL    HW121749   0.363   2.509   1.862  1.3574  1.7867 -1.7375
 3429SOL    HW221750   0.346   2.436   1.734 -0.0645  1.6420 -1.1164
 3430SOL     OW21751   0.509   4.085   9.757 -0.7684  0.4900  0.3831
 3430SOL    HW121752   0.415   4.072   9.767 -0.4460 -0.6009  1.9521
 3430SOL    HW221753   0.523   4.053   9.668 -0.2086 -1.7895  1.3031
 3431SOL     OW21754   1.002   2.410  16.726 -0.1002 -0.0683 -0.3283
 3431SOL    HW121755   1.077   2.470  16.732  2.0734 -2.6899 -1.4473
 3431SOL    HW221756   1.021   2.368  16.810  1.2209  0.4446 -0.3742
 3432SOL     OW21757   0.771   2.339  13.640  0.1815  0.5731  0.1978
 3432SOL    HW121758   0.864   2.335  13.662 -0.3325  0.7216  2.3811
 3432SOL    HW221759   0.725   2.305  13.716 -0.0459  0.9484  0.2276
 3433SOL     OW21760   4.483   1.954  16.549 -0.5420  0.4100  0.4178
 3433SOL    HW121761   4.511   2.033  16.503  2.3939 -1.0173 -0.2184
 3433SOL    HW221762   4.489   1.989  16.637 -1.0182 -0.8270  0.9460
 3434SOL     OW21763   1.787   3.312   9.747 -0.4539  0.2532 -0.0487
 3434SOL    HW121764   1.795   3.332   9.840  1.6053 -0.9635  0.0354
 3434SOL    HW221765   1.713   3.364   9.714 -0.8385  0.6733  1.4650
 3435SOL     OW21766   3.144   3.266   8.737 -0.4514 -0.4586  0.2351
 3435SOL    HW121767   3.156   3.283   8.831  1.3353 -2.2570  0.3325
 3435SOL    HW221768   3.218   3.313   8.698 -0.7981 -1.1822 -1.2865
 3436SOL     OW21769   4.145   4.219   8.056  0.0425 -0.4514  0.0250
 3436SOL    HW121770   4.203   4.144   8.064 -0.2095 -0.7086 -0.5932
 3436SOL    HW221771   4.197   4.289   8.016  0.3821 -0.9602 -0.4260
 3437SOL     OW21772   1.777   2.695  16.912  0.1443 -0.1687 -1.2754
 3437SOL    HW121773   1.772   2.734  16.999 -1.1510 -0.7275 -1.1027
 3437SOL    HW221774   1.844   2.753  16.876  0.8321 -0.6047 -0.7001
 3438SOL     OW21775   4.282   0.791   1.818 -0.2332  0.5913 -0.0641
 3438SOL    HW121776   4.306   0.767   1.729 -1.9706 -1.6770  0.0678
 3438SOL    HW221777   4.189   0.811   1.810 -0.2941  0.1182 -0.5675
 3439SOL     OW21778   4.178   0.907   3.212 -0.2619 -0.3412  0.0159
 3439SOL    HW121779   4.258   0.937   3.169 -1.7365  1.1231 -1.6964
 3439SOL    HW221780   4.182   0.816   3.183 -0.5368 -0.6317  0.8667
 3440SOL     OW21781   3.582   4.438   7.433  0.1995  0.2191 -0.0522
 3440SOL    HW121782   3.548   4.373   7.495  0.8802 -0.5270 -0.4501
 3440SOL    HW221783   3.633   4.487   7.497 -1.4819  1.0468  0.6337
 3441SOL     OW21784   1.633   1.640   3.157  0.2676  0.1336  0.6631
 3441SOL    HW121785   1.663   1.716   3.108 -3.2433  1.0146 -0.1104
 3441SOL    HW221786   1.547   1.659   3.195 -0.1685 -0.5058 -0.0035
 3442SOL     OW21787   4.440   1.546   9.513  0.3271 -0.3171  0.6820
 3442SOL    HW121788   4.377   1.600   9.560 -1.6850 -1.0623 -1.1774
 3442SOL    HW221789   4.417   1.556   9.421  1.4116  0.1678  0.4626
 3443SOL     OW21790   4.197   0.551   4.779  0.0698  0.6333 -0.2238
 3443SOL    HW121791   4.171   0.611   4.850 -0.2364 -0.9398  0.9870
 3443SOL    HW221792   4.291   0.544   4.793  0.0915 -0.4470 -1.0174
 3444SOL     OW21793   2.030   0.117   3.832 -0.6039  0.4070 -0.1462
 3444SOL    HW121794   2.121   0.138   3.852 -0.4853 -1.4409  1.2469
 3444SOL    HW221795   2.002   0.108   3.923 -1.4718  0.2358 -0.4297
 3445SOL     OW21796   3.125   1.651  12.759 -0.1273 -0.4742 -0.0432
 3445SOL    HW121797   3.190   1.640  12.689 -0.7209  0.9906 -0.8326
 3445SOL    HW221798   3.180   1.681  12.831 -1.1012  4.5570 -1.4142
 3446SOL     OW21799   4.130   4.393   8.421  1.1518  0.0450 -0.5529
 3446SOL    HW121800   4.125   4.450   8.344  1.8452 -0.6008 -1.0789
 3446SOL    HW221801   4.116   4.307   8.380 -0.2318  0.0958 -0.1696
 3447SOL     OW21802   3.596   1.028   5.922 -0.1958 -0.1631 -0.5348
 3447SOL    HW121803   3.565   0.996   6.007  2.3480  0.3508  0.5900
 3447SOL    HW221804   3.684   1.059   5.943 -1.3211  1.8931  1.0638
 3448SOL     OW21805   0.808   2.280   7.929 -0.0180  0.2024 -0.1598
 3448SOL    HW121806   0.885   2.321   7.967 -0.5221  0.8313  0.1723
 3448SOL    HW221807   0.740   2.307   7.989  1.4296  0.9472  1.1457
 3449SOL     OW21808   2.447   0.244   5.331 -0.2762  0.0815 -0.0578
 3449SOL    HW121809   2.526   0.251   5.386 -0.9738  1.0078  0.8339
 3449SOL    HW221810   2.379   0.246   5.398 -1.4483 -0.1983 -1.2366
 3450SOL     OW21811   1.465   3.862   9.430 -0.2220 -0.1835 -0.2569
 3450SOL    HW121812   1.419   3.891   9.509  1.2468 -0.1950  0.5955
 3450SOL    HW221813   1.395   3.806   9.396  0.8338 -1.0801 -0.9342
 3451SOL     OW21814   2.901   0.639   0.284  0.2363 -0.8246  0.9624
 3451SOL    HW121815   2.881   0.551   0.316 -0.8400 -1.2523 -0.9292
 3451SOL    HW221816   2.991   0.653   0.314  1.0143 -0.6984 -1.4659
 3452SOL     OW21817   1.896   3.649  11.061  0.1813 -0.1929  0.1191
 3452SOL    HW121818   1.943   3.691  10.989 -0.8962 -0.6139 -0.8209
 3452SOL    HW221819   1.906   3.555  11.049 -0.1227 -0.0570 -1.1517
 3453SOL     OW21820   1.803   0.157   3.364 -0.2531 -0.6863 -0.2160
 3453SOL    HW121821   1.824   0.069   3.394  0.4003 -1.1903 -2.1695
 3453SOL    HW221822   1.875   0.201   3.409 -2.1584  2.6777 -0.4548
 3454SOL     OW21823   2.494   1.100   2.890  0.1292 -0.2602  0.0237
 3454SOL    HW121824   2.506   1.194   2.905 -0.6061 -0.3311  1.0071
 3454SOL    HW221825   2.583   1.074   2.869  0.3515 -2.8610  4.3443
 3455SOL     OW21826   4.566   3.499   7.706  0.5264  0.6615  0.0020
 3455SOL    HW121827   4.655   3.526   7.687  0.2527  0.2512 -1.9455
 3455SOL    HW221828   4.528   3.587   7.705 -0.8115  0.0973 -0.0460
 3456SOL     OW21829   3.465   2.692   7.361  0.3132  0.6477 -0.0705
 3456SOL    HW121830   3.557   2.710   7.344  0.7358 -0.9949  0.4791
 3456SOL    HW221831   3.447   2.606   7.322  0.3650  0.5267  0.1666
 3457SOL     OW21832   1.014   3.403   8.991 -0.4051  0.1411  0.2479
 3457SOL    HW121833   1.041   3.413   9.082 -0.4234  0.6426  0.1963
 3457SOL    HW221834   1.076   3.458   8.943 -0.8681 -0.3575 -0.9212
 3458SOL     OW21835   3.259   4.215   6.646  0.1339 -0.3455 -0.8103
 3458SOL    HW121836   3.319   4.207   6.720 -3.5246 -0.5393  2.1284
 3458SOL    HW221837   3.262   4.310   6.639  0.1183 -0.3727 -1.1929
 3459SOL     OW21838   2.932   3.794   9.136 -0.0178  0.0101  0.0659
 3459SOL    HW121839   2.858   3.825   9.083 -1.0603 -0.6226  1.1650
 3459SOL    HW221840   2.888   3.745   9.204 -2.9641 -0.1302 -1.9292
 3460SOL     OW21841   3.833   3.722   9.055 -0.4285  0.5981 -0.1681
 3460SOL    HW121842   3.902   3.684   9.109  0.9969  1.8482 -1.1256
 3460SOL    HW221843   3.756   3.699   9.107  1.1633 -0.3480  1.7425
 3461SOL     OW21844   2.251   3.296   2.941 -0.2514 -0.3404 -0.1739
 3461SOL    HW121845   2.335   3.327   2.973  0.2813  0.2644 -2.1777
 3461SOL    HW221846   2.227   3.368   2.883  0.2257 -0.3332 -0.3555
 3462SOL     OW21847   2.239   1.682   8.324 -0.7198  0.3471 -0.5829
 3462SOL    HW121848   2.304   1.718   8.384 -0.9562 -0.6197  0.2599
 3462SOL    HW221849   2.201   1.762   8.289 -1.2934 -2.1097 -5.5930
 3463SOL     OW21850   2.979   1.009   2.811  0.1907 -0.4589 -0.3983
 3463SOL    HW121851   3.032   0.994   2.733  3.2837  2.2299  1.2337
 3463SOL    HW221852   3.029   1.081   2.849 -1.6223  0.2989  0.5511
 3464SOL     OW21853   0.007   4.023   9.643 -0.8164 -0.0447 -0.0003
 3464SOL    HW121854   4.692   4.084   9.707 -1.5075 -2.3495  1.8043
 3464SOL    HW221855   0.093   4.017   9.685  0.2371 -4.1085 -2.7174
 3465SOL     OW21856   1.475   4.680  11.990 -0.2169 -0.1671  0.2062
 3465SOL    HW121857   1.485   0.053  11.986 -0.0517 -0.2967 -2.4477
 3465SOL    HW221858   1.556   4.659  11.944 -0.3332  0.3299 -0.2343
 3466SOL     OW21859   2.553   3.805   2.659 -0.3370  0.2367  0.0123
 3466SOL    HW121860   2.517   3.889   2.628 -3.0002 -1.1285 -0.6113
 3466SOL    HW221861   2.626   3.837   2.711 -0.6601 -1.5058  1.5143
 3467SOL     OW21862   4.288   2.322  10.673  0.1801 -0.1228 -0.6300
 3467SOL    HW121863   4.321   2.336  10.584 -0.3194  0.9720 -0.6479
 3467SOL    HW221864   4.248   2.236  10.667  3.5290 -1.8874  2.4576
 3468SOL     OW21865   2.800   3.239   8.930 -0.0467  0.5154 -0.1649
 3468SOL    HW121866   2.811   3.187   9.009 -0.6224  3.2133  1.6950
 3468SOL    HW221867   2.881   3.289   8.938  0.3765  0.2045 -2.4525
 3469SOL     OW21868   0.787   1.030   6.582  0.8507  0.3985 -0.1623
 3469SOL    HW121869   0.718   1.006   6.643  0.1957  0.0826 -1.0294
 3469SOL    HW221870   0.751   1.108   6.541  0.1617  0.6443  0.9270
 3470SOL     OW21871   2.257   2.454   8.881 -0.6442  0.4770  0.1076
 3470SOL    HW121872   2.289   2.543   8.866 -0.5887  0.5206  0.4992
 3470SOL    HW221873   2.298   2.439   8.966 -1.9174  2.8471  1.1233
 3471SOL     OW21874   2.990   0.485   2.434  0.2443 -0.4167  0.3339
 3471SOL    HW121875   2.903   0.465   2.468  0.9611  0.2655  2.5425
 3471SOL    HW221876   2.982   0.470   2.339 -1.9685 -0.1145  0.4718
 3472SOL     OW21877   0.448   0.044   8.513  0.3688 -0.0590  0.2004
 3472SOL    HW121878   0.540   0.056   8.535  0.5116 -1.0867  0.1481
 3472SOL    HW221879   0.437   0.134   8.480 -0.2025  0.6174  2.2493
 3473SOL     OW21880   0.361   4.700  10.383  0.1552  0.5864 -0.0899
 3473SOL    HW121881   0.376   4.610  10.414  1.1095 -0.5785 -3.8902
 3473SOL    HW221882   0.429   0.025  10.431  0.4347  0.6800 -0.5727
 3474SOL     OW21883   3.000   4.358  10.622  0.1922 -0.1452 -0.1762
 3474SOL    HW121884   2.996   4.313  10.707 -0.8305 -0.6210 -0.4813
 3474SOL    HW221885   3.006   4.279  10.568 -1.9151 -0.0839 -0.4840
 3475SOL     OW21886   2.028   1.807  10.271  0.0948  0.0112  0.3404
 3475SOL    HW121887   2.068   1.845  10.350 -1.1381  1.0670  0.4670
 3475SOL    HW221888   2.103   1.762  10.233 -0.7206  0.8982 -2.3317
 3476SOL     OW21889   1.965   1.910   5.297 -0.1850  0.3769  0.2855
 3476SOL    HW121890   1.871   1.930   5.292  0.0333  1.1199 -0.8768
 3476SOL    HW221891   1.999   1.988   5.253 -0.6112  0.2581 -0.2409
 3477SOL     OW21892   4.620   4.427   8.580 -0.2575 -0.0330  0.4097
 3477SOL    HW121893   4.572   4.488   8.636  1.5045  1.3719  0.4131
 3477SOL    HW221894   4.560   4.437   8.506 -0.0814  1.8238  0.5105
 3478SOL     OW21895   3.196   3.792  11.899  0.0401  0.4642 -0.2893
 3478SOL    HW121896   3.117   3.845  11.886 -2.2084 -2.9050 -0.6799
 3478SOL    HW221897   3.152   3.717  11.939 -0.4813  0.0913 -1.5340
 3479SOL     OW21898   2.635   0.608   2.320 -0.3926 -0.2149  0.9575
 3479SOL    HW121899   2.702   0.642   2.261  0.2152  1.6875  2.7226
 3479SOL    HW221900   2.618   0.677   2.384  1.5356 -0.7494  2.0603
 3480SOL     OW21901   3.114   2.385   3.796 -0.3012  0.0146 -0.6245
 3480SOL    HW121902   3.092   2.477   3.783  0.5991  0.2058 -0.7858
 3480SOL    HW221903   3.158   2.383   3.881 -1.4136  1.6554 -0.0283
 3481SOL     OW21904   0.795   1.229   3.931 -0.3181 -0.4116  0.0855
 3481SOL    HW121905   0.777   1.254   4.022  0.2981  1.2083 -0.2252
 3481SOL    HW221906   0.810   1.135   3.937  2.4894 -0.1414 -2.8711
 3482SOL     OW21907   3.805   3.855   3.551 -0.1658 -0.1170 -0.3277
 3482SOL    HW121908   3.715   3.863   3.583 -0.7257 -3.6324 -1.0750
 3482SOL    HW221909   3.823   3.948   3.535  1.7611 -0.2560  1.0030
 3483SOL     OW21910   1.185   2.937  12.015  0.2193  0.2222  0.2691
 3483SOL    HW121911   1.177   3.028  11.988  0.3763  0.3477  0.6354
 3483SOL    HW221912   1.271   2.933  12.058 -0.0193  2.5198  0.9786
 3484SOL     OW21913   1.073   2.844   4.702 -0.1812 -0.0059  1.0929
 3484SOL    HW121914   0.987   2.874   4.731  1.4197  1.8756  3.9219
 3484SOL    HW221915   1.070   2.838   4.606 -0.8600 -0.5271  1.1488
 3485SOL     OW21916   0.483   0.876   3.391  0.1154  0.4213 -0.4750
 3485SOL    HW121917   0.479   0.783   3.370  0.4201  0.1030  0.9118
 3485SOL    HW221918   0.478   0.880   3.486  0.5955 -3.2497 -0.2903
 3486SOL     OW21919   2.336   0.116   0.014 -0.4123  0.1158  0.4272
 3486SOL    HW121920   2.360   0.205   0.042  2.6840 -0.5624 -0.0125
 3486SOL    HW221921   2.300   0.082   0.096  0.9803 -1.0384  0.5575
 3487SOL     OW21922   1.105   1.413   7.555 -0.4716  0.0862  0.1347
 3487SOL    HW121923   1.160   1.441   7.481  1.3937 -0.5328  1.2784
 3487SOL    HW221924   1.023   1.430   7.510 -0.8464 -0.2001  0.7113
 3488SOL     OW21925   1.901   0.038   8.413  0.0672  0.5374 -0.1744
 3488SOL    HW121926   1.894   4.720   8.500 -1.3250 -0.0266 -0.5464
 3488SOL    HW221927   1.886   0.131   8.431  1.1169  0.5679  0.5391
 3489SOL     OW21928   1.874   2.436  14.761 -0.2156  0.0343  0.3683
 3489SOL    HW121929   1.855   2.434  14.855 -0.1499 -1.7465  0.3370
 3489SOL    HW221930   1.829   2.358  14.731  1.9181 -0.0528 -2.6219
 3490SOL     OW21931   3.516   1.456   7.718 -0.2517  0.1190  0.0725
 3490SOL    HW121932   3.592   1.495   7.675  0.1871  2.1145  2.6442
 3490SOL    HW221933   3.557   1.427   7.800 -2.8293  0.0797  1.3369
 3491SOL     OW21934   1.463   1.542   1.971 -0.7555 -0.1123  0.2049
 3491SOL    HW121935   1.367   1.537   1.978 -0.8879 -2.2913 -2.9882
 3491SOL    HW221936   1.475   1.464   1.916  0.5701 -0.4276  0.9589
 3492SOL     OW21937   2.756   4.318   6.243  0.4839  0.2479  0.8555
 3492SOL    HW121938   2.755   4.250   6.311 -1.5405 -0.6267 -0.0757
 3492SOL    HW221939   2.807   4.274   6.175  2.1922  1.8383  1.1040
 3493SOL     OW21940   1.697   1.811   2.827 -0.4597  0.1790 -0.3889
 3493SOL    HW121941   1.709   1.837   2.919 -2.2688  2.3400 -0.7626
 3493SOL    HW221942   1.786   1.792   2.796 -0.3721 -1.2260  0.6769
 3494SOL     OW21943   3.924   0.611   6.281  0.1956 -0.3227 -0.4165
 3494SOL    HW121944   3.866   0.577   6.349  0.6214 -1.6395 -0.6956
 3494SOL    HW221945   3.967   0.685   6.324  1.0954 -0.6549 -0.7309
 3495SOL     OW21946   3.371   3.184   9.800  0.2155 -0.4579 -0.8041
 3495SOL    HW121947   3.464   3.205   9.799  0.5044 -1.7226  0.7090
 3495SOL    HW221948   3.350   3.192   9.707 -2.8304 -0.5950 -0.1517
 3496SOL     OW21949   1.890   0.918   4.416 -0.4630 -0.1515 -0.3291
 3496SOL    HW121950   1.840   0.878   4.344  0.1065 -1.7834  0.1833
 3496SOL    HW221951   1.858   0.870   4.492 -3.1644 -0.4394 -1.6527
 3497SOL     OW21952   0.522   1.091   7.166  0.0740 -0.8948  0.6313
 3497SOL    HW121953   0.515   1.162   7.102 -0.3524 -1.4288  0.0860
 3497SOL    HW221954   0.428   1.075   7.172  0.3611 -2.0843  2.1012
 3498SOL     OW21955   3.784   2.489  17.298  0.1670  0.4748 -0.0041
 3498SOL    HW121956   3.786   2.440  17.216  1.1171  1.4695 -0.5769
 3498SOL    HW221957   3.770   2.579  17.267  0.2904  0.5748  0.2256
 3499SOL     OW21958   4.193   1.686  15.115  0.1482  0.2365  0.1878
 3499SOL    HW121959   4.210   1.647  15.201  0.7863  0.7549  0.2966
 3499SOL    HW221960   4.281   1.690  15.078  0.6668  0.9126  1.4982
 3500SOL     OW21961   3.622   1.427  13.066 -0.1643  0.3184 -0.1497
 3500SOL    HW121962   3.650   1.461  13.151  1.1833 -0.4665 -0.2923
 3500SOL    HW221963   3.676   1.489  13.018 -0.0606  0.3790  0.0463
 3501SOL     OW21964   2.799   1.380   6.027 -0.1735  0.2405  0.7912
 3501SOL    HW121965   2.873   1.398   6.085 -0.5119  3.4591  0.1702
 3501SOL    HW221966   2.794   1.284   6.026 -2.0146  0.3827 -2.7697
 3502SOL     OW21967   4.265   2.803   5.636 -0.1609 -0.7341 -0.4052
 3502SOL    HW121968   4.289   2.853   5.714 -1.9334  0.0382 -0.3628
 3502SOL    HW221969   4.183   2.761   5.663 -0.0388  0.3140  1.6337
 3503SOL     OW21970   3.121   0.378   2.655  0.0573  0.6397 -0.1369
 3503SOL    HW121971   3.084   0.390   2.568  0.0996  1.0890 -0.0954
 3503SOL    HW221972   3.088   0.457   2.698  0.2846  0.0208  1.2023
 3504SOL     OW21973   4.094   4.177   8.728  0.1549  0.2196 -0.9776
 3504SOL    HW121974   4.127   4.129   8.804  1.1079  1.6496 -0.4714
 3504SOL    HW221975   4.161   4.145   8.668  0.5940  0.5429 -0.6666
 3505SOL     OW21976   0.614   3.478   3.037  0.0457 -0.4218  0.1960
 3505SOL    HW121977   0.699   3.451   3.071  0.7177 -0.5929 -1.6083
 3505SOL    HW221978   0.581   3.390   3.021 -1.1178  0.4380 -2.1925
 3506SOL     OW21979   2.620   3.617   2.170  0.7480 -0.2559 -0.1345
 3506SOL    HW121980   2.634   3.697   2.120  3.0747 -0.7453 -0.2555
 3506SOL    HW221981   2.540   3.637   2.220  0.8680 -0.2014  0.0356
 3507SOL     OW21982   2.875   4.481  12.305  0.3942  0.1054 -0.0473
 3507SOL    HW121983   2.830   4.425  12.241 -1.7084  2.4921 -0.6815
 3507SOL    HW221984   2.953   4.506  12.255  0.7349  1.0788  0.9764
 3508SOL     OW21985   1.860   2.120   3.497 -0.4313 -0.3976 -0.1800
 3508SOL    HW121986   1.938   2.141   3.447 -1.0550  0.7202 -0.6903
 3508SOL    HW221987   1.822   2.206   3.520 -0.3493 -0.3958 -0.0503
 3509SOL     OW21988   4.269   4.023   5.817  0.9222  0.0939 -0.1961
 3509SOL    HW121989   4.185   4.002   5.857  1.5234 -0.8598  0.5574
 3509SOL    HW221990   4.248   4.043   5.725  1.6916 -0.1597 -0.4292
 3510SOL     OW21991   0.657   2.529   7.288  0.1632 -0.2413  0.0210
 3510SOL    HW121992   0.717   2.596   7.257 -1.3825  0.3991 -1.5744
 3510SOL    HW221993   0.609   2.581   7.353  0.6310  0.7442 -0.4396
 3511SOL     OW21994   4.405   2.041   0.613  0.8638 -0.2103  0.2178
 3511SOL    HW121995   4.428   1.966   0.559  2.0687 -0.2953  0.8369
 3511SOL    HW221996   4.310   2.040   0.617  0.8191 -2.0431 -1.2627
 3512SOL     OW21997   0.553   3.660  16.663  0.1196  0.7396 -0.0823
 3512SOL    HW121998   0.630   3.632  16.614  0.0176  0.3708 -0.0335
 3512SOL    HW221999   0.597   3.711  16.732  1.3529 -1.2929  0.6259
 3513SOL     OW22000   2.446   3.669   6.938  0.3654  0.1746  0.2854
 3513SOL    HW122001   2.404   3.714   6.866  0.2567  1.7735  1.3561
 3513SOL    HW222002   2.394   3.698   7.013 -1.3889  0.6002 -1.1016
 3514SOL     OW22003   1.077   2.072   0.235 -0.0911  0.4737  0.0689
 3514SOL    HW122004   1.022   2.150   0.224  1.7623  1.5446 -1.6497
 3514SOL    HW222005   1.018   2.000   0.256  0.5327 -0.1764 -0.4186
 3515SOL     OW22006   1.557   3.123   7.978  0.4397 -0.5036 -0.3212
 3515SOL    HW122007   1.489   3.061   7.953 -1.8444  1.0480  2.0306
 3515SOL    HW222008   1.572   3.169   7.896  1.6248  0.0005  0.1819
 3516SOL     OW22009   0.132   0.607   2.294 -0.0694 -0.0142  0.2548
 3516SOL    HW122010   0.222   0.613   2.262  0.1927 -1.6280  0.6793
 3516SOL    HW222011   0.079   0.613   2.215 -0.6406  1.7548  0.7756
 3517SOL     OW22012   3.246   2.017   0.620 -0.1217 -0.9848 -0.2530
 3517SOL    HW122013   3.317   1.985   0.565  2.7353 -0.1889  2.9732
 3517SOL    HW222014   3.182   2.030   0.549 -2.7061  0.7276  2.4024
 3518SOL     OW22015   1.951   4.142   6.419  0.6862 -0.0185 -0.1094
 3518SOL    HW122016   1.900   4.185   6.487 -0.5429  1.1221 -1.7363
 3518SOL    HW222017   1.918   4.177   6.336 -1.4379 -0.8000  0.3996
 3519SOL     OW22018   4.402   0.042  13.129 -0.7274  0.1035 -0.0241
 3519SOL    HW122019   4.487   0.005  13.105 -1.0597 -0.8386  0.2162
 3519SOL    HW222020   4.374   0.061  13.039  1.8710 -0.2081 -0.9067
 3520SOL     OW22021   0.319   4.630   8.284 -0.0416 -0.5403  0.0142
 3520SOL    HW122022   0.360   4.680   8.355  0.4158  1.2976 -1.5404
 3520SOL    HW222023   0.249   4.581   8.326 -1.5718  1.5360 -0.0919
 3521SOL     OW22024   2.565   2.136   5.732 -0.4726  0.4657 -0.1206
 3521SOL    HW122025   2.487   2.148   5.785  0.7838  1.4051  1.5279
 3521SOL    HW222026   2.537   2.192   5.660  1.7615  1.7788  0.0421
 3522SOL     OW22027   2.643   0.627  10.158  0.1111  0.1209  0.0881
 3522SOL    HW122028   2.715   0.689  10.142 -1.1914  1.3005 -1.1839
 3522SOL    HW222029   2.648   0.570  10.081  0.9870  0.1709  0.1020
 3523SOL     OW22030   2.905   3.391   9.208  0.3589 -0.2791 -0.1916
 3523SOL    HW122031   2.895   3.477   9.249 -3.3660 -0.6180 -0.4540
 3523SOL    HW222032   2.813   3.366   9.214  1.1171 -3.1096 -0.4082
 3524SOL     OW22033   4.002   2.883   5.496  0.1051 -0.3090  0.2160
 3524SOL    HW122034   4.098   2.886   5.487  0.1868 -0.6102  0.9651
 3524SOL    HW222035   3.978   2.810   5.440  0.2219  0.0918 -0.3528
 3525SOL     OW22036   2.212   0.364  10.046 -0.1672 -0.1528 -0.6051
 3525SOL    HW122037   2.264   0.290  10.078  1.3212  0.2967 -2.0199
 3525SOL    HW222038   2.226   0.355   9.952  0.9880  3.7598 -0.7902
 3526SOL     OW22039   4.352   3.634   7.210 -1.1209 -0.2486  0.4564
 3526SOL    HW122040   4.422   3.570   7.224  0.6618  1.5183 -0.3357
 3526SOL    HW222041   4.284   3.570   7.192 -0.2898 -0.9926 -0.0138
 3527SOL     OW22042   4.125   0.477  15.935 -0.1721 -0.1843 -0.0926
 3527SOL    HW122043   4.168   0.560  15.915 -1.2921  0.9871  2.4252
 3527SOL    HW222044   4.048   0.517  15.975  0.7305  0.5777  0.8893
 3528SOL     OW22045   2.229   0.474   5.663 -0.4338 -0.1910  0.7204
 3528SOL    HW122046   2.134   0.474   5.677 -0.6978 -1.5034 -1.0476
 3528SOL    HW222047   2.253   0.453   5.753  0.1814 -0.1920  0.5591
 3529SOL     OW22048   3.838   0.311  12.552 -0.5579  0.2665 -0.2276
 3529SOL    HW122049   3.809   0.242  12.492  1.0414 -0.6510  0.0542
 3529SOL    HW222050   3.930   0.289  12.565 -0.6344 -0.4805 -0.9509
 3530SOL     OW22051   0.798   0.015   6.436 -0.0817  0.7169 -0.0602
 3530SOL    HW122052   0.846   0.092   6.407 -0.2097  0.3076 -1.3258
 3530SOL    HW222053   0.792   0.015   6.532  0.8673  1.1154 -0.0008
 3531SOL     OW22054   0.059   1.610   6.529  0.6116  0.1042  0.1302
 3531SOL    HW122055   0.033   1.661   6.452  0.6443 -0.7843 -0.4665
 3531SOL    HW222056   4.707   1.550   6.539  0.8761 -0.4652 -1.2049
 3532SOL     OW22057   1.173   2.313  11.107 -0.2956 -0.5175  0.4249
 3532SOL    HW122058   1.252   2.341  11.059 -1.8536 -0.7101 -2.2469
 3532SOL    HW222059   1.197   2.324  11.199 -1.0239 -1.4169  0.7115
 3533SOL     OW22060   3.230   3.548  13.998  0.4587 -0.5037 -0.1691
 3533SOL    HW122061   3.249   3.556  14.092  0.3707  0.0131 -0.1960
 3533SOL    HW222062   3.171   3.473  13.994  3.0334 -2.4607 -1.3334
 3534SOL     OW22063   2.495   4.483   7.526 -0.2679 -0.4458  0.5348
 3534SOL    HW122064   2.468   4.449   7.441  1.0905 -1.0312  0.3427
 3534SOL    HW222065   2.590   4.478   7.512 -0.4405  0.7941 -1.0852
 3535SOL     OW22066   0.047   3.110   6.301 -0.4439  0.0666 -0.2626
 3535SOL    HW122067   0.086   3.032   6.341 -1.9330 -1.0507 -0.9953
 3535SOL    HW222068   0.123   3.168   6.306  0.0519 -0.5441 -0.8071
 3536SOL     OW22069   3.941   3.303   8.132  0.0477  0.1452  0.0171
 3536SOL    HW122070   3.982   3.317   8.217  0.4443  2.4335 -0.5669
 3536SOL    HW222071   3.940   3.388   8.088 -1.5787  1.7467  3.2074
 3537SOL     OW22072   3.104   2.090   6.638  0.1244 -0.4536 -0.3582
 3537SOL    HW122073   3.137   2.177   6.615  1.1424 -0.1436  2.2861
 3537SOL    HW222074   3.076   2.050   6.556 -0.7060  0.2300 -0.4048
 3538SOL     OW22075   0.311   1.962   8.565 -0.3411 -0.1176  0.4814
 3538SOL    HW122076   0.270   2.026   8.624 -0.2474 -2.6133  3.2204
 3538SOL    HW222077   0.380   2.026   8.548 -1.2566  1.1476  1.4658
 3539SOL     OW22078   2.305   0.981   8.025  0.1210 -0.0541  0.4857
 3539SOL    HW122079   2.226   0.931   8.008  0.5090 -1.1502  1.9305
 3539SOL    HW222080   2.272   1.050   8.083  0.5848  0.3145  0.3153
 3540SOL     OW22081   2.977   1.365  12.175  0.2360 -0.7017 -0.1692
 3540SOL    HW122082   2.993   1.434  12.240 -2.1816  1.4924 -1.8873
 3540SOL    HW222083   2.910   1.417  12.130  0.4116 -0.1037  0.2549
 3541SOL     OW22084   1.753   1.250  12.340 -0.1459  0.4389 -0.2847
 3541SOL    HW122085   1.660   1.262  12.317 -0.4453 -0.7403  0.3128
 3541SOL    HW222086   1.778   1.341  12.355  1.6367  0.0072 -0.6535
 3542SOL     OW22087   3.282   3.859  14.580 -0.1232 -0.0224  0.2010
 3542SOL    HW122088   3.189   3.837  14.585 -0.8967  3.0126 -0.7719
 3542SOL    HW222089   3.278   3.881  14.487 -2.8034  0.3464  0.3888
 3543SOL     OW22090   3.461   1.497   5.185 -0.2515  0.3262  0.6004
 3543SOL    HW122091   3.397   1.560   5.150  0.6384  1.0136  0.2026
 3543SOL    HW222092   3.539   1.498   5.130  1.4950  0.1577  3.1151
 3544SOL     OW22093   3.940   3.785   5.082  0.1951 -0.1106  0.5576
 3544SOL    HW122094   3.848   3.797   5.058  0.1914 -0.3476  0.4554
 3544SOL    HW222095   3.931   3.826   5.168  1.6928  0.2678  0.5392
 3545SOL     OW22096   3.732   0.390   5.260 -0.3490  0.1231 -0.4847
 3545SOL    HW122097   3.703   0.304   5.229 -1.8404 -0.5962  2.8964
 3545SOL    HW222098   3.824   0.384   5.236 -0.2654 -1.7828  0.2975
 3546SOL     OW22099   0.321   3.921   9.104 -0.2274 -0.1352 -0.4959
 3546SOL    HW122100   0.387   3.905   9.037  0.3085  1.1662 -0.2834
 3546SOL    HW222101   0.250   3.958   9.052  0.6067  2.9151  0.5206
 3547SOL     OW22102   0.173   3.715   9.733  0.7620  0.3781 -0.1128
 3547SOL    HW122103   0.128   3.739   9.652 -0.7573 -1.7670  0.0920
 3547SOL    HW222104   0.150   3.623   9.743 -0.3005  0.6793  0.1700
 3548SOL     OW22105   2.373   2.973   9.032 -0.3777 -0.0573  0.3367
 3548SOL    HW122106   2.341   2.946   9.117 -0.4182  1.4093  0.7897
 3548SOL    HW222107   2.463   2.948   9.053 -0.4827 -0.1230  0.6992
 3549SOL     OW22108   4.430   2.922   9.181 -0.7421  0.3419 -0.4127
 3549SOL    HW122109   4.338   2.933   9.156 -1.0570  0.8296  0.9794
 3549SOL    HW222110   4.459   2.914   9.090  1.0461 -1.4229  0.3008
 3550SOL     OW22111   4.543   4.038   5.561 -0.0183 -0.2085 -0.1856
 3550SOL    HW122112   4.631   4.047   5.524 -0.4368  0.0512 -1.1274
 3550SOL    HW222113   4.534   3.943   5.553  0.8536 -0.3187  0.1743
 3551SOL     OW22114   1.074   0.068   8.260  0.5079 -0.0757 -0.2533
 3551SOL    HW122115   1.074   0.131   8.187 -1.4605  0.0256 -0.1683
 3551SOL    HW222116   1.164   0.035   8.261  0.3964 -0.3839 -0.5941
 3552SOL     OW22117   3.321   3.326   3.301 -0.1468 -0.0772 -0.2031
 3552SOL    HW122118   3.359   3.412   3.281 -3.5950  1.3153 -0.7046
 3552SOL    HW222119   3.244   3.319   3.245  1.2543 -0.0146 -2.1259
 3553SOL     OW22120   0.362   1.040   6.872  0.4363  0.8189 -0.2290
 3553SOL    HW122121   0.299   1.110   6.889  0.0253 -0.1619  2.2755
 3553SOL    HW222122   0.315   0.956   6.871 -0.5150  1.3532 -0.9935
 3554SOL     OW22123   0.578   1.753   5.070 -0.5747 -0.0187  0.0928
 3554SOL    HW122124   0.585   1.658   5.079  1.3911  0.1847  0.8682
 3554SOL    HW222125   0.617   1.766   4.984  1.4058 -1.0786  0.8119
 3555SOL     OW22126   3.976   2.401  14.864  0.4455 -0.7197 -0.0865
 3555SOL    HW122127   3.953   2.419  14.773 -1.8348 -2.2619  0.1657
 3555SOL    HW222128   4.060   2.357  14.856  0.7091 -0.1301 -0.5379
 3556SOL     OW22129   1.162   3.440   6.300 -0.2652  0.2819  0.0831
 3556SOL    HW122130   1.078   3.444   6.345 -1.5276  1.3589 -2.3880
 3556SOL    HW222131   1.135   3.447   6.209  1.4756 -0.4067 -0.4863
 3557SOL     OW22132   2.374   4.684   0.485 -0.0493 -0.0765  0.7117
 3557SOL    HW122133   2.435   0.025   0.523  0.7748 -1.4379  1.6717
 3557SOL    HW222134   2.391   4.600   0.528  0.3397 -1.2894 -1.8187
 3558SOL     OW22135   3.257   2.946   4.856  0.2748  0.4770  0.4924
 3558SOL    HW122136   3.202   2.868   4.857  0.4997  0.2894 -1.8788
 3558SOL    HW222137   3.240   2.981   4.944  1.7690  1.0028  0.5612
 3559SOL     OW22138   1.537   3.808   1.988  0.3730  0.3071  0.2777
 3559SOL    HW122139   1.484   3.854   2.053  0.3481 -0.8340  1.0603
 3559SOL    HW222140   1.466   3.774   1.935  0.8812 -1.7642  0.9278
 3560SOL     OW22141   3.365   2.793   5.233  0.3113  0.4578 -0.2081
 3560SOL    HW122142   3.337   2.707   5.262  1.1275  0.0969 -0.4939
 3560SOL    HW222143   3.290   2.849   5.253  0.5622  0.0761  1.8215
 3561SOL     OW22144   1.058   1.173  12.176 -0.0854 -0.1232  0.7117
 3561SOL    HW122145   0.964   1.190  12.175 -0.0031  0.2647 -0.3482
 3561SOL    HW222146   1.073   1.156  12.083  2.3372 -0.2977  1.1178
 3562SOL     OW22147   1.908   0.703   3.363  0.5428  0.4850  0.4361
 3562SOL    HW122148   1.886   0.650   3.287  3.1794  0.9697 -0.6732
 3562SOL    HW222149   1.823   0.689   3.405  0.2967  1.1392  0.1549
 3563SOL     OW22150   4.456   0.242   7.154  0.1290  0.4114  0.0864
 3563SOL    HW122151   4.521   0.307   7.179 -1.0540  0.8584  2.0087
 3563SOL    HW222152   4.378   0.297   7.161 -0.9680 -0.9882 -1.2329
 3564SOL     OW22153   2.953   3.638  14.629 -0.1462  0.1485 -0.8619
 3564SOL    HW122154   2.897   3.579  14.680  0.1581  0.9330  0.3757
 3564SOL    HW222155   2.906   3.715  14.597  0.3954  0.7194 -0.2657
 3565SOL     OW22156   3.243   4.530   7.268 -0.4810 -0.0426  0.1127
 3565SOL    HW122157   3.257   4.587   7.344 -2.9179 -0.5828  0.9771
 3565SOL    HW222158   3.170   4.569   7.219  0.2925  2.4801  0.9483
 3566SOL     OW22159   3.027   2.529   5.451  0.5056  0.4827 -0.8597
 3566SOL    HW122160   3.075   2.611   5.463 -0.0717  0.4600  1.6991
 3566SOL    HW222161   3.075   2.464   5.503 -1.8670  0.7703  1.7289
 3567SOL     OW22162   3.120   3.107  11.547 -0.7671 -0.7054  0.2222
 3567SOL    HW122163   3.089   3.076  11.632 -0.7405 -2.4657 -0.4149
 3567SOL    HW222164   3.188   3.172  11.566 -1.5728  0.4474 -0.8891
 3568SOL     OW22165   2.374   2.934  15.289  0.1051 -0.4529 -0.4760
 3568SOL    HW122166   2.358   2.840  15.297 -0.3645 -0.5013 -2.0034
 3568SOL    HW222167   2.452   2.948  15.235  0.4602  0.1964  0.2160
 3569SOL     OW22168   1.700   0.142   1.770 -0.2912  0.4847  0.8087
 3569SOL    HW122169   1.664   0.227   1.743  0.4216  1.1276  1.8932
 3569SOL    HW222170   1.624   0.089   1.743  0.7447 -0.0147 -1.1288
 3570SOL     OW22171   1.960   4.119   0.585  0.0080  0.6509 -0.3900
 3570SOL    HW122172   1.880   4.078   0.617 -0.0483  2.4058  1.6892
 3570SOL    HW222173   1.954   4.097   0.492  0.9402 -0.2860 -0.2252
 3571SOL     OW22174   2.316   2.558   8.529 -0.4039  0.2276  0.2720
 3571SOL    HW122175   2.276   2.500   8.465  0.4431 -0.6112  0.4970
 3571SOL    HW222176   2.234   2.584   8.570  0.0837  1.9244  0.1875
 3572SOL     OW22177   3.593   3.291   2.683  0.4211  0.1830 -0.2320
 3572SOL    HW122178   3.635   3.215   2.643  3.8899  0.9181  1.9303
 3572SOL    HW222179   3.532   3.245   2.741 -0.4684  0.1685 -1.1970
 3573SOL     OW22180   4.453   0.675   8.203 -0.0724 -0.1450 -0.7037
 3573SOL    HW122181   4.522   0.629   8.250  0.2635 -0.9765 -2.0082
 3573SOL    HW222182   4.445   0.758   8.250  1.4518  0.0590 -0.8269
 3574SOL     OW22183   1.827   3.763   2.845 -0.3465  0.2593 -0.4283
 3574SOL    HW122184   1.842   3.711   2.924  2.0640 -1.0965 -1.7729
 3574SOL    HW222185   1.810   3.685   2.792  0.4715 -0.5829  0.5342
 3575SOL     OW22186   3.821   2.563   3.587 -0.9933 -0.2975 -0.2544
 3575SOL    HW122187   3.766   2.618   3.531  1.0839  1.8804 -0.1493
 3575SOL    HW222188   3.813   2.476   3.550 -1.3171 -1.1106  1.7118
 3576SOL     OW22189   4.325   1.996  14.869 -0.0031 -0.3591  0.0861
 3576SOL    HW122190   4.354   1.931  14.806 -2.3022 -1.3998  0.1105
 3576SOL    HW222191   4.399   1.994  14.930  0.6355 -0.3446 -0.6854
 3577SOL     OW22192   0.443   2.659   9.833 -0.0545 -0.2283  0.1468
 3577SOL    HW122193   0.527   2.662   9.788 -0.0136 -0.7529  0.1854
 3577SOL    HW222194   0.445   2.737   9.889 -1.8117  0.1543 -0.3034
 3578SOL     OW22195   2.883   1.612  13.448  0.0175 -0.0996  0.2328
 3578SOL    HW122196   2.824   1.661  13.504 -0.6565  0.3612 -0.8660
 3578SOL    HW222197   2.889   1.531  13.498 -0.9164  0.0004  0.5119
 3579SOL     OW22198   2.397   1.816   1.134 -0.2775 -0.3026  0.1153
 3579SOL    HW122199   2.426   1.781   1.050  0.7330 -1.0948  0.7931
 3579SOL    HW222200   2.304   1.799   1.121 -0.1204  0.6341 -2.3887
 3580SOL     OW22201   2.205   3.383   1.331  0.4485  0.0984  0.3568
 3580SOL    HW122202   2.228   3.330   1.408 -1.9426 -0.5617  0.6107
 3580SOL    HW222203   2.112   3.393   1.350  1.0075  3.4897  1.1996
 3581SOL     OW22204   3.873   2.440   8.064 -0.3782  0.2258 -0.0234
 3581SOL    HW122205   3.932   2.440   7.989 -0.0893 -0.3474  0.2056
 3581SOL    HW222206   3.810   2.376   8.030 -0.9190  0.3307  0.7870
 3582SOL     OW22207   3.823   1.187  10.031  0.6720  0.4785 -0.4231
 3582SOL    HW122208   3.733   1.160  10.012  0.9311  0.8098 -2.0957
 3582SOL    HW222209   3.848   1.126  10.101 -2.2056  0.1752  0.3305
 3583SOL     OW22210   0.825   3.973   6.558 -0.3608  0.3869 -0.5385
 3583SOL    HW122211   0.758   4.041   6.562  1.0443  1.6360  1.4125
 3583SOL    HW222212   0.825   3.932   6.645 -1.1348  0.3921 -0.5291
 3584SOL     OW22213   2.446   4.121   1.150 -0.1375 -0.3702  0.2174
 3584SOL    HW122214   2.416   4.130   1.060  0.9950  0.6127 -0.0581
 3584SOL    HW222215   2.442   4.026   1.158  0.7835 -0.4281 -0.0948
 3585SOL     OW22216   4.426   0.597  15.860  0.1926  0.2432  0.1779
 3585SOL    HW122217   4.373   0.675  15.875  1.5736  1.1382  0.4148
 3585SOL    HW222218   4.450   0.592  15.767 -1.6609 -0.5350 -0.2498
 3586SOL     OW22219   3.943   2.869   3.993 -0.4313 -0.2202  0.4768
 3586SOL    HW122220   3.892   2.792   3.964 -0.3195  0.3401 -1.2358
 3586SOL    HW222221   4.031   2.848   3.961 -0.7810 -1.6447  0.4180
 3587SOL     OW22222   0.331   3.938   8.506  0.2126  0.0835  0.4092
 3587SOL    HW122223   0.393   4.009   8.525  0.0751  0.6399 -1.2565
 3587SOL    HW222224   0.247   3.964   8.543 -0.4409 -0.5730 -0.5974
 3588SOL     OW22225   2.404   0.059   1.302  0.0424  0.1522  0.2213
 3588SOL    HW122226   2.316   0.085   1.330  1.1969  1.6205  2.4659
 3588SOL    HW222227   2.415   0.131   1.240  0.1923 -0.5639 -0.5823
 3589SOL     OW22228   4.506   3.426   1.935 -0.8364 -0.6729 -0.2847
 3589SOL    HW122229   4.547   3.511   1.948  0.8624 -1.3578 -1.1285
 3589SOL    HW222230   4.511   3.406   1.842 -1.2823 -0.7283 -0.2940
 3590SOL     OW22231   0.492   4.465   4.849  0.0672 -0.4237 -0.2986
 3590SOL    HW122232   0.545   4.541   4.872 -2.0168  0.8923  0.1860
 3590SOL    HW222233   0.551   4.398   4.815  0.7648 -0.1445  0.3797
 3591SOL     OW22234   1.102   3.615   4.137 -0.4281  0.5080 -0.3860
 3591SOL    HW122235   1.159   3.540   4.152  0.3639  1.1024 -0.4584
 3591SOL    HW222236   1.095   3.650   4.226  1.2807 -2.1633  0.7898
 3592SOL     OW22237   0.931   3.060   4.824  0.0799 -0.5583 -0.4856
 3592SOL    HW122238   0.846   3.091   4.853 -0.2638 -0.8398 -1.1948
 3592SOL    HW222239   0.949   3.126   4.757  0.4757  0.9780  1.1150
 3593SOL     OW22240   1.281   2.574   2.932 -0.0328  0.0906  0.4528
 3593SOL    HW122241   1.358   2.610   2.889 -0.0118 -0.2228  0.2370
 3593SOL    HW222242   1.218   2.558   2.862  2.8087 -1.4796 -1.7228
 3594SOL     OW22243   1.177   0.933   8.433 -0.1756 -0.3328  0.1770
 3594SOL    HW122244   1.258   0.956   8.478  0.0765 -1.6843  0.4133
 3594SOL    HW222245   1.211   0.849   8.403  0.8014  0.1499 -0.0824
 3595SOL     OW22246   2.271   0.782   1.432  0.2636 -0.4581  0.4425
 3595SOL    HW122247   2.354   0.764   1.387  0.2286  1.1383 -0.2475
 3595SOL    HW222248   2.297   0.860   1.481 -0.6368  1.0732 -1.5141
 3596SOL     OW22249   1.613   3.569   3.342 -0.3874  0.3332 -0.0562
 3596SOL    HW122250   1.701   3.576   3.380 -1.4918 -1.5357  2.8399
 3596SOL    HW222251   1.627   3.606   3.255  1.0512 -0.3999 -0.1398
 3597SOL     OW22252   4.112   3.128   1.833 -0.5116  0.3329 -0.7515
 3597SOL    HW122253   4.089   3.083   1.752 -0.6629  1.1813 -1.1768
 3597SOL    HW222254   4.199   3.151   1.799 -0.3832 -1.0100 -1.3150
 3598SOL     OW22255   0.516   4.314  11.254 -0.3439 -0.1768 -0.3116
 3598SOL    HW122256   0.462   4.252  11.205 -0.5338  0.0239 -0.3547
 3598SOL    HW222257   0.458   4.337  11.327 -0.5747  0.6036 -0.7434
 3599SOL     OW22258   0.207   3.626   8.883 -0.1397 -0.7806  0.3905
 3599SOL    HW122259   0.187   3.533   8.892  3.2602 -1.6038 -0.3883
 3599SOL    HW222260   0.298   3.635   8.855 -0.4130 -2.1469 -0.9505
 3600SOL     OW22261   4.268   2.188   1.860  0.0022  0.0688  0.0253
 3600SOL    HW122262   4.259   2.122   1.930 -1.2468 -1.1327 -1.2701
 3600SOL    HW222263   4.179   2.193   1.826 -0.0445 -0.3194  0.0873
 3601SOL     OW22264   2.943   2.851   3.376  0.4677 -0.0274 -0.3824
 3601SOL    HW122265   2.901   2.774   3.339 -0.2110  0.4221 -0.5558
 3601SOL    HW222266   2.889   2.858   3.455  1.8817  0.9838  0.4988
 3602SOL     OW22267   0.553   2.355   9.137 -0.3622 -0.1695  0.1654
 3602SOL    HW122268   0.630   2.409   9.121 -0.8341  0.0533 -1.3467
 3602SOL    HW222269   0.544   2.357   9.232  0.0940 -2.8409  0.2862
 3603SOL     OW22270   3.744   4.621   7.025  0.1395  0.0621  0.0065
 3603SOL    HW122271   3.813   4.575   6.977 -0.5931  1.1466 -2.0933
 3603SOL    HW222272   3.744   4.703   6.975  1.0162 -1.7956 -3.0185
 3604SOL     OW22273   3.269   3.427  14.836  0.1157  0.2754  0.0109
 3604SOL    HW122274   3.319   3.399  14.913 -2.3965 -2.2330  0.7129
 3604SOL    HW222275   3.317   3.376  14.771 -1.3596 -0.5246 -0.4474
 3605SOL     OW22276   2.384   0.514   9.195  0.3118  0.1312  0.2176
 3605SOL    HW122277   2.475   0.536   9.216  0.2228  2.6473 -1.9935
 3605SOL    HW222278   2.347   0.522   9.283 -1.9625 -0.1169 -0.7054
 3606SOL     OW22279   1.083   2.430   4.234  0.8011 -0.4866 -0.6753
 3606SOL    HW122280   1.051   2.354   4.185 -0.2712 -0.6452  0.2719
 3606SOL    HW222281   1.131   2.482   4.170 -3.0481  0.4319 -2.8513
 3607SOL     OW22282   1.374   3.932   4.628 -0.0666 -0.1393  0.0978
 3607SOL    HW122283   1.318   3.979   4.689 -0.2953 -0.9047  0.4770
 3607SOL    HW222284   1.448   3.905   4.682  0.4303  0.0635 -0.4744
 3608SOL     OW22285   3.048   4.395   7.601 -0.0125 -0.6701 -0.0776
 3608SOL    HW122286   2.989   4.393   7.676  1.0579  0.0371  0.7932
 3608SOL    HW222287   3.120   4.444   7.641 -0.4928 -1.2479  1.5224
 3609SOL     OW22288   2.202   0.850   5.142 -0.0985  0.3008 -0.8276
 3609SOL    HW122289   2.212   0.941   5.116 -1.9123  0.5353 -0.6779
 3609SOL    HW222290   2.243   0.846   5.228 -0.1811 -1.7501 -0.8684
 3610SOL     OW22291   0.868   2.900   2.793  0.1173  0.3459 -0.3049
 3610SOL    HW122292   0.860   2.809   2.820  2.6430  0.9069  2.2998
 3610SOL    HW222293   0.856   2.933   2.883  1.1725  2.6657 -1.0137
 3611SOL     OW22294   0.547   3.064   1.565  0.3562 -0.0704 -0.0239
 3611SOL    HW122295   0.499   3.074   1.648 -1.6124 -2.2537 -0.9083
 3611SOL    HW222296   0.539   2.970   1.553 -3.0087  0.0474  1.1646
 3612SOL     OW22297   0.355   1.104   3.051 -0.4588  0.4175  0.1710
 3612SOL    HW122298   0.295   1.052   2.998  0.1106  0.0537 -0.1239
 3612SOL    HW222299   0.420   1.125   2.983  0.6089  0.0768  1.0864
 3613SOL     OW22300   1.079   1.045   5.460 -0.1535 -0.2465  0.1028
 3613SOL    HW122301   1.151   1.056   5.398 -0.1360  0.4783  0.2525
 3613SOL    HW222302   1.047   1.133   5.438  1.8618  0.3874 -0.2881
 3614SOL     OW22303   0.708   1.187   8.301  0.1754 -0.0085  0.5463
 3614SOL    HW122304   0.788   1.160   8.256 -1.9652 -0.5250 -2.9840
 3614SOL    HW222305   0.734   1.188   8.393  0.2945  0.2128  0.5094
 3615SOL     OW22306   1.540   1.542   6.411  0.2153  0.0672 -0.0220
 3615SOL    HW122307   1.479   1.525   6.482  0.0805  0.2749 -0.0848
 3615SOL    HW222308   1.479   1.568   6.341  2.2271  1.1390 -1.3755
 3616SOL     OW22309   2.069   0.484   5.305  0.5233  0.0628  0.1004
 3616SOL    HW122310   1.990   0.483   5.252  0.2255  1.7242  0.5261
 3616SOL    HW222311   2.039   0.425   5.374  0.3448 -1.0176 -0.8966
 3617SOL     OW22312   1.321   4.337   2.337 -0.0628  0.5377 -0.3062
 3617SOL    HW122313   1.304   4.276   2.266 -4.2352 -0.5997  1.7028
 3617SOL    HW222314   1.378   4.288   2.396 -0.5513  0.3552  0.0082
 3618SOL     OW22315   0.121   3.752   2.668 -0.1356 -0.7678 -0.3346
 3618SOL    HW122316   0.115   3.735   2.574 -0.2479 -3.6425  0.1905
 3618SOL    HW222317   0.033   3.785   2.685 -0.0085 -0.1669 -0.8431
 3619SOL     OW22318   1.639   3.428   1.387 -0.2029 -0.7226 -0.0248
 3619SOL    HW122319   1.590   3.386   1.317  1.3309 -1.9154 -0.3910
 3619SOL    HW222320   1.565   3.467   1.433  0.2651 -0.5892  0.6152
 3620SOL     OW22321   3.842   0.497   1.730 -0.0066  0.2635  0.6214
 3620SOL    HW122322   3.917   0.539   1.687 -0.0422 -0.4687 -0.1555
 3620SOL    HW222323   3.785   0.477   1.655  0.9007 -2.5082  0.6664
 3621SOL     OW22324   1.072   0.295  13.121  0.4307  0.1856  0.9082
 3621SOL    HW122325   1.158   0.311  13.083 -0.2810 -2.4027 -1.8404
 3621SOL    HW222326   1.087   0.218  13.176  2.1779 -0.5430 -0.6228
 3622SOL     OW22327   0.357   1.142   4.403  0.2767  0.2596  0.0245
 3622SOL    HW122328   0.267   1.155   4.433  0.6172  0.3521  0.9966
 3622SOL    HW222329   0.344   1.125   4.310  0.6781  2.5504 -0.4697
 3623SOL     OW22330   3.837   1.516   6.887 -0.2007 -0.1320  0.0923
 3623SOL    HW122331   3.794   1.524   6.972 -1.8988 -0.0120 -0.7872
 3623SOL    HW222332   3.862   1.606   6.869 -0.7375  0.3195  1.6273
 3624SOL     OW22333   1.468   4.586   5.465  0.3497 -0.0215  0.1588
 3624SOL    HW122334   1.413   4.653   5.424 -0.8679  0.6472  2.9243
 3624SOL    HW222335   1.410   4.517   5.499 -0.5763 -0.5571 -2.5196
 3625SOL     OW22336   4.018   0.424  12.244  0.0793  0.1901 -0.3601
 3625SOL    HW122337   4.079   0.475  12.297  0.4939 -0.7770  0.0807
 3625SOL    HW222338   4.065   0.343  12.227  0.1387  0.0586  0.4257
 3626SOL     OW22339   0.999   3.336  16.524  0.3406  0.4532  0.4593
 3626SOL    HW122340   1.044   3.293  16.451 -1.4436 -0.2904 -0.2006
 3626SOL    HW222341   1.020   3.271  16.591 -0.0679 -0.6927 -0.5233
 3627SOL     OW22342   1.626   4.664   8.283  0.3437  0.7380 -0.3145
 3627SOL    HW122343   1.720   4.673   8.301 -0.3630 -0.1378  3.6409
 3627SOL    HW222344   1.583   4.711   8.355 -0.3850  0.2849 -0.4603
 3628SOL     OW22345   3.005   3.641   8.584 -0.1591 -0.2193 -0.1154
 3628SOL    HW122346   3.003   3.552   8.548 -0.6911 -0.8298  1.4014
 3628SOL    HW222347   2.982   3.623   8.676  0.8395 -1.9808 -0.1901
 3629SOL     OW22348   2.295   0.447   4.884 -0.1990  0.0652  0.3996
 3629SOL    HW122349   2.324   0.482   4.800  3.1885  0.0208  1.5324
 3629SOL    HW222350   2.369   0.478   4.937  0.2866 -1.3984  0.5780
 3630SOL     OW22351   1.852   0.325   4.261 -0.4922  0.0124  0.0097
 3630SOL    HW122352   1.761   0.333   4.291 -1.0423 -0.9865 -1.3924
 3630SOL    HW222353   1.876   0.243   4.304 -1.2646  0.0128  0.4487
 3631SOL     OW22354   0.913   4.661   9.636  0.4589  0.2110 -0.1977
 3631SOL    HW122355   0.912   4.601   9.562 -2.0890  0.9732 -0.8140
 3631SOL    HW222356   0.823   4.694   9.639  0.6617  0.8077 -0.7102
 3632SOL     OW22357   3.075   0.373  13.863 -0.6671  0.7808  0.5143
 3632SOL    HW122358   3.119   0.297  13.902 -0.9350 -0.1203 -0.9539
 3632SOL    HW222359   3.031   0.408  13.941 -0.1518  0.6994  0.8440
 3633SOL     OW22360   4.145   4.117   8.414 -0.2808 -0.1736  0.5267
 3633SOL    HW122361   4.052   4.106   8.391 -0.2611 -0.6348  0.6588
 3633SOL    HW222362   4.163   4.040   8.468  1.6934 -0.3001 -0.3239
 3634SOL     OW22363   0.447   0.689   3.921 -0.0888  0.3152 -0.4784
 3634SOL    HW122364   0.481   0.733   3.842  1.1128  0.0340 -0.1084
 3634SOL    HW222365   0.506   0.615   3.934  0.2606  0.2727 -2.2318
 3635SOL     OW22366   3.113   0.631  16.570  0.5413  0.2407 -0.3371
 3635SOL    HW122367   3.158   0.632  16.485 -0.3588  0.1729 -0.8102
 3635SOL    HW222368   3.061   0.553  16.553  0.6718 -0.3189  1.8405
 3636SOL     OW22369   2.238   2.982   3.866  0.3036 -0.2066 -0.7868
 3636SOL    HW122370   2.243   2.892   3.897 -0.2093  0.8151  2.1998
 3636SOL    HW222371   2.159   3.012   3.911 -0.7894 -3.4057 -0.6152
 3637SOL     OW22372   2.255   2.624  11.348  0.7956 -0.7178 -0.1050
 3637SOL    HW122373   2.175   2.644  11.299  1.9694 -0.5528 -1.9523
 3637SOL    HW222374   2.296   2.709  11.363 -0.9985 -0.1310  1.5976
 3638SOL     OW22375   3.887   0.378  15.360 -0.2254 -0.0550  0.4475
 3638SOL    HW122376   3.801   0.377  15.319 -0.0222  3.0428 -0.0578
 3638SOL    HW222377   3.859   0.429  15.437 -2.3892  0.6915 -0.8441
 3639SOL     OW22378   3.707   0.163   6.119 -0.0502 -0.3102 -0.3240
 3639SOL    HW122379   3.645   0.173   6.047  0.8163 -2.0094 -1.3095
 3639SOL    HW222380   3.698   0.068   6.132  0.3559 -0.4260 -0.8975
 3640SOL     OW22381   0.785   0.678   3.144 -0.1888 -0.4147 -0.5720
 3640SOL    HW122382   0.693   0.692   3.120 -0.6015  0.8934  1.7574
 3640SOL    HW222383   0.805   0.772   3.141 -1.5435 -0.0867  0.5427
 3641SOL     OW22384   1.702   4.376   8.933  0.1300  0.4974 -0.1174
 3641SOL    HW122385   1.720   4.453   8.985 -0.0495  1.4531 -1.4685
 3641SOL    HW222386   1.791   4.352   8.908 -0.7454 -0.1843 -2.6451
 3642SOL     OW22387   0.778   3.547   5.449 -0.9354 -0.0202 -0.0400
 3642SOL    HW122388   0.813   3.586   5.369 -0.6288  0.5238  0.3679
 3642SOL    HW222389   0.721   3.613   5.488  0.5701 -0.6107  3.1890
 3643SOL     OW22390   3.062   0.589  13.695  0.1778  0.3411 -0.2006
 3643SOL    HW122391   3.151   0.624  13.705  0.0011  1.1325 -1.3488
 3643SOL    HW222392   3.058   0.518  13.758  1.4997 -1.2797 -1.9073
 3644SOL     OW22393   4.528   1.519  14.833  0.4108  0.5169  0.2162
 3644SOL    HW122394   4.562   1.452  14.774  2.4876  1.2346  0.6223
 3644SOL    HW222395   4.468   1.566  14.774  1.8574 -0.1348 -1.7587
 3645SOL     OW22396   0.358   4.142   5.314 -0.2178  0.2246  0.3993
 3645SOL    HW122397   0.308   4.168   5.237 -1.3231 -2.0709  0.3503
 3645SOL    HW222398   0.395   4.056   5.294  0.5150  0.7224 -0.3761
 3646SOL     OW22399   1.411   2.288   6.583  1.0397 -0.2428 -0.3895
 3646SOL    HW122400   1.430   2.321   6.671 -1.2937  2.9015 -1.0850
 3646SOL    HW222401   1.497   2.258   6.555  0.5907  0.3233 -2.4098
 3647SOL     OW22402   0.249   1.524   0.364  0.2698  0.4124 -0.4043
 3647SOL    HW122403   0.329   1.575   0.355  0.3970  0.1758 -0.6217
 3647SOL    HW222404   0.263   1.476   0.445  1.5399  1.8655  0.2322
 3648SOL     OW22405   3.364   1.622   3.680  0.7605  0.2418  0.0190
 3648SOL    HW122406   3.412   1.631   3.597 -0.5286  0.2879 -0.7210
 3648SOL    HW222407   3.310   1.700   3.677  0.2849 -0.0785  0.2163
 3649SOL     OW22408   2.791   1.415   8.931 -0.0903  0.4536 -0.2885
 3649SOL    HW122409   2.757   1.389   8.845 -0.3134  1.6208 -0.5465
 3649SOL    HW222410   2.711   1.418   8.983  0.6561 -1.5266  0.9943
 3650SOL     OW22411   2.384   4.554   3.482 -0.0824  0.5040 -0.0675
 3650SOL    HW122412   2.395   4.530   3.390 -3.9972  0.0739 -0.4424
 3650SOL    HW222413   2.356   4.645   3.472  0.3329  0.5501 -0.7885
 3651SOL     OW22414   0.073   3.477   6.372 -0.7626  0.2969  0.1643
 3651SOL    HW122415   0.131   3.491   6.298  0.6977  0.8329  1.3981
 3651SOL    HW222416   4.715   3.456   6.324  0.0507 -1.3975 -0.4346
 3652SOL     OW22417   1.318   1.143   9.435 -0.0942  0.0021 -0.3285
 3652SOL    HW122418   1.378   1.070   9.417  0.1518  0.3108 -0.7679
 3652SOL    HW222419   1.380   1.216   9.429  1.1759 -1.0291  0.1318
 3653SOL     OW22420   3.405   3.359  16.561  0.1836  0.6817 -0.1852
 3653SOL    HW122421   3.468   3.412  16.610  1.8107 -2.8617  1.5401
 3653SOL    HW222422   3.335   3.424  16.554 -1.7650 -1.5558 -1.2722
 3654SOL     OW22423   4.035   1.930  17.250  0.5000 -0.0589  0.4312
 3654SOL    HW122424   3.988   1.853  17.216 -0.0493  0.8173 -0.8338
 3654SOL    HW222425   3.957   1.983  17.267  0.7384  0.5238 -0.2926
 3655SOL     OW22426   0.494   0.720   3.092 -0.1316 -0.1951  0.0466
 3655SOL    HW122427   0.456   0.712   3.005  1.5274  1.1567 -0.8081
 3655SOL    HW222428   0.418   0.702   3.148 -0.4020 -2.9709 -1.1835
 3656SOL     OW22429   2.574   0.990   5.373 -0.0964 -0.6563 -0.1471
 3656SOL    HW122430   2.640   0.920   5.379  1.0417  0.5271  1.1743
 3656SOL    HW222431   2.577   1.014   5.281  1.4138 -0.9505 -0.1738
 3657SOL     OW22432   0.842   2.356   3.473  0.8623 -0.2019  0.0344
 3657SOL    HW122433   0.860   2.263   3.458 -1.8127 -0.4054 -2.1116
 3657SOL    HW222434   0.759   2.350   3.520  1.3812 -1.5702  0.7668
 3658SOL     OW22435   3.886   1.884   3.520 -0.6434 -0.4811 -0.1131
 3658SOL    HW122436   3.869   1.839   3.603 -1.4423 -1.9988 -1.0944
 3658SOL    HW222437   3.867   1.818   3.453 -4.2001 -0.5089  0.9309
 3659SOL     OW22438   3.091   0.647   3.358  0.0219 -0.9521 -0.4069
 3659SOL    HW122439   3.013   0.646   3.415 -0.8743 -1.0215 -1.6490
 3659SOL    HW222440   3.151   0.692   3.417  1.0631 -2.1156 -0.5853
 3660SOL     OW22441   3.132   1.161  12.047  0.0457 -0.3877 -0.2765
 3660SOL    HW122442   3.055   1.120  12.007  0.4996 -0.6901 -0.8394
 3660SOL    HW222443   3.088   1.216  12.111  0.8921  1.2723 -1.1307
 3661SOL     OW22444   4.058   0.946   3.471  0.2995 -0.2964 -0.0775
 3661SOL    HW122445   3.995   0.995   3.419  1.5851 -0.2255 -1.5772
 3661SOL    HW222446   4.127   0.926   3.408 -0.2537 -3.3980  0.2895
 3662SOL     OW22447   2.985   2.088   7.573  0.5083 -0.0532 -0.2268
 3662SOL    HW122448   3.001   2.124   7.485 -2.9438  1.8065 -0.1053
 3662SOL    HW222449   2.926   2.021   7.540  0.7538 -0.9294  1.1585
 3663SOL     OW22450   0.302   0.503  13.615 -0.3868 -0.6174  1.0274
 3663SOL    HW122451   0.235   0.449  13.574 -0.8310  0.9926 -0.3961
 3663SOL    HW222452   0.366   0.497  13.544 -2.9530 -1.2324 -1.2046
 3664SOL     OW22453   1.425   2.612   6.562  0.1132 -0.2051  0.0648
 3664SOL    HW122454   1.386   2.678   6.619 -1.1945 -0.5776 -0.4036
 3664SOL    HW222455   1.403   2.537   6.617  2.1941 -0.9645 -0.1273
 3665SOL     OW22456   3.362   3.676  10.997  0.3199  0.3279  0.4670
 3665SOL    HW122457   3.334   3.604  10.941  0.0256  0.5694  0.2980
 3665SOL    HW222458   3.330   3.639  11.079  1.7214  0.5573  1.1149
 3666SOL     OW22459   3.638   0.654  15.211  0.0911 -0.3565  0.2235
 3666SOL    HW122460   3.672   0.565  15.217  1.1363  0.0002 -0.3081
 3666SOL    HW222461   3.689   0.696  15.141 -1.9208 -1.4683 -1.8773
 3667SOL     OW22462   0.196   1.860   6.682 -0.3542  0.3027  0.3156
 3667SOL    HW122463   0.139   1.786   6.661  0.4262 -0.2550  0.1455
 3667SOL    HW222464   0.128   1.922   6.704 -0.1146  0.9524 -0.7650
 3668SOL     OW22465   1.770   4.325   7.087  0.3488 -0.2499 -0.1860
 3668SOL    HW122466   1.721   4.364   7.015  1.8698 -0.0437 -1.1007
 3668SOL    HW222467   1.694   4.308   7.143  1.3374  1.7511  1.7761
 3669SOL     OW22468   3.237   0.451   3.227 -0.8797 -0.5225  0.3212
 3669SOL    HW122469   3.210   0.533   3.268 -0.1043 -0.0856 -0.0378
 3669SOL    HW222470   3.222   0.400   3.307 -1.1100 -1.3244 -0.2340
 3670SOL     OW22471   2.248   1.677   3.654  0.1956 -0.0649 -0.3830
 3670SOL    HW122472   2.221   1.588   3.629 -0.9986  0.5683 -1.3463
 3670SOL    HW222473   2.318   1.673   3.589 -0.5380  0.0894 -1.1858
 3671SOL     OW22474   4.627   1.126  10.102 -0.0896  0.1523  0.1498
 3671SOL    HW122475   4.567   1.180  10.051  1.0204  2.2615  1.0308
 3671SOL    HW222476   4.708   1.173  10.080  0.0877 -1.4684 -2.5157
 3672SOL     OW22477   4.606   3.753   5.869 -0.5848  0.1635  0.2690
 3672SOL    HW122478   4.698   3.775   5.851 -0.8258  1.3857  0.5395
 3672SOL    HW222479   4.577   3.840   5.895 -0.9180 -0.2549  1.3490
 3673SOL     OW22480   2.759   1.600  11.628  0.8678  0.0416  0.4219
 3673SOL    HW122481   2.760   1.559  11.715 -0.1217 -1.3626 -0.2292
 3673SOL    HW222482   2.664   1.605  11.614  0.7126 -1.6242  0.8634
 3674SOL     OW22483   0.218   0.999  10.079  0.5852 -0.3119  0.2086
 3674SOL    HW122484   0.217   0.967   9.988  1.4285 -0.4286  0.2383
 3674SOL    HW222485   0.128   0.984  10.107  0.1000  2.1765 -0.0131
 3675SOL     OW22486   4.266   4.085   4.674 -0.7865  0.3233 -0.0172
 3675SOL    HW122487   4.222   4.067   4.590 -0.4829  1.9269 -0.5359
 3675SOL    HW222488   4.196   4.139   4.711 -1.1739 -0.6193  0.6202
 3676SOL     OW22489   0.665   2.060   2.354 -0.0561  0.2201 -0.2501
 3676SOL    HW122490   0.753   2.028   2.374 -0.4838  0.4868  2.0618
 3676SOL    HW222491   0.659   2.136   2.411 -0.3404 -1.4248  1.8965
 3677SOL     OW22492   0.087   1.302  10.018 -0.2815 -0.1140 -0.2242
 3677SOL    HW122493   0.060   1.292   9.927 -0.5834  1.3072 -0.2966
 3677SOL    HW222494   0.135   1.385  10.013  0.0856 -0.2618  0.9281
 3678SOL     OW22495   4.038   3.095   2.350  0.1227  0.4112  0.2723
 3678SOL    HW122496   4.008   3.040   2.278 -0.9372  1.5544 -0.1663
 3678SOL    HW222497   4.068   3.039   2.421 -1.1215 -1.5451 -0.7665
 3679SOL     OW22498   1.358   2.497  12.391  0.2479  0.0872  0.7109
 3679SOL    HW122499   1.285   2.548  12.356  0.1885 -0.2927  0.2815
 3679SOL    HW222500   1.384   2.456  12.308 -2.4138  0.5067 -0.3447
 3680SOL     OW22501   1.261   4.418   6.764  0.2351 -0.4752 -0.3286
 3680SOL    HW122502   1.245   4.361   6.839 -1.0400 -1.7743 -1.5794
 3680SOL    HW222503   1.223   4.373   6.689 -1.5303  0.2495  0.1409
 3681SOL     OW22504   4.351   2.886  15.696 -0.1917 -0.2108  0.2191
 3681SOL    HW122505   4.362   2.794  15.720 -1.9055 -0.6426 -0.6562
 3681SOL    HW222506   4.436   2.904  15.655 -0.1248 -0.4188  0.2660
 3682SOL     OW22507   2.104   0.801  10.468 -0.3595  0.1298 -0.4563
 3682SOL    HW122508   2.032   0.741  10.448  0.6927 -0.3335 -2.7485
 3682SOL    HW222509   2.157   0.738  10.515 -0.0314 -0.4931 -1.6667
 3683SOL     OW22510   0.531   3.601  15.118  0.3499  0.1452  1.0118
 3683SOL    HW122511   0.583   3.671  15.080 -2.3068  1.5783 -0.0017
 3683SOL    HW222512   0.592   3.531  15.093 -1.2440 -0.5386 -0.9698
 3684SOL     OW22513   4.679   0.557   2.064 -0.0473  0.4406  0.3281
 3684SOL    HW122514   4.641   0.580   1.980 -0.4680  2.0687  0.9572
 3684SOL    HW222515   4.606   0.506   2.100  0.5599 -0.1658  0.7151
 3685SOL     OW22516   0.548   2.197   5.003 -0.2209 -0.0747  0.1927
 3685SOL    HW122517   0.489   2.220   4.931 -2.2392 -0.1809  1.8061
 3685SOL    HW222518   0.550   2.277   5.056  0.1025 -0.0467  0.1358
 3686SOL     OW22519   1.574   2.969   9.558  0.3945 -0.3994  0.0005
 3686SOL    HW122520   1.483   2.954   9.532 -0.4424  1.4678  1.9024
 3686SOL    HW222521   1.600   2.889   9.512 -1.8159 -1.1638  0.0555
 3687SOL     OW22522   3.723   0.353  14.404 -0.3815 -0.0063 -0.6268
 3687SOL    HW122523   3.788   0.372  14.336 -0.0606 -1.2419 -0.6574
 3687SOL    HW222524   3.745   0.423  14.465  1.1471  0.4736 -1.7087
 3688SOL     OW22525   1.161   1.117   6.617  0.3172  0.7953  0.2168
 3688SOL    HW122526   1.158   1.178   6.691 -1.1296 -2.5622  2.9312
 3688SOL    HW222527   1.123   1.171   6.547 -2.8648 -0.7700  0.7423
 3689SOL     OW22528   3.101   1.266  16.628 -0.5324  0.1865 -0.0832
 3689SOL    HW122529   3.168   1.198  16.634 -1.1393 -0.1224  3.2900
 3689SOL    HW222530   3.143   1.332  16.573 -0.3546 -0.4179 -0.6705
 3690SOL     OW22531   1.862   0.609  11.580 -0.2259  0.5118  0.4151
 3690SOL    HW122532   1.905   0.528  11.552 -0.9157  0.8290 -1.5563
 3690SOL    HW222533   1.804   0.623  11.505 -0.7782  2.7988  1.2581
 3691SOL     OW22534   2.451   0.871   2.415  0.6496 -0.2581  0.3010
 3691SOL    HW122535   2.413   0.939   2.359  2.9890 -0.1609 -1.1773
 3691SOL    HW222536   2.400   0.790   2.403 -1.3309  0.9888  0.2458
 3692SOL     OW22537   0.653   2.840   7.194  0.7104  0.6020 -0.0481
 3692SOL    HW122538   0.723   2.777   7.177 -1.3701 -1.6823 -0.0518
 3692SOL    HW222539   0.707   2.918   7.207  0.9758  0.5370 -0.7379
 3693SOL     OW22540   0.433   0.273  17.391  0.6997  0.6942 -0.4604
 3693SOL    HW122541   0.364   0.208  17.379 -0.7051  1.7847  1.6013
 3693SOL    HW222542   0.507   0.227  17.429 -0.8057 -0.1492  1.4820
 3694SOL     OW22543   3.917   2.361   7.587  0.0523  0.4543  0.0105
 3694SOL    HW122544   3.860   2.328   7.518 -0.7961 -0.3459  1.1070
 3694SOL    HW222545   3.880   2.449   7.599 -0.6019  0.0163  1.2195
 3695SOL     OW22546   2.920   1.705   8.087 -0.2549 -0.1913 -0.7741
 3695SOL    HW122547   2.871   1.766   8.031  1.7564  1.0218 -1.2142
 3695SOL    HW222548   2.941   1.766   8.158 -0.7573  1.4647 -2.0379
 3696SOL     OW22549   3.510   2.117  11.546 -0.0894  0.4696  0.4591
 3696SOL    HW122550   3.477   2.051  11.607  1.3884 -2.5816 -2.0514
 3696SOL    HW222551   3.600   2.127  11.579  0.0691 -1.4079  0.5791
 3697SOL     OW22552   1.796   0.955   2.251  0.1025  0.2141 -0.0104
 3697SOL    HW122553   1.785   1.034   2.198  0.3940  1.0760  1.2183
 3697SOL    HW222554   1.760   0.994   2.331  1.5836 -0.6072  1.0578
 3698SOL     OW22555   1.637   2.522   8.339 -0.6467  0.2877  0.1054
 3698SOL    HW122556   1.552   2.506   8.297 -0.4699  0.1560 -0.1978
 3698SOL    HW222557   1.600   2.567   8.415 -1.5195  1.8112 -1.2258
 3699SOL     OW22558   0.371   3.236   3.647  0.0797 -0.1776 -0.4008
 3699SOL    HW122559   0.288   3.191   3.629  1.2764 -2.7571  0.4669
 3699SOL    HW222560   0.359   3.320   3.604  1.2535  0.7931  1.1762
 3700SOL     OW22561   2.989   2.293   0.326  0.0765 -0.3853  0.0662
 3700SOL    HW122562   3.007   2.278   0.233 -1.5555  0.2020 -0.3499
 3700SOL    HW222563   2.969   2.386   0.334  0.8774 -0.1487 -0.8268
 3701SOL     OW22564   3.711   2.291   6.702 -0.2166  0.0763 -0.2027
 3701SOL    HW122565   3.718   2.198   6.680 -0.1917  0.3122 -1.1751
 3701SOL    HW222566   3.795   2.319   6.666  1.2901 -0.5962  2.7509
 3702SOL     OW22567   1.421   3.872  13.083  0.0213  0.2593  0.5698
 3702SOL    HW122568   1.444   3.960  13.113 -1.7165  0.5460  1.0554
 3702SOL    HW222569   1.443   3.881  12.990  0.4736  1.2089  0.7757
 3703SOL     OW22570   3.966   1.446   2.815 -0.3512  0.2233  0.4649
 3703SOL    HW122571   3.889   1.468   2.868 -0.2004 -0.1851  0.8536
 3703SOL    HW222572   4.038   1.467   2.874 -0.3341 -0.7194  0.7817
 3704SOL     OW22573   0.766   3.927  13.982  0.1540  0.3369 -0.4423
 3704SOL    HW122574   0.743   3.888  13.898 -3.1944 -2.4077  1.7699
 3704SOL    HW222575   0.785   3.845  14.027 -0.8308  0.3584  0.0050
 3705SOL     OW22576   1.705   2.032   5.238 -0.4582 -0.1724  0.2474
 3705SOL    HW122577   1.713   2.010   5.145  1.1811 -0.3939  0.4298
 3705SOL    HW222578   1.713   2.127   5.239  0.3398 -0.2345 -0.1237
 3706SOL     OW22579   3.574   3.036   2.173  0.0573  0.1822 -0.2232
 3706SOL    HW122580   3.607   2.952   2.203 -1.4282 -0.4583 -0.3964
 3706SOL    HW222581   3.483   3.030   2.201  0.1455  1.0720  0.2466
 3707SOL     OW22582   1.846   1.776   2.200  0.1837 -0.0564 -0.1995
 3707SOL    HW122583   1.756   1.783   2.167  0.8483  3.3890 -1.2902
 3707SOL    HW222584   1.861   1.870   2.211 -2.2292  0.3226 -0.1877
 3708SOL     OW22585   1.461   2.541   3.893 -0.1448 -0.4274 -0.5534
 3708SOL    HW122586   1.474   2.563   3.801  0.2160  0.4570 -0.2958
 3708SOL    HW222587   1.381   2.487   3.891 -0.3999 -0.2291  2.8778
 3709SOL     OW22588   3.577   3.212   3.328  0.0662 -0.4167 -0.1239
 3709SOL    HW122589   3.642   3.281   3.318 -1.2042  1.3846  4.0407
 3709SOL    HW222590   3.489   3.246   3.317 -0.5056 -1.3410  1.5118
 3710SOL     OW22591   0.547   2.082   8.668 -0.0425  0.7193 -0.4392
 3710SOL    HW122592   0.541   1.989   8.692 -1.2102  0.8931 -0.0819
 3710SOL    HW222593   0.496   2.119   8.740  0.8641 -0.6717  0.9218
 3711SOL     OW22594   0.276   0.670   4.171  0.2088  0.2907  0.0534
 3711SOL    HW122595   0.325   0.594   4.201  0.8157  1.4661  2.0459
 3711SOL    HW222596   0.316   0.682   4.085  0.8610  0.0818  0.3253
 3712SOL     OW22597   1.492   0.537   4.850  0.1631  0.9285  0.2361
 3712SOL    HW122598   1.549   0.466   4.820 -0.1087 -0.7409  3.5869
 3712SOL    HW222599   1.456   0.569   4.768 -0.1223  0.6013  0.2338
 3713SOL     OW22600   3.417   0.600  12.694  0.2642  0.2736  0.1326
 3713SOL    HW122601   3.487   0.535  12.695 -0.1015 -0.0672  2.5023
 3713SOL    HW222602   3.448   0.643  12.614 -1.7592 -0.6341 -1.1433
 3714SOL     OW22603   3.927   2.415   8.559 -0.0726 -0.0633 -0.4440
 3714SOL    HW122604   4.003   2.374   8.518  0.0129  0.1629 -0.5141
 3714SOL    HW222605   3.884   2.459   8.485  0.6789  0.0750 -0.8046
 3715SOL     OW22606   1.312   3.664   4.792 -0.0395  0.0868 -0.4093
 3715SOL    HW122607   1.391   3.712   4.765  0.1006 -0.6135 -1.2181
 3715SOL    HW222608   1.349   3.582   4.825  0.2225  0.2826 -0.2092
 3716SOL     OW22609   0.642   0.134   3.118 -0.2950  0.3614 -0.1936
 3716SOL    HW122610   0.611   0.044   3.106  0.9840  0.0592 -1.2147
 3716SOL    HW222611   0.558   0.180   3.125 -0.6733 -0.1407 -1.3163
 3717SOL     OW22612   0.316   0.003   8.764 -0.0852  0.0971  0.1874
 3717SOL    HW122613   0.226   0.032   8.777 -0.0867  0.3383 -0.3557
 3717SOL    HW222614   0.332   0.037   8.676  1.4116 -0.3716  0.2806
 3718SOL     OW22615   2.260   3.809   6.714  0.3762  0.0889  0.3589
 3718SOL    HW122616   2.231   3.862   6.788 -0.0093 -1.2182  1.1328
 3718SOL    HW222617   2.175   3.787   6.677 -0.5584  2.1533  1.2482
 3719SOL     OW22618   2.705   4.135  10.682  0.5595 -0.2719 -0.0035
 3719SOL    HW122619   2.707   4.041  10.665 -1.2884 -0.3624  0.3302
 3719SOL    HW222620   2.623   4.159  10.639  1.4823 -0.0097 -1.6089
 3720SOL     OW22621   3.046   3.675   7.581 -0.3405 -0.0116 -0.4523
 3720SOL    HW122622   2.965   3.662   7.631  0.8761  1.8664  2.0165
 3720SOL    HW222623   3.011   3.729   7.510 -0.5541  2.0957  1.2499
 3721SOL     OW22624   3.167   3.195   7.595  0.2304 -0.7460  0.4278
 3721SOL    HW122625   3.120   3.269   7.558 -0.6727 -0.5216  2.0218
 3721SOL    HW222626   3.231   3.238   7.652  0.8451 -1.0208 -0.0509
 3722SOL     OW22627   4.304   3.996   5.184  0.4827  0.1941 -0.4098
 3722SOL    HW122628   4.287   4.045   5.264  0.8503 -0.9410  0.3696
 3722SOL    HW222629   4.390   4.031   5.160  0.5117 -0.1078 -0.7544
 3723SOL     OW22630   4.190   1.663  15.747  0.0124  0.2738 -0.3268
 3723SOL    HW122631   4.132   1.651  15.822  0.6322  1.3090  0.3212
 3723SOL    HW222632   4.212   1.756  15.751  1.8338 -0.1430 -0.6809
 3724SOL     OW22633   3.748   1.475   4.022 -0.1731 -0.0943  0.1250
 3724SOL    HW122634   3.685   1.404   4.026  1.5738 -1.6625 -0.1783
 3724SOL    HW222635   3.709   1.528   3.952  2.2249  1.0051 -0.3928
 3725SOL     OW22636   2.429   2.115   2.544 -0.6026 -0.1424  0.7592
 3725SOL    HW122637   2.370   2.123   2.469  1.9975  2.2403 -1.0624
 3725SOL    HW222638   2.508   2.082   2.500 -0.3065 -0.8826  1.8624
 3726SOL     OW22639   0.568   2.355  14.919 -0.2648  0.2633 -0.2613
 3726SOL    HW122640   0.541   2.423  14.981 -0.6865 -0.6336  0.5366
 3726SOL    HW222641   0.578   2.284  14.982 -0.2512 -1.3421 -2.0762
 3727SOL     OW22642   1.320   3.154   4.988  0.1562 -0.1898 -0.1668
 3727SOL    HW122643   1.228   3.150   5.016  0.3455 -0.0097  0.4972
 3727SOL    HW222644   1.317   3.085   4.922 -1.0143 -0.6219  0.3358
 3728SOL     OW22645   4.173   0.762   8.751 -0.2387 -0.5738 -0.0665
 3728SOL    HW122646   4.125   0.844   8.739 -0.5401 -0.7365  0.0217
 3728SOL    HW222647   4.265   0.782   8.735  0.2069 -0.2164  3.0337
 3729SOL     OW22648   1.194   4.700   1.147 -0.4329  0.8413 -0.1076
 3729SOL    HW122649   1.225   4.646   1.219 -1.7620  0.1591 -0.0646
 3729SOL    HW222650   1.160   0.057   1.190  0.3933 -0.3668  2.7536
 3730SOL     OW22651   3.044   1.441  15.522 -0.2683  0.1290  0.1535
 3730SOL    HW122652   3.091   1.362  15.496 -0.4366  0.4771 -1.1945
 3730SOL    HW222653   3.008   1.416  15.607 -2.1838 -1.4411 -1.1196
 3731SOL     OW22654   2.847   3.012   4.180  0.5982  0.7183 -0.2630
 3731SOL    HW122655   2.763   3.057   4.179  0.2014  0.0404  1.9165
 3731SOL    HW222656   2.895   3.073   4.235 -0.9230  0.4778  1.3547
 3732SOL     OW22657   2.792   0.080   4.013 -0.6144  0.3868 -0.4693
 3732SOL    HW122658   2.778   0.010   3.950 -2.1097 -1.0439  1.4573
 3732SOL    HW222659   2.723   0.064   4.077 -2.4884 -0.4351 -2.7028
 3733SOL     OW22660   4.464   3.052   6.283  0.7768 -0.7222 -0.0731
 3733SOL    HW122661   4.449   2.964   6.318 -1.7152  1.2885  3.9486
 3733SOL    HW222662   4.558   3.063   6.298  0.5500 -0.2198  1.0407
 3734SOL     OW22663   3.522   4.680   6.735 -0.1510 -0.2059 -0.3981
 3734SOL    HW122664   3.616   4.682   6.755 -0.4594 -1.5952  1.2518
 3734SOL    HW222665   3.482   4.638   6.811  0.6387  1.4612  0.9407
 3735SOL     OW22666   1.013   0.256   7.736 -0.3212  0.4963 -0.3219
 3735SOL    HW122667   1.037   0.226   7.648 -1.1507  3.2391 -1.4776
 3735SOL    HW222668   0.950   0.325   7.719 -1.5763 -1.1202 -2.2791
 3736SOL     OW22669   1.907   3.963  10.087  0.0149 -0.2648  0.3989
 3736SOL    HW122670   1.957   3.903  10.143 -2.8317 -4.3150 -1.4334
 3736SOL    HW222671   1.863   4.013  10.155 -1.1942  1.4180 -1.6383
 3737SOL     OW22672   1.885   3.188   2.489  0.1896 -0.4785 -1.0199
 3737SOL    HW122673   1.906   3.234   2.570  1.3871 -2.3086 -0.2913
 3737SOL    HW222674   1.969   3.169   2.448 -0.0517  0.1359 -1.7939
 3738SOL     OW22675   2.978   1.877  11.293 -0.2439  1.0703 -0.3307
 3738SOL    HW122676   3.043   1.838  11.236 -2.3630 -3.5250  0.4111
 3738SOL    HW222677   2.910   1.841  11.237 -0.4818  0.9573  0.0288
 3739SOL     OW22678   2.597   0.598  13.024  0.6928 -0.0160 -0.1292
 3739SOL    HW122679   2.556   0.514  13.003 -0.3781  0.9169 -1.7188
 3739SOL    HW222680   2.526   0.629  13.080  0.7209  1.0271 -0.6718
 3740SOL     OW22681   2.511   0.135   6.889 -0.5278  0.0496 -0.1094
 3740SOL    HW122682   2.455   0.123   6.813 -1.4562 -1.6141  0.8328
 3740SOL    HW222683   2.585   0.182   6.851 -0.8455 -0.7683 -1.7183
 3741SOL     OW22684   2.323   3.959   7.257  0.0136  0.4269  0.5236
 3741SOL    HW122685   2.235   3.959   7.294 -0.0156  1.9453  0.4398
 3741SOL    HW222686   2.318   4.039   7.204 -1.3759 -0.8058 -1.2019
 3742SOL     OW22687   2.281   1.182   7.686  0.1857  0.1883  0.0168
 3742SOL    HW122688   2.212   1.219   7.742 -0.0484 -1.0689  0.5562
 3742SOL    HW222689   2.229   1.112   7.646  0.2668 -0.2099  0.6035
 3743SOL     OW22690   4.267   0.566  15.594  0.5593  0.3371  0.5942
 3743SOL    HW122691   4.227   0.582  15.679  3.5588  3.4995  1.3825
 3743SOL    HW222692   4.312   0.649  15.578 -1.3004  1.5109  1.5512
 3744SOL     OW22693   4.294   0.342   0.718 -0.3850  0.0746 -0.0631
 3744SOL    HW122694   4.368   0.317   0.663  0.4301  0.2747  0.9476
 3744SOL    HW222695   4.333   0.396   0.786  0.1632  1.6763 -1.6549
 3745SOL     OW22696   3.388   3.252   4.524  0.1855 -0.1962  0.9456
 3745SOL    HW122697   3.313   3.307   4.503 -1.4568 -2.4967  0.8619
 3745SOL    HW222698   3.438   3.325   4.560  2.5188 -2.2455  1.9190
 3746SOL     OW22699   1.294   0.031  14.414  0.0367 -0.0727 -0.2635
 3746SOL    HW122700   1.269   4.699  14.340  2.9444  1.2996 -2.2734
 3746SOL    HW222701   1.310   4.698  14.490  1.3314  1.5650  0.6592
 3747SOL     OW22702   3.533   1.316   3.897 -0.1390  0.0710  0.2798
 3747SOL    HW122703   3.531   1.227   3.862  1.3577  0.2922 -0.3718
 3747SOL    HW222704   3.586   1.364   3.833 -1.5606  0.8226 -0.3424
 3748SOL     OW22705   2.950   0.155  16.367 -0.1394 -0.1657 -0.3195
 3748SOL    HW122706   2.947   0.155  16.271 -0.0147  0.5068 -0.3181
 3748SOL    HW222707   2.971   0.247  16.382 -0.1337  0.1597 -2.3092
 3749SOL     OW22708   2.515   1.192   1.487  0.2884  0.1514 -0.3056
 3749SOL    HW122709   2.446   1.190   1.421 -0.5675 -0.8220  0.6229
 3749SOL    HW222710   2.554   1.105   1.487  0.8508  0.4107 -1.3723
 3750SOL     OW22711   3.539   3.499   5.894  0.5879  0.3464 -0.4775
 3750SOL    HW122712   3.555   3.480   5.986  2.0496 -0.5365 -0.9195
 3750SOL    HW222713   3.629   3.506   5.862  0.3436 -0.7610 -1.3731
 3751SOL     OW22714   1.798   4.100   9.375 -0.3153 -0.3863 -0.1387
 3751SOL    HW122715   1.853   4.095   9.453 -0.7236 -1.1545  0.0981
 3751SOL    HW222716   1.870   4.124   9.317  0.8495 -2.5662  0.4006
 3752SOL     OW22717   3.305   4.317   0.706  0.3605  0.4846 -0.4524
 3752SOL    HW122718   3.341   4.248   0.761 -0.6996  0.7108  0.5193
 3752SOL    HW222719   3.267   4.376   0.771  0.5293  3.1128 -2.7721
 3753SOL     OW22720   3.124   0.144   8.066 -0.1004  0.0209  0.4497
 3753SOL    HW122721   3.212   0.177   8.052 -0.4490  1.0012  0.5460
 3753SOL    HW222722   3.070   0.209   8.021 -0.5642 -0.4959  0.2514
 3754SOL     OW22723   3.056   0.202   6.255 -0.3702 -0.4676  0.0488
 3754SOL    HW122724   3.150   0.217   6.266 -0.7875  1.1779  1.4666
 3754SOL    HW222725   3.061   0.111   6.228 -0.9219 -0.4331 -0.1738
 3755SOL     OW22726   2.246   2.676   4.571 -0.0088 -0.2277  0.1566
 3755SOL    HW122727   2.225   2.596   4.522 -0.5824  0.5472 -0.8773
 3755SOL    HW222728   2.208   2.748   4.521  0.4354 -1.1371 -1.4942
 3756SOL     OW22729   0.859   0.983   4.005  0.2641 -0.8620 -0.4468
 3756SOL    HW122730   0.910   0.972   4.086  1.3450  1.8430 -0.7601
 3756SOL    HW222731   0.780   0.935   4.030  0.1784  0.5492  2.1308
 3757SOL     OW22732   2.270   0.834   0.221  0.0949  0.4724  0.5254
 3757SOL    HW122733   2.315   0.751   0.236 -0.7385 -0.1272 -0.3166
 3757SOL    HW222734   2.258   0.866   0.311 -1.1802  1.1345  0.1166
 3758SOL     OW22735   0.285   3.029   4.212 -0.3409 -0.3429  0.5224
 3758SOL    HW122736   0.290   3.073   4.297  1.5550 -2.3521  1.4609
 3758SOL    HW222737   0.375   3.037   4.179  0.6217 -0.8084  3.0282
 3759SOL     OW22738   2.499   1.033   5.918  0.3876 -0.0200  0.0978
 3759SOL    HW122739   2.422   1.044   5.975  0.1764  1.3082 -0.4316
 3759SOL    HW222740   2.456   1.022   5.833  1.4175 -0.8981 -0.3060
 3760SOL     OW22741   0.073   1.401   0.921 -0.4405  0.6880 -0.3128
 3760SOL    HW122742   0.130   1.463   0.968 -0.0943 -0.3509  0.6300
 3760SOL    HW222743   0.129   1.328   0.895 -1.4211 -0.1348 -0.0988
 3761SOL     OW22744   1.612   1.921   4.372 -0.2606  0.1546  0.1172
 3761SOL    HW122745   1.623   1.907   4.278 -2.4656  1.6653 -0.3768
 3761SOL    HW222746   1.690   1.873   4.397 -0.4500  0.2639  0.9259
 3762SOL     OW22747   3.252   4.127   8.568 -0.1215 -0.0934  0.7165
 3762SOL    HW122748   3.253   4.194   8.500  2.6799 -0.2816  0.5681
 3762SOL    HW222749   3.308   4.064   8.523 -2.1854 -1.2108 -0.2981
 3763SOL     OW22750   2.051   3.300   1.601 -0.3527  0.0708 -0.2372
 3763SOL    HW122751   2.075   3.240   1.672 -0.6969 -0.0001 -0.1814
 3763SOL    HW222752   1.974   3.257   1.563  0.3906 -2.2969  0.9564
 3764SOL     OW22753   4.069   0.968   4.266  0.2720 -0.0676 -0.2624
 3764SOL    HW122754   4.097   0.933   4.181 -0.6205  0.3585 -0.7372
 3764SOL    HW222755   4.069   0.889   4.320 -0.9493  0.4305  0.4628
 3765SOL     OW22756   1.970   1.182   7.403  0.9200 -0.0094  0.0780
 3765SOL    HW122757   1.936   1.258   7.450 -1.2845  0.1041 -1.6649
 3765SOL    HW222758   1.951   1.113   7.467  1.4714 -0.1990  0.0413
 3766SOL     OW22759   3.878   0.300   4.439 -0.2998 -0.1200  0.2669
 3766SOL    HW122760   3.947   0.299   4.506  0.1072  0.9163 -0.1294
 3766SOL    HW222761   3.887   0.205   4.428  1.5809  0.0093  0.6045
 3767SOL     OW22762   2.573   3.010  11.111  0.1271 -0.1604 -0.2701
 3767SOL    HW122763   2.512   3.082  11.099  2.7588  2.0693 -0.2559
 3767SOL    HW222764   2.643   3.048  11.057  0.7096  0.4649  0.9158
 3768SOL     OW22765   4.053   3.977   2.861  0.0753  0.5167  0.7448
 3768SOL    HW122766   4.112   3.906   2.885  0.0677  0.1201 -0.4134
 3768SOL    HW222767   3.993   3.929   2.803 -1.4789 -0.3049  3.0394
 3769SOL     OW22768   1.044   0.355   1.080  0.3575 -0.5592  0.3663
 3769SOL    HW122769   0.948   0.359   1.074  0.3413 -0.7402  0.4857
 3769SOL    HW222770   1.075   0.299   1.152  0.2143  0.5405  1.2928
 3770SOL     OW22771   3.269   1.072   4.095  0.0525 -0.0276  0.7227
 3770SOL    HW122772   3.219   1.003   4.138  1.4252 -0.8189  1.0620
 3770SOL    HW222773   3.330   1.098   4.164 -0.4620  3.7781 -0.2724
 3771SOL     OW22774   2.074   4.495   2.685 -0.1040  0.2050 -0.0999
 3771SOL    HW122775   2.075   4.431   2.756 -3.1995  0.6901  0.3984
 3771SOL    HW222776   1.986   4.478   2.652 -0.2826  0.8940  0.0119
 3772SOL     OW22777   4.220   3.614  12.673 -0.4213  0.1735  0.3259
 3772SOL    HW122778   4.195   3.588  12.762 -4.0139 -0.6880 -0.9417
 3772SOL    HW222779   4.163   3.688  12.654  0.1771  0.5012 -0.2018
 3773SOL     OW22780   2.267   2.056  13.310 -0.0746  0.3366  0.7175
 3773SOL    HW122781   2.193   2.018  13.263  0.4247  0.5030 -0.1898
 3773SOL    HW222782   2.219   2.116  13.367 -4.1484 -2.3083  0.0577
 3774SOL     OW22783   3.952   4.486   3.614  0.0945 -0.0941  0.8682
 3774SOL    HW122784   3.924   4.452   3.699  2.0595 -1.1328  1.0855
 3774SOL    HW222785   3.867   4.524   3.589 -0.1820 -0.8608  0.6388
 3775SOL     OW22786   4.518   0.099  10.975 -0.2908  0.5133 -0.2664
 3775SOL    HW122787   4.613   0.108  10.980 -0.2324 -1.5365  2.1379
 3775SOL    HW222788   4.493   0.162  10.907  0.3001  1.1447  0.1117
 3776SOL     OW22789   1.850   3.825   9.653  0.0548 -0.1993  1.0065
 3776SOL    HW122790   1.933   3.791   9.618  0.0864  2.3689 -1.3990
 3776SOL    HW222791   1.789   3.769   9.605  0.9379 -0.8876  0.6691
 3777SOL     OW22792   1.964   2.273  12.358 -0.1868  0.1404 -0.0078
 3777SOL    HW122793   2.057   2.285  12.338 -0.2085 -2.2793 -1.6587
 3777SOL    HW222794   1.919   2.295  12.276 -0.2486  0.1847  0.0390
 3778SOL     OW22795   4.361   0.662   3.554  0.0254  0.3506 -0.2624
 3778SOL    HW122796   4.333   0.651   3.463  2.1100  0.4094 -0.8999
 3778SOL    HW222797   4.409   0.745   3.555 -0.8828  0.8775  0.4080
 3779SOL     OW22798   4.460   1.180  10.323 -0.2035  0.3247  0.0600
 3779SOL    HW122799   4.513   1.209  10.397 -0.8467  0.3263  0.5248
 3779SOL    HW222800   4.518   1.132  10.264 -0.1977 -1.7399  1.7307
 3780SOL     OW22801   0.761   4.255   6.713  0.0979  0.4308 -1.1050
 3780SOL    HW122802   0.805   4.324   6.663  0.8804  1.4893  1.0592
 3780SOL    HW222803   0.836   4.224   6.764 -0.5026  0.3475 -0.2687
 3781SOL     OW22804   4.606   2.824   8.046  0.3400 -1.0857  0.2192
 3781SOL    HW122805   4.680   2.849   8.101 -1.1994 -0.4495  1.9879
 3781SOL    HW222806   4.640   2.855   7.962  0.9430  0.4241  1.0346
 3782SOL     OW22807   3.731   0.504   3.201 -0.2185 -0.3533 -0.2913
 3782SOL    HW122808   3.670   0.525   3.131 -1.7108  1.0566  1.4481
 3782SOL    HW222809   3.802   0.553   3.161  0.6303 -1.1604  0.2164
 3783SOL     OW22810   0.385   0.250  13.709 -0.0362 -0.2152  0.7217
 3783SOL    HW122811   0.311   0.288  13.757 -1.2169 -0.8221 -0.5932
 3783SOL    HW222812   0.452   0.314  13.731 -0.2964  0.3299 -0.1024
 3784SOL     OW22813   3.991   0.761  12.943 -0.1134 -0.1196  0.2828
 3784SOL    HW122814   4.068   0.812  12.919  0.4415 -0.1449  1.9927
 3784SOL    HW222815   3.942   0.783  12.864  1.8717  1.1171 -0.5877
 3785SOL     OW22816   0.099   1.547   1.954  0.1189 -0.7123  0.3742
 3785SOL    HW122817   0.157   1.550   2.030 -0.2065  0.4043  0.5929
 3785SOL    HW222818   0.021   1.584   1.996 -0.3170 -2.3868  1.0408
 3786SOL     OW22819   2.856   4.657   8.907  0.5858 -0.6296 -0.1735
 3786SOL    HW122820   2.942   4.691   8.882  0.6918 -2.4242 -2.1961
 3786SOL    HW222821   2.813   4.680   8.824  3.7255  1.3655 -1.2729
 3787SOL     OW22822   4.247   0.775   1.515 -0.3907  0.0593 -0.3114
 3787SOL    HW122823   4.297   0.793   1.435  0.0239  0.3937  0.0232
 3787SOL    HW222824   4.212   0.863   1.524 -2.9329 -0.8892 -0.9727
 3788SOL     OW22825   1.198   3.431   7.819 -0.1878  0.0112  0.4298
 3788SOL    HW122826   1.284   3.453   7.783 -0.0002 -1.0628  0.2252
 3788SOL    HW222827   1.181   3.342   7.790  0.4662  0.3480 -0.9732
 3789SOL     OW22828   2.838   0.700   4.840  0.1185  0.3057 -0.0930
 3789SOL    HW122829   2.764   0.731   4.893  1.5452 -0.0564  2.1053
 3789SOL    HW222830   2.874   0.637   4.902  2.1537  1.8139  0.2549
 3790SOL     OW22831   0.175   2.047   7.523 -0.7720 -0.1905  0.5959
 3790SOL    HW122832   0.254   2.049   7.577  0.4176  0.6903 -1.1514
 3790SOL    HW222833   0.132   2.118   7.569  0.4018  2.5644 -2.5832
 3791SOL     OW22834   0.635   1.802  13.534  0.0239 -0.3537  0.1072
 3791SOL    HW122835   0.612   1.777  13.623 -1.2684 -0.4516 -0.2506
 3791SOL    HW222836   0.694   1.877  13.543 -1.6660  0.9654  0.1703
 3792SOL     OW22837   2.262   1.174   9.498  0.7323  0.3713 -0.3640
 3792SOL    HW122838   2.293   1.116   9.568  0.3002  0.4386 -0.1137
 3792SOL    HW222839   2.234   1.240   9.562 -2.8891 -0.6535 -0.8902
 3793SOL     OW22840   4.390   1.395   6.324  0.0576  0.0620 -0.2746
 3793SOL    HW122841   4.376   1.312   6.370 -1.0473  0.4973  0.1663
 3793SOL    HW222842   4.384   1.368   6.232 -1.7325 -0.3321 -0.0265
 3794SOL     OW22843   3.752   3.367  10.377 -0.1036 -0.2016 -0.3770
 3794SOL    HW122844   3.727   3.275  10.386 -1.8334  0.3768  0.5768
 3794SOL    HW222845   3.666   3.404  10.358  0.3765  0.2346 -1.6920
 3795SOL     OW22846   0.638   3.244   3.304  0.4209 -0.4989  0.4508
 3795SOL    HW122847   0.548   3.221   3.330  0.1167 -0.5844 -0.6567
 3795SOL    HW222848   0.691   3.172   3.338 -0.4390 -0.9541  0.8225
 3796SOL     OW22849   4.024   0.263   4.701 -0.4589  0.0858 -0.4064
 3796SOL    HW122850   4.008   0.314   4.780 -0.4657  1.3179 -1.2085
 3796SOL    HW222851   3.996   0.175   4.729 -0.0228 -0.6906 -2.4492
 3797SOL     OW22852   3.777   1.206  13.632 -0.1974 -0.1301 -0.6636
 3797SOL    HW122853   3.738   1.165  13.555 -0.3687  1.2991 -1.3338
 3797SOL    HW222854   3.702   1.205  13.692 -0.0224  2.6031 -0.4120
 3798SOL     OW22855   0.798   2.860  12.540 -0.6234  0.0855  0.2240
 3798SOL    HW122856   0.863   2.870  12.610 -2.2929  0.9112  1.6714
 3798SOL    HW222857   0.798   2.946  12.497 -1.1578 -0.0725 -0.0917
 3799SOL     OW22858   0.181   0.200   7.994 -0.1935  0.6463  0.6251
 3799SOL    HW122859   0.216   0.184   7.907  1.2538 -1.0264  1.4998
 3799SOL    HW222860   0.088   0.183   7.981  0.1384  0.9870 -2.0690
 3800SOL     OW22861   0.457   2.383   6.433  0.3688 -0.2264 -0.3279
 3800SOL    HW122862   0.533   2.428   6.469 -0.6602  2.2302 -1.2594
 3800SOL    HW222863   0.479   2.293   6.455 -1.6487 -1.0778 -1.7598
 3801SOL     OW22864   0.699   0.412   3.648  0.3255 -0.3425  0.1320
 3801SOL    HW122865   0.752   0.486   3.616 -1.0542  0.1440 -1.0275
 3801SOL    HW222866   0.771   0.355   3.675 -0.0817 -2.0061 -2.2267
 3802SOL     OW22867   1.947   1.435   0.765  0.5208 -0.1480  0.2283
 3802SOL    HW122868   1.969   1.410   0.855  0.7967 -0.5732  0.0392
 3802SOL    HW222869   1.892   1.359   0.743  0.5382 -0.5520  1.5664
 3803SOL     OW22870   3.638   2.915   7.076  0.1210 -0.1673  0.4748
 3803SOL    HW122871   3.622   2.824   7.052 -1.0437  0.0417  0.4548
 3803SOL    HW222872   3.728   2.911   7.109  0.5920  1.6940 -0.5590
 3804SOL     OW22873   4.478   1.267   4.817 -0.3980 -0.1920  0.0137
 3804SOL    HW122874   4.566   1.303   4.804 -1.0282  1.0227 -0.7955
 3804SOL    HW222875   4.473   1.236   4.727 -0.1641  0.5425 -0.2493
 3805SOL     OW22876   1.190   2.785   8.141  0.4439  0.3356  0.2469
 3805SOL    HW122877   1.264   2.833   8.179 -1.3583  0.8709  3.0325
 3805SOL    HW222878   1.212   2.782   8.048  1.5967 -2.4846  0.6143
 3806SOL     OW22879   3.894   0.756   5.897  0.7662  0.0126  0.0929
 3806SOL    HW122880   3.895   0.661   5.888 -1.4909 -0.0562  0.4126
 3806SOL    HW222881   3.814   0.762   5.949  1.3428  1.0324  0.8526
 3807SOL     OW22882   3.775   1.488   1.421 -0.5844 -0.1788  0.5056
 3807SOL    HW122883   3.775   1.393   1.407  1.0140  0.5723 -4.8366
 3807SOL    HW222884   3.691   1.504   1.463 -0.3346  0.1192  0.8873
 3808SOL     OW22885   1.544   0.431   3.942  0.5085 -0.1346 -0.3835
 3808SOL    HW122886   1.542   0.388   4.027 -1.3863 -0.4811 -0.6140
 3808SOL    HW222887   1.561   0.354   3.888  1.7319  2.0177 -3.0626
 3809SOL     OW22888   3.297   4.464   2.335  0.1931 -0.0483 -0.6344
 3809SOL    HW122889   3.324   4.546   2.294 -0.4874  0.0901 -0.8220
 3809SOL    HW222890   3.360   4.397   2.309  0.3338 -0.0661 -0.2406
 3810SOL     OW22891   3.763   3.677  10.685  0.0458  0.3157  0.1452
 3810SOL    HW122892   3.734   3.768  10.688 -1.8013 -0.3304  1.5264
 3810SOL    HW222893   3.799   3.669  10.596 -1.4652  0.8899 -0.5176
 3811SOL     OW22894   3.835   2.628   7.601  0.3909 -0.2674  0.7106
 3811SOL    HW122895   3.811   2.694   7.536  0.7404 -1.0682 -0.2305
 3811SOL    HW222896   3.845   2.685   7.678 -1.9643  0.3738  0.5274
 3812SOL     OW22897   2.553   3.408   5.174  0.2034  0.3955  0.3884
 3812SOL    HW122898   2.518   3.409   5.263 -0.0112 -0.2263  0.3150
 3812SOL    HW222899   2.513   3.334   5.129 -2.0578  1.9589 -0.1507
 3813SOL     OW22900   2.613   2.787   5.681 -0.0519 -0.2087 -0.2365
 3813SOL    HW122901   2.591   2.880   5.688  0.4075 -0.4015  3.5941
 3813SOL    HW222902   2.540   2.757   5.627 -0.5464 -0.6763  0.6823
 3814SOL     OW22903   3.297   3.409   3.693  0.0805 -0.2227  0.2500
 3814SOL    HW122904   3.349   3.337   3.728  1.4543  0.7752  0.2722
 3814SOL    HW222905   3.243   3.354   3.636  1.4724 -1.8716  0.5327
 3815SOL     OW22906   4.373   2.846   1.651 -0.5301  0.1707 -0.5077
 3815SOL    HW122907   4.460   2.821   1.620 -0.4162 -0.3110  0.2181
 3815SOL    HW222908   4.337   2.906   1.584 -0.7251  0.0834 -0.4809
 3816SOL     OW22909   0.926   0.656  16.845  0.2013  0.0710 -0.1000
 3816SOL    HW122910   0.856   0.593  16.826  0.4916 -0.6335  1.1632
 3816SOL    HW222911   0.873   0.727  16.881  0.2138  0.4465 -0.8157
 3817SOL     OW22912   3.142   4.075  13.015  0.5983  0.7843  0.0359
 3817SOL    HW122913   3.087   3.997  13.004  2.3688 -0.4287 -0.2296
 3817SOL    HW222914   3.150   4.085  13.110 -0.0108 -2.0709  0.4003
 3818SOL     OW22915   4.641   1.568  11.772  0.1807  0.4373  0.5307
 3818SOL    HW122916   4.612   1.496  11.828  0.5443  0.4997  0.8044
 3818SOL    HW222917   4.610   1.643  11.823  0.3029  0.0365  1.2030
 3819SOL     OW22918   4.112   0.763   3.709  0.2787  0.5559  0.0458
 3819SOL    HW122919   4.093   0.825   3.638 -2.8808 -1.0421 -0.5129
 3819SOL    HW222920   4.207   0.774   3.710  0.6461 -2.6187 -1.6211
 3820SOL     OW22921   1.133   3.790   0.609  0.6010  0.3412 -0.0460
 3820SOL    HW122922   1.081   3.856   0.562 -0.0049  1.5645  2.3319
 3820SOL    HW222923   1.176   3.751   0.533 -3.9767 -0.0364 -2.4597
 3821SOL     OW22924   4.296   3.356   3.057  0.1152  0.3573 -0.0143
 3821SOL    HW122925   4.207   3.334   3.029 -0.0947 -0.0181  0.9626
 3821SOL    HW222926   4.299   3.278   3.113 -1.9678 -1.7949 -2.8990
 3822SOL     OW22927   3.338   3.180   2.744  0.1403  0.2429 -0.2047
 3822SOL    HW122928   3.313   3.225   2.664 -0.8284  0.1472  0.0488
 3822SOL    HW222929   3.353   3.089   2.719  2.4911  0.5960 -0.1131
 3823SOL     OW22930   4.029   1.635   1.429 -0.2694  0.2196 -0.5429
 3823SOL    HW122931   3.951   1.580   1.435 -0.2313  0.2963  0.5521
 3823SOL    HW222932   4.077   1.610   1.507  1.0324 -0.1834 -1.4600
 3824SOL     OW22933   1.694   4.351   0.311  0.1073 -0.2132 -0.7436
 3824SOL    HW122934   1.771   4.388   0.267  0.2446  0.4300  0.0328
 3824SOL    HW222935   1.702   4.257   0.298 -1.0865 -0.3464 -0.5559
 3825SOL     OW22936   1.794   4.649   3.635 -0.2116  0.1478 -0.6415
 3825SOL    HW122937   1.763   4.558   3.638  1.2381 -0.2987  0.7274
 3825SOL    HW222938   1.856   4.638   3.564 -0.2053  0.3597 -0.6698
 3826SOL     OW22939   2.573   0.445   1.031 -0.7264 -0.5028  0.2210
 3826SOL    HW122940   2.525   0.525   1.006 -1.5897 -0.1257  3.0442
 3826SOL    HW222941   2.508   0.381   1.060 -1.1589  0.4908  1.4506
 3827SOL     OW22942   3.534   0.992  16.813  0.3393 -0.4016 -0.1119
 3827SOL    HW122943   3.598   0.941  16.764 -0.3715 -0.6568 -0.7826
 3827SOL    HW222944   3.572   1.079  16.801 -2.9302  1.0891  0.1936
 3828SOL     OW22945   2.364   1.792   4.200  0.0734  0.1803  0.2964
 3828SOL    HW122946   2.415   1.739   4.139  2.0725  0.7631  1.4429
 3828SOL    HW222947   2.419   1.768   4.275  1.4538  1.5503 -0.2753
 3829SOL     OW22948   1.223   4.019   2.404  0.0814 -0.3592 -0.3288
 3829SOL    HW122949   1.235   3.987   2.493  0.5809 -2.4370 -1.1338
 3829SOL    HW222950   1.144   4.071   2.415 -0.1908 -0.7576 -0.3746
 3830SOL     OW22951   3.549   4.538   9.117 -0.8346  0.1845  0.3898
 3830SOL    HW122952   3.467   4.558   9.072 -0.1331  1.0900 -0.4789
 3830SOL    HW222953   3.598   4.588   9.052  1.5466 -1.1956  1.1538
 3831SOL     OW22954   2.441   1.773  14.580  0.0260 -0.0024 -0.3452
 3831SOL    HW122955   2.504   1.729  14.638  0.0233 -0.3789 -0.6326
 3831SOL    HW222956   2.459   1.866  14.597  0.1930 -0.0822 -0.0697
 3832SOL     OW22957   3.473   1.854  15.142 -0.6544  0.3034 -0.5765
 3832SOL    HW122958   3.432   1.811  15.217  1.6713 -1.5790 -0.3547
 3832SOL    HW222959   3.471   1.778  15.083 -1.5746 -0.1327  0.0220
 3833SOL     OW22960   0.935   1.748   6.421  0.3521  0.2696  0.1581
 3833SOL    HW122961   0.954   1.795   6.501  2.0702  0.4875 -0.3826
 3833SOL    HW222962   0.998   1.790   6.363 -0.8718 -1.0111 -2.1272
 3834SOL     OW22963   2.517   3.098   6.081 -0.2690  0.0236 -0.8049
 3834SOL    HW122964   2.537   3.027   6.020 -0.5835 -0.9695  0.2382
 3834SOL    HW222965   2.562   3.072   6.161 -1.2493  0.8178  0.0059
 3835SOL     OW22966   0.414   1.764   0.255 -0.1603  0.2854  0.1619
 3835SOL    HW122967   0.461   1.847   0.261 -0.2765  0.2959  0.8217
 3835SOL    HW222968   0.474   1.711   0.308 -2.4333  0.1004  2.4888
 3836SOL     OW22969   0.850   4.554   7.065 -0.3369 -0.1651 -0.2750
 3836SOL    HW122970   0.888   4.598   7.141  0.0870 -0.8762 -0.0734
 3836SOL    HW222971   0.913   4.572   6.995  1.6144 -2.3508  0.9122
 3837SOL     OW22972   4.151   1.967   5.357 -0.2023  0.4440 -0.0391
 3837SOL    HW122973   4.195   2.012   5.285 -0.0215  1.1677  0.5348
 3837SOL    HW222974   4.204   2.000   5.429 -0.1720 -0.0923  0.1856
 3838SOL     OW22975   0.738   1.256   6.122  0.1674 -0.2030  0.3335
 3838SOL    HW122976   0.690   1.251   6.205 -0.3652 -0.4160  0.0080
 3838SOL    HW222977   0.675   1.297   6.063 -0.1317 -1.0894  0.0470
 3839SOL     OW22978   3.390   3.481   2.944 -0.2593  0.3245 -1.0856
 3839SOL    HW122979   3.314   3.428   2.920 -0.6662  0.3653  0.1437
 3839SOL    HW222980   3.427   3.521   2.865 -0.4954 -0.2737 -1.4999
 3840SOL     OW22981   3.202   3.022   3.921  0.2544  0.3354 -0.4864
 3840SOL    HW122982   3.154   2.980   3.849  0.0140  0.8739 -0.6354
 3840SOL    HW222983   3.147   3.097   3.941  0.5323  0.0538  1.3803
 3841SOL     OW22984   3.027   2.950  11.348  0.0523  1.0075 -0.4677
 3841SOL    HW122985   3.075   2.996  11.417 -0.0414  0.3233  0.0518
 3841SOL    HW222986   3.047   2.862  11.379 -1.6155  0.7490 -0.1467
 3842SOL     OW22987   2.608   3.087  14.091  0.0823 -0.7303  0.5116
 3842SOL    HW122988   2.700   3.062  14.084  0.1238 -0.9656  2.0446
 3842SOL    HW222989   2.617   3.170  14.043 -0.7540 -1.5001 -0.9801
 3843SOL     OW22990   2.573   0.398   8.211  0.7320 -0.2884 -0.1921
 3843SOL    HW122991   2.605   0.342   8.282 -1.2044  0.8771  1.5999
 3843SOL    HW222992   2.602   0.347   8.135  1.5360  1.2989 -0.9491
 3844SOL     OW22993   2.482   3.083   3.046  0.4634 -0.0736 -0.2790
 3844SOL    HW122994   2.391   3.077   3.019  0.7669 -0.0416 -1.3171
 3844SOL    HW222995   2.486   3.171   3.082  0.6006 -0.1303 -0.1545
 3845SOL     OW22996   0.243   1.854   3.777  0.2082 -0.3660  0.0425
 3845SOL    HW122997   0.234   1.798   3.701 -2.5087  1.4091 -0.9800
 3845SOL    HW222998   0.333   1.883   3.787  0.7539 -3.3941  3.9952
 3846SOL     OW22999   0.925   1.881   5.969 -0.6566 -0.1281  0.1952
 3846SOL    HW123000   0.947   1.946   5.902 -1.2577 -1.0430 -0.8917
 3846SOL    HW223001   0.830   1.886   5.966 -0.5393  0.2929 -2.9397
 3847SOL     OW23002   2.584   0.804   4.966  0.3463  0.0876  0.4235
 3847SOL    HW123003   2.576   0.884   5.018 -0.8931  2.1061 -2.8264
 3847SOL    HW223004   2.524   0.823   4.894  1.1398  0.5332 -0.1161
 3848SOL     OW23005   1.728   0.960   8.777 -0.0872 -0.2594 -0.3150
 3848SOL    HW123006   1.781   0.985   8.852 -0.5430  0.3372 -0.1856
 3848SOL    HW223007   1.696   1.049   8.757 -2.9765 -1.3496 -0.6174
 3849SOL     OW23008   3.983   0.558   1.312  0.0209  0.4044  0.3220
 3849SOL    HW123009   4.000   0.651   1.297  3.8954 -0.4384 -0.4750
 3849SOL    HW223010   3.936   0.551   1.228 -0.4428  0.1870  0.6004
 3850SOL     OW23011   2.383   0.729   3.684  0.2793 -0.3507 -0.0660
 3850SOL    HW123012   2.359   0.816   3.652 -1.5428  0.0628  2.4742
 3850SOL    HW223013   2.355   0.739   3.775 -2.9495 -2.5047 -0.8467
 3851SOL     OW23014   3.481   1.047   4.724 -0.1143  0.6867  0.0206
 3851SOL    HW123015   3.423   0.971   4.731 -0.7047  1.1688  0.3003
 3851SOL    HW223016   3.567   1.008   4.708 -0.8858 -0.7493 -0.6842
 3852SOL     OW23017   2.589   1.890   1.811 -0.3032  0.1551 -0.0581
 3852SOL    HW123018   2.589   1.986   1.802  0.0846  0.3532  2.0475
 3852SOL    HW223019   2.525   1.866   1.744 -0.0370 -3.3609  0.9742
 3853SOL     OW23020   3.028   0.699   5.235  0.4011 -0.3970  0.3415
 3853SOL    HW123021   3.082   0.771   5.268 -2.0254  1.1601  0.8403
 3853SOL    HW223022   3.073   0.683   5.152  0.0934  2.1321 -0.3308
 3854SOL     OW23023   4.206   0.180   5.287 -0.4244  0.1895 -0.1118
 3854SOL    HW123024   4.276   0.196   5.223 -1.2122  0.7622 -0.8182
 3854SOL    HW223025   4.262   0.152   5.360 -0.1541 -0.0468 -0.4078
 3855SOL     OW23026   0.268   3.840  15.138 -0.6751  0.2759 -0.1837
 3855SOL    HW123027   0.342   3.900  15.150 -0.0714 -0.5378  0.1454
 3855SOL    HW223028   0.277   3.826  15.044 -2.9062  2.3580 -0.7122
 3856SOL     OW23029   4.503   1.442   1.367 -0.4017  0.1473  0.0253
 3856SOL    HW123030   4.545   1.473   1.447  0.0798  0.3414 -0.3050
 3856SOL    HW223031   4.570   1.470   1.306 -1.1443  1.6989 -0.0766
 3857SOL     OW23032   2.345   3.280   8.190 -0.4860 -0.0838  0.7697
 3857SOL    HW123033   2.425   3.228   8.192 -0.0991  0.5937  2.8316
 3857SOL    HW223034   2.290   3.230   8.130  1.3573  1.0707 -1.9165
 3858SOL     OW23035   2.658   0.249   8.414 -0.2244  0.0805  0.0334
 3858SOL    HW123036   2.690   0.274   8.501 -0.8061 -3.6051  1.3087
 3858SOL    HW223037   2.684   0.157   8.413 -2.7363 -0.6368  1.1165
 3859SOL     OW23038   2.250   4.366   6.641 -0.0529  0.0488  0.2112
 3859SOL    HW123039   2.254   4.293   6.704  0.5452 -1.0471 -1.0974
 3859SOL    HW223040   2.223   4.429   6.708  0.1581  0.5048 -0.1367
 3860SOL     OW23041   1.761   0.040   7.271 -0.0152  0.4796 -0.4162
 3860SOL    HW123042   1.771   4.667   7.275 -2.5731  0.3798  3.5672
 3860SOL    HW223043   1.764   0.065   7.364  2.2599 -1.1440 -0.0760
 3861SOL     OW23044   1.333   2.181   8.782  0.1111  0.0402  0.3900
 3861SOL    HW123045   1.265   2.123   8.816 -0.1467 -1.3910 -2.5409
 3861SOL    HW223046   1.400   2.138   8.834 -0.7233 -2.6029 -0.7323
 3862SOL     OW23047   1.661   1.397   2.681  0.6537  0.0055  0.4872
 3862SOL    HW123048   1.693   1.366   2.766 -1.2815 -0.4319  1.0639
 3862SOL    HW223049   1.580   1.350   2.662 -0.0898  1.8786 -0.9555
 3863SOL     OW23050   2.392   0.667   3.947 -0.0514 -0.5499  0.6695
 3863SOL    HW123051   2.309   0.638   3.985  0.3158  1.0245  2.6539
 3863SOL    HW223052   2.443   0.651   4.026  1.9561  2.4720 -0.0624
 3864SOL     OW23053   1.994   3.778   6.627  0.1647 -0.0485 -0.2858
 3864SOL    HW123054   1.946   3.859   6.645 -1.5503 -1.1064 -0.0517
 3864SOL    HW223055   1.919   3.731   6.590  1.5843 -1.6904 -1.0812
 3865SOL     OW23056   2.378   4.408   7.304 -0.0690 -0.0090  0.0641
 3865SOL    HW123057   2.334   4.330   7.271  0.4896 -1.0722  1.8238
 3865SOL    HW223058   2.314   4.473   7.333 -1.7635 -1.4728 -0.3838
 3866SOL     OW23059   0.226   0.400   7.283  0.0599  0.1828 -0.0352
 3866SOL    HW123060   0.303   0.455   7.295 -0.5579  1.3604 -1.5068
 3866SOL    HW223061   0.268   0.332   7.230  0.5532  1.4621 -1.2780
 3867SOL     OW23062   0.895   4.429   3.007  0.0293 -0.1861 -0.6034
 3867SOL    HW123063   0.889   4.335   3.024 -2.0234 -0.3267 -2.2041
 3867SOL    HW223064   0.923   4.468   3.090  0.9175 -1.8759 -0.1071
 3868SOL     OW23065   1.134   0.862  13.277  0.3465 -0.2794 -0.1663
 3868SOL    HW123066   1.053   0.906  13.254  0.8968  1.5342  1.3658
 3868SOL    HW223067   1.106   0.771  13.265 -0.7745 -0.1119  1.1403
 3869SOL     OW23068   1.690   2.923   7.626 -0.5510 -0.3015 -0.1314
 3869SOL    HW123069   1.685   3.009   7.668  1.3149 -0.8064  1.1114
 3869SOL    HW223070   1.679   2.867   7.703 -0.2898  0.1689  0.2478
 3870SOL     OW23071   4.067   3.699   1.955  0.1887 -0.3592  0.5315
 3870SOL    HW123072   4.002   3.765   1.931  1.7764  0.8946 -0.3476
 3870SOL    HW223073   4.021   3.618   1.974 -2.2528  1.4954  2.3863
 3871SOL     OW23074   0.329   1.282   3.238 -0.5817  0.1250  0.6579
 3871SOL    HW123075   0.369   1.350   3.183 -0.7424 -0.0814  0.2871
 3871SOL    HW223076   0.337   1.214   3.171  1.3091  1.0453 -0.0565
 3872SOL     OW23077   0.095   4.250   8.717  0.5600  0.4701 -0.0024
 3872SOL    HW123078   0.015   4.291   8.683  0.0688 -0.5947 -0.1128
 3872SOL    HW223079   0.153   4.326   8.728  1.5372 -0.8406  3.8282
 3873SOL     OW23080   1.184   0.736   5.869  0.1514  0.5362 -0.1551
 3873SOL    HW123081   1.252   0.800   5.890  0.2376  0.7760 -1.1736
 3873SOL    HW223082   1.182   0.743   5.774 -2.1700 -0.5336 -0.1909
 3874SOL     OW23083   4.650   1.956   6.757 -0.2093 -0.2231 -0.1542
 3874SOL    HW123084   4.594   1.878   6.765  0.7446 -0.8035  0.8032
 3874SOL    HW223085   4.684   1.970   6.845  0.4522 -2.8704  0.0112
 3875SOL     OW23086   2.357   3.674  10.294 -0.0229  0.1991 -0.0556
 3875SOL    HW123087   2.391   3.609  10.232 -0.1526  0.9432 -0.9056
 3875SOL    HW223088   2.302   3.617  10.348 -0.5217  0.8602  0.1297
 3876SOL     OW23089   4.033   2.611  11.641  0.6262  0.4257  0.6799
 3876SOL    HW123090   3.974   2.582  11.572  1.0279 -0.5449  0.7457
 3876SOL    HW223091   3.992   2.695  11.662  1.5432  0.8969  0.6090
 3877SOL     OW23092   4.301   1.989   3.238 -0.4383 -0.7891  0.7023
 3877SOL    HW123093   4.287   2.074   3.279 -0.1959  0.4643 -1.7684
 3877SOL    HW223094   4.230   1.974   3.176  0.5750 -1.9712 -0.1717
 3878SOL     OW23095   1.788   1.067  17.134  0.0866  0.0514  0.2989
 3878SOL    HW123096   1.747   1.074  17.047  1.4240  1.2121 -0.2311
 3878SOL    HW223097   1.865   1.021  17.100  0.6105  0.8188  0.4570
 3879SOL     OW23098   0.396   1.266   2.549  0.0188  0.3233  0.8778
 3879SOL    HW123099   0.427   1.175   2.541  0.2470  0.4299  0.5338
 3879SOL    HW223100   0.469   1.308   2.503 -0.1090  1.2720  1.5488
 3880SOL     OW23101   1.576   1.786  15.975  0.4738  0.1261  0.1434
 3880SOL    HW123102   1.576   1.825  16.062  1.7984 -2.4054  1.2847
 3880SOL    HW223103   1.496   1.831  15.948  2.2806  2.5250 -1.2235
 3881SOL     OW23104   0.503   2.038  14.880 -0.2797 -0.6644  0.3015
 3881SOL    HW123105   0.526   2.090  14.958 -1.5820  0.5537 -0.1495
 3881SOL    HW223106   0.578   2.070  14.830 -1.1511  0.2829 -0.3804
 3882SOL     OW23107   0.577   4.154   3.788  0.3796 -0.4543 -0.7046
 3882SOL    HW123108   0.531   4.172   3.871  0.1389 -1.0436 -0.7110
 3882SOL    HW223109   0.641   4.226   3.796 -1.8079  1.4297 -0.1055
 3883SOL     OW23110   2.735   2.169  17.228 -0.1154 -0.1462 -0.2469
 3883SOL    HW123111   2.779   2.222  17.162 -0.3800  0.2721 -0.0911
 3883SOL    HW223112   2.687   2.237  17.276  0.3404 -2.0207  2.8874
 3884SOL     OW23113   2.777   1.809  10.764  0.3707  0.6587 -0.6606
 3884SOL    HW123114   2.815   1.858  10.691  1.7241 -0.4206 -0.6782
 3884SOL    HW223115   2.806   1.876  10.827 -0.3503 -0.1309  0.5166
 3885SOL     OW23116   4.330   1.474   4.141  0.1421 -0.6462  0.1232
 3885SOL    HW123117   4.265   1.412   4.107  0.1314 -0.5489 -0.0328
 3885SOL    HW223118   4.278   1.546   4.179  0.5948  0.1619 -0.7939
 3886SOL     OW23119   2.134   4.650  12.320  0.2932  0.1526 -0.1343
 3886SOL    HW123120   2.172   4.679  12.237  1.6742  2.0914  1.1770
 3886SOL    HW223121   2.187   4.571  12.333 -1.6173 -1.2759 -0.9734
 3887SOL     OW23122   2.821   0.451   3.977 -0.5409 -0.3967 -0.4413
 3887SOL    HW123123   2.873   0.382   4.017  0.8286  0.0887 -1.3907
 3887SOL    HW223124   2.788   0.494   4.056 -0.6067 -0.4519 -0.4384
 3888SOL     OW23125   0.179   1.524   8.327  0.2525  0.4168  0.4406
 3888SOL    HW123126   0.256   1.579   8.312 -1.0031  2.7269  2.5205
 3888SOL    HW223127   0.107   1.570   8.284  1.2778  0.3125 -1.4201
 3889SOL     OW23128   1.783   1.480   2.280  0.0624  0.4448 -0.1578
 3889SOL    HW123129   1.858   1.513   2.231  1.4162 -4.1585 -1.1613
 3889SOL    HW223130   1.806   1.389   2.297 -0.3931  0.7477  2.0916
 3890SOL     OW23131   0.188   4.378   5.845  0.1051 -0.6419  0.3705
 3890SOL    HW123132   0.228   4.385   5.932  1.8845  0.7730 -0.5508
 3890SOL    HW223133   0.169   4.284   5.841 -3.3116  0.0185  1.3461
 3891SOL     OW23134   4.283   2.495   8.616 -0.1095 -0.4626 -0.0308
 3891SOL    HW123135   4.318   2.495   8.527 -1.9488  1.4487 -0.7549
 3891SOL    HW223136   4.238   2.579   8.608 -0.7634 -0.8200 -0.1154
 3892SOL     OW23137   4.380   4.090   3.641 -0.0642  0.4841 -0.5080
 3892SOL    HW123138   4.401   4.143   3.564  1.7032  2.3683  1.2662
 3892SOL    HW223139   4.404   4.153   3.708 -4.1416 -0.1852  1.5926
 3893SOL     OW23140   4.437   3.690   9.602  0.5832  0.4730  0.6339
 3893SOL    HW123141   4.368   3.748   9.570 -0.6574 -0.0449  2.3543
 3893SOL    HW223142   4.413   3.674   9.693 -1.3658  0.6038  0.1488
 3894SOL     OW23143   4.057   2.045   2.821 -0.3156 -0.2527  0.0142
 3894SOL    HW123144   4.023   2.007   2.740 -0.9895  2.1873 -0.8513
 3894SOL    HW223145   4.111   2.115   2.782 -0.3646  0.9778  2.1670
 3895SOL     OW23146   1.356   2.608   4.582 -0.2061 -0.6595  0.7366
 3895SOL    HW123147   1.402   2.614   4.498 -0.6957  1.4129  0.6328
 3895SOL    HW223148   1.266   2.595   4.551 -0.0301 -0.3766  0.1064
 3896SOL     OW23149   2.258   2.047  13.777  0.0631 -0.5851 -0.4511
 3896SOL    HW123150   2.165   2.063  13.795 -0.2719  0.0963 -2.8153
 3896SOL    HW223151   2.259   2.082  13.688 -0.2503  0.2030 -0.1465
 3897SOL     OW23152   3.329   3.540   1.967 -0.2230 -0.0533 -0.6740
 3897SOL    HW123153   3.303   3.512   1.879  0.8493 -2.0549 -0.3750
 3897SOL    HW223154   3.413   3.580   1.945  0.0561  0.9263  2.1655
 3898SOL     OW23155   4.197   1.506   1.250  0.0288  0.0460 -0.1331
 3898SOL    HW123156   4.162   1.572   1.310 -1.3705 -1.1481  0.3526
 3898SOL    HW223157   4.146   1.433   1.284  0.0224  0.0784 -0.0729
 3899SOL     OW23158   2.100   3.650  12.728  0.6478  0.1691 -0.3492
 3899SOL    HW123159   2.126   3.565  12.693 -1.1764 -0.3094 -0.5173
 3899SOL    HW223160   2.055   3.686  12.652 -1.8353  0.4171  1.2558
 3900SOL     OW23161   3.787   2.322   7.849  0.1006  0.2691 -0.3015
 3900SOL    HW123162   3.850   2.303   7.780 -0.3021 -1.7419 -0.0962
 3900SOL    HW223163   3.708   2.313   7.796 -0.9978 -4.0493  2.1480
 3901SOL     OW23164   3.958   1.425   4.187 -0.1548 -0.1336 -0.2282
 3901SOL    HW123165   4.010   1.377   4.123  2.5251 -1.0147  2.5860
 3901SOL    HW223166   3.890   1.473   4.139 -1.7049 -1.1725  0.9164
 3902SOL     OW23167   0.959   0.079   4.656 -0.0815 -0.2260 -0.0794
 3902SOL    HW123168   0.999   0.022   4.590 -0.0726  0.0582 -0.3175
 3902SOL    HW223169   1.033   0.102   4.711  0.6630 -0.3537 -1.0282
 3903SOL     OW23170   4.288   3.407   3.915  0.3969 -0.1889  0.0341
 3903SOL    HW123171   4.291   3.376   4.005 -1.5937  0.3384  0.3012
 3903SOL    HW223172   4.373   3.379   3.881 -0.8826 -2.3982 -1.3409
 3904SOL     OW23173   3.939   0.817  16.175  0.3746  0.4377  0.0361
 3904SOL    HW123174   3.929   0.723  16.159  2.9484 -0.1029  1.6705
 3904SOL    HW223175   4.011   0.815  16.237 -0.0602  0.2413  0.5367
 3905SOL     OW23176   3.732   1.376   5.851  0.1918  0.2856  0.0115
 3905SOL    HW123177   3.780   1.344   5.927  0.2371 -3.3127 -1.5616
 3905SOL    HW223178   3.742   1.303   5.790 -0.6876 -0.1368  0.3667
 3906SOL     OW23179   4.356   4.679   2.246 -0.2109  0.1276 -0.2013
 3906SOL    HW123180   4.400   4.607   2.200  0.7148  0.5891 -0.0407
 3906SOL    HW223181   4.429   0.018   2.255 -0.5856  0.9384 -2.7963
 3907SOL     OW23182   2.122   4.154   8.771 -0.4602 -0.1777 -0.6371
 3907SOL    HW123183   2.075   4.160   8.688 -1.4382  0.1197 -0.0609
 3907SOL    HW223184   2.046   4.141   8.827  0.3471 -1.7787  0.0709
 3908SOL     OW23185   2.313   1.740   2.181 -0.2274 -0.0877  0.3712
 3908SOL    HW123186   2.303   1.645   2.176 -0.0282 -0.0694 -0.4334
 3908SOL    HW223187   2.407   1.741   2.196 -0.2603 -1.2412  0.6073
 3909SOL     OW23188   3.490   0.701   6.942 -0.1473 -0.7196 -0.1986
 3909SOL    HW123189   3.505   0.647   7.020  1.2999 -0.0337 -0.0026
 3909SOL    HW223190   3.412   0.748   6.969  0.5852  0.6502 -0.4363
 3910SOL     OW23191   4.227   2.045  17.085 -0.1774 -0.7334  0.3072
 3910SOL    HW123192   4.145   2.014  17.123 -1.0171 -1.4088 -2.0305
 3910SOL    HW223193   4.274   1.962  17.080  0.1731 -0.5298  0.2257
 3911SOL     OW23194   2.676   2.542  16.216  0.0807 -0.1629  0.3469
 3911SOL    HW123195   2.769   2.544  16.239  0.3520  0.2682 -0.7915
 3911SOL    HW223196   2.637   2.526  16.302 -1.6179 -0.1285 -0.4274
 3912SOL     OW23197   3.153   3.362   9.351  0.2624 -0.5482  0.0342
 3912SOL    HW123198   3.099   3.359   9.430 -0.0451  0.0200 -0.1561
 3912SOL    HW223199   3.075   3.351   9.296  0.0842 -1.3216  0.4418
 3913SOL     OW23200   1.505   3.065   8.686  0.0096 -0.0542  0.0907
 3913SOL    HW123201   1.529   3.158   8.685  1.5970 -0.4384  2.8941
 3913SOL    HW223202   1.529   3.031   8.599 -1.9034 -3.3077  0.8394
 3914SOL     OW23203   0.885   1.996   5.028 -0.7583 -0.7608  0.4695
 3914SOL    HW123204   0.941   1.996   5.106  0.2736  0.0310 -0.2738
 3914SOL    HW223205   0.947   2.031   4.965 -0.6074 -0.5251  0.7501
 3915SOL     OW23206   2.679   0.084   2.249 -0.4874  0.5322 -0.0286
 3915SOL    HW123207   2.709   0.032   2.175 -0.4828 -0.9605  1.0328
 3915SOL    HW223208   2.589   0.053   2.253 -0.5996  0.5864 -2.1603
 3916SOL     OW23209   2.116   1.307   9.691  0.2771  0.1379 -0.3539
 3916SOL    HW123210   2.061   1.385   9.696  0.1886 -0.0850  2.4063
 3916SOL    HW223211   2.104   1.271   9.779 -1.2598 -2.7682 -1.7507
 3917SOL     OW23212   1.330   3.526  14.130  0.0485 -0.7881 -0.1985
 3917SOL    HW123213   1.322   3.432  14.142  2.8211 -0.6488  2.8104
 3917SOL    HW223214   1.359   3.536  14.039  1.5797  0.4193  0.4038
 3918SOL     OW23215   1.096   1.795   3.475  0.2935 -0.1231  0.0661
 3918SOL    HW123216   1.086   1.716   3.422 -0.6004  0.3203 -0.4249
 3918SOL    HW223217   1.166   1.760   3.531 -0.1467  1.4036  1.5665
 3919SOL     OW23218   0.785   3.836  13.699 -0.5015 -0.3346 -0.2126
 3919SOL    HW123219   0.734   3.915  13.713  0.8231  0.7037 -1.3162
 3919SOL    HW223220   0.870   3.876  13.718  0.9467 -1.7963 -3.5446
 3920SOL     OW23221   1.294   2.196  15.851  1.0182  0.6464 -0.0977
 3920SOL    HW123222   1.334   2.274  15.812  1.5743 -0.4972 -1.8297
 3920SOL    HW223223   1.205   2.218  15.823  1.3438  0.7206 -1.0623
 3921SOL     OW23224   4.619   4.715   6.575 -0.1746  0.6969  0.3763
 3921SOL    HW123225   4.562   4.641   6.556  1.0829 -0.0495 -0.4297
 3921SOL    HW223226   4.597   0.030   6.661 -0.6295  1.9539 -0.2819
 3922SOL     OW23227   1.348   4.700   6.323  0.4386  0.1191  0.2153
 3922SOL    HW123228   1.325   0.063   6.285 -1.1144 -0.1580  0.5090
 3922SOL    HW223229   1.361   4.650   6.242  0.1527  0.9158 -0.3285
 3923SOL     OW23230   4.297   1.630   6.922 -0.1605 -1.3024 -0.3555
 3923SOL    HW123231   4.303   1.634   7.018  0.6220  0.9782 -0.5034
 3923SOL    HW223232   4.236   1.558   6.907 -2.7898  1.2901 -2.3133
 3924SOL     OW23233   0.822   0.448   2.407  0.0132 -0.5723 -0.0647
 3924SOL    HW123234   0.826   0.446   2.503  0.1135  1.0655 -0.0236
 3924SOL    HW223235   0.731   0.426   2.387  0.7690 -2.3807 -1.5300
 3925SOL     OW23236   4.163   4.505   5.120  0.0884 -0.3649  0.0342
 3925SOL    HW123237   4.188   4.431   5.064  2.5175 -0.2167  0.9389
 3925SOL    HW223238   4.240   4.561   5.119 -0.0350 -0.1955  0.0536
 3926SOL     OW23239   2.486   3.014   3.519  0.1799 -0.0159 -0.2396
 3926SOL    HW123240   2.577   3.029   3.493  0.3218  1.0858  0.9100
 3926SOL    HW223241   2.468   2.949   3.451 -1.2758 -0.1123  0.2395
 3927SOL     OW23242   4.009   3.171   5.549  0.2172  0.4254  0.5345
 3927SOL    HW123243   4.102   3.179   5.531  0.1376  3.0352  1.4316
 3927SOL    HW223244   3.993   3.076   5.551 -1.4869  0.7002  0.0220
 3928SOL     OW23245   0.330   0.783   5.719  0.4727  0.0372 -0.0152
 3928SOL    HW123246   0.377   0.854   5.764 -0.1723 -1.6443  3.2753
 3928SOL    HW223247   0.406   0.725   5.723 -0.7609 -1.4042  2.0238
 3929SOL     OW23248   0.347   1.992   6.153  0.0996 -0.2618  0.2077
 3929SOL    HW123249   0.383   1.909   6.122 -1.8815 -0.4297 -1.6216
 3929SOL    HW223250   0.363   1.996   6.248 -1.4344 -2.2753  0.5562
 3930SOL     OW23251   3.568   3.336   1.113 -0.5937 -0.5378  0.1799
 3930SOL    HW123252   3.615   3.359   1.033 -0.2006  1.2774  0.9251
 3930SOL    HW223253   3.639   3.307   1.170 -0.2692  0.7284  0.4239
 3931SOL     OW23254   3.905   4.692   7.519  0.4957  0.3024 -0.3549
 3931SOL    HW123255   3.897   4.600   7.542  0.6020  0.3643 -0.0579
 3931SOL    HW223256   3.931   4.681   7.428  0.2711  1.1913 -0.5260
 3932SOL     OW23257   3.659   1.021   2.265 -0.6407  0.9606 -0.1524
 3932SOL    HW123258   3.663   0.926   2.255 -1.4314  1.0119 -0.9915
 3932SOL    HW223259   3.748   1.042   2.293 -0.9047  1.8367  0.0395
 3933SOL     OW23260   2.632   1.987  10.083 -0.0893 -0.1509  0.0018
 3933SOL    HW123261   2.718   1.960  10.051 -1.0202 -0.6927 -1.9967
 3933SOL    HW223262   2.655   1.995  10.176 -0.2797  2.8173 -0.2019
 3934SOL     OW23263   2.541   2.616  14.727  0.1438 -0.8043  0.0512
 3934SOL    HW123264   2.592   2.559  14.785 -1.0421  0.2605  2.1628
 3934SOL    HW223265   2.600   2.686  14.698  0.6403 -1.4445 -0.4752
 3935SOL     OW23266   0.892   1.951  17.140  0.5771 -0.1114  0.1985
 3935SOL    HW123267   0.962   1.896  17.176  1.6720  0.4113 -1.1369
 3935SOL    HW223268   0.916   2.034  17.181  0.8489  0.9357 -2.0682
 3936SOL     OW23269   0.705   1.790   6.277  0.5400 -0.3864  0.4513
 3936SOL    HW123270   0.789   1.772   6.319  1.8941 -0.1671 -2.2174
 3936SOL    HW223271   0.652   1.710   6.282  1.0237 -0.9131 -3.4268
 3937SOL     OW23272   4.300   4.035  13.435 -0.0906  0.4881 -0.1194
 3937SOL    HW123273   4.228   4.001  13.488  0.0969 -1.0410 -0.8525
 3937SOL    HW223274   4.334   4.104  13.494  0.3770 -2.6131  3.2501
 3938SOL     OW23275   3.835   2.806   8.259  0.4568  0.0837 -0.0110
 3938SOL    HW123276   3.927   2.793   8.235  0.9704 -0.3780  2.2130
 3938SOL    HW223277   3.831   2.901   8.250  0.1629  0.0430 -0.3089
 3939SOL     OW23278   3.352   0.599   0.548  0.5645  0.0438  0.0006
 3939SOL    HW123279   3.382   0.526   0.493 -1.3577  1.2617 -2.6413
 3939SOL    HW223280   3.432   0.616   0.598  0.3154  2.2197 -0.3417
 3940SOL     OW23281   0.682   2.537   6.569  0.5250 -1.0040  0.1262
 3940SOL    HW123282   0.769   2.568   6.542  0.2218  1.5659  2.0727
 3940SOL    HW223283   0.706   2.516   6.659 -0.8241 -2.0382  0.2279
 3941SOL     OW23284   1.368   4.713   8.218  0.0175 -0.4153  0.2952
 3941SOL    HW123285   1.450   4.671   8.189  1.4497  1.7536  1.1929
 3941SOL    HW223286   1.377   0.002   8.312 -1.7120 -3.0301  0.7597
 3942SOL     OW23287   0.654   2.009   6.395 -0.2622  0.3899  0.1787
 3942SOL    HW123288   0.720   2.059   6.347  0.1550 -0.6893 -0.3637
 3942SOL    HW223289   0.677   1.924   6.357 -1.6439 -0.7818  1.9613
 3943SOL     OW23290   0.140   4.228  11.540  0.1186 -0.1046 -0.1208
 3943SOL    HW123291   0.086   4.172  11.485 -1.5772 -0.6075  2.0691
 3943SOL    HW223292   0.069   4.253  11.599  1.5174 -0.3045  1.6669
 3944SOL     OW23293   4.157   3.391   5.417  0.0767  0.1051  0.7473
 3944SOL    HW123294   4.134   3.403   5.325 -0.1876  1.5253  1.0058
 3944SOL    HW223295   4.189   3.302   5.428 -0.1274  0.2138  2.2997
 3945SOL     OW23296   1.162   0.403  16.884  0.4461  0.0168  0.8785
 3945SOL    HW123297   1.070   0.429  16.873  0.7584  0.2612 -1.1205
 3945SOL    HW223298   1.206   0.484  16.910  1.7245 -0.1075 -0.9222
 3946SOL     OW23299   1.237   0.817   3.383  0.3909  0.2937  0.6436
 3946SOL    HW123300   1.243   0.912   3.391  0.0321  0.4300 -0.7065
 3946SOL    HW223301   1.296   0.794   3.455 -1.0792  0.5467  1.9317
 3947SOL     OW23302   1.915   0.710  11.243  1.0651 -0.3003 -0.0598
 3947SOL    HW123303   1.983   0.673  11.187 -0.6985 -1.0384 -1.7310
 3947SOL    HW223304   1.860   0.749  11.176 -0.1885 -1.5549  0.2260
 3948SOL     OW23305   0.319   3.594   3.063  0.1457 -0.1307  0.0006
 3948SOL    HW123306   0.259   3.559   2.997 -1.5573  0.6009  1.1490
 3948SOL    HW223307   0.380   3.651   3.016 -0.6460  1.1151  0.4789
 3949SOL     OW23308   2.155   0.644  10.003 -0.1366  0.3918 -0.2395
 3949SOL    HW123309   2.246   0.664   9.982 -0.0145  0.3393  0.2565
 3949SOL    HW223310   2.158   0.549  10.018  0.8722  0.7070  1.4106
 3950SOL     OW23311   2.360   2.272   8.119  0.1625  0.2122  0.0046
 3950SOL    HW123312   2.393   2.289   8.207 -1.7431  1.5122  0.4733
 3950SOL    HW223313   2.428   2.315   8.066  0.1530  0.3759  0.1260
 3951SOL     OW23314   3.047   0.748  10.514 -0.0082  0.1532 -0.1800
 3951SOL    HW123315   3.125   0.750  10.571  0.5586 -1.1827 -0.9112
 3951SOL    HW223316   2.979   0.771  10.578 -0.4159  1.7927 -1.2291
 3952SOL     OW23317   0.500   0.687   8.734 -0.6012  0.2118 -0.0728
 3952SOL    HW123318   0.595   0.675   8.743 -0.7280 -1.7726 -1.4461
 3952SOL    HW223319   0.459   0.612   8.779  2.9840 -2.8754 -1.9133
 3953SOL     OW23320   1.384   3.591   8.282  0.0660  0.0514 -0.6183
 3953SOL    HW123321   1.341   3.535   8.346  0.5747 -1.4085 -1.5581
 3953SOL    HW223322   1.404   3.538   8.205  3.8749  1.1878 -0.4331
 3954SOL     OW23323   4.405   3.666   7.955 -0.6418 -0.0169 -0.2346
 3954SOL    HW123324   4.493   3.649   7.990 -0.7333  2.0115  0.9895
 3954SOL    HW223325   4.425   3.712   7.874 -2.1477  1.3197  0.1508
 3955SOL     OW23326   2.920   1.629   8.579 -0.0928 -0.0727 -0.3130
 3955SOL    HW123327   2.916   1.677   8.662  1.4676  1.8317 -1.3587
 3955SOL    HW223328   2.830   1.655   8.555 -0.6407 -2.2668 -0.6194
 3956SOL     OW23329   0.532   2.724  17.210 -0.8851 -0.3945  0.0915
 3956SOL    HW123330   0.523   2.671  17.131  2.3499  1.4655 -1.5476
 3956SOL    HW223331   0.446   2.765  17.209 -1.3162 -1.3185 -0.0802
 3957SOL     OW23332   0.702   1.438   3.604  0.4842  0.6374  0.1907
 3957SOL    HW123333   0.634   1.504   3.591 -0.1898 -0.3530 -1.2935
 3957SOL    HW223334   0.660   1.357   3.573  0.1978  0.9961 -0.3619
 3958SOL     OW23335   4.285   2.636   5.045 -0.0812 -1.2630 -0.3836
 3958SOL    HW123336   4.299   2.636   4.951  0.9402  1.5967 -0.2315
 3958SOL    HW223337   4.194   2.665   5.053  0.4105  0.6282 -1.6762
 3959SOL     OW23338   1.923   0.018   6.046 -0.3466 -0.0596 -0.0593
 3959SOL    HW123339   1.962   0.035   6.131 -1.4310 -0.0077  0.4304
 3959SOL    HW223340   2.005   0.030   5.998 -0.7136 -0.9016 -0.9086
 3960SOL     OW23341   0.634   0.427   4.238 -0.8564  0.0543 -0.1028
 3960SOL    HW123342   0.539   0.415   4.235 -0.6713 -1.3933 -0.3661
 3960SOL    HW223343   0.680   0.360   4.288 -1.0462  1.1385  1.5263
 3961SOL     OW23344   1.949   0.008   1.642 -0.0390  0.1382 -0.0383
 3961SOL    HW123345   1.896   0.023   1.564  0.7676  3.1046 -0.0254
 3961SOL    HW223346   1.903   0.068   1.702  1.7179  1.7411 -0.3137
 3962SOL     OW23347   1.813   3.338   6.672 -0.2692 -0.4493 -0.1667
 3962SOL    HW123348   1.903   3.371   6.677 -1.1042  1.7107  0.4798
 3962SOL    HW223349   1.790   3.361   6.582  0.2490  0.5945 -0.0319
 3963SOL     OW23350   1.785   1.083   4.077  0.0346 -0.0585 -0.0798
 3963SOL    HW123351   1.695   1.058   4.058 -0.5241  3.7038 -2.3324
 3963SOL    HW223352   1.780   1.160   4.021  0.7112 -1.3298 -1.8755
 3964SOL     OW23353   2.318   0.254   2.524 -0.0978  0.2726 -0.5698
 3964SOL    HW123354   2.339   0.279   2.434 -1.3743  0.7334 -0.7328
 3964SOL    HW223355   2.405   0.235   2.561 -0.8720 -0.8255  0.7029
 3965SOL     OW23356   0.515   2.890   7.789  0.4908  0.0126 -0.2932
 3965SOL    HW123357   0.423   2.887   7.816  0.7302 -2.4626  0.2587
 3965SOL    HW223358   0.506   2.934   7.705  0.3599  1.7813  0.6576
 3966SOL     OW23359   2.693   0.522   4.192  0.2999 -0.0851 -0.2579
 3966SOL    HW123360   2.709   0.599   4.248 -1.1697 -1.3205  1.8619
 3966SOL    HW223361   2.597   0.523   4.190  0.2825 -2.4280 -0.0498
 3967SOL     OW23362   1.353   2.436  16.355  0.3628 -0.4830  0.2271
 3967SOL    HW123363   1.367   2.374  16.426  0.7086 -0.3211  0.2992
 3967SOL    HW223364   1.371   2.382  16.278 -0.1363  1.5189 -1.2984
 3968SOL     OW23365   3.808   4.182   2.845  0.1370 -0.3629  0.0795
 3968SOL    HW123366   3.830   4.272   2.869  1.4191 -0.7522  0.3426
 3968SOL    HW223367   3.808   4.191   2.749  1.7149  0.8652  0.2008
 3969SOL     OW23368   0.500   3.285   7.458  0.4408  0.0739  0.3393
 3969SOL    HW123369   0.498   3.315   7.549  1.1915  0.7230  0.1445
 3969SOL    HW223370   0.566   3.347   7.425 -0.6328  1.2932  0.5156
 3970SOL     OW23371   0.103   1.341   1.224 -0.0383  0.4407  0.4520
 3970SOL    HW123372   0.059   1.418   1.186 -3.1698 -1.7291 -0.3374
 3970SOL    HW223373   0.127   1.371   1.311 -0.6551  1.2367  0.3524
 3971SOL     OW23374   2.248   1.003   5.997  0.2392 -0.1435  0.7467
 3971SOL    HW123375   2.223   0.986   6.088 -2.1226  1.5504  0.4084
 3971SOL    HW223376   2.169   1.046   5.965  0.4964 -1.1002 -1.1979
 3972SOL     OW23377   2.503   0.918   6.330 -0.2060 -0.0994 -0.3848
 3972SOL    HW123378   2.430   0.863   6.358  1.6820 -1.7340  1.3314
 3972SOL    HW223379   2.581   0.893   6.379 -1.1543  1.0931  1.7490
 3973SOL     OW23380   1.301   3.208   1.055  0.2541 -0.2779 -0.5989
 3973SOL    HW123381   1.386   3.214   1.099  0.2892 -1.1003 -0.5521
 3973SOL    HW223382   1.248   3.266   1.110 -0.4873 -0.6344 -0.9374
 3974SOL     OW23383   2.025   0.895   3.510 -0.6200  0.2792  0.6844
 3974SOL    HW123384   1.975   0.961   3.462  0.6777  1.4319  0.9109
 3974SOL    HW223385   2.005   0.821   3.453  2.2169 -0.0535  0.1156
 3975SOL     OW23386   1.310   1.572   4.446  0.2612  0.5693  0.5332
 3975SOL    HW123387   1.261   1.601   4.369  1.4632  1.3683  0.0734
 3975SOL    HW223388   1.277   1.485   4.467  2.8993 -0.2520  1.2282
 3976SOL     OW23389   2.261   0.979   2.989 -0.5313 -0.4447  0.1762
 3976SOL    HW123390   2.338   1.007   2.940 -1.1315  0.7261 -0.1029
 3976SOL    HW223391   2.240   0.900   2.940  1.4222 -1.4355  0.9330
 3977SOL     OW23392   4.652   2.271   8.918 -0.8083 -0.3901 -0.7154
 3977SOL    HW123393   4.613   2.350   8.954 -0.1024 -0.5984  0.4860
 3977SOL    HW223394   4.591   2.237   8.853 -0.6871 -0.4231 -0.8120
 3978SOL     OW23395   0.182   0.358   2.044  0.5895  0.3037  0.1308
 3978SOL    HW123396   0.260   0.412   2.030  0.4348  0.9034  1.6666
 3978SOL    HW223397   0.118   0.429   2.041 -1.5777 -1.6198  1.2919
 3979SOL     OW23398   0.182   1.313   8.534  0.4064 -0.0733 -0.2473
 3979SOL    HW123399   0.250   1.257   8.496 -0.2177 -2.4412  2.1495
 3979SOL    HW223400   0.180   1.384   8.470 -1.9075  0.3476  0.3201
 3980SOL     OW23401   0.951   0.919   6.402  0.1927  0.5758  0.0775
 3980SOL    HW123402   1.028   0.966   6.433 -1.6839  1.4212  3.3909
 3980SOL    HW223403   0.886   0.950   6.465  1.1472 -0.8134  1.7182
 3981SOL     OW23404   2.666   0.639   8.258  0.0537  0.0189  0.1782
 3981SOL    HW123405   2.647   0.547   8.239  0.5842  0.2205 -1.3559
 3981SOL    HW223406   2.591   0.678   8.213 -0.1327 -1.9771 -1.2515
 3982SOL     OW23407   4.083   2.913   4.248  0.0322  0.2193 -0.5115
 3982SOL    HW123408   4.033   2.909   4.330  0.3511 -2.6950 -0.4577
 3982SOL    HW223409   4.014   2.941   4.188 -1.5803  1.4238  1.8656
 3983SOL     OW23410   0.283   1.725   7.814  0.1414 -0.5438 -0.5433
 3983SOL    HW123411   0.329   1.676   7.745  0.4423 -0.3275 -0.4941
 3983SOL    HW223412   0.320   1.676   7.888  1.9549  0.8632 -0.5216
 3984SOL     OW23413   2.781   2.469   5.619 -0.0888 -0.2546  0.3443
 3984SOL    HW123414   2.778   2.564   5.618  0.2274 -0.2486 -0.0695
 3984SOL    HW223415   2.820   2.453   5.533  0.8123  0.3045  0.6585
 3985SOL     OW23416   1.411   2.163   7.875  0.0480  0.5877  0.5559
 3985SOL    HW123417   1.491   2.113   7.862 -0.7303 -0.0794 -1.7448
 3985SOL    HW223418   1.343   2.098   7.856  1.7449 -0.5795 -1.5751
 3986SOL     OW23419   2.933   4.118  15.868 -0.3195  0.4185  0.4269
 3986SOL    HW123420   2.973   4.136  15.783 -1.0682  0.1970  0.0251
 3986SOL    HW223421   2.883   4.038  15.852 -2.0448  0.7793  3.9299
 3987SOL     OW23422   2.112   0.577   9.320  0.4692  0.0595  0.1025
 3987SOL    HW123423   2.103   0.564   9.415  0.2191  1.1704  0.2331
 3987SOL    HW223424   2.031   0.532   9.295  0.5039 -0.9088  1.6802
 3988SOL     OW23425   4.429   0.421   0.385  0.0863  0.0952  0.2628
 3988SOL    HW123426   4.482   0.356   0.431 -0.1409  1.9036  3.1010
 3988SOL    HW223427   4.441   0.504   0.433  0.2320  1.2892 -1.8452
 3989SOL     OW23428   1.616   4.275  12.329  0.2532  0.1672 -0.1182
 3989SOL    HW123429   1.639   4.357  12.372 -1.5919  1.8189 -2.2577
 3989SOL    HW223430   1.592   4.218  12.402  1.9590 -1.4297 -0.8270
 3990SOL     OW23431   4.573   0.090  16.129 -0.1207 -0.3671  0.1926
 3990SOL    HW123432   4.596   0.137  16.209 -0.0073 -0.0851 -0.0053
 3990SOL    HW223433   4.491   0.132  16.104  0.9425  2.3658  1.3387
 3991SOL     OW23434   3.434   4.015   2.224  0.1434 -0.5407 -0.4170
 3991SOL    HW123435   3.397   3.930   2.200  0.9143 -1.2937  1.0296
 3991SOL    HW223436   3.372   4.026   2.295  0.2637  0.4883 -0.4776
 3992SOL     OW23437   2.182   0.514   3.672  0.4114  0.3405  0.1932
 3992SOL    HW123438   2.256   0.570   3.650  0.2136  0.3401 -0.4637
 3992SOL    HW223439   2.140   0.561   3.744  0.4154 -0.5374  0.7667
 3993SOL     OW23440   0.982   4.010   2.168 -0.2631 -0.2590  0.3126
 3993SOL    HW123441   1.007   4.099   2.142 -0.7024 -0.2350 -0.0345
 3993SOL    HW223442   0.945   4.021   2.256 -0.2807  2.4722 -0.0358
 3994SOL     OW23443   3.397   2.612   5.665 -0.1194  0.1821  0.2312
 3994SOL    HW123444   3.327   2.559   5.702 -1.0286 -0.2420 -2.1082
 3994SOL    HW223445   3.421   2.651   5.749  0.2235  0.0793  0.1832
 3995SOL     OW23446   2.286   4.542   1.374 -0.3239 -0.2730  0.0766
 3995SOL    HW123447   2.332   4.466   1.338 -1.9841 -1.8915  1.2961
 3995SOL    HW223448   2.352   4.609   1.362  0.6011 -1.6129 -2.3147
 3996SOL     OW23449   3.580   4.126   2.992 -0.4850  0.1230 -0.1495
 3996SOL    HW123450   3.645   4.144   2.925  1.1224  0.9394  1.6458
 3996SOL    HW223451   3.519   4.197   2.973 -0.7194 -0.2291 -0.7278
 3997SOL     OW23452   1.875   2.479   1.903 -0.6040  0.0550  0.2378
 3997SOL    HW123453   1.885   2.567   1.867 -1.2942  0.6547  1.5158
 3997SOL    HW223454   1.825   2.504   1.981 -1.2862  1.1738 -0.5593
 3998SOL     OW23455   3.534   3.755   5.549 -0.5198  0.1808 -0.0468
 3998SOL    HW123456   3.626   3.729   5.547 -0.4980  0.4894 -2.6918
 3998SOL    HW223457   3.538   3.845   5.515 -0.2105 -0.0854 -0.7079
 3999SOL     OW23458   0.280   2.258   9.360 -0.4833  0.0099 -0.1091
 3999SOL    HW123459   0.200   2.302   9.333 -1.0221 -0.8822  0.0087
 3999SOL    HW223460   0.268   2.255   9.454  1.3416 -1.2901  0.0860
 4000SOL     OW23461   3.196   1.261   8.139  0.3314  0.3650 -0.5867
 4000SOL    HW123462   3.195   1.350   8.103 -0.7709  1.1611  1.4331
 4000SOL    HW223463   3.136   1.263   8.213  0.4902 -2.2340 -0.3869
 4001SOL     OW23464   1.866   3.837   3.459  0.1309 -0.3350 -0.2380
 4001SOL    HW123465   1.858   3.753   3.505 -1.1474  1.1047  2.1413
 4001SOL    HW223466   1.917   3.799   3.386  1.2125  2.2572 -0.8333
 4002SOL     OW23467   3.489   4.644   3.941 -0.0331  0.4415 -0.3068
 4002SOL    HW123468   3.565   4.683   3.898  0.0714 -2.4682 -2.8032
 4002SOL    HW223469   3.448   0.003   3.971  0.8026  1.0877 -0.8928
 4003SOL     OW23470   3.571   0.421   2.739  0.4557 -0.4824 -0.3853
 4003SOL    HW123471   3.621   0.501   2.753 -0.8424  0.6420 -2.3072
 4003SOL    HW223472   3.493   0.446   2.789  1.0464 -2.1050  1.3679
 4004SOL     OW23473   2.318   1.765  13.050  0.0207 -0.9115 -0.4118
 4004SOL    HW123474   2.285   1.718  12.974  1.4603 -2.0502 -0.3308
 4004SOL    HW223475   2.295   1.856  13.030  4.1511  0.4057  0.6843
 4005SOL     OW23476   3.885   1.125   1.981 -0.4393 -0.1692  0.1027
 4005SOL    HW123477   3.920   1.092   1.898  1.0580  1.8421 -0.0550
 4005SOL    HW223478   3.849   1.212   1.969 -1.1559 -0.4175  0.4330
 4006SOL     OW23479   1.869   0.182   7.897 -0.3751 -0.0094  0.4765
 4006SOL    HW123480   1.863   0.106   7.955 -0.4657  0.7516  1.4662
 4006SOL    HW223481   1.935   0.155   7.834  1.4772  1.8750  1.6069
 4007SOL     OW23482   4.112   3.795  17.003 -0.0664 -0.5897  0.1909
 4007SOL    HW123483   4.092   3.873  16.953  0.5857 -0.6840 -0.2204
 4007SOL    HW223484   4.200   3.774  16.971 -0.5511 -0.5322 -1.1640
 4008SOL     OW23485   1.320   1.487   7.384  1.2037 -0.3965  0.6489
 4008SOL    HW123486   1.382   1.549   7.345  0.7148 -0.5674 -0.3981
 4008SOL    HW223487   1.354   1.405   7.347  0.2814 -1.4783  2.2252
 4009SOL     OW23488   3.787   3.521   7.339 -0.2265 -0.1764 -0.5436
 4009SOL    HW123489   3.748   3.569   7.266  0.8352 -0.5964 -1.3809
 4009SOL    HW223490   3.857   3.583   7.361  0.5994 -0.8933 -1.1392
 4010SOL     OW23491   0.877   1.650   4.730  0.2672  0.1108  0.0119
 4010SOL    HW123492   0.813   1.608   4.672  1.3809 -0.6089 -0.6972
 4010SOL    HW223493   0.859   1.606   4.813 -0.7216 -0.5555 -0.5492
 4011SOL     OW23494   3.557   0.630   0.732 -0.0570  0.1095 -0.2971
 4011SOL    HW123495   3.516   0.690   0.794 -1.2976 -0.1462 -0.8610
 4011SOL    HW223496   3.549   0.547   0.778  1.7962 -0.0272 -0.2322
 4012SOL     OW23497   2.286   3.346   3.327 -0.5191  0.4518 -0.0329
 4012SOL    HW123498   2.337   3.419   3.295  1.0757 -0.8559 -0.4757
 4012SOL    HW223499   2.340   3.275   3.363  0.2927  2.3703  2.5235
 4013SOL     OW23500   1.086   0.986   3.814 -0.0938  0.2267  0.4436
 4013SOL    HW123501   1.075   0.892   3.799  2.5764  0.4302 -2.6419
 4013SOL    HW223502   1.018   0.990   3.882 -0.6739 -0.5239 -0.0835
 4014SOL     OW23503   0.441   1.488   6.915  0.3238  1.2640 -0.1186
 4014SOL    HW123504   0.480   1.573   6.892 -0.0495  1.6062  0.5169
 4014SOL    HW223505   0.355   1.517   6.944 -0.2739 -0.5209 -0.1588
 4015SOL     OW23506   2.746   2.547   4.493  0.2656  0.1259  0.2167
 4015SOL    HW123507   2.664   2.499   4.484 -0.5716  1.7350 -0.6882
 4015SOL    HW223508   2.714   2.636   4.480 -1.3860 -0.8413 -2.4735
 4016SOL     OW23509   2.733   2.251   2.676 -0.1715  0.2657 -0.3769
 4016SOL    HW123510   2.744   2.176   2.618 -0.2388 -0.0071 -0.0372
 4016SOL    HW223511   2.821   2.289   2.684  0.4738 -1.5280  1.2293
 4017SOL     OW23512   1.601   2.510  16.806  0.1008 -0.2646  0.4834
 4017SOL    HW123513   1.664   2.564  16.852 -0.7965 -0.4990  1.9857
 4017SOL    HW223514   1.528   2.572  16.810 -0.6568 -1.2366  1.8988
 4018SOL     OW23515   3.213   1.752  12.419  0.3506 -0.3174  0.7408
 4018SOL    HW123516   3.170   1.807  12.353  1.0894 -0.9848 -0.2874
 4018SOL    HW223517   3.297   1.796  12.417 -0.1094  0.6030  2.3056
 4019SOL     OW23518   0.780   3.250   5.176 -0.6889  0.1063 -0.5531
 4019SOL    HW123519   0.750   3.195   5.103  1.2656 -2.5530  0.6655
 4019SOL    HW223520   0.727   3.329   5.164 -1.0318  0.4805  3.5162
 4020SOL     OW23521   2.164   4.310   4.229 -0.3305 -0.3926  0.0233
 4020SOL    HW123522   2.157   4.306   4.133 -1.5244 -1.4241  0.1521
 4020SOL    HW223523   2.139   4.223   4.259 -1.3164 -0.0279  0.2816
 4021SOL     OW23524   2.533   0.446   6.261  0.4138 -0.2483  0.0220
 4021SOL    HW123525   2.616   0.420   6.223  0.6245 -1.9204  1.6646
 4021SOL    HW223526   2.470   0.383   6.225  0.0531  1.4184 -2.2579
 4022SOL     OW23527   3.844   2.314   4.873 -0.2749 -0.5365  0.2884
 4022SOL    HW123528   3.789   2.387   4.902 -1.0275 -1.1903  0.5157
 4022SOL    HW223529   3.931   2.349   4.890  0.3861 -0.9004 -2.4686
 4023SOL     OW23530   2.791   3.208  11.238 -0.1778  0.1889 -0.2375
 4023SOL    HW123531   2.708   3.229  11.282 -1.0697 -0.2473 -1.7042
 4023SOL    HW223532   2.811   3.120  11.269  0.5967  0.6602  0.5902
 4024SOL     OW23533   4.200   1.075   8.260  0.0253 -0.5823 -0.0042
 4024SOL    HW123534   4.157   1.159   8.273  2.7140  0.7488  0.3397
 4024SOL    HW223535   4.232   1.098   8.172  3.0268 -0.2064  1.1925
 4025SOL     OW23536   3.683   3.488   4.487  0.1568 -0.6658  0.0176
 4025SOL    HW123537   3.687   3.446   4.573  2.3608  0.5604  0.4989
 4025SOL    HW223538   3.612   3.551   4.499  2.0394  1.7177 -1.4713
 4026SOL     OW23539   0.141   4.490   4.168 -0.1470  0.6213 -0.1335
 4026SOL    HW123540   0.113   4.504   4.258 -0.8652 -0.3138 -0.2167
 4026SOL    HW223541   0.234   4.507   4.184  0.7063 -2.6460 -1.6558
 4027SOL     OW23542   0.295   4.452   0.265 -0.2066 -0.3054  0.3880
 4027SOL    HW123543   0.242   4.373   0.262 -0.3705 -0.2564  1.8627
 4027SOL    HW223544   0.386   4.426   0.248 -0.2220  0.9332 -1.6529
 4028SOL     OW23545   1.580   3.850   4.809  0.0644  0.5087 -0.2975
 4028SOL    HW123546   1.608   3.854   4.901 -0.3361  2.5770 -0.2803
 4028SOL    HW223547   1.654   3.891   4.765  0.1071 -0.5524 -1.2181
 4029SOL     OW23548   4.548   2.662  12.492 -0.4068  0.5104 -0.0923
 4029SOL    HW123549   4.461   2.633  12.521 -1.7706  3.7520 -0.8573
 4029SOL    HW223550   4.539   2.751  12.457 -0.9647  0.5962  0.2582
 4030SOL     OW23551   1.626   3.208   2.393  0.0496  0.1886 -0.2565
 4030SOL    HW123552   1.574   3.133   2.422  3.1569 -1.4729  1.0370
 4030SOL    HW223553   1.719   3.191   2.412 -0.7124 -0.0687  3.3727
 4031SOL     OW23554   4.326   3.279   8.423 -0.6503 -0.1077  0.2156
 4031SOL    HW123555   4.263   3.347   8.400 -1.4808 -0.9526 -0.0176
 4031SOL    HW223556   4.308   3.222   8.348 -1.0112 -0.5134  0.6122
 4032SOL     OW23557   3.871   3.268   7.291 -0.5994 -0.4007 -0.4554
 4032SOL    HW123558   3.793   3.241   7.242 -1.2352 -1.3004  1.0464
 4032SOL    HW223559   3.837   3.342   7.342 -1.5833 -1.2516  0.1304
 4033SOL     OW23560   0.260   0.083   6.077 -1.0720  0.9348 -0.1939
 4033SOL    HW123561   0.175   0.050   6.108 -0.6406 -0.0869 -0.0858
 4033SOL    HW223562   0.292   0.143   6.144  0.7667 -0.1456 -0.1061
 4034SOL     OW23563   2.724   3.493   5.630 -0.3773  0.0517  0.4274
 4034SOL    HW123564   2.798   3.439   5.659  0.9101  0.9517 -1.1965
 4034SOL    HW223565   2.766   3.579   5.630 -0.6100  0.1605 -0.3752
 4035SOL     OW23566   0.592   2.407  12.184  0.4450 -0.5218 -0.0991
 4035SOL    HW123567   0.631   2.394  12.270 -1.0587  1.1918  0.8324
 4035SOL    HW223568   0.502   2.410  12.218  0.8724 -2.2358  1.2376
 4036SOL     OW23569   0.945   2.867  17.564 -0.4636 -0.0139 -0.0908
 4036SOL    HW123570   0.850   2.870  17.553 -0.2853  1.0192 -1.4585
 4036SOL    HW223571   0.964   2.900  17.652 -1.0492  0.7551 -0.2499
 4037SOL     OW23572   2.217   4.631   8.577 -0.1393 -0.1405  0.0887
 4037SOL    HW123573   2.296   4.681   8.560 -0.4061 -0.4157 -1.9079
 4037SOL    HW223574   2.250   4.560   8.632  1.5528  0.7111  0.1812
 4038SOL     OW23575   4.510   1.713   6.738  1.0455  0.2555  0.2430
 4038SOL    HW123576   4.543   1.626   6.715  0.6670  0.3034 -0.4968
 4038SOL    HW223577   4.457   1.685   6.812  1.7943 -0.2711  0.5860
 4039SOL     OW23578   3.536   1.855   6.488 -0.3167  0.1458 -0.2836
 4039SOL    HW123579   3.507   1.878   6.576 -0.8080  0.1083 -0.4317
 4039SOL    HW223580   3.487   1.774   6.475 -0.6960  0.4061 -0.4993
 4040SOL     OW23581   4.444   1.134   6.747 -0.1849 -0.4274  0.3316
 4040SOL    HW123582   4.514   1.184   6.787  2.0335 -2.9155 -0.4200
 4040SOL    HW223583   4.431   1.069   6.816  0.4005  0.4647  1.2701
 4041SOL     OW23584   4.439   3.718   9.174 -0.0771  0.2568  0.6654
 4041SOL    HW123585   4.410   3.651   9.112  0.4545  1.7874 -1.2518
 4041SOL    HW223586   4.475   3.663   9.243  1.9256 -0.9126 -1.3308
 4042SOL     OW23587   1.634   2.393   8.715 -0.3427 -0.0403  0.1635
 4042SOL    HW123588   1.722   2.356   8.714  0.3228  1.5018  2.3515
 4042SOL    HW223589   1.604   2.385   8.806  1.2722 -0.2663  0.6714
 4043SOL     OW23590   0.172   0.123   4.097  0.2955  0.2657  0.4266
 4043SOL    HW123591   0.146   0.194   4.039  1.1276  0.1019 -0.1496
 4043SOL    HW223592   0.162   0.164   4.183  0.3677 -0.6772  0.8831
 4044SOL     OW23593   1.161   0.137   3.668  0.6321 -0.3294  0.4606
 4044SOL    HW123594   1.212   0.078   3.613 -0.4574 -2.0598  1.3275
 4044SOL    HW223595   1.183   0.111   3.757 -1.5254 -1.9231  0.5204
 4045SOL     OW23596   4.633   2.813   3.979  0.0735 -0.0936  0.1218
 4045SOL    HW123597   4.637   2.899   4.021 -1.3236  0.4309 -0.8279
 4045SOL    HW223598   4.694   2.829   3.907  0.6322 -0.2001  0.5662
 4046SOL     OW23599   4.063   1.052   1.181 -0.2220  0.2211  0.3472
 4046SOL    HW123600   4.098   1.105   1.252 -1.2063  0.9862  0.2610
 4046SOL    HW223601   3.987   1.099   1.146 -0.0880  0.5623  0.5203
 4047SOL     OW23602   4.580   2.352   4.448 -0.2729  0.3723 -0.3869
 4047SOL    HW123603   4.487   2.358   4.423 -0.0125 -0.9301 -1.6818
 4047SOL    HW223604   4.604   2.438   4.484 -1.0244 -0.2895  1.6599
 4048SOL     OW23605   0.075   1.675  15.572 -0.1520  0.1179  0.0297
 4048SOL    HW123606   0.014   1.607  15.542 -1.1378  1.9361 -2.0310
 4048SOL    HW223607   0.131   1.657  15.497  0.7235  1.9682  0.2443
 4049SOL     OW23608   1.490   1.116   9.707  0.4776  0.0764  0.4532
 4049SOL    HW123609   1.496   1.041   9.766 -0.9169  1.1817  1.9692
 4049SOL    HW223610   1.461   1.069   9.629 -1.1903 -0.8336  1.6366
 4050SOL     OW23611   4.456   2.452  15.970  0.1005 -0.1070 -0.3927
 4050SOL    HW123612   4.408   2.526  16.007  2.2111  0.6978  0.7290
 4050SOL    HW223613   4.422   2.442  15.881  2.3267 -2.9986 -0.8901
 4051SOL     OW23614   1.633   2.038   7.403  0.5122 -0.2895 -0.0030
 4051SOL    HW123615   1.624   2.129   7.375 -0.1572 -0.7493 -1.3099
 4051SOL    HW223616   1.630   2.049   7.498 -1.7531  1.1904 -0.2447
 4052SOL     OW23617   4.703   1.871   3.470  0.6491  0.4154  0.4836
 4052SOL    HW123618   0.011   1.894   3.382  0.3714 -1.9119 -0.2226
 4052SOL    HW223619   4.667   1.784   3.455  1.3250 -0.0072  1.2972
 4053SOL     OW23620   0.444   2.720   5.608 -0.4325  0.0560  0.1672
 4053SOL    HW123621   0.484   2.742   5.524 -1.6758  0.6818 -0.2605
 4053SOL    HW223622   0.517   2.682   5.657 -0.7896  0.0473  0.6895
 4054SOL     OW23623   1.480   1.323   3.561  0.8486 -0.0709 -0.6257
 4054SOL    HW123624   1.573   1.343   3.548  1.3884 -0.9544  1.8675
 4054SOL    HW223625   1.457   1.274   3.482 -0.8190 -1.6889  0.8628
 4055SOL     OW23626   0.061   4.035  11.211 -0.1643 -0.0937 -0.5626
 4055SOL    HW123627   0.070   3.943  11.185  1.4079 -0.0483 -0.1984
 4055SOL    HW223628   0.051   4.029  11.306  0.2898  3.5699 -0.2848
 4056SOL     OW23629   0.527   1.382   0.586 -0.1428  0.0615  0.2714
 4056SOL    HW123630   0.451   1.331   0.613 -0.0120 -0.1592  0.2274
 4056SOL    HW223631   0.598   1.319   0.603  0.1994  0.1206 -0.9315
 4057SOL     OW23632   1.426   0.394   1.508  0.0887  0.3170  0.4143
 4057SOL    HW123633   1.372   0.473   1.508 -3.3185 -2.0170 -2.3473
 4057SOL    HW223634   1.362   0.331   1.541  2.1165 -1.3084  1.2825
 4058SOL     OW23635   1.944   0.253  11.481 -0.4253  0.7653  0.2567
 4058SOL    HW123636   1.916   0.302  11.404 -0.3973 -0.7437 -0.7053
 4058SOL    HW223637   2.036   0.241  11.458 -0.7658  0.7606 -1.1279
 4059SOL     OW23638   3.165   0.401   5.645 -0.7753  0.4059  0.1789
 4059SOL    HW123639   3.150   0.452   5.565  0.0123 -1.3059 -1.0679
 4059SOL    HW223640   3.258   0.418   5.662 -0.5924  1.3639 -1.8111
 4060SOL     OW23641   4.259   2.707   3.114  0.3667  0.0060  0.3225
 4060SOL    HW123642   4.168   2.713   3.145  0.3786 -2.7855  0.9124
 4060SOL    HW223643   4.281   2.615   3.132 -0.3269 -0.2699 -0.2532
 4061SOL     OW23644   0.102   0.975  16.770 -0.2094 -0.4217  0.3453
 4061SOL    HW123645   0.105   0.943  16.860  0.9682 -2.1085 -0.2917
 4061SOL    HW223646   0.042   1.048  16.787  0.5213  0.0530  0.8434
 4062SOL     OW23647   1.751   3.775  17.435  0.5933 -0.0159  0.6482
 4062SOL    HW123648   1.661   3.747  17.448  0.5065  0.4451  1.0526
 4062SOL    HW223649   1.787   3.693  17.401 -1.0780 -1.1015  1.5201
 4063SOL     OW23650   2.468   3.303   8.919  0.1981  0.3544 -0.8606
 4063SOL    HW123651   2.553   3.339   8.891  0.6426 -0.4878 -0.5847
 4063SOL    HW223652   2.477   3.299   9.014  1.7593 -1.1377 -1.0806
 4064SOL     OW23653   2.964   0.871   0.521  0.2570  0.7655  0.2902
 4064SOL    HW123654   2.894   0.808   0.537  0.2573  0.5085 -0.7107
 4064SOL    HW223655   3.039   0.819   0.493 -2.0719 -1.9914 -0.7357
 4065SOL     OW23656   4.714   1.016   5.490 -0.1114  0.1957  0.4324
 4065SOL    HW123657   0.065   1.076   5.475  1.2118 -1.5646 -0.2158
 4065SOL    HW223658   0.036   0.935   5.462  0.1624  0.4547  0.1222
 4066SOL     OW23659   2.241   1.082  10.109 -0.3933 -0.0936  0.3698
 4066SOL    HW123660   2.235   0.992  10.141  2.3547 -0.5930 -0.5430
 4066SOL    HW223661   2.316   1.084  10.049  1.0632  2.4382  2.2632
 4067SOL     OW23662   0.193   2.002   1.302  0.7130  0.3516  0.0881
 4067SOL    HW123663   0.227   1.999   1.213 -0.4607  0.3766 -0.3698
 4067SOL    HW223664   0.234   1.920   1.329 -0.9813 -0.5891 -0.1413
 4068SOL     OW23665   2.350   1.084   8.629  0.6218 -0.0884  0.1136
 4068SOL    HW123666   2.294   1.161   8.631  2.7897  1.5392 -2.7235
 4068SOL    HW223667   2.395   1.098   8.712 -0.1863  0.7996  0.3978
 4069SOL     OW23668   3.523   0.256   4.195 -0.4758  0.1527  0.1705
 4069SOL    HW123669   3.428   0.255   4.195 -0.4666 -0.5948 -0.9144
 4069SOL    HW223670   3.517   0.273   4.101  2.5564 -0.3755 -0.1306
 4070SOL     OW23671   2.322   1.081  10.705 -0.2625 -0.4726 -0.4214
 4070SOL    HW123672   2.284   1.123  10.628 -2.4290 -1.8457 -0.1116
 4070SOL    HW223673   2.245   1.038  10.742 -0.9657  1.1235 -0.0272
 4071SOL     OW23674   3.610   2.570  14.319 -0.9341 -0.4281 -0.5457
 4071SOL    HW123675   3.697   2.582  14.281  0.1767  0.8311  2.4202
 4071SOL    HW223676   3.588   2.657  14.351 -0.5503 -0.9201  1.0447
 4072SOL     OW23677   3.546   0.079  13.747 -0.1121 -1.0080 -0.0920
 4072SOL    HW123678   3.578   0.151  13.692  1.5319 -2.1641 -0.6513
 4072SOL    HW223679   3.611   0.010  13.733  1.2073  0.1240  0.3717
 4073SOL     OW23680   0.196   3.259   2.424 -0.0470 -0.8274  0.0593
 4073SOL    HW123681   0.132   3.264   2.353 -0.6654 -2.1983  0.5195
 4073SOL    HW223682   0.155   3.314   2.491 -0.8494 -1.2258 -0.0920
 4074SOL     OW23683   4.260   2.326   1.337 -0.0341  0.1286 -0.0160
 4074SOL    HW123684   4.299   2.328   1.250  1.7657  0.2129  0.7963
 4074SOL    HW223685   4.175   2.366   1.319 -1.3971 -2.6436  0.1344
 4075SOL     OW23686   1.776   3.167   6.927  0.3459 -0.0167 -0.0163
 4075SOL    HW123687   1.860   3.203   6.956  0.4148 -1.2790  1.2858
 4075SOL    HW223688   1.743   3.235   6.867  1.2002 -0.5867 -1.1414
 4076SOL     OW23689   2.171   3.734   7.848 -0.0915  0.1179 -0.0342
 4076SOL    HW123690   2.227   3.670   7.892 -0.4790 -0.0960  0.1428
 4076SOL    HW223691   2.196   3.746   7.756  1.0396  0.2047  0.2866
 4077SOL     OW23692   2.271   3.118   7.993 -0.2582 -0.5688  0.0201
 4077SOL    HW123693   2.207   3.103   7.924 -0.2420  2.9915 -0.7621
 4077SOL    HW223694   2.296   3.027   8.010  1.4051 -0.0248  0.4338
 4078SOL     OW23695   2.840   1.898   8.735 -0.1047  0.0638  0.8007
 4078SOL    HW123696   2.815   1.982   8.695 -0.1564 -0.5640 -0.4830
 4078SOL    HW223697   2.760   1.850   8.713 -0.8051  2.2143 -1.3831
 4079SOL     OW23698   1.483   2.853   7.060 -0.0551  0.1725  0.3256
 4079SOL    HW123699   1.479   2.884   6.969 -1.2378 -2.1579 -0.4033
 4079SOL    HW223700   1.497   2.936   7.107 -2.6677  0.8309 -0.0540
 4080SOL     OW23701   1.799   0.594   6.102 -0.0406 -0.6883 -0.4564
 4080SOL    HW123702   1.725   0.533   6.099  1.1609 -2.1808 -0.1225
 4080SOL    HW223703   1.866   0.525   6.106  0.1077 -0.3881  1.9530
 4081SOL     OW23704   2.300   2.422   6.516  0.3791 -0.2404 -0.7216
 4081SOL    HW123705   2.282   2.423   6.610 -0.4267  3.7564 -0.9471
 4081SOL    HW223706   2.333   2.334   6.499 -0.3234 -0.8162  0.8731
 4082SOL     OW23707   0.319   2.162  15.131  0.4634 -0.3924  0.2955
 4082SOL    HW123708   0.291   2.233  15.073  0.0737 -2.1179 -1.6576
 4082SOL    HW223709   0.412   2.150  15.111  0.3898  3.3088 -2.3059
 4083SOL     OW23710   3.388   2.498   9.449 -0.9774  0.3614 -0.4796
 4083SOL    HW123711   3.385   2.418   9.500  0.3157 -0.4227 -1.6379
 4083SOL    HW223712   3.422   2.551   9.521 -1.6363  0.7714 -0.4753
 4084SOL     OW23713   0.339   3.369   6.586  0.2332 -0.0612  0.5178
 4084SOL    HW123714   0.321   3.309   6.659 -1.1083  1.4196  1.3959
 4084SOL    HW223715   0.251   3.404   6.575  0.0067 -0.2214  1.8133
 4085SOL     OW23716   2.520   0.844   6.704  0.0880  0.1866 -0.0478
 4085SOL    HW123717   2.510   0.800   6.620  2.7572  0.6686 -0.5922
 4085SOL    HW223718   2.608   0.819   6.730 -0.0364 -0.2169 -0.0157
 4086SOL     OW23719   0.018   2.459  15.436 -0.1576  0.5221 -0.0614
 4086SOL    HW123720   0.025   2.381  15.492 -0.7640  0.8923  0.5266
 4086SOL    HW223721   4.647   2.478  15.435 -0.4807 -1.1262 -0.4084
 4087SOL     OW23722   2.806   0.396   7.707 -1.0077  0.4636 -0.3913
 4087SOL    HW123723   2.787   0.422   7.797 -0.5330  2.1079 -0.7604
 4087SOL    HW223724   2.815   0.485   7.671 -1.9317  0.8728  0.3962
 4088SOL     OW23725   1.035   3.636  10.344 -0.3478 -0.0226  0.6683
 4088SOL    HW123726   1.120   3.627  10.386 -0.5218 -2.5727  0.5063
 4088SOL    HW223727   0.996   3.718  10.373 -1.4722 -0.6015  0.8148
 4089SOL     OW23728   0.242   1.607  15.368 -0.0413  0.0052  0.0892
 4089SOL    HW123729   0.275   1.546  15.302 -2.0625  0.7018 -1.5946
 4089SOL    HW223730   0.327   1.623  15.409 -0.8676 -1.0866  2.2013
 4090SOL     OW23731   0.765   2.192  16.872  0.1830  0.1094  0.0849
 4090SOL    HW123732   0.849   2.223  16.907 -0.4797 -0.0626  1.8085
 4090SOL    HW223733   0.778   2.101  16.845  0.4007  0.2807 -0.4081
 4091SOL     OW23734   2.856   1.430   5.459  0.1997  0.1163 -0.4494
 4091SOL    HW123735   2.809   1.347   5.462  0.2159  0.1242 -0.0118
 4091SOL    HW223736   2.790   1.496   5.477 -1.2286 -1.0278 -1.5508
 4092SOL     OW23737   3.645   0.604  16.940 -0.0443  0.4207 -0.3545
 4092SOL    HW123738   3.636   0.660  16.863 -0.9583  0.6213 -0.1043
 4092SOL    HW223739   3.557   0.583  16.971 -0.7142  0.5928 -2.1221
 4093SOL     OW23740   4.178   0.478   8.719 -0.2539  0.3230 -0.0320
 4093SOL    HW123741   4.100   0.442   8.762  0.5556  0.3074  1.4102
 4093SOL    HW223742   4.170   0.572   8.736  1.5592  0.6642 -1.0846
 4094SOL     OW23743   1.175   4.713  10.327  0.4424  0.0925  0.2040
 4094SOL    HW123744   1.179   4.619  10.344  0.2841  0.4192  2.0959
 4094SOL    HW223745   1.146   4.710  10.236 -1.0322 -1.7007  0.7411
 4095SOL     OW23746   0.991   2.348  17.030  0.3474  0.3630 -0.4137
 4095SOL    HW123747   1.023   2.344  17.120 -0.8071 -1.5436 -0.0970
 4095SOL    HW223748   0.899   2.371  17.041  1.0291  1.8218  2.3362
 4096SOL     OW23749   0.464   2.638   1.134  0.1330  0.2514 -0.4753
 4096SOL    HW123750   0.520   2.598   1.068  1.9075 -2.0236  2.3967
 4096SOL    HW223751   0.438   2.564   1.190  0.2455  0.1891 -0.5050
 4097SOL     OW23752   2.558   3.316   6.936 -0.1673 -0.4670 -0.0450
 4097SOL    HW123753   2.478   3.353   6.898 -0.1515 -1.3284 -0.9225
 4097SOL    HW223754   2.607   3.314   6.854 -0.1761 -0.8622 -0.0440
 4098SOL     OW23755   2.464   0.545   9.512  0.0400  0.3808 -0.2389
 4098SOL    HW123756   2.438   0.454   9.527  4.9742 -0.9145  0.5769
 4098SOL    HW223757   2.407   0.596   9.569 -0.5684 -2.4861  1.7086
 4099SOL     OW23758   3.016   1.548  11.786 -0.1552  0.0818  0.2351
 4099SOL    HW123759   2.972   1.463  11.786  2.0986 -1.0952 -0.0034
 4099SOL    HW223760   3.086   1.530  11.850 -1.4431 -1.0815  1.3123
 4100SOL     OW23761   4.327   4.032   2.810 -0.0698  0.2272 -0.1271
 4100SOL    HW123762   4.295   4.000   2.726  0.0138  1.7324 -0.7501
 4100SOL    HW223763   4.243   4.042   2.855  0.6697  1.5671  0.9725
 4101SOL     OW23764   3.237   0.884   9.673 -0.1485  0.1007  0.4690
 4101SOL    HW123765   3.175   0.953   9.697 -0.2736  0.1577 -0.0185
 4101SOL    HW223766   3.278   0.901   9.589 -1.2988 -0.9172 -0.3038
 4102SOL     OW23767   2.481   1.219   6.606 -0.3847  0.3177  0.4655
 4102SOL    HW123768   2.417   1.153   6.631  0.2230 -0.6454 -0.5387
 4102SOL    HW223769   2.547   1.194   6.670  0.5214 -1.1032 -1.0467
 4103SOL     OW23770   1.044   1.563  15.990 -0.1398 -0.2573 -0.1725
 4103SOL    HW123771   1.121   1.529  15.946  0.2064  1.6379 -1.0378
 4103SOL    HW223772   0.986   1.594  15.920 -1.5415 -0.7164  0.7760
 4104SOL     OW23773   4.190   1.146  13.727  0.5021 -0.2655 -0.4660
 4104SOL    HW123774   4.196   1.105  13.813 -1.5627  2.1887  0.8396
 4104SOL    HW223775   4.277   1.184  13.719  0.2677  0.4459  0.3678
 4105SOL     OW23776   1.154   1.790  11.078  0.9576  0.4824 -0.4145
 4105SOL    HW123777   1.208   1.821  11.151  0.4182 -0.3154  0.3183
 4105SOL    HW223778   1.068   1.790  11.120  1.1326  1.0106 -0.0579
 4106SOL     OW23779   0.881   0.371   6.102  0.2199  0.2634  0.5348
 4106SOL    HW123780   0.936   0.448   6.114  0.3758  0.4292 -1.2441
 4106SOL    HW223781   0.917   0.336   6.020 -0.1134  1.1015  0.0263
 4107SOL     OW23782   1.569   3.918  12.857  0.8902  0.0110  0.5883
 4107SOL    HW123783   1.543   4.009  12.846 -1.2378 -0.6340  0.1672
 4107SOL    HW223784   1.660   3.921  12.884  0.7711  0.7613  0.8867
 4108SOL     OW23785   0.527   4.205   9.256  0.0146 -0.7785  0.0131
 4108SOL    HW123786   0.569   4.197   9.170  0.8780  1.4845  0.2404
 4108SOL    HW223787   0.449   4.249   9.222 -0.1039 -1.2608 -0.3441
 4109SOL     OW23788   1.519   0.467   8.483 -0.2460 -0.3023 -0.2116
 4109SOL    HW123789   1.549   0.457   8.573  1.5879  2.2505 -0.5409
 4109SOL    HW223790   1.458   0.394   8.474 -0.2862 -0.2342 -0.5249
 4110SOL     OW23791   0.136   1.475   7.298  0.0533 -0.3475  0.3443
 4110SOL    HW123792   0.160   1.470   7.206 -1.2918 -0.1939 -0.0126
 4110SOL    HW223793   0.217   1.442   7.337 -1.0041 -0.9352  2.0910
 4111SOL     OW23794   2.850   3.235  13.861  0.1424  0.1812  0.0735
 4111SOL    HW123795   2.776   3.269  13.912 -0.4365 -0.9682  0.0038
 4111SOL    HW223796   2.851   3.291  13.783  1.5051  0.5696  0.3753
 4112SOL     OW23797   3.506   3.724   8.131 -0.4634  1.0219 -0.1259
 4112SOL    HW123798   3.505   3.676   8.213 -0.1650  0.7949 -0.2550
 4112SOL    HW223799   3.573   3.785   8.159 -1.0258  1.4517  0.2723
 4113SOL     OW23800   0.135   3.714   9.211 -0.0046 -0.1392  0.8430
 4113SOL    HW123801   0.153   3.623   9.187 -3.6690 -0.7847  0.6540
 4113SOL    HW223802   0.202   3.759   9.160 -0.4936 -1.3834 -0.8641
 4114SOL     OW23803   0.223   2.862  13.453  0.3082 -0.3838  0.0927
 4114SOL    HW123804   0.162   2.797  13.487 -1.3324 -0.1916 -2.5356
 4114SOL    HW223805   0.308   2.820  13.467  0.9241 -0.3065 -3.4384
 4115SOL     OW23806   4.446   0.979   6.975  0.4685  0.3354  0.1675
 4115SOL    HW123807   4.467   0.919   7.046  2.1261 -0.1161 -0.6954
 4115SOL    HW223808   4.377   0.930   6.931 -0.2974  2.4883 -1.0329
 4116SOL     OW23809   4.574   4.504   3.601 -0.4563  0.5192  0.1263
 4116SOL    HW123810   4.663   4.491   3.634 -1.2917 -0.8616  1.8384
 4116SOL    HW223811   4.605   4.577   3.548  1.4872 -0.3332  0.1084
 4117SOL     OW23812   2.291   1.597   5.820 -0.2465 -0.0520 -0.3053
 4117SOL    HW123813   2.363   1.592   5.757 -1.3329 -0.1226 -1.5331
 4117SOL    HW223814   2.329   1.551   5.895 -2.7315 -1.2013  0.2517
 4118SOL     OW23815   0.428   4.006   5.876  0.0078 -0.0145  0.2239
 4118SOL    HW123816   0.426   4.082   5.817  1.0051 -0.0929  0.0759
 4118SOL    HW223817   0.481   3.940   5.831 -2.3609 -0.5299 -1.7810
 4119SOL     OW23818   4.061   0.417  14.527  0.1963  0.1827 -0.1786
 4119SOL    HW123819   4.004   0.374  14.591  0.3622 -0.2068 -0.2917
 4119SOL    HW223820   4.026   0.505  14.513 -1.1906 -0.7125 -2.4153
 4120SOL     OW23821   2.929   0.445   0.464  0.6216 -0.4987  0.0209
 4120SOL    HW123822   3.023   0.428   0.457  0.8473  1.5294 -1.6797
 4120SOL    HW223823   2.903   0.395   0.542  0.6263 -1.0885 -0.3551
 4121SOL     OW23824   1.165   1.211   7.230 -0.7543  0.8250  0.0574
 4121SOL    HW123825   1.136   1.159   7.305  1.4143 -2.7734 -1.5855
 4121SOL    HW223826   1.257   1.219   7.256 -0.8025 -0.6302  0.6796
 4122SOL     OW23827   2.220   2.713   1.351 -0.0950 -0.2091 -0.0879
 4122SOL    HW123828   2.129   2.713   1.382 -0.2966 -1.6769 -0.6646
 4122SOL    HW223829   2.244   2.805   1.360  1.8036 -0.9188  2.1759
 4123SOL     OW23830   2.965   1.764   3.003  0.2639  0.8362 -0.1861
 4123SOL    HW123831   2.898   1.777   3.070  1.4379  0.2434  1.0963
 4123SOL    HW223832   3.004   1.852   2.999  1.8177  0.2638  2.1516
 4124SOL     OW23833   2.777   4.081  15.175 -0.6191  0.7782  0.0431
 4124SOL    HW123834   2.758   3.994  15.140  1.8390  0.5477 -0.7290
 4124SOL    HW223835   2.697   4.130  15.188 -0.3433  1.2346  0.0127
 4125SOL     OW23836   1.339   3.763  11.395 -0.6235  0.4690 -0.2950
 4125SOL    HW123837   1.407   3.831  11.389  0.7464 -0.8075  0.9056
 4125SOL    HW223838   1.321   3.740  11.304 -0.6790  1.8401 -0.6360
 4126SOL     OW23839   4.627   3.107  12.363  0.3507  0.1300  0.1759
 4126SOL    HW123840   4.669   3.045  12.303  0.9816  1.4715 -0.7618
 4126SOL    HW223841   4.535   3.115  12.337  0.4334 -1.2150 -0.5585
 4127SOL     OW23842   2.054   0.833  15.154 -0.0811 -0.1071  0.0278
 4127SOL    HW123843   2.104   0.909  15.125 -0.4513  0.9392  2.1803
 4127SOL    HW223844   2.089   0.846  15.242  0.6196  1.0701 -0.4352
 4128SOL     OW23845   1.068   1.076  11.305  0.2360 -0.1222  0.0539
 4128SOL    HW123846   1.001   1.084  11.238  1.4689 -1.8820 -1.3791
 4128SOL    HW223847   1.094   1.167  11.320 -0.1596 -0.2253  1.3649
 4129SOL     OW23848   0.981   2.255   4.915  0.1701 -0.0433 -0.1222
 4129SOL    HW123849   0.980   2.315   4.989 -0.8239 -0.3887  0.1373
 4129SOL    HW223850   0.896   2.273   4.875  1.1257  1.1031 -1.6173
 4130SOL     OW23851   3.676   2.249  12.416  0.2108 -0.0627  0.0163
 4130SOL    HW123852   3.655   2.163  12.378 -1.5121  0.7895 -0.9961
 4130SOL    HW223853   3.663   2.305  12.339  0.3710 -1.0788 -0.7574
 4131SOL     OW23854   3.618   0.939  13.825 -0.4793  0.7748  0.5446
 4131SOL    HW123855   3.669   0.985  13.892 -0.3919  1.3098  0.1114
 4131SOL    HW223856   3.573   1.017  13.791  0.3400  0.5034 -1.1315
 4132SOL     OW23857   0.323   3.835   5.337 -0.1616 -0.1101  0.2033
 4132SOL    HW123858   0.412   3.818   5.307 -0.7657 -0.3649 -1.4353
 4132SOL    HW223859   0.273   3.787   5.271  1.3868 -0.7398 -0.5083
 4133SOL     OW23860   1.587   3.949   7.104  0.0914 -0.2003  0.6242
 4133SOL    HW123861   1.621   3.901   7.180  1.0802  0.7002  0.7514
 4133SOL    HW223862   1.553   3.883   7.044 -0.1022 -1.0388  1.6639
 4134SOL     OW23863   0.440   2.413   6.797 -0.0398 -0.5291  0.1795
 4134SOL    HW123864   0.427   2.318   6.802  0.2386 -0.5962 -0.3342
 4134SOL    HW223865   0.536   2.418   6.799  0.0467 -1.1738 -2.0199
 4135SOL     OW23866   1.333   0.323   3.045  0.2313  0.0525 -0.1595
 4135SOL    HW123867   1.416   0.359   3.013  0.7855  0.4905  1.7518
 4135SOL    HW223868   1.369   0.282   3.124 -0.7378 -1.8889 -0.7303
 4136SOL     OW23869   1.320   1.910   5.730  0.1945  0.3236  0.3971
 4136SOL    HW123870   1.395   1.960   5.761  0.9951 -0.2724 -0.5604
 4136SOL    HW223871   1.338   1.826   5.774 -0.0588  0.2008  0.2661
 4137SOL     OW23872   4.308   0.467   7.142 -0.3700 -0.3956 -0.2379
 4137SOL    HW123873   4.321   0.535   7.076  1.5650  1.4209  1.9969
 4137SOL    HW223874   4.216   0.483   7.162 -0.5245 -1.8194  0.1641
 4138SOL     OW23875   3.526   1.928   9.847  0.1864 -0.1905  0.2316
 4138SOL    HW123876   3.556   2.005   9.799 -3.0926  1.9805  1.6760
 4138SOL    HW223877   3.562   1.871   9.780  2.5721  0.9499  0.5381
 4139SOL     OW23878   0.902   3.078   5.356  0.3475 -0.4238 -0.1917
 4139SOL    HW123879   0.950   3.141   5.409  0.9052 -1.8480  1.0137
 4139SOL    HW223880   0.849   3.139   5.306  1.5263 -0.9574 -2.0950
 4140SOL     OW23881   3.308   1.110  17.008  0.0854  0.0465  0.1615
 4140SOL    HW123882   3.370   1.061  16.953 -1.5311 -1.5066 -0.2781
 4140SOL    HW223883   3.319   1.059  17.089  1.2009  0.2002  0.1144
 4141SOL     OW23884   3.189   0.445   7.648  0.0170  0.1817 -0.2108
 4141SOL    HW123885   3.124   0.442   7.578 -0.3280 -0.3800  0.1296
 4141SOL    HW223886   3.176   0.535   7.678  1.3601  0.4625 -0.4574
 4142SOL     OW23887   1.963   0.396   9.531 -0.3138 -0.5243 -1.0646
 4142SOL    HW123888   1.875   0.431   9.517 -0.4989 -0.9505 -0.9713
 4142SOL    HW223889   1.941   0.303   9.528 -2.3986 -0.0965  1.2014
 4143SOL     OW23890   1.746   1.367   3.505  0.7957  0.4755  0.0435
 4143SOL    HW123891   1.723   1.437   3.444 -0.2153 -1.7575 -2.1465
 4143SOL    HW223892   1.794   1.423   3.566 -0.9394  2.0001  0.0072
 4144SOL     OW23893   0.308   2.547   6.040  0.0487 -0.1825 -0.3510
 4144SOL    HW123894   0.259   2.608   6.096 -0.6688 -0.0981 -1.0710
 4144SOL    HW223895   0.361   2.496   6.101  1.5597  2.4517  0.5425
 4145SOL     OW23896   2.626   4.124   8.441  0.9721  0.3068 -0.1647
 4145SOL    HW123897   2.574   4.198   8.471  1.4304  0.8695 -0.7411
 4145SOL    HW223898   2.676   4.098   8.518 -3.0320  0.2910  2.3930
 4146SOL     OW23899   0.566   0.818   0.037 -0.3638  0.4529 -0.3325
 4146SOL    HW123900   0.534   0.893   0.086 -1.5198 -0.8121  0.8520
 4146SOL    HW223901   0.623   0.865  17.667 -0.2081  1.3705  0.5423
 4147SOL     OW23902   1.464   4.430  14.863 -0.2596 -0.0950  0.1023
 4147SOL    HW123903   1.478   4.480  14.944 -0.2637  1.9734 -1.1806
 4147SOL    HW223904   1.485   4.488  14.790  1.8710  0.3153  1.0437
 4148SOL     OW23905   3.042   2.854   5.670 -0.3466 -0.0360 -0.2258
 4148SOL    HW123906   2.966   2.820   5.718  0.4217  2.0895  2.4977
 4148SOL    HW223907   3.075   2.923   5.728  2.4032  0.3102 -2.2321
 4149SOL     OW23908   3.432   2.430  13.782 -0.6162 -0.1476 -0.5257
 4149SOL    HW123909   3.434   2.525  13.772  0.0458 -0.0856  0.2407
 4149SOL    HW223910   3.454   2.427  13.875 -0.1200  2.2208 -0.5910
 4150SOL     OW23911   2.555   3.928   8.724 -0.3594 -0.4992  0.2060
 4150SOL    HW123912   2.591   3.850   8.766 -0.1804  0.4764  1.8855
 4150SOL    HW223913   2.636   3.973   8.700 -0.0142 -0.9073  0.5864
 4151SOL     OW23914   3.678   2.115   4.255 -0.3516 -0.6581  0.2188
 4151SOL    HW123915   3.740   2.181   4.286  0.5621 -0.5766 -1.8132
 4151SOL    HW223916   3.688   2.131   4.161 -2.2381  0.2689  0.1738
 4152SOL     OW23917   1.693   1.642   3.445 -0.3283  0.4129 -0.0859
 4152SOL    HW123918   1.635   1.646   3.369  0.5928  0.1424 -0.7982
 4152SOL    HW223919   1.751   1.718   3.438  1.1823 -0.9830 -2.8382
 4153SOL     OW23920   1.754   3.275  17.496  0.3421  0.0035 -0.3573
 4153SOL    HW123921   1.724   3.305  17.582 -0.1970 -1.0001 -0.1911
 4153SOL    HW223922   1.795   3.192  17.520 -1.4609 -1.2463 -1.5938
 4154SOL     OW23923   3.320   2.430   3.288 -0.4382 -0.1193 -0.3863
 4154SOL    HW123924   3.283   2.346   3.260 -2.3708  0.8354 -0.7082
 4154SOL    HW223925   3.261   2.501   3.264  1.6400  2.2732  1.7419
 4155SOL     OW23926   2.522   2.544  17.150 -0.3251  0.1241 -0.4691
 4155SOL    HW123927   2.511   2.639  17.152  0.6716  0.1985  1.4328
 4155SOL    HW223928   2.509   2.519  17.058 -3.0657  0.8732 -0.2846
 4156SOL     OW23929   3.044   0.982   3.096  0.1717  0.6937 -0.4404
 4156SOL    HW123930   2.998   0.957   3.016 -0.8325  1.2946 -0.0446
 4156SOL    HW223931   3.136   0.989   3.071  1.0625 -0.5306  2.4100
 4157SOL     OW23932   1.627   3.899   5.519  0.4190  0.1845 -0.0466
 4157SOL    HW123933   1.535   3.915   5.541  0.6290  0.8644  0.3479
 4157SOL    HW223934   1.664   3.864   5.600  0.1416 -1.1654 -0.4985
 4158SOL     OW23935   2.756   3.375   8.047 -0.3677 -0.2774  0.8481
 4158SOL    HW123936   2.714   3.353   8.130 -0.5108  0.9492  1.0940
 4158SOL    HW223937   2.692   3.341   7.985  0.7336 -2.1980  0.7559
 4159SOL     OW23938   1.377   1.915   4.995  0.2665 -0.5580 -0.2349
 4159SOL    HW123939   1.431   1.924   4.917  0.6169 -0.1156  0.0558
 4159SOL    HW223940   1.348   2.006   4.998 -0.0394 -0.6502 -0.3832
 4160SOL     OW23941   3.006   2.219   2.802  0.2147  0.3085  0.2368
 4160SOL    HW123942   2.980   2.127   2.805 -0.3573  0.4924  1.0152
 4160SOL    HW223943   3.062   2.227   2.725 -0.0611 -0.4210 -0.0384
 4161SOL     OW23944   3.641   2.638   2.648  0.3848  0.1030 -0.6176
 4161SOL    HW123945   3.553   2.671   2.630  0.1198  0.3095  1.0550
 4161SOL    HW223946   3.657   2.674   2.735 -0.9414 -2.5138  0.7095
 4162SOL     OW23947   0.439   0.977  11.271 -0.1066 -0.8099  0.2584
 4162SOL    HW123948   0.464   1.017  11.188  0.4479 -0.6950  0.4771
 4162SOL    HW223949   0.412   1.057  11.316 -1.0223 -0.8306 -0.2519
 4163SOL     OW23950   1.140   1.235   1.252  0.0896  0.5923 -0.5702
 4163SOL    HW123951   1.118   1.153   1.297 -0.0824  0.6865 -0.4806
 4163SOL    HW223952   1.185   1.195   1.178  0.4326 -0.4969  0.2317
 4164SOL     OW23953   1.613   1.855  11.011  0.2726 -0.5683 -0.4461
 4164SOL    HW123954   1.538   1.897  10.969  1.1251  2.0273  0.6462
 4164SOL    HW223955   1.583   1.850  11.102 -0.4572 -0.4302 -0.6781
 4165SOL     OW23956   3.618   3.281  11.984 -0.3946 -0.0764 -0.1978
 4165SOL    HW123957   3.552   3.254  12.049 -0.2952 -1.9841 -0.8860
 4165SOL    HW223958   3.640   3.371  12.006 -0.8134 -0.4240  1.6385
 4166SOL     OW23959   2.637   0.423   7.928 -0.2363 -0.0871  0.2620
 4166SOL    HW123960   2.587   0.356   7.881 -0.7454  2.4423 -2.7939
 4166SOL    HW223961   2.578   0.497   7.912 -0.6565 -0.3926  0.3868
 4167SOL     OW23962   2.771   3.439   4.997 -0.2562 -0.2907 -0.0975
 4167SOL    HW123963   2.849   3.424   5.049 -0.8262 -0.3177  0.7537
 4167SOL    HW223964   2.714   3.437   5.074 -1.1512 -0.4952 -0.7572
 4168SOL     OW23965   0.693   2.596   5.412  0.3599 -0.0377  0.5729
 4168SOL    HW123966   0.668   2.598   5.320  3.8420  2.0223 -0.3237
 4168SOL    HW223967   0.780   2.557   5.401  0.8025  1.2928 -0.5582
 4169SOL     OW23968   1.601   0.203  11.982  0.3040  0.1035  0.5055
 4169SOL    HW123969   1.580   0.292  12.011 -0.0409  0.8974 -2.1716
 4169SOL    HW223970   1.626   0.220  11.891  0.7848  0.0653  0.6349
 4170SOL     OW23971   0.422   1.731   7.048 -0.5505  0.4824  0.5924
 4170SOL    HW123972   0.450   1.702   7.135 -0.9573 -1.3046  0.1435
 4170SOL    HW223973   0.327   1.742   7.047 -0.6865 -0.6328  0.9518
 4171SOL     OW23974   0.375   2.254   5.719 -0.1026 -0.2387  0.3616
 4171SOL    HW123975   0.297   2.290   5.760 -0.5215 -0.0976 -0.5668
 4171SOL    HW223976   0.398   2.175   5.768  1.0226  0.3219  0.7608
 4172SOL     OW23977   3.956   4.542  12.837  0.0264  0.5422  0.5781
 4172SOL    HW123978   3.879   4.535  12.894  0.5564 -3.1611  0.7924
 4172SOL    HW223979   3.921   4.487  12.767 -0.6579  1.9035 -0.1559
 4173SOL     OW23980   3.722   3.513  10.084 -0.3029  0.1941  0.1849
 4173SOL    HW123981   3.680   3.488  10.167  1.1500  0.7302  1.0858
 4173SOL    HW223982   3.650   3.561  10.044  1.3106  0.9647 -1.7682
 4174SOL     OW23983   3.100   0.271   1.058 -0.5569  0.0948  0.6874
 4174SOL    HW123984   3.145   0.291   1.140 -0.7149 -2.0181  1.2898
 4174SOL    HW223985   3.011   0.287   1.091 -1.7728 -2.5381 -1.3176
 4175SOL     OW23986   0.516   0.813   3.664  0.1599  0.0791  0.3213
 4175SOL    HW123987   0.505   0.908   3.671 -1.0115 -0.0648  0.4028
 4175SOL    HW223988   0.611   0.803   3.659  0.1136 -0.3289  0.2746
 4176SOL     OW23989   2.872   3.337   5.802 -0.2162 -0.0790  0.3959
 4176SOL    HW123990   2.864   3.250   5.839 -0.0655  1.1095  3.2070
 4176SOL    HW223991   2.960   3.365   5.826 -0.3310 -0.0590  0.7826
 4177SOL     OW23992   0.219   3.032   7.525 -0.0355  0.4223 -0.3422
 4177SOL    HW123993   0.262   2.984   7.454  1.5395  1.4097 -0.0322
 4177SOL    HW223994   0.203   3.116   7.482  2.2424  0.8722 -0.3106
 4178SOL     OW23995   3.412   1.845  15.630  0.4555  0.6335 -0.0541
 4178SOL    HW123996   3.480   1.778  15.636 -2.2942 -2.0765  0.4500
 4178SOL    HW223997   3.459   1.911  15.578 -0.5069  1.1230 -0.2872
 4179SOL     OW23998   1.684   3.485   0.897 -0.4438  0.4201  0.0143
 4179SOL    HW123999   1.605   3.529   0.867 -2.5575 -2.3984  1.4240
 4179SOL    HW224000   1.736   3.565   0.885  0.0230  0.0157 -0.6515
 4180SOL     OW24001   1.798   3.095  14.421 -0.3338  0.0846 -0.5777
 4180SOL    HW124002   1.749   3.170  14.385 -0.5925 -0.5398 -1.5370
 4180SOL    HW224003   1.784   3.123  14.512 -1.1246  0.6047 -0.8530
 4181SOL     OW24004   4.113   0.009  17.051  0.2933  0.6289  0.1130
 4181SOL    HW124005   4.101   4.661  17.115  0.3122 -0.3010 -0.9111
 4181SOL    HW224006   4.201   0.037  17.078 -0.3613  0.2251  2.6768
 4182SOL     OW24007   1.504   4.665   1.740  0.1953  0.2847  0.0027
 4182SOL    HW124008   1.482   4.700   1.654 -2.7358  3.7588  2.1154
 4182SOL    HW224009   1.484   4.572   1.732 -1.4084  0.4804  1.8148
 4183SOL     OW24010   0.105   0.065   3.266  0.1756  0.1463  0.3883
 4183SOL    HW124011   0.112   0.160   3.282  0.8501  0.3864 -1.3043
 4183SOL    HW224012   0.106   0.055   3.171 -1.0717  1.3683  0.2364
 4184SOL     OW24013   0.656   4.364   1.254 -0.9167 -0.6282 -0.2293
 4184SOL    HW124014   0.687   4.374   1.164 -1.9251 -0.3298 -0.5449
 4184SOL    HW224015   0.583   4.302   1.248 -0.8866 -0.5862 -1.0624
 4185SOL     OW24016   1.511   3.350   9.495 -0.2087  0.3432  0.1189
 4185SOL    HW124017   1.470   3.297   9.563 -0.8778  0.0986 -0.4647
 4185SOL    HW224018   1.513   3.286   9.423  1.3209  2.6234 -1.8560
 4186SOL     OW24019   4.514   3.291   2.532 -0.3219 -0.1315  0.2780
 4186SOL    HW124020   4.423   3.311   2.555 -0.4714 -0.8803  0.3394
 4186SOL    HW224021   4.527   3.227   2.602 -0.2390  0.7094  1.0385
 4187SOL     OW24022   4.030   0.893   1.806 -0.0254  0.4954 -0.3009
 4187SOL    HW124023   3.960   0.847   1.852  1.0300 -0.0280  0.7941
 4187SOL    HW224024   3.982   0.943   1.740  0.3140 -1.7421 -2.2389
 4188SOL     OW24025   0.682   3.293   0.858  0.5119  0.2079 -0.1878
 4188SOL    HW124026   0.621   3.228   0.892 -0.5012  0.6372 -1.1962
 4188SOL    HW224027   0.624   3.369   0.848  0.6773  0.3922  0.2317
 4189SOL     OW24028   2.107   3.297  11.149 -0.4365 -0.5649 -0.4427
 4189SOL    HW124029   2.016   3.320  11.130 -1.3371 -2.1670  1.8995
 4189SOL    HW224030   2.089   3.247  11.229  0.1072  0.8121  0.5545
 4190SOL     OW24031   0.778   2.132   3.842  0.2280  0.0292  0.1996
 4190SOL    HW124032   0.853   2.086   3.805  0.0394  0.9234 -1.3053
 4190SOL    HW224033   0.750   2.061   3.900  0.1321  0.4805  0.7033
 4191SOL     OW24034   3.525   1.049  16.027  0.1982  0.0641  0.3716
 4191SOL    HW124035   3.571   0.965  16.029  1.6329  0.8278 -0.2390
 4191SOL    HW224036   3.487   1.052  16.114  0.9727  2.5572  0.6170
 4192SOL     OW24037   0.427   0.877   5.182  0.4355 -0.3487  0.0369
 4192SOL    HW124038   0.473   0.911   5.259  3.7941 -0.9415 -1.6898
 4192SOL    HW224039   0.456   0.938   5.114  0.5586  0.5264  0.8684
 4193SOL     OW24040   3.636   2.902   3.096  0.6682 -0.4119 -0.7800
 4193SOL    HW124041   3.571   2.972   3.086 -0.5016 -1.7498 -2.4014
 4193SOL    HW224042   3.714   2.945   3.062 -0.6992  1.9673 -0.9427
 4194SOL     OW24043   2.298   1.027   6.691 -0.4872 -0.2901  0.4789
 4194SOL    HW124044   2.371   0.965   6.691  0.0291  0.3274  1.1858
 4194SOL    HW224045   2.278   1.021   6.784  4.1664 -0.8412  1.4071
 4195SOL     OW24046   2.250   0.741   2.871  0.3532 -0.5620 -0.6034
 4195SOL    HW124047   2.164   0.704   2.851  1.4501 -2.0972 -2.4820
 4195SOL    HW224048   2.310   0.667   2.857  0.5957 -0.4472 -0.1908
 4196SOL     OW24049   3.087   3.108   1.595  0.2990 -0.2066  0.1098
 4196SOL    HW124050   3.018   3.124   1.659  2.0400 -2.3576  2.5126
 4196SOL    HW224051   3.062   3.026   1.552  2.2092 -0.8818  0.3227
 4197SOL     OW24052   1.268   0.727   1.178  0.3854  0.4231  0.1009
 4197SOL    HW124053   1.248   0.669   1.105 -0.0484  0.2443  0.3587
 4197SOL    HW224054   1.348   0.765   1.141 -0.7073  1.8915 -0.7750
 4198SOL     OW24055   1.990   2.595   6.722 -0.1902 -0.2978  0.3659
 4198SOL    HW124056   1.982   2.520   6.781 -3.2672  1.9491  2.7945
 4198SOL    HW224057   1.904   2.631   6.743 -0.3310  0.0362 -0.7684
 4199SOL     OW24058   2.477   0.924  10.358 -0.1432  0.4871  0.0909
 4199SOL    HW124059   2.454   0.855  10.421 -0.7597  0.3512 -0.2871
 4199SOL    HW224060   2.410   0.915  10.290  0.4447  1.5172 -0.6084
 4200SOL     OW24061   4.247   0.257  16.679  0.2041  0.5688  0.3987
 4200SOL    HW124062   4.289   0.236  16.596  1.0340 -0.3284  1.0540
 4200SOL    HW224063   4.317   0.254  16.744  0.5289  0.0565  0.0131
 4201SOL     OW24064   3.746   3.440   3.314 -0.2640  0.2351  0.4546
 4201SOL    HW124065   3.837   3.410   3.314 -0.1882  0.4310  1.9486
 4201SOL    HW224066   3.726   3.463   3.405  3.0173  1.2541  0.9127
 4202SOL     OW24067   1.827   2.714   1.030  0.3649 -0.2180 -0.2208
 4202SOL    HW124068   1.732   2.711   1.045  0.5942  2.0477  1.5607
 4202SOL    HW224069   1.842   2.620   1.028 -1.2047 -0.5002  1.9528
 4203SOL     OW24070   0.474   3.621   6.001  0.0012  0.6705  0.2795
 4203SOL    HW124071   0.517   3.630   5.916  0.3816 -3.2300  0.0359
 4203SOL    HW224072   0.431   3.538   5.983  0.4371  0.2200  1.3132
 4204SOL     OW24073   2.251   0.542   7.541  0.1975  0.8331 -0.0256
 4204SOL    HW124074   2.224   0.548   7.632  2.5658 -1.0919  0.8019
 4204SOL    HW224075   2.200   0.467   7.511  1.4777 -0.1758  0.3356
 4205SOL     OW24076   1.944   2.370   2.830  0.5322  0.0456  0.2598
 4205SOL    HW124077   1.948   2.298   2.767 -1.1452  0.3057 -0.1339
 4205SOL    HW224078   2.030   2.410   2.818  0.8823 -0.2205  1.8596
 4206SOL     OW24079   1.484   1.589   5.435 -0.2034 -0.2832 -0.3253
 4206SOL    HW124080   1.413   1.588   5.370  2.7910 -0.6590 -3.5691
 4206SOL    HW224081   1.551   1.616   5.372 -0.6631 -0.3214 -0.8357
 4207SOL     OW24082   0.879   4.610  11.616 -0.1033  0.6687 -0.1840
 4207SOL    HW124083   0.828   4.578  11.542  0.0832 -1.5342  0.6704
 4207SOL    HW224084   0.876   4.538  11.678 -4.4019  1.0284  0.0408
 4208SOL     OW24085   4.534   0.461   4.557  0.5949  0.1456 -0.4824
 4208SOL    HW124086   4.534   0.548   4.518  0.1498  0.9409  1.3194
 4208SOL    HW224087   4.624   0.437   4.536  1.5652  2.2946  1.3398
 4209SOL     OW24088   3.218   4.214   3.317  0.1692 -0.0011  0.2336
 4209SOL    HW124089   3.283   4.155   3.356 -0.7591 -0.4188  1.1629
 4209SOL    HW224090   3.181   4.150   3.256 -1.2010 -0.2320  1.3246
 4210SOL     OW24091   3.226   3.712   2.900 -0.2043 -0.2267  0.8399
 4210SOL    HW124092   3.267   3.781   2.848 -0.7519 -0.6372 -0.1259
 4210SOL    HW224093   3.310   3.673   2.925 -0.9139 -2.2051  0.1435
 4211SOL     OW24094   3.267   1.739  14.253 -0.3005 -0.1872  0.0479
 4211SOL    HW124095   3.207   1.780  14.190  0.0394  0.2481  0.0075
 4211SOL    HW224096   3.309   1.663  14.214 -1.9048  0.3709 -2.8059
 4212SOL     OW24097   4.563   3.054   3.683  0.3621 -0.2131  0.6288
 4212SOL    HW124098   4.496   3.113   3.716 -0.2737 -0.8206  0.4194
 4212SOL    HW224099   4.507   2.995   3.633  1.2133  0.5233 -1.2036
 4213SOL     OW24100   1.848   3.755   6.064  0.1215 -0.5083 -0.1437
 4213SOL    HW124101   1.901   3.824   6.024  1.7755 -1.2715  0.7558
 4213SOL    HW224102   1.904   3.678   6.063  1.3763  0.4175 -0.8514
 4214SOL     OW24103   3.097   3.632   9.523 -0.1749  0.4060 -0.3730
 4214SOL    HW124104   3.129   3.715   9.487 -0.7588  1.4320  1.4882
 4214SOL    HW224105   3.178   3.586   9.543  0.7898  1.2486 -2.2760
 4215SOL     OW24106   0.802   2.751   2.094  0.6289 -0.0036 -0.0087
 4215SOL    HW124107   0.833   2.834   2.130  0.7790 -0.0277 -0.0843
 4215SOL    HW224108   0.726   2.781   2.044  2.5206  2.2209 -1.5299
 4216SOL     OW24109   3.304   2.453   4.861 -0.2233 -0.7700  0.3186
 4216SOL    HW124110   3.253   2.375   4.841 -2.3396  0.1723  2.0123
 4216SOL    HW224111   3.366   2.409   4.919  0.8489 -0.4572 -0.5722
 4217SOL     OW24112   2.150   3.694   3.745  0.2011  0.4710 -0.0863
 4217SOL    HW124113   2.185   3.606   3.763 -0.0241  0.0682 -1.6830
 4217SOL    HW224114   2.203   3.746   3.806  0.6069  0.9632 -0.8690
 4218SOL     OW24115   2.775   3.811   7.446  0.1137 -0.0987  0.5327
 4218SOL    HW124116   2.719   3.886   7.427  0.8713 -0.0058 -1.3840
 4218SOL    HW224117   2.722   3.736   7.419  1.6004 -1.2774  0.8896
 4219SOL     OW24118   0.121   1.171  11.565  0.1661  0.6481 -0.0034
 4219SOL    HW124119   0.172   1.140  11.639  2.3246  0.9920 -1.3608
 4219SOL    HW224120   0.101   1.088  11.520 -1.2228  1.2076 -0.4335
 4220SOL     OW24121   3.544   1.346   0.225  0.8925  0.1853 -0.0235
 4220SOL    HW124122   3.492   1.381   0.152 -0.3142  0.8440  1.1447
 4220SOL    HW224123   3.626   1.321   0.182 -0.0680 -0.7757 -1.3152
 4221SOL     OW24124   0.554   3.357   4.800  0.4128 -0.1196 -0.2832
 4221SOL    HW124125   0.548   3.427   4.865 -0.2825  0.7744 -1.3084
 4221SOL    HW224126   0.590   3.411   4.729  2.0563 -0.8970 -0.0279
 4222SOL     OW24127   0.923   3.475   7.874 -0.0001  0.3784  0.0393
 4222SOL    HW124128   1.012   3.484   7.840  0.9651  2.1233  2.9675
 4222SOL    HW224129   0.912   3.550   7.932  1.2538  0.2758  0.4104
 4223SOL     OW24130   4.491   0.289  15.671  0.2679 -0.0605  0.1332
 4223SOL    HW124131   4.472   0.280  15.578 -2.0254  0.2440  0.5752
 4223SOL    HW224132   4.523   0.378  15.684 -0.4538  0.1310  0.6046
 4224SOL     OW24133   0.114   2.793   2.365  0.2226  0.2438  0.2409
 4224SOL    HW124134   0.053   2.857   2.329  1.1733  0.4683 -0.9675
 4224SOL    HW224135   0.119   2.815   2.458  0.9056 -0.3902  0.3510
 4225SOL     OW24136   1.002   1.462  11.181 -0.4758  0.7378 -0.2152
 4225SOL    HW124137   0.993   1.551  11.213  3.3396  0.3050  2.1524
 4225SOL    HW224138   0.936   1.416  11.232 -1.1345 -0.4859 -2.1482
 4226SOL     OW24139   1.938   0.124   1.954 -0.1125 -0.3373 -0.9573
 4226SOL    HW124140   1.931   0.219   1.949 -2.0039 -0.4037  0.4367
 4226SOL    HW224141   1.857   0.098   1.910 -1.0695 -1.4875  1.4953
 4227SOL     OW24142   2.208   2.776  11.632 -0.0120 -0.3120  0.0385
 4227SOL    HW124143   2.124   2.821  11.628  0.6515  0.9599  0.1021
 4227SOL    HW224144   2.271   2.849  11.628 -1.8411  1.1935 -1.1569
 4228SOL     OW24145   3.484   3.350   5.322 -0.0069 -0.1140 -0.0653
 4228SOL    HW124146   3.526   3.269   5.295 -1.1115 -0.5328 -0.5390
 4228SOL    HW224147   3.405   3.318   5.366 -1.4657  0.3585 -2.3313
 4229SOL     OW24148   0.593   0.322   8.633 -0.9020 -0.2989 -0.0043
 4229SOL    HW124149   0.634   0.397   8.590  0.7357 -1.5020 -0.5824
 4229SOL    HW224150   0.669   0.296   8.686  0.3911 -2.1600 -2.7433
 4230SOL     OW24151   1.222   2.470   8.367 -0.5479 -0.5458  1.0157
 4230SOL    HW124152   1.236   2.436   8.456 -0.8019 -3.3614 -0.0050
 4230SOL    HW224153   1.202   2.563   8.366  0.7989 -0.3096 -2.8719
 4231SOL     OW24154   2.039   3.359   3.199  0.1634 -0.1342 -0.4211
 4231SOL    HW124155   2.130   3.365   3.228 -0.1621 -2.1587  1.0440
 4231SOL    HW224156   2.041   3.263   3.201 -2.6498 -0.2300 -2.6954
 4232SOL     OW24157   0.079   3.067   9.142  0.3977  0.1499 -0.1355
 4232SOL    HW124158   0.115   3.148   9.179 -0.3276  0.6373 -0.4948
 4232SOL    HW224159   0.037   3.098   9.062  0.8447  0.5360 -0.2212
 4233SOL     OW24160   1.568   2.168   2.442  0.1581 -0.5938 -0.1792
 4233SOL    HW124161   1.645   2.167   2.386  1.6002  0.1318  1.7978
 4233SOL    HW224162   1.498   2.128   2.390 -0.2433  0.8807 -0.7794
 4234SOL     OW24163   2.530   2.972  15.927 -0.4813 -0.2197 -0.3977
 4234SOL    HW124164   2.541   2.886  15.885  0.7480 -0.5067  0.4910
 4234SOL    HW224165   2.464   3.011  15.870 -0.3940 -0.8059 -0.9074
 4235SOL     OW24166   0.877   2.881   9.435 -0.2425 -0.1849  0.4959
 4235SOL    HW124167   0.937   2.877   9.510 -1.9419 -2.1232  1.7517
 4235SOL    HW224168   0.938   2.908   9.366 -1.6526  3.8505  0.8025
 4236SOL     OW24169   1.506   3.211   9.266  0.0337 -0.6043 -0.6125
 4236SOL    HW124170   1.544   3.181   9.183  0.2616 -0.2131 -0.6499
 4236SOL    HW224171   1.429   3.155   9.259 -1.4610  1.3883 -0.0014
 4237SOL     OW24172   1.032   2.898  15.425  0.2736  0.7151  0.1348
 4237SOL    HW124173   1.112   2.937  15.390  0.2116 -0.2138 -1.0812
 4237SOL    HW224174   1.053   2.805  15.409  0.7045  0.6998  0.7988
 4238SOL     OW24175   4.248   1.163   4.213  0.6238 -0.3119  0.0918
 4238SOL    HW124176   4.180   1.113   4.257 -1.7972  1.0646 -2.0197
 4238SOL    HW224177   4.284   1.217   4.284 -1.8030 -0.1072  1.1611
 4239SOL     OW24178   1.037   2.631   2.058  0.0693  0.3967 -0.3141
 4239SOL    HW124179   0.954   2.667   2.089  0.6848  0.7514  0.9475
 4239SOL    HW224180   1.097   2.669   2.123 -0.9495 -1.0118  1.4458
 4240SOL     OW24181   2.894   4.166   6.796 -0.1584 -0.3508  0.0996
 4240SOL    HW124182   2.808   4.150   6.835 -0.4406  0.9323  0.0155
 4240SOL    HW224183   2.945   4.091   6.823  0.7821  0.6493  1.0841
 4241SOL     OW24184   0.087   1.170   7.696 -0.0541 -0.0684 -0.1883
 4241SOL    HW124185   0.102   1.265   7.693 -1.9784  0.2178 -0.5267
 4241SOL    HW224186   4.715   1.177   7.710  0.1605  3.7168 -0.6963
 4242SOL     OW24187   4.154   4.391  15.082  0.2737 -0.5479 -0.3298
 4242SOL    HW124188   4.212   4.356  15.015 -0.0299  0.4997 -1.1265
 4242SOL    HW224189   4.163   4.484  15.062 -1.4033 -0.1755  0.6428
 4243SOL     OW24190   3.689   4.226  17.005 -0.3157 -0.4289  0.5395
 4243SOL    HW124191   3.731   4.257  16.925 -2.0820 -0.7805 -0.5463
 4243SOL    HW224192   3.695   4.306  17.057 -0.2111  1.0212 -1.7081
 4244SOL     OW24193   3.628   0.005   7.644 -0.6964  0.1359  0.0479
 4244SOL    HW124194   3.618   4.669   7.719  0.0117 -1.6181 -1.2152
 4244SOL    HW224195   3.537   0.036   7.638 -0.1861  1.2219 -1.9153
 4245SOL     OW24196   4.614   3.247   7.679  0.1592  0.0420  0.0948
 4245SOL    HW124197   4.586   3.334   7.705 -0.3017 -0.8487  2.6692
 4245SOL    HW224198   4.556   3.197   7.736  1.4343  0.4150  1.7286
 4246SOL     OW24199   4.474   3.824   1.776 -0.0150  0.6693  0.0213
 4246SOL    HW124200   4.427   3.906   1.758  0.5519  1.2029  0.9561
 4246SOL    HW224201   4.400   3.763   1.769  0.5364  0.3125 -2.5631
 4247SOL     OW24202   2.725   3.939   1.014 -0.3456 -0.6774  0.0524
 4247SOL    HW124203   2.686   3.871   1.069  0.4864 -0.1657  1.2946
 4247SOL    HW224204   2.683   4.019   1.046  1.3420  0.5486 -0.7523
 4248SOL     OW24205   1.360   4.537   7.194  0.0025  0.1520  0.1042
 4248SOL    HW124206   1.296   4.581   7.250  0.3869  3.1414 -1.7895
 4248SOL    HW224207   1.422   4.607   7.176  0.5531 -0.0598  1.2168
 4249SOL     OW24208   2.690   4.441   2.245  0.7425 -0.3381 -0.2301
 4249SOL    HW124209   2.716   4.423   2.155  3.3737 -0.5959  0.5773
 4249SOL    HW224210   2.608   4.487   2.227  0.4771 -0.4712  0.5937
 4250SOL     OW24211   0.932   3.497   2.515 -0.0568  0.6589 -0.0792
 4250SOL    HW124212   0.859   3.511   2.575  0.5490 -1.3638  1.1275
 4250SOL    HW224213   0.966   3.414   2.548  1.2853  1.3179  0.1964
 4251SOL     OW24214   1.294   0.956   5.086 -0.2018 -0.0455  0.2503
 4251SOL    HW124215   1.201   0.956   5.111 -0.3120  0.6607 -0.1378
 4251SOL    HW224216   1.298   0.865   5.059 -1.4890 -0.2740  0.8099
 4252SOL     OW24217   1.639   0.820  17.142  0.5515 -0.0676 -0.5181
 4252SOL    HW124218   1.608   0.910  17.150 -0.8728 -0.5076 -1.1965
 4252SOL    HW224219   1.702   0.835  17.071 -0.6454 -3.5547 -2.3534
 4253SOL     OW24220   1.120   2.176   4.697 -0.4745 -0.1908  0.3962
 4253SOL    HW124221   1.060   2.211   4.764 -0.1943  1.7821 -0.3694
 4253SOL    HW224222   1.090   2.228   4.623 -1.1416 -0.4469  0.4897
 4254SOL     OW24223   3.795   0.994   5.364  0.2012 -0.3811 -0.2430
 4254SOL    HW124224   3.722   1.024   5.418 -0.9388 -2.3123 -0.7223
 4254SOL    HW224225   3.784   1.060   5.296  0.6369  0.5357  0.5718
 4255SOL     OW24226   4.002   4.099   6.867  0.5104 -0.2062  0.3558
 4255SOL    HW124227   3.964   4.155   6.935  0.2981 -0.1085  0.1556
 4255SOL    HW224228   3.918   4.064   6.838  1.2319 -2.5568  1.0858
 4256SOL     OW24229   2.167   3.809   2.588  0.1516  0.0656  0.0577
 4256SOL    HW124230   2.110   3.885   2.587  1.4740  1.0480 -0.8185
 4256SOL    HW224231   2.104   3.749   2.548  0.2165 -0.2050  0.3544
 4257SOL     OW24232   4.706   1.382   4.884  0.2672 -0.1482  0.4316
 4257SOL    HW124233   4.674   1.375   4.974 -1.6029 -1.4204 -0.3322
 4257SOL    HW224234   0.004   1.476   4.875 -1.3086  0.2586  1.0697
 4258SOL     OW24235   4.234   2.778   6.788  0.3460  0.1765  0.2108
 4258SOL    HW124236   4.236   2.751   6.880 -2.0469 -0.0642  0.1803
 4258SOL    HW224237   4.157   2.834   6.782  1.3063  1.5443  0.7210
 4259SOL     OW24238   4.068   4.285   4.786 -0.2565 -0.3675 -0.5961
 4259SOL    HW124239   4.085   4.378   4.770 -1.7418 -0.0506 -0.2860
 4259SOL    HW224240   3.974   4.283   4.803 -0.3231 -0.6518 -1.0005
 4260SOL     OW24241   0.149   1.683   2.668  0.1111 -0.5515  0.0736
 4260SOL    HW124242   0.123   1.596   2.637 -1.1438 -1.4795  3.7010
 4260SOL    HW224243   0.240   1.678   2.640  0.2587 -0.4689  0.5430
 4261SOL     OW24244   3.801   0.549   8.434 -0.4286 -0.2473 -0.2827
 4261SOL    HW124245   3.812   0.622   8.495  1.6314 -0.0662 -0.8620
 4261SOL    HW224246   3.854   0.567   8.356  1.4131 -0.6727  0.8484
 4262SOL     OW24247   0.361   2.975   9.676  0.6356  0.0026  0.1511
 4262SOL    HW124248   0.309   2.996   9.753 -0.3466  0.3522 -0.6144
 4262SOL    HW224249   0.311   2.916   9.620 -0.1302  3.6205 -2.9311
 4263SOL     OW24250   1.555   2.695   1.062  0.3534  0.2174 -0.4466
 4263SOL    HW124251   1.471   2.728   1.031  0.7682  0.6555 -1.0995
 4263SOL    HW224252   1.548   2.599   1.062 -0.5153  0.2792 -1.2322
 4264SOL     OW24253   1.542   1.852  11.423 -0.1830 -0.5318  0.5830
 4264SOL    HW124254   1.583   1.917  11.366  0.6466 -0.8800  0.7875
 4264SOL    HW224255   1.618   1.827  11.475 -1.1530 -1.1924  1.6814
 4265SOL     OW24256   3.104   1.284   4.047 -0.4338  0.4506 -0.0798
 4265SOL    HW124257   3.164   1.213   4.067 -0.9624 -0.8405 -3.2003
 4265SOL    HW224258   3.134   1.309   3.960 -0.8009  1.3933  0.0605
 4266SOL     OW24259   3.610   4.425  17.197  0.0037 -0.0444  0.1400
 4266SOL    HW124260   3.528   4.458  17.233 -0.7081  0.0541 -1.5683
 4266SOL    HW224261   3.644   4.388  17.279  2.4664 -0.4839 -1.0809
 4267SOL     OW24262   4.145   1.743   5.565  0.2900 -0.4928 -0.2434
 4267SOL    HW124263   4.166   1.656   5.531  1.7368  0.0090 -0.6303
 4267SOL    HW224264   4.220   1.796   5.537 -0.2096  0.1595 -0.3585
 4268SOL     OW24265   3.247   3.950   6.590  0.5310  0.0508  0.0629
 4268SOL    HW124266   3.322   3.936   6.648  0.0538  1.0508  0.9382
 4268SOL    HW224267   3.246   4.046   6.585 -0.9330  0.0576  0.2451
 4269SOL     OW24268   4.649   0.150   7.882 -0.2531 -0.1764 -0.2586
 4269SOL    HW124269   4.615   0.190   7.802 -1.1295 -0.7490 -0.1721
 4269SOL    HW224270   4.650   0.060   7.849 -1.1573  1.4781 -4.6573
 4270SOL     OW24271   1.808   1.218   2.078 -0.5149  0.2712  0.3371
 4270SOL    HW124272   1.845   1.299   2.113 -0.3715  1.3552 -2.3614
 4270SOL    HW224273   1.863   1.206   2.001  0.4472 -0.6615  1.1604
 4271SOL     OW24274   2.074   2.477  13.232  0.5392 -0.1960 -0.4197
 4271SOL    HW124275   2.063   2.382  13.235  0.5469 -0.2141 -1.0177
 4271SOL    HW224276   2.011   2.498  13.163  0.8693 -1.5901 -1.1399
 4272SOL     OW24277   4.484   3.855   4.565 -0.0318  0.2046  0.5468
 4272SOL    HW124278   4.411   3.916   4.574 -1.1339 -1.2390  1.5200
 4272SOL    HW224279   4.468   3.833   4.473  0.2278  1.7294  0.1450
 4273SOL     OW24280   0.683   3.861   7.537  0.6495  0.6536 -0.3705
 4273SOL    HW124281   0.735   3.942   7.541  1.8668 -0.2625  2.4468
 4273SOL    HW224282   0.616   3.869   7.605 -0.7925 -0.9375 -1.6053
 4274SOL     OW24283   3.057   2.721   2.865  0.8158 -0.4158  0.3068
 4274SOL    HW124284   3.008   2.802   2.876 -1.1297 -1.4438 -0.9119
 4274SOL    HW224285   3.040   2.704   2.772 -2.9021 -2.1264  1.2960
 4275SOL     OW24286   3.798   3.665   2.916 -0.0069  0.0216  0.2266
 4275SOL    HW124287   3.768   3.746   2.875 -0.0194 -0.0156  0.1619
 4275SOL    HW224288   3.826   3.615   2.840 -0.0297 -1.7168  1.3598
 4276SOL     OW24289   1.081   1.260   5.187  0.1543 -0.2161  0.2298
 4276SOL    HW124290   1.035   1.199   5.129 -1.6237  2.7248 -1.4569
 4276SOL    HW224291   1.167   1.253   5.145  0.1758 -2.4632  0.6565
 4277SOL     OW24292   3.542   0.030  14.364 -0.0362 -0.2172 -0.4140
 4277SOL    HW124293   3.525   0.067  14.450  1.9636  0.0882 -0.1522
 4277SOL    HW224294   3.516   4.660  14.372  1.9980 -0.8041 -0.6172
 4278SOL     OW24295   0.642   0.354   7.918 -0.3895  0.2597 -0.0602
 4278SOL    HW124296   0.607   0.389   7.836 -0.1595  1.0752  0.1948
 4278SOL    HW224297   0.656   0.261   7.897 -1.4416 -0.2753  1.5909
 4279SOL     OW24298   2.561   1.141   6.844  1.0114 -0.1078  0.2696
 4279SOL    HW124299   2.523   1.211   6.898 -2.7075 -1.8466 -0.1139
 4279SOL    HW224300   2.526   1.062   6.884 -0.3213  0.5876  0.4813
 4280SOL     OW24301   0.972   0.474   5.145 -0.1136  0.1885 -0.1413
 4280SOL    HW124302   0.947   0.385   5.168  0.9919  0.0545  0.5665
 4280SOL    HW224303   0.890   0.522   5.155  0.2185  0.4456  1.4715
 4281SOL     OW24304   0.161   0.072   7.112  0.1258  1.0585  0.2446
 4281SOL    HW124305   0.247   0.073   7.071 -0.4966  4.9744 -1.0066
 4281SOL    HW224306   0.166   0.046   7.204 -0.4566  1.1651  0.3109
 4282SOL     OW24307   0.578   1.941   8.428 -0.3244  0.0537 -0.1472
 4282SOL    HW124308   0.575   1.992   8.509 -0.0719 -0.0003 -0.1030
 4282SOL    HW224309   0.622   1.859   8.450  1.7396  0.8241 -1.4166
 4283SOL     OW24310   4.468   1.004   1.330  0.2301 -0.3171  0.0948
 4283SOL    HW124311   4.448   0.914   1.304  0.8238 -0.7091  1.0094
 4283SOL    HW224312   4.494   1.040   1.245 -1.7363  0.9175  0.0119
 4284SOL     OW24313   4.287   0.508   1.917  0.6734 -0.0922  0.8084
 4284SOL    HW124314   4.262   0.598   1.895 -0.0065 -0.2561  0.9226
 4284SOL    HW224315   4.304   0.473   1.830  2.1207  3.5623 -0.3925
 4285SOL     OW24316   2.012   4.299   6.966 -0.6701  0.4344 -0.4354
 4285SOL    HW124317   2.002   4.384   6.924  0.1698 -0.2361 -1.9632
 4285SOL    HW224318   1.942   4.307   7.032  0.1213  2.2543  0.1613
 4286SOL     OW24319   3.513   1.135  11.334 -0.8187 -0.2066 -0.2935
 4286SOL    HW124320   3.544   1.193  11.405 -0.1976 -1.0169  0.0929
 4286SOL    HW224321   3.449   1.085  11.384 -0.4990  0.2553  0.6004
 4287SOL     OW24322   0.755   4.234   2.018  1.1448  0.8748  0.5920
 4287SOL    HW124323   0.786   4.261   1.931 -0.8770  0.1371 -0.3608
 4287SOL    HW224324   0.663   4.259   2.011  0.7851 -0.1201  1.7332
 4288SOL     OW24325   0.838   0.316  13.589 -0.0713 -0.6132 -0.1320
 4288SOL    HW124326   0.820   0.304  13.496  1.6199  1.6888 -0.7534
 4288SOL    HW224327   0.905   0.249  13.607  1.9388  1.4760  0.1507
 4289SOL     OW24328   4.512   2.688  10.225 -0.3250  0.1776  0.3297
 4289SOL    HW124329   4.597   2.643  10.231 -0.7020 -0.5518  0.2343
 4289SOL    HW224330   4.448   2.627  10.189  1.1156 -1.6509  0.8656
 4290SOL     OW24331   4.105   1.387   3.955 -0.2287  0.6664  0.0620
 4290SOL    HW124332   4.177   1.330   3.930 -0.9650  0.4711 -1.6920
 4290SOL    HW224333   4.083   1.431   3.873 -0.5336 -0.3405 -0.3982
 4291SOL     OW24334   4.206   4.043   9.570 -0.1132  0.5120  0.7745
 4291SOL    HW124335   4.192   4.137   9.585  4.5345  1.3250 -0.0650
 4291SOL    HW224336   4.253   4.016   9.649 -0.1076 -0.1473  0.5434
 4292SOL     OW24337   2.349   4.070   6.138 -0.1450  0.0649 -0.0097
 4292SOL    HW124338   2.281   4.037   6.198  0.2532  0.4693  0.6669
 4292SOL    HW224339   2.376   4.152   6.179 -1.5150  1.2046 -1.3621
 4293SOL     OW24340   1.392   3.599   4.362 -0.2536 -0.2015  0.0908
 4293SOL    HW124341   1.332   3.549   4.305  1.0759 -0.7760 -0.7991
 4293SOL    HW224342   1.442   3.530   4.406 -0.6128 -0.8112 -0.4514
 4294SOL     OW24343   4.253   2.945   9.462  0.3384  0.1182  0.3917
 4294SOL    HW124344   4.215   2.963   9.548 -1.8664  1.9153 -0.9278
 4294SOL    HW224345   4.251   3.031   9.420 -0.8760 -0.2638 -0.3162
 4295SOL     OW24346   2.426   1.407   6.401 -0.5204 -0.1245 -0.2765
 4295SOL    HW124347   2.334   1.412   6.427 -0.5707 -1.5227 -0.2288
 4295SOL    HW224348   2.457   1.346   6.468  1.2001  0.1550 -0.8134
 4296SOL     OW24349   3.014   1.499  14.998  0.2977 -0.0837 -0.3171
 4296SOL    HW124350   2.934   1.447  15.007  0.3554 -0.4050 -1.6156
 4296SOL    HW224351   3.037   1.468  14.910 -0.2122 -1.9336  0.2073
 4297SOL     OW24352   3.572   0.177   7.331  0.8079  0.2994  0.2408
 4297SOL    HW124353   3.589   0.085   7.308  2.5433  0.4129  1.0325
 4297SOL    HW224354   3.563   0.172   7.426 -0.2987  1.5944  0.1987
 4298SOL     OW24355   0.232   3.723   8.412 -0.3078  0.2377 -0.1560
 4298SOL    HW124356   0.151   3.770   8.393 -1.1608 -1.3542 -0.4243
 4298SOL    HW224357   0.287   3.797   8.441 -1.8962  0.6634  1.7889
 4299SOL     OW24358   3.854   4.048   9.566  0.0285 -0.3238  0.1494
 4299SOL    HW124359   3.913   4.110   9.608 -0.2076  0.6242 -0.9325
 4299SOL    HW224360   3.903   4.006   9.495  0.4513  0.5017 -0.0464
 4300SOL     OW24361   1.479   3.485   6.731  0.5427 -0.2820  0.2583
 4300SOL    HW124362   1.408   3.500   6.669  0.0544  1.5808  1.2691
 4300SOL    HW224363   1.549   3.448   6.677  0.4256  0.9729 -0.7334
 4301SOL     OW24364   1.402   0.434  12.476 -0.2081  0.2295 -0.0816
 4301SOL    HW124365   1.438   0.521  12.496 -1.0302  0.6198 -0.2681
 4301SOL    HW224366   1.325   0.469  12.431 -1.0883 -0.5974  0.7771
 4302SOL     OW24367   1.273   3.202  13.173 -0.4361 -0.3596  0.0737
 4302SOL    HW124368   1.368   3.202  13.172 -0.4495 -2.8674 -0.9146
 4302SOL    HW224369   1.263   3.165  13.085  2.6244  0.7417 -0.7151
 4303SOL     OW24370   1.952   3.738   1.884  0.0569 -0.5307  0.0001
 4303SOL    HW124371   2.039   3.710   1.856 -0.7778 -1.5185 -1.5902
 4303SOL    HW224372   1.898   3.718   1.808  0.1146  2.4826 -0.8312
 4304SOL     OW24373   0.708   1.302  16.694  0.6310  0.2342 -0.0001
 4304SOL    HW124374   0.730   1.380  16.643 -0.3074  1.3402  1.2988
 4304SOL    HW224375   0.615   1.315  16.715  0.4178 -1.4173  0.1098
 4305SOL     OW24376   2.858   0.019   0.910  0.2386 -0.1291 -0.0472
 4305SOL    HW124377   2.880   0.004   0.818  0.3212  0.8031 -0.1840
 4305SOL    HW224378   2.944   0.009   0.950 -1.0018  1.3159  2.9608
 4306SOL     OW24379   2.217   4.235   8.263  0.6627 -0.4445  0.2307
 4306SOL    HW124380   2.161   4.204   8.335  0.7796 -1.5162 -0.1451
 4306SOL    HW224381   2.287   4.170   8.261 -0.3998 -1.5481 -1.6714
 4307SOL     OW24382   1.246   3.657   3.777  0.2195  0.3087  0.5395
 4307SOL    HW124383   1.255   3.562   3.776  2.0410  0.5007 -1.3375
 4307SOL    HW224384   1.282   3.676   3.863 -0.1274 -0.2486  0.8081
 4308SOL     OW24385   0.285   0.338  14.824 -0.3611 -0.4107  0.7399
 4308SOL    HW124386   0.230   0.383  14.888  0.3687  0.0762  1.0168
 4308SOL    HW224387   0.214   0.293  14.779 -0.0770  2.3307 -2.4779
 4309SOL     OW24388   1.908   2.984   5.042 -0.1038  0.0372 -0.4578
 4309SOL    HW124389   1.824   2.970   4.999 -0.8833  2.3055  0.3184
 4309SOL    HW224390   1.946   2.898   5.056 -0.8631 -0.0719  0.8647
 4310SOL     OW24391   3.129   0.977   8.051 -0.1619  0.2833  0.0548
 4310SOL    HW124392   3.040   0.959   8.080  0.5212 -4.4612 -0.7576
 4310SOL    HW224393   3.142   1.070   8.070 -0.2183  0.0357  1.2951
 4311SOL     OW24394   2.550   2.891  12.305  0.1249  0.4975  0.1636
 4311SOL    HW124395   2.482   2.843  12.257 -0.0975  0.4844  0.4879
 4311SOL    HW224396   2.547   2.976  12.262  1.6009  0.1154 -0.6947
 4312SOL     OW24397   1.657   2.156   2.958  0.0859 -0.3247  0.2814
 4312SOL    HW124398   1.594   2.100   3.002  2.1363 -3.6789 -1.0230
 4312SOL    HW224399   1.665   2.132   2.866  0.2308 -2.4322  0.8358
 4313SOL     OW24400   4.531   1.716  17.659  0.1246 -0.2006 -0.3553
 4313SOL    HW124401   4.611   1.763  17.635 -0.9863  1.6297 -0.5003
 4313SOL    HW224402   4.547   1.694   0.060 -0.9487 -0.4560 -0.2228
 4314SOL     OW24403   1.312   3.177   4.339 -0.4324  0.1216  0.5503
 4314SOL    HW124404   1.406   3.176   4.354 -0.5642  0.2638  1.4138
 4314SOL    HW224405   1.288   3.097   4.292 -0.3437 -0.7974  2.0394
 4315SOL     OW24406   4.420   2.873   3.506  0.1895  0.7735  0.0525
 4315SOL    HW124407   4.398   2.780   3.512 -0.3215  1.1158  3.5195
 4315SOL    HW224408   4.442   2.868   3.414  0.4187 -1.7431  0.2375
 4316SOL     OW24409   0.449   3.092   5.255  0.7828 -0.0407  0.0684
 4316SOL    HW124410   0.489   3.177   5.274 -0.8010  0.3434  1.5872
 4316SOL    HW224411   0.508   3.026   5.290 -1.2890 -0.7047  2.2632
 4317SOL     OW24412   0.685   1.424   9.044 -0.2092  0.2021  0.2330
 4317SOL    HW124413   0.779   1.408   9.052 -0.0508  0.4278 -1.1733
 4317SOL    HW224414   0.673   1.451   9.135 -1.4850  0.2560  0.0516
 4318SOL     OW24415   3.823   2.987   6.784  0.0061  0.1865 -0.1620
 4318SOL    HW124416   3.748   3.032   6.823  1.3079  2.8962 -0.7929
 4318SOL    HW224417   3.802   2.901   6.820 -1.1054  0.4494 -0.1746
 4319SOL     OW24418   0.139   1.634   3.332  0.0793  0.1651 -0.0735
 4319SOL    HW124419   0.139   1.717   3.284  0.6876  0.7700  0.9662
 4319SOL    HW224420   0.086   1.584   3.270  1.2244 -1.0683 -0.0511
 4320SOL     OW24421   1.963   3.519  17.095 -0.3243 -0.1694  0.3737
 4320SOL    HW124422   1.925   3.606  17.087  1.2408  0.3378 -1.6540
 4320SOL    HW224423   1.931   3.490  17.010 -1.7433  2.3068  0.0461
 4321SOL     OW24424   2.147   0.975   6.240  0.3660  0.3394  0.2481
 4321SOL    HW124425   2.145   0.879   6.246  2.1643  0.3179  0.4576
 4321SOL    HW224426   2.124   1.005   6.328  3.2835  0.4832  0.9641
 4322SOL     OW24427   1.060   3.558  13.766  0.3271  0.4357 -0.5517
 4322SOL    HW124428   0.999   3.504  13.715  0.1909  1.2254 -1.2052
 4322SOL    HW224429   1.018   3.534  13.849  2.5180 -0.1037  0.4031
 4323SOL     OW24430   2.778   1.420  10.079  0.7837 -0.1975  0.7259
 4323SOL    HW124431   2.787   1.355  10.010 -2.2146  1.1528 -0.9496
 4323SOL    HW224432   2.691   1.408  10.117 -0.0917  0.4895 -1.0343
 4324SOL     OW24433   3.740   1.373   7.258 -0.0079  0.1242  0.2300
 4324SOL    HW124434   3.661   1.354   7.206  0.8474 -1.1786 -0.5868
 4324SOL    HW224435   3.789   1.291   7.251 -0.9291 -0.1188 -3.4987
 4325SOL     OW24436   1.614   2.811   3.358 -0.3054  0.1348 -0.0464
 4325SOL    HW124437   1.693   2.820   3.304 -0.2441 -0.3053 -0.0294
 4325SOL    HW224438   1.618   2.891   3.411 -0.1977  0.5768 -0.7220
 4326SOL     OW24439   2.310   2.262   8.658  0.2819  0.1981 -0.2293
 4326SOL    HW124440   2.247   2.201   8.696  0.7867  0.1088  0.4535
 4326SOL    HW224441   2.294   2.335   8.718  0.1999  0.0277 -0.0445
 4327SOL     OW24442   4.414   3.903   8.263  0.1608 -0.1813 -0.7645
 4327SOL    HW124443   4.400   3.984   8.310  0.2432  0.4346 -1.8030
 4327SOL    HW224444   4.510   3.902   8.261  0.1437  0.7754 -1.6431
 4328SOL     OW24445   2.641   1.803   6.048  0.1613 -0.0297 -0.4189
 4328SOL    HW124446   2.575   1.851   6.098  0.5550  0.8346 -0.7275
 4328SOL    HW224447   2.588   1.725   6.035 -1.7049  1.2270 -0.3900
 4329SOL     OW24448   4.406   1.384   1.123  0.1158  0.2934  0.4647
 4329SOL    HW124449   4.321   1.427   1.136  0.0730  0.5065 -0.5127
 4329SOL    HW224450   4.431   1.378   1.215  1.7925 -2.6775 -0.2058
 4330SOL     OW24451   3.673   3.883   0.323  0.0636 -0.1898 -0.3043
 4330SOL    HW124452   3.686   3.978   0.321  1.6996 -0.4415 -1.5050
 4330SOL    HW224453   3.595   3.889   0.378 -1.0816  0.2276 -1.9858
 4331SOL     OW24454   3.826   3.474   6.690  0.3103 -0.5312  0.4365
 4331SOL    HW124455   3.774   3.410   6.641 -0.6260  2.0723 -1.9263
 4331SOL    HW224456   3.861   3.420   6.761 -1.7326  0.6477  2.3164
 4332SOL     OW24457   2.616   1.869   5.583  0.0077  0.4012  0.1789
 4332SOL    HW124458   2.551   1.939   5.589  1.9308  2.2599 -0.8087
 4332SOL    HW224459   2.676   1.902   5.649 -0.8799 -0.6312  1.5050
 4333SOL     OW24460   3.558   2.374   8.570  0.0266  0.2100  0.0631
 4333SOL    HW124461   3.606   2.343   8.647 -0.1492 -0.3319 -0.0461
 4333SOL    HW224462   3.468   2.366   8.601  0.0530 -1.3741 -0.2346
 4334SOL     OW24463   4.055   1.726   9.636 -0.1040 -0.1012  0.0368
 4334SOL    HW124464   4.104   1.762   9.562  2.3966 -1.0502  1.2135
 4334SOL    HW224465   4.129   1.714   9.696  0.4715  2.4318 -0.1772
 4335SOL     OW24466   4.169   0.338   2.989 -0.5346 -0.9129  0.9514
 4335SOL    HW124467   4.135   0.273   3.050 -0.3418 -0.4061  1.5975
 4335SOL    HW224468   4.253   0.364   3.028 -0.0641 -0.2269 -0.4926
 4336SOL     OW24469   2.673   1.636  17.311 -0.4564  0.5034 -0.0886
 4336SOL    HW124470   2.614   1.625  17.385  1.0764 -0.8064  0.9156
 4336SOL    HW224471   2.684   1.730  17.296 -1.3764  0.5766 -0.2904
 4337SOL     OW24472   1.567   4.123  11.689  0.3003 -0.4611  0.4464
 4337SOL    HW124473   1.659   4.149  11.681  0.0363  0.7190  1.2550
 4337SOL    HW224474   1.518   4.178  11.629  0.1264  1.3327  2.2357
 4338SOL     OW24475   2.993   2.988   3.004  0.1773  0.4181 -0.0808
 4338SOL    HW124476   3.000   3.055   2.936 -0.8615 -0.9758 -1.5703
 4338SOL    HW224477   2.900   2.968   2.992 -0.0281  1.8789 -0.8614
 4339SOL     OW24478   1.688   1.360   4.226 -0.0848 -0.2981 -0.4427
 4339SOL    HW124479   1.762   1.320   4.273  1.5628  0.6737 -2.1759
 4339SOL    HW224480   1.726   1.411   4.155  0.6348  0.9706  0.8505
 4340SOL     OW24481   4.471   1.604   7.758 -0.2067 -1.1395 -0.4277
 4340SOL    HW124482   4.444   1.683   7.711 -1.7131 -1.3893  0.0520
 4340SOL    HW224483   4.565   1.625   7.758 -0.6727  1.0055 -1.4134
 4341SOL     OW24484   0.801   4.431   2.584 -0.1082  0.2554 -0.9681
 4341SOL    HW124485   0.776   4.422   2.492  1.0078  0.5557 -1.3065
 4341SOL    HW224486   0.737   4.492   2.621 -0.8659 -1.3538  0.3794
 4342SOL     OW24487   3.332   3.525   9.664 -0.3024 -0.1019 -0.5176
 4342SOL    HW124488   3.424   3.550   9.667 -0.5512  0.7043  0.6374
 4342SOL    HW224489   3.315   3.512   9.757 -0.2938 -0.4245 -0.5614
 4343SOL     OW24490   4.353   4.516  11.727 -0.2346  0.3144  1.0053
 4343SOL    HW124491   4.374   4.607  11.742 -4.0823  1.4087 -0.0885
 4343SOL    HW224492   4.266   4.537  11.693  1.5512  2.3041 -2.2490
 4344SOL     OW24493   3.698   0.967   3.537  0.3516 -0.1896 -0.4224
 4344SOL    HW124494   3.661   0.879   3.531  0.5681 -0.0502 -3.6132
 4344SOL    HW224495   3.760   0.964   3.464  1.8942 -2.7167  0.9893
 4345SOL     OW24496   0.556   2.664  12.114  0.2111  0.3181 -0.4069
 4345SOL    HW124497   0.594   2.674  12.202 -2.5932 -1.6059  1.0214
 4345SOL    HW224498   0.536   2.571  12.121 -0.4090  0.5455  0.8999
 4346SOL     OW24499   3.141   3.490   7.942  0.1902  0.1880 -0.2026
 4346SOL    HW124500   3.103   3.402   7.942 -0.1889  0.3594  0.7574
 4346SOL    HW224501   3.057   3.534   7.932  0.9233  2.1412  2.2292
 4347SOL     OW24502   3.271   4.047   6.098  0.0629  0.5522 -0.7206
 4347SOL    HW124503   3.252   4.039   6.191 -1.6874 -3.3655 -1.4134
 4347SOL    HW224504   3.288   4.139   6.081 -0.9487  0.7437 -0.6673
 4348SOL     OW24505   3.973   3.567  14.287 -0.0881  0.3238  0.3735
 4348SOL    HW124506   3.956   3.573  14.193  3.7881  1.3481 -0.2694
 4348SOL    HW224507   3.888   3.533  14.315  0.0686 -0.9062 -0.6947
 4349SOL     OW24508   1.677   3.673   9.533  0.7285 -0.0085  0.2437
 4349SOL    HW124509   1.604   3.717   9.490 -0.6230 -1.4085  1.1117
 4349SOL    HW224510   1.686   3.598   9.473  0.6543 -0.1432  0.4003
 4350SOL     OW24511   4.188   3.493  14.474  0.1369 -0.0881 -0.3410
 4350SOL    HW124512   4.122   3.535  14.419  1.1379 -0.1970 -1.6160
 4350SOL    HW224513   4.194   3.550  14.550 -0.2602 -2.5722  1.5744
 4351SOL     OW24514   2.925   1.959   2.777  0.1288 -0.5466  0.0643
 4351SOL    HW124515   3.009   1.939   2.735  0.2509  2.7968 -1.2851
 4351SOL    HW224516   2.873   1.880   2.758  0.0434 -0.0113 -1.9572
 4352SOL     OW24517   4.366   4.146   3.203  0.3291  0.1378 -0.2041
 4352SOL    HW124518   4.294   4.141   3.266 -0.9064 -2.3583 -1.7937
 4352SOL    HW224519   4.391   4.238   3.202 -0.7371  0.5103  5.8282
 4353SOL     OW24520   0.463   1.082   9.197  0.4919  0.0181 -0.0942
 4353SOL    HW124521   0.415   1.028   9.260  0.0921  0.2157 -0.2246
 4353SOL    HW224522   0.485   1.019   9.129  2.3159  1.0886 -0.4758
 4354SOL     OW24523   1.384   2.414   1.012  0.1669  0.0728 -0.1610
 4354SOL    HW124524   1.377   2.461   1.095  2.0446  2.0659 -1.1348
 4354SOL    HW224525   1.302   2.365   1.014  0.1636  0.0060 -2.0052
 4355SOL     OW24526   4.167   2.069  10.681  0.1332 -0.0506 -0.3430
 4355SOL    HW124527   4.126   2.052  10.766  1.5197  0.0208  0.3553
 4355SOL    HW224528   4.216   1.989  10.662  0.2421  0.1561 -0.9196
 4356SOL     OW24529   1.050   2.201   3.757 -0.1058 -0.1588 -0.3206
 4356SOL    HW124530   1.132   2.249   3.771  0.3889 -0.6296 -1.6848
 4356SOL    HW224531   1.063   2.129   3.819  2.5989  1.9224  1.5470
 4357SOL     OW24532   3.332   4.240   3.901 -0.0536  0.1862 -0.0244
 4357SOL    HW124533   3.416   4.285   3.904 -0.1622  0.2798  1.3890
 4357SOL    HW224534   3.335   4.181   3.825  3.1382 -0.1666  0.3766
 4358SOL     OW24535   2.387   0.826   0.716 -0.2303  0.2979 -0.2698
 4358SOL    HW124536   2.373   0.921   0.726 -3.7071 -0.4125  1.4299
 4358SOL    HW224537   2.477   0.803   0.740 -0.4605  2.0040  2.2045
 4359SOL     OW24538   0.024   0.810   7.103  0.1680 -0.0472 -0.5297
 4359SOL    HW124539   4.697   0.844   7.177  2.4454 -0.9464  1.4079
 4359SOL    HW224540   4.690   0.736   7.081  0.4923 -0.0501 -1.3391
 4360SOL     OW24541   3.435   2.388  17.474  0.1970  0.0151 -0.0641
 4360SOL    HW124542   3.453   2.375  17.381 -1.3655  0.8651 -0.4984
 4360SOL    HW224543   3.417   2.482  17.479  0.7307  0.0832  0.5292
 4361SOL     OW24544   1.450   3.756   1.498  0.0146 -0.1004  0.0891
 4361SOL    HW124545   1.537   3.761   1.456  0.1802  1.9973  0.6681
 4361SOL    HW224546   1.439   3.662   1.506  0.3185 -0.1256  0.2119
 4362SOL     OW24547   1.579   4.663   7.085  0.4180 -0.0894 -0.2309
 4362SOL    HW124548   1.663   4.690   7.122  1.2348  1.3343 -3.1062
 4362SOL    HW224549   1.574   0.011   7.020  0.8518  1.3524  1.2886
 4363SOL     OW24550   3.636   3.426   4.804 -0.2242  0.1903 -0.1133
 4363SOL    HW124551   3.635   3.341   4.849 -0.4865  1.0365  1.4737
 4363SOL    HW224552   3.545   3.447   4.824 -0.2086 -1.0281  1.2606
 4364SOL     OW24553   1.448   0.748   9.259  0.7729 -0.0331  0.6682
 4364SOL    HW124554   1.477   0.751   9.350  0.1574 -0.1611  0.8726
 4364SOL    HW224555   1.361   0.787   9.255  2.2049  2.8429 -2.0988
 4365SOL     OW24556   3.474   0.673   5.926  0.0733 -0.2698  0.2114
 4365SOL    HW124557   3.403   0.713   5.975  0.5876  1.2381 -0.2518
 4365SOL    HW224558   3.547   0.696   5.984 -1.0089  1.2931  0.9453
 4366SOL     OW24559   2.675   0.579   8.907  0.2032 -0.2058 -0.1434
 4366SOL    HW124560   2.733   0.594   8.981 -2.1283 -0.9335  1.8471
 4366SOL    HW224561   2.692   0.487   8.884 -3.0720 -0.7634 -0.3751
 4367SOL     OW24562   1.078   3.218   6.533  0.0583 -0.0709 -0.5451
 4367SOL    HW124563   1.062   3.284   6.600 -2.8736 -1.4604  0.1492
 4367SOL    HW224564   1.147   3.263   6.485  1.6432 -0.4627  1.3770
 4368SOL     OW24565   1.158   2.051   1.637 -0.1083  0.7464  0.4332
 4368SOL    HW124566   1.083   2.024   1.690 -0.1335  2.4096  1.2400
 4368SOL    HW224567   1.120   2.071   1.552 -1.3245 -0.3711  0.7226
 4369SOL     OW24568   4.098   0.236  15.461  0.0200  0.1853  0.4712
 4369SOL    HW124569   4.089   0.148  15.496  0.9911  0.2817  0.9509
 4369SOL    HW224570   4.006   0.256  15.441  0.0133  0.1906  0.5066
 4370SOL     OW24571   0.036   3.444   5.894  0.2672 -0.0466 -0.2556
 4370SOL    HW124572   0.043   3.528   5.940  1.0778  0.1774 -0.7920
 4370SOL    HW224573   0.002   3.471   5.809  3.0374 -1.1510 -1.7226
 4371SOL     OW24574   1.885   0.155  13.916  0.0320  0.3266 -0.7840
 4371SOL    HW124575   1.886   0.096  13.991  0.1415 -0.7582 -1.6321
 4371SOL    HW224576   1.899   0.095  13.843  1.4359  0.7962 -0.8989
 4372SOL     OW24577   1.715   3.058   8.184 -0.2079 -0.1669  0.1589
 4372SOL    HW124578   1.664   3.105   8.118 -1.0914 -1.1735  0.1400
 4372SOL    HW224579   1.795   3.107   8.166  0.2026 -0.3437  1.5396
 4373SOL     OW24580   0.234   1.243   2.253 -0.0430  0.3833 -0.4483
 4373SOL    HW124581   0.230   1.227   2.159  1.2802  0.4321 -0.5095
 4373SOL    HW224582   0.233   1.339   2.257  5.4299  0.4818 -2.0188
 4374SOL     OW24583   0.122   4.320  14.483  0.6464  0.2412 -0.3677
 4374SOL    HW124584   0.183   4.394  14.486  2.0076 -1.0155  3.4073
 4374SOL    HW224585   0.111   4.303  14.389  0.5369  1.4680 -0.5836
 4375SOL     OW24586   0.607   4.514  13.985  0.1680  0.1932  0.3593
 4375SOL    HW124587   0.573   4.428  13.962 -2.1839  0.5052  2.7467
 4375SOL    HW224588   0.656   4.494  14.065 -1.1433 -0.9633  0.8633
 4376SOL     OW24589   0.773   2.365   1.235  0.1958 -0.1856  0.0572
 4376SOL    HW124590   0.791   2.332   1.323  0.6191  0.2054  0.1145
 4376SOL    HW224591   0.844   2.427   1.220 -1.5675  2.0184  0.8468
 4377SOL     OW24592   4.671   2.510   5.063  0.2070  0.4425 -0.7577
 4377SOL    HW124593   4.708   2.471   5.143 -1.0718  0.3556 -0.2102
 4377SOL    HW224594   4.628   2.584   5.105 -2.8954 -1.7426 -0.0305
 4378SOL     OW24595   3.693   3.950   2.170  0.1595  0.4581  0.5154
 4378SOL    HW124596   3.656   4.026   2.125  1.7212  0.0067 -1.5563
 4378SOL    HW224597   3.613   3.909   2.201 -0.6990  1.8249  0.0932
 4379SOL     OW24598   0.493   0.717  10.877  0.0588  0.3725  0.0484
 4379SOL    HW124599   0.549   0.782  10.918  2.9313 -1.0359 -1.5609
 4379SOL    HW224600   0.557   0.659  10.835  0.5875 -0.0850  1.4926
 4380SOL     OW24601   2.026   0.835   3.960  0.1437  0.0527 -0.7849
 4380SOL    HW124602   2.039   0.881   4.044 -2.2832 -1.4929  0.4580
 4380SOL    HW224603   2.066   0.752   3.985  2.7399  1.1658 -1.2494
 4381SOL     OW24604   1.647   1.737  11.800 -0.4144  0.1241 -0.5934
 4381SOL    HW124605   1.584   1.670  11.772 -0.3702  1.0792 -3.0230
 4381SOL    HW224606   1.700   1.748  11.720 -0.9683  3.7722 -0.4731
 4382SOL     OW24607   4.716   4.180   5.329  0.9316  0.1549  0.0186
 4382SOL    HW124608   4.660   4.256   5.344  0.1793 -0.5981  1.0194
 4382SOL    HW224609   0.075   4.208   5.287  1.6237 -1.0117  0.5772
 4383SOL     OW24610   2.577   2.700  11.716 -0.4789 -0.8512  0.7720
 4383SOL    HW124611   2.517   2.713  11.789 -1.1653  0.0653  0.0580
 4383SOL    HW224612   2.519   2.673  11.644  1.0237 -1.0514 -0.3569
 4384SOL     OW24613   0.875   1.516   8.571 -0.5696 -0.1129  0.4883
 4384SOL    HW124614   0.857   1.473   8.655  0.5783  0.6238  1.1141
 4384SOL    HW224615   0.938   1.461   8.524  0.1965 -0.1903  1.6089
 4385SOL     OW24616   0.949   2.758   7.808  0.3515  0.3034 -0.4470
 4385SOL    HW124617   0.902   2.720   7.734  0.7601 -1.5474  0.2493
 4385SOL    HW224618   1.007   2.689   7.838 -2.8850 -1.4590  1.7632
 4386SOL     OW24619   1.969   3.256   4.499 -0.1536 -0.0208  0.4602
 4386SOL    HW124620   1.926   3.185   4.548  1.1033 -1.6443 -0.7820
 4386SOL    HW224621   2.048   3.215   4.463 -0.4806 -0.8137  0.6391
 4387SOL     OW24622   2.563   2.493  16.870 -0.5192 -0.2591 -0.1332
 4387SOL    HW124623   2.519   2.559  16.816  0.1538 -0.1971 -0.6009
 4387SOL    HW224624   2.519   2.417  16.831 -2.3312  0.2201  0.9637
 4388SOL     OW24625   0.793   3.043  14.534  0.1421  0.2303 -0.0243
 4388SOL    HW124626   0.888   3.031  14.527 -0.2733 -1.9209 -1.9798
 4388SOL    HW224627   0.772   2.950  14.526 -0.3639  0.4046 -0.7115
 4389SOL     OW24628   2.651   1.614   7.083  0.5369 -0.2793 -0.4156
 4389SOL    HW124629   2.589   1.591   7.014  0.2107  2.0825 -0.9205
 4389SOL    HW224630   2.692   1.683   7.031  0.3270  1.3218  1.5440
 4390SOL     OW24631   2.749   0.324   5.195  0.1912  0.2143  0.4490
 4390SOL    HW124632   2.768   0.230   5.190  2.7097  0.6898  1.1088
 4390SOL    HW224633   2.697   0.324   5.275 -0.5427 -1.8848 -0.0239
 4391SOL     OW24634   0.656   3.113   4.571 -0.1594 -0.0344  0.6030
 4391SOL    HW124635   0.710   3.165   4.511  1.6564 -1.4066  1.0517
 4391SOL    HW224636   0.689   3.156   4.650  0.2215  0.1913  0.3233
 4392SOL     OW24637   4.715   1.419   4.501  0.1907 -0.0464 -0.8062
 4392SOL    HW124638   4.668   1.466   4.433 -1.1529 -0.1177  0.0685
 4392SOL    HW224639   4.646   1.357   4.526 -0.0793  0.7346  0.3898
 4393SOL     OW24640   1.024   1.530   3.340 -0.5693  0.0687 -0.4849
 4393SOL    HW124641   0.959   1.528   3.410  0.7394  0.1133  0.7546
 4393SOL    HW224642   0.977   1.518   3.258 -2.7151  0.5012  0.6999
 4394SOL     OW24643   3.321   1.409  11.694 -0.8355  0.4715 -0.3225
 4394SOL    HW124644   3.317   1.460  11.775 -1.6347  0.7122 -0.5095
 4394SOL    HW224645   3.289   1.323  11.720 -0.5074 -0.1104 -1.8743
 4395SOL     OW24646   2.283   3.123   4.795 -0.2544 -0.0784  0.4384
 4395SOL    HW124647   2.254   3.211   4.820 -1.3332 -0.2518 -0.1816
 4395SOL    HW224648   2.356   3.157   4.744 -1.1808 -0.3989 -1.1083
 4396SOL     OW24649   1.236   0.385   4.550 -0.2141  0.2774  0.1252
 4396SOL    HW124650   1.267   0.461   4.600 -0.5732  1.6313 -1.7116
 4396SOL    HW224651   1.215   0.429   4.468 -0.3748 -0.3348 -0.1655
 4397SOL     OW24652   4.625   2.170   0.547  0.8732 -0.0733  0.2171
 4397SOL    HW124653   4.677   2.116   0.606  0.6504 -0.5071  0.0234
 4397SOL    HW224654   4.535   2.137   0.560  0.0682  2.1795  0.3557
 4398SOL     OW24655   4.072   3.344   9.725 -0.1639  0.1926 -0.0447
 4398SOL    HW124656   4.062   3.432   9.688 -0.4164  0.8314  1.5326
 4398SOL    HW224657   4.004   3.344   9.793 -0.2974 -0.5677 -0.1762
 4399SOL     OW24658   3.923   2.169   5.138 -0.1197  0.0392  0.2576
 4399SOL    HW124659   4.012   2.138   5.157  0.5327  2.5778  1.2949
 4399SOL    HW224660   3.946   2.254   5.101  1.5123 -1.2621 -1.7569
 4400SOL     OW24661   1.727   0.810   4.241  0.7953  0.4201  0.2712
 4400SOL    HW124662   1.704   0.897   4.206  1.9545  0.6895  0.1765
 4400SOL    HW224663   1.697   0.755   4.168  0.8094 -2.8202  2.7310
 4401SOL     OW24664   3.824   0.412   2.212  0.8720 -0.0724 -0.2760
 4401SOL    HW124665   3.864   0.494   2.244  1.2633 -0.2422 -0.3277
 4401SOL    HW224666   3.795   0.443   2.127 -1.4708  0.6736  0.7918
 4402SOL     OW24667   3.085   1.024   3.837  0.1476  0.2789 -0.4217
 4402SOL    HW124668   3.084   0.929   3.847  1.2761  0.4867  1.6324
 4402SOL    HW224669   3.155   1.055   3.893  0.1441 -1.7122  0.6788
 4403SOL     OW24670   0.938   3.626  10.068  0.2094  0.3020  0.1634
 4403SOL    HW124671   0.942   3.542  10.023  1.1359  0.9563 -0.9554
 4403SOL    HW224672   0.977   3.601  10.153  1.4024 -0.5968 -0.6410
 4404SOL     OW24673   2.902   4.461   8.495 -0.3604 -0.3562 -0.0632
 4404SOL    HW124674   2.944   4.382   8.461 -0.0336 -1.0878  2.0431
 4404SOL    HW224675   2.945   4.463   8.581 -0.8800  2.2097  0.1423
 4405SOL     OW24676   0.332   1.989  12.456  0.1024  0.0880 -0.4238
 4405SOL    HW124677   0.361   1.901  12.477 -4.4578 -1.5029 -0.8337
 4405SOL    HW224678   0.244   1.981  12.419  0.7854  0.7389 -2.1796
 4406SOL     OW24679   2.292   2.449   3.667 -0.0051 -0.1740 -0.6817
 4406SOL    HW124680   2.246   2.401   3.736  0.5891 -0.1067 -0.2431
 4406SOL    HW224681   2.219   2.501   3.632  0.2180  0.8481  0.4009
 4407SOL     OW24682   2.601   4.459   0.904 -0.1173 -0.9042  0.1467
 4407SOL    HW124683   2.593   4.365   0.921  0.2089 -0.9219  0.1990
 4407SOL    HW224684   2.683   4.457   0.855  0.8886  0.3093  1.8234
 4408SOL     OW24685   2.706   1.451   8.188  0.2137 -0.0587  0.5169
 4408SOL    HW124686   2.736   1.484   8.273 -0.4336  1.5698  0.1063
 4408SOL    HW224687   2.611   1.446   8.189  0.2758 -1.4747 -0.1183
 4409SOL     OW24688   0.823   2.186   6.276 -0.5036 -0.4364 -0.0321
 4409SOL    HW124689   0.915   2.166   6.260 -0.1384  0.5326  0.8800
 4409SOL    HW224690   0.816   2.268   6.228  1.1459 -0.2448  0.0666
 4410SOL     OW24691   1.519   1.436   2.242 -0.3122 -0.2136  0.1557
 4410SOL    HW124692   1.471   1.497   2.187  0.7716  1.1849  0.7521
 4410SOL    HW224693   1.605   1.474   2.260 -1.0486  1.0674  1.0147
 4411SOL     OW24694   2.619   1.645   0.473  0.4513  0.1259 -0.0545
 4411SOL    HW124695   2.709   1.673   0.461  0.6159  0.7483  2.5071
 4411SOL    HW224696   2.612   1.637   0.569  0.5654 -0.0976 -0.0627
 4412SOL     OW24697   2.447   1.706   3.185 -0.1869 -0.2192 -0.1209
 4412SOL    HW124698   2.397   1.625   3.196  0.8301 -0.8267 -0.0183
 4412SOL    HW224699   2.428   1.733   3.095 -2.0739  1.4974  0.7666
 4413SOL     OW24700   0.394   2.196  15.604 -0.5361 -0.4219 -0.6561
 4413SOL    HW124701   0.303   2.190  15.631 -0.0799  3.2998  1.6575
 4413SOL    HW224702   0.389   2.231  15.515  0.7694  1.4940  0.0076
 4414SOL     OW24703   3.774   0.796  15.820  0.0626 -0.0486 -0.2543
 4414SOL    HW124704   3.784   0.889  15.799 -3.3369  0.2317 -0.6209
 4414SOL    HW224705   3.838   0.761  15.758  0.5856  1.0320 -0.3241
 4415SOL     OW24706   0.378   4.451   2.827  0.1694 -0.2251 -0.4397
 4415SOL    HW124707   0.380   4.450   2.732  1.1040  0.4732 -0.4255
 4415SOL    HW224708   0.420   4.366   2.840 -1.0622 -0.6911  0.4882
 4416SOL     OW24709   2.567   2.428   8.824  0.0985 -0.2051 -0.3751
 4416SOL    HW124710   2.615   2.349   8.850 -0.2641 -0.8578 -1.7328
 4416SOL    HW224711   2.548   2.471   8.908 -1.7544 -0.2670 -0.7720
 4417SOL     OW24712   3.765   2.221  15.496  0.2134 -0.5252 -0.5070
 4417SOL    HW124713   3.840   2.272  15.526 -0.8822  0.7514  0.0546
 4417SOL    HW224714   3.723   2.220  15.581  0.1177 -0.3608 -0.5527
 4418SOL     OW24715   0.152   4.064   2.338 -0.1251 -0.1790  0.3843
 4418SOL    HW124716   0.105   4.120   2.276  1.4630  1.9514  1.0930
 4418SOL    HW224717   0.211   4.004   2.292 -0.7732 -0.6331  0.1392
 4419SOL     OW24718   0.826   1.747   1.135 -0.2255 -0.2271 -0.6490
 4419SOL    HW124719   0.756   1.795   1.092 -0.8684  0.2912  1.0120
 4419SOL    HW224720   0.827   1.659   1.097  0.0136 -0.2783 -0.5212
 4420SOL     OW24721   3.005   0.948   4.198  0.1709  0.2388 -0.3780
 4420SOL    HW124722   3.000   0.875   4.260 -1.5050 -3.0654 -4.4390
 4420SOL    HW224723   2.918   0.949   4.160  0.0050 -0.4132 -0.0047
 4421SOL     OW24724   1.660   1.849   4.089 -0.1318 -0.2895 -0.2717
 4421SOL    HW124725   1.680   1.921   4.029 -2.3401  1.4421  1.0213
 4421SOL    HW224726   1.747   1.816   4.109  0.8087  2.6361  0.4227
 4422SOL     OW24727   1.544   3.970  16.663  0.3939 -0.1188 -0.3861
 4422SOL    HW124728   1.540   4.065  16.678  0.2792 -0.2202  0.2087
 4422SOL    HW224729   1.637   3.951  16.677  0.1599  0.5032  2.0850
 4423SOL     OW24730   3.214   2.788   1.305  0.1627  0.6073  0.1981
 4423SOL    HW124731   3.289   2.730   1.320  0.1829  1.1392  2.1357
 4423SOL    HW224732   3.204   2.779   1.210  0.7303 -1.2103  0.3108
 4424SOL     OW24733   0.615   3.277  17.352  0.3712 -0.1346  0.3961
 4424SOL    HW124734   0.679   3.219  17.393 -1.0520 -2.3624 -0.5195
 4424SOL    HW224735   0.560   3.291  17.430 -0.4346 -0.7377 -0.0602
 4425SOL     OW24736   0.170   1.837   7.336  0.9363  0.0279  0.3638
 4425SOL    HW124737   0.147   1.906   7.397 -0.0453 -0.6646  0.7685
 4425SOL    HW224738   0.179   1.763   7.396 -3.3246 -1.2295 -0.5908
 4426SOL     OW24739   2.987   0.334  14.884  0.6509 -0.5921 -0.2534
 4426SOL    HW124740   2.935   0.299  14.812 -0.1219 -1.9250  0.9541
 4426SOL    HW224741   3.040   0.400  14.838  0.1284  0.6627  0.9219
 4427SOL     OW24742   2.335   4.363   2.638  0.0076 -0.3184  0.2256
 4427SOL    HW124743   2.295   4.449   2.651  0.4991  0.1499 -1.3510
 4427SOL    HW224744   2.419   4.385   2.598 -0.0193  0.3055  0.5170
 4428SOL     OW24745   0.175   0.810   2.455  0.4666  0.1844 -0.1346
 4428SOL    HW124746   0.144   0.744   2.393 -0.2377 -0.2568  0.6743
 4428SOL    HW224747   0.249   0.854   2.414 -0.0078  0.8670 -0.2594
 4429SOL     OW24748   2.567   0.880   9.603  0.1611 -0.2002 -0.5493
 4429SOL    HW124749   2.645   0.864   9.550 -0.4577 -0.4087 -1.3867
 4429SOL    HW224750   2.490   0.839   9.565  0.9789 -1.4303 -0.8668
 4430SOL     OW24751   3.324   3.327   7.764 -0.3464  0.3069 -0.1196
 4430SOL    HW124752   3.366   3.273   7.832 -1.3828 -0.7671 -0.3333
 4430SOL    HW224753   3.275   3.385   7.823 -0.5528 -1.8926  1.8944
 4431SOL     OW24754   2.116   0.680  16.855 -0.5583  0.1379 -0.0236
 4431SOL    HW124755   2.186   0.632  16.811 -0.6438  0.8797 -0.9644
 4431SOL    HW224756   2.166   0.762  16.853  1.7122 -1.2070  1.3160
 4432SOL     OW24757   1.531   3.808   5.118  0.4039 -0.7120 -0.6145
 4432SOL    HW124758   1.561   3.730   5.071 -1.0527 -2.2585  1.0586
 4432SOL    HW224759   1.611   3.827   5.167 -0.8675  0.6119  0.9764
 4433SOL     OW24760   1.478   0.040   4.792  0.8291  0.1874  0.1125
 4433SOL    HW124761   1.459   4.674   4.760  0.4500  0.1853  0.3404
 4433SOL    HW224762   1.392   0.077   4.812  0.4853  0.9751 -2.9547
 4434SOL     OW24763   4.339   1.480   2.090  0.0137 -0.3649  0.2236
 4434SOL    HW124764   4.380   1.414   2.034  0.1127 -0.3387  0.2660
 4434SOL    HW224765   4.250   1.469   2.056  0.2032 -2.0963  0.2725
 4435SOL     OW24766   1.304   3.707   1.873  0.0541  0.4138 -1.1749
 4435SOL    HW124767   1.323   3.616   1.896 -0.4171  0.4362 -0.6951
 4435SOL    HW224768   1.224   3.737   1.917  0.1798 -0.1511 -0.5558
 4436SOL     OW24769   3.013   4.169  12.801 -0.6688  0.2266 -0.1033
 4436SOL    HW124770   3.073   4.135  12.868 -0.9151  0.2106  0.1096
 4436SOL    HW224771   2.959   4.090  12.795 -1.9207  0.9856  1.1457
 4437SOL     OW24772   3.504   3.676   8.690 -0.0472  0.3469 -0.0844
 4437SOL    HW124773   3.423   3.727   8.686  1.5361  2.9848  1.7633
 4437SOL    HW224774   3.545   3.717   8.766  1.0899  0.4023 -0.7327
 4438SOL     OW24775   3.025   2.377   4.382 -0.1625 -0.7061 -0.0306
 4438SOL    HW124776   3.098   2.353   4.440 -0.0649  1.0948  0.6133
 4438SOL    HW224777   3.000   2.288   4.360 -0.8927 -0.3711 -0.5624
 4439SOL     OW24778   4.478   2.110   4.589  0.2402  0.2254 -0.2820
 4439SOL    HW124779   4.412   2.043   4.573 -1.0849  1.5615 -0.3602
 4439SOL    HW224780   4.552   2.056   4.560 -0.0668 -0.6478  0.5441
 4440SOL     OW24781   4.230   0.176   4.157 -0.2286 -0.1835 -0.4797
 4440SOL    HW124782   4.306   0.233   4.168 -0.5305 -0.2459  1.8941
 4440SOL    HW224783   4.171   0.224   4.099 -0.2318 -0.7229 -0.9306
 4441SOL     OW24784   4.307   3.767   6.169  0.4242  0.3998  0.1583
 4441SOL    HW124785   4.274   3.683   6.199 -1.4341  1.0617 -0.0386
 4441SOL    HW224786   4.246   3.783   6.098  0.3361 -0.0694  0.1329
 4442SOL     OW24787   0.552   1.266   9.396  0.1640  0.6730  0.2714
 4442SOL    HW124788   0.545   1.180   9.355  1.7091  0.8861 -0.4347
 4442SOL    HW224789   0.561   1.326   9.322  1.6532  1.5306  1.1339
 4443SOL     OW24790   2.637   3.572   7.374  0.4483 -0.0741 -0.5497
 4443SOL    HW124791   2.676   3.498   7.422 -1.4943 -1.6852 -1.4361
 4443SOL    HW224792   2.610   3.534   7.290 -1.5424  0.3416 -0.0945
 4444SOL     OW24793   0.787   2.028  13.540  0.4180 -0.1709 -0.3802
 4444SOL    HW124794   0.779   2.084  13.617 -1.3795 -1.5806  0.4517
 4444SOL    HW224795   0.796   2.091  13.469  0.7261 -0.8481 -0.9397
 4445SOL     OW24796   2.402   3.788   1.190  0.2388  0.2845  0.4696
 4445SOL    HW124797   2.403   3.694   1.175  0.9280  0.1002  1.7136
 4445SOL    HW224798   2.494   3.804   1.212 -0.9672  2.8450  3.6415
 4446SOL     OW24799   2.460   3.547   6.257  0.0899 -0.4159  0.1752
 4446SOL    HW124800   2.367   3.538   6.239  0.1757  0.7142 -0.8222
 4446SOL    HW224801   2.480   3.618   6.196 -2.3213  1.4753  1.5988
 4447SOL     OW24802   3.126   4.114   5.803 -0.1146 -0.1473  0.2972
 4447SOL    HW124803   3.171   4.042   5.847  1.0885  0.0020 -0.6650
 4447SOL    HW224804   3.173   4.186   5.845 -0.4531  0.9141 -1.1142
 4448SOL     OW24805   1.016   4.067   5.581 -0.3235 -0.2262 -0.5845
 4448SOL    HW124806   0.948   4.075   5.514 -2.0169 -1.0375  1.0243
 4448SOL    HW224807   1.074   4.140   5.561  1.5193 -1.9456 -1.4777
 4449SOL     OW24808   1.079   1.019   5.870 -0.3150  0.3777 -0.0363
 4449SOL    HW124809   1.074   1.061   5.956 -0.5341  1.0776 -0.3910
 4449SOL    HW224810   1.096   0.927   5.889 -2.1024  0.0105 -0.2188
 4450SOL     OW24811   2.464   4.498   2.105 -0.1273  0.1460  0.1210
 4450SOL    HW124812   2.440   4.467   2.017 -0.3082 -3.7715  1.5409
 4450SOL    HW224813   2.410   4.577   2.111  0.7655  0.7415  0.2844
 4451SOL     OW24814   1.605   4.596  13.230 -0.0726 -0.3540 -0.6877
 4451SOL    HW124815   1.630   4.576  13.140 -0.0983  0.0684 -0.7857
 4451SOL    HW224816   1.601   4.691  13.223 -0.9852 -0.4732 -1.7212
 4452SOL     OW24817   1.991   3.018  11.242 -0.1330  0.1710 -0.8183
 4452SOL    HW124818   1.979   2.924  11.251 -2.2232  0.5569  0.4978
 4452SOL    HW224819   2.007   3.045  11.332 -1.0157 -1.3922 -0.1995
 4453SOL     OW24820   2.172   4.330   1.717  0.4808  0.2187  0.4861
 4453SOL    HW124821   2.254   4.284   1.698  0.3161  0.5226 -0.9856
 4453SOL    HW224822   2.118   4.270   1.664 -1.5279  1.9115  0.6436
 4454SOL     OW24823   2.001   4.548   6.827 -0.4720  0.6411  0.0264
 4454SOL    HW124824   1.979   4.555   6.920 -0.8129  0.3783 -0.0308
 4454SOL    HW224825   2.026   4.638   6.811  0.9086  0.3777  0.6804
 4455SOL     OW24826   1.674   0.431   6.496 -0.3517 -0.5000  0.3695
 4455SOL    HW124827   1.596   0.410   6.548 -2.7034  1.2967 -2.4160
 4455SOL    HW224828   1.660   0.392   6.409  1.7275  0.5938 -0.4458
 4456SOL     OW24829   0.117   3.977   6.241  0.4180  0.5488 -0.0332
 4456SOL    HW124830   0.118   3.881   6.236 -0.4773  0.4743  1.0953
 4456SOL    HW224831   0.159   4.000   6.158  1.0834  0.6657  0.3404
 4457SOL     OW24832   1.764   3.490   2.745  0.7911  0.1175 -0.2032
 4457SOL    HW124833   1.813   3.408   2.749 -0.0928 -0.3895  0.1557
 4457SOL    HW224834   1.749   3.497   2.651 -3.4860 -0.6390  0.4028
 4458SOL     OW24835   0.459   4.223   6.781  0.0688 -0.0557 -0.1794
 4458SOL    HW124836   0.433   4.176   6.860 -0.1002  1.4472  0.6410
 4458SOL    HW224837   0.552   4.199   6.772 -0.4283 -1.2972 -2.0998
 4459SOL     OW24838   3.642   4.453   9.708 -0.8436 -0.2124 -0.6965
 4459SOL    HW124839   3.552   4.462   9.741 -0.6351  0.0587 -0.2136
 4459SOL    HW224840   3.651   4.492   9.621 -0.5204  0.1387 -0.5058
 4460SOL     OW24841   0.555   3.656  17.058  0.3624  0.5640 -0.8994
 4460SOL    HW124842   0.648   3.640  17.078 -0.1339 -0.8367  0.2404
 4460SOL    HW224843   0.513   3.624  17.138  1.6679  0.3281 -0.3068
 4461SOL     OW24844   3.701   0.216   2.349  0.1997  0.6640  0.0448
 4461SOL    HW124845   3.735   0.285   2.292 -1.8346  0.1108 -1.8389
 4461SOL    HW224846   3.737   0.249   2.431 -2.1148  2.0062  0.5271
 4462SOL     OW24847   0.412   0.290   8.424  0.2611 -0.1569  0.2684
 4462SOL    HW124848   0.449   0.328   8.344  1.1767  0.0395  0.7891
 4462SOL    HW224849   0.478   0.324   8.485 -2.3808 -0.5226  3.3179
 4463SOL     OW24850   3.400   1.024   5.279 -0.0739  0.2344 -0.1851
 4463SOL    HW124851   3.450   0.971   5.216  0.6752  0.6152  0.0898
 4463SOL    HW224852   3.444   1.035   5.363 -1.1770  1.0935  0.2830
 4464SOL     OW24853   1.291   3.907  15.127  0.6152  1.0944 -0.0827
 4464SOL    HW124854   1.287   3.986  15.180 -0.2744  0.3328  0.9763
 4464SOL    HW224855   1.321   3.842  15.191 -1.7155  0.5325  0.4148
 4465SOL     OW24856   3.973   4.112   1.950 -0.3747 -0.1428 -0.2164
 4465SOL    HW124857   3.937   4.133   1.864  0.6209  2.8203  0.0769
 4465SOL    HW224858   4.029   4.188   1.968 -0.6932 -0.2567  1.2492
 4466SOL     OW24859   1.248   1.417   3.218 -0.0950  0.0856 -0.1440
 4466SOL    HW124860   1.278   1.493   3.169  0.2235  0.9399  1.3739
 4466SOL    HW224861   1.173   1.462   3.256 -0.0626 -0.8422  1.0131
 4467SOL     OW24862   0.308   1.791   2.266 -0.2425 -0.2831  0.0733
 4467SOL    HW124863   0.392   1.746   2.266 -1.4413 -2.4780  0.0698
 4467SOL    HW224864   0.344   1.872   2.303  0.3662 -0.1542 -0.8147
 4468SOL     OW24865   2.887   1.017   8.621 -0.0097  0.2855 -0.3025
 4468SOL    HW124866   2.882   1.033   8.527  4.4926  2.5722 -0.1623
 4468SOL    HW224867   2.981   1.003   8.631 -0.5522 -2.6342  0.5893
 4469SOL     OW24868   2.813   1.021   8.339  0.4114 -0.6155  0.1913
 4469SOL    HW124869   2.727   1.018   8.380  0.7846  0.0045  1.0142
 4469SOL    HW224870   2.797   0.965   8.263 -1.2617 -0.7814  0.6781
 4470SOL     OW24871   3.381   3.005   7.011  0.1962  0.2412  0.2372
 4470SOL    HW124872   3.466   2.962   7.024 -0.4499 -0.5447  1.8989
 4470SOL    HW224873   3.322   2.939   7.048 -2.0722  1.5337 -1.0965
 4471SOL     OW24874   0.564   3.555   5.724 -0.1356  0.2507 -0.0651
 4471SOL    HW124875   0.634   3.489   5.724 -1.4910 -1.1996 -1.1544
 4471SOL    HW224876   0.520   3.544   5.640 -1.7277  0.9814  0.6817
 4472SOL     OW24877   2.729   2.111   7.748 -0.0680 -0.3890 -0.2334
 4472SOL    HW124878   2.821   2.097   7.772  0.4734  3.0603 -0.1758
 4472SOL    HW224879   2.707   2.038   7.691 -0.7375 -1.3742  1.3053
 4473SOL     OW24880   2.379   2.765   5.540  0.1603  0.2507  0.4425
 4473SOL    HW124881   2.364   2.753   5.446 -0.3971  0.9612  0.4389
 4473SOL    HW224882   2.355   2.680   5.576  0.7820 -0.4757 -0.8637
 4474SOL     OW24883   1.661   0.454   1.112  0.5848  0.5873  0.1103
 4474SOL    HW124884   1.594   0.420   1.171 -1.3509  2.6276 -0.9199
 4474SOL    HW224885   1.623   0.425   1.029 -2.5006 -0.0313  1.7210
 4475SOL     OW24886   4.536   0.002   7.322  0.1657  0.1749 -0.3486
 4475SOL    HW124887   4.558   0.070   7.259  0.9054  1.4238  1.2549
 4475SOL    HW224888   4.443   0.021   7.334  0.0782 -0.7437  0.3967
 4476SOL     OW24889   0.662   1.196   6.829 -0.2011  0.7214 -0.0356
 4476SOL    HW124890   0.623   1.108   6.823  0.2225  0.4712  0.9199
 4476SOL    HW224891   0.752   1.165   6.819 -0.5596 -0.0031 -1.0848
 4477SOL     OW24892   4.009   0.435   7.181 -0.2272 -0.3099  0.3683
 4477SOL    HW124893   3.921   0.441   7.218  0.1014 -2.6834  1.5900
 4477SOL    HW224894   4.004   0.346   7.145  0.8364 -0.5751  0.8783
 4478SOL     OW24895   1.868   0.736  16.100 -0.3806  0.0341 -0.6602
 4478SOL    HW124896   1.954   0.712  16.064 -0.2120  1.6611 -1.3206
 4478SOL    HW224897   1.824   0.656  16.130  0.6101 -0.4569 -0.4876
 4479SOL     OW24898   3.643   2.212   2.291  0.3210 -0.7107 -0.2885
 4479SOL    HW124899   3.669   2.123   2.267  2.0288 -0.4189  0.4110
 4479SOL    HW224900   3.723   2.222   2.344  0.6187  1.0632 -1.0884
 4480SOL     OW24901   0.584   3.174   4.206  0.7971  0.4204 -0.1566
 4480SOL    HW124902   0.651   3.204   4.267 -1.9756  1.8453  2.2053
 4480SOL    HW224903   0.613   3.084   4.191 -1.6451 -0.0453 -2.0356
 4481SOL     OW24904   3.616   4.582   2.991  0.0825 -0.4829  0.4102
 4481SOL    HW124905   3.643   4.635   3.066 -0.6742 -2.2609  1.9388
 4481SOL    HW224906   3.604   4.649   2.924  1.6814 -0.0052  0.5946
 4482SOL     OW24907   0.439   2.435  16.612  0.0449 -0.2006  0.0738
 4482SOL    HW124908   0.474   2.451  16.525  0.3671  0.3897  0.3074
 4482SOL    HW224909   0.367   2.495  16.590 -0.8787 -0.5323  2.1458
 4483SOL     OW24910   3.141   1.518   8.209 -0.2859  0.8605  0.8138
 4483SOL    HW124911   3.059   1.562   8.188  0.0946  2.2014  2.1225
 4483SOL    HW224912   3.135   1.529   8.304  0.7659  1.8130  0.7777
 4484SOL     OW24913   2.216   4.447   9.857 -0.3236 -0.0619 -0.8546
 4484SOL    HW124914   2.308   4.462   9.880 -0.9737 -1.0054  2.4375
 4484SOL    HW224915   2.199   4.529   9.810  1.3538  0.7245 -0.1238
 4485SOL     OW24916   4.614   0.862  14.730 -0.8319 -0.2134  0.0874
 4485SOL    HW124917   4.534   0.874  14.678 -0.4523 -1.4082 -0.7670
 4485SOL    HW224918   4.607   0.769  14.751 -1.0718  0.2679  2.1687
 4486SOL     OW24919   0.808   2.209   2.924 -0.3687 -0.2061  0.3700
 4486SOL    HW124920   0.764   2.235   3.005  0.5416  0.6389  0.5939
 4486SOL    HW224921   0.899   2.228   2.945  0.3492 -0.5110 -2.4038
 4487SOL     OW24922   2.510   0.743   7.236 -0.0833 -0.1931  0.2022
 4487SOL    HW124923   2.573   0.709   7.300 -0.8368 -0.4629  0.7893
 4487SOL    HW224924   2.435   0.761   7.292  0.8529  0.8030  1.1493
 4488SOL     OW24925   2.422   4.673   0.965  0.1697 -0.1333 -0.9837
 4488SOL    HW124926   2.468   4.598   0.927  0.5577 -0.8206  0.8219
 4488SOL    HW224927   2.353   4.635   1.020  0.4345 -0.4650 -0.8831
 4489SOL     OW24928   2.503   2.082  14.620 -0.5662  0.0507 -0.0988
 4489SOL    HW124929   2.563   2.132  14.675 -0.2619 -2.0533  1.4854
 4489SOL    HW224930   2.424   2.088  14.673 -0.1037  2.2720  0.3242
 4490SOL     OW24931   4.225   3.546   3.497  0.1691 -0.0697 -0.1481
 4490SOL    HW124932   4.197   3.633   3.469 -1.3734 -0.0213  1.5362
 4490SOL    HW224933   4.317   3.567   3.512  0.2657 -0.9866  0.5653
 4491SOL     OW24934   0.565   0.996  11.002  0.1168  0.1666  0.1750
 4491SOL    HW124935   0.644   0.943  10.992  0.1855 -0.0417  1.8672
 4491SOL    HW224936   0.591   1.064  10.938 -0.3854 -1.2468 -1.5304
 4492SOL     OW24937   4.690   2.927   6.949 -0.7868 -0.6662  0.0940
 4492SOL    HW124938   4.607   2.916   6.994 -0.0944 -0.9570  1.2886
 4492SOL    HW224939   4.713   2.836   6.927 -2.4121 -1.8358  3.3421
 4493SOL     OW24940   3.421   0.408   0.365 -0.2385  0.3896  0.3860
 4493SOL    HW124941   3.508   0.375   0.386 -1.7171 -2.2240  2.4478
 4493SOL    HW224942   3.421   0.386   0.272  1.3426  0.1938  0.4261
 4494SOL     OW24943   3.651   0.769  10.469  0.1443 -0.0074 -0.2460
 4494SOL    HW124944   3.737   0.793  10.504  0.7751 -2.3301 -0.1603
 4494SOL    HW224945   3.630   0.847  10.419 -0.5300 -0.0465 -0.0236
 4495SOL     OW24946   3.071   4.218  16.746  0.1523  0.8059  0.7942
 4495SOL    HW124947   3.063   4.303  16.701  0.6158 -0.8307 -2.3922
 4495SOL    HW224948   2.987   4.192  16.784  0.1477 -0.7212 -0.2687
 4496SOL     OW24949   1.452   1.152  14.327 -0.4500 -0.4675 -0.4031
 4496SOL    HW124950   1.376   1.176  14.274  0.2280  0.7832 -0.8310
 4496SOL    HW224951   1.444   1.212  14.402 -1.2862  0.0181 -0.8794
 4497SOL     OW24952   0.586   3.826   4.131 -0.3626  0.1779  0.2388
 4497SOL    HW124953   0.539   3.839   4.049  0.1333 -0.3531 -0.1366
 4497SOL    HW224954   0.653   3.769   4.093  0.3431  0.5453  0.9284
 4498SOL     OW24955   4.307   2.546   4.794  0.1096  0.0097 -0.5112
 4498SOL    HW124956   4.336   2.455   4.787 -1.4158 -0.5045 -0.0800
 4498SOL    HW224957   4.369   2.589   4.735 -0.4776 -0.5906 -1.5567
 4499SOL     OW24958   2.232   1.528  10.367  0.4465  0.7158 -0.0102
 4499SOL    HW124959   2.243   1.435  10.388 -1.1822  0.4548 -0.2570
 4499SOL    HW224960   2.192   1.517  10.281  0.2369  0.2931  0.1404
 4500SOL     OW24961   4.107   2.489  10.862 -0.3376  0.4139 -0.3109
 4500SOL    HW124962   4.072   2.577  10.878  0.0430  0.3527  0.8874
 4500SOL    HW224963   4.095   2.483  10.768  1.6475  0.0149 -0.5321
 4501SOL     OW24964   3.702   1.700   2.074  0.8616  0.2811 -0.1252
 4501SOL    HW124965   3.624   1.724   2.123 -0.0310 -1.2720 -0.7624
 4501SOL    HW224966   3.683   1.739   1.989  0.3517 -1.1105 -0.6495
 4502SOL     OW24967   0.821   1.509   3.159 -0.1397  0.7412  0.3415
 4502SOL    HW124968   0.761   1.463   3.101  0.5916 -1.8818  1.6857
 4502SOL    HW224969   0.826   1.591   3.110  1.6433 -0.8291 -2.1189
 4503SOL     OW24970   0.818   0.061  16.603  0.3936  0.4700 -0.3023
 4503SOL    HW124971   0.874   0.070  16.526 -0.2772 -1.1479 -0.9637
 4503SOL    HW224972   0.856   4.703  16.637  2.9659  2.5855  1.8471
 4504SOL     OW24973   2.244   3.487   4.666 -0.2895 -0.2329  0.2790
 4504SOL    HW124974   2.291   3.415   4.622 -3.9005 -2.0617 -0.6354
 4504SOL    HW224975   2.263   3.566   4.615 -2.1038 -1.6905 -2.6871
 4505SOL     OW24976   0.378   2.311  14.648 -0.1658  0.1570  0.2094
 4505SOL    HW124977   0.355   2.379  14.584 -0.8384 -2.2528 -2.0772
 4505SOL    HW224978   0.336   2.235  14.609 -0.4401  0.4763 -0.1198
 4506SOL     OW24979   1.218   3.246   5.994  0.1247  0.9590 -0.5466
 4506SOL    HW124980   1.246   3.194   6.069  0.8544  0.6732 -1.0142
 4506SOL    HW224981   1.158   3.310   6.032 -1.0973 -0.5804  0.1222
 4507SOL     OW24982   1.269   3.637  12.310  0.8359 -0.0325  0.2392
 4507SOL    HW124983   1.235   3.556  12.272  0.1173 -0.6651  2.2539
 4507SOL    HW224984   1.209   3.661  12.381  0.2038 -2.8250  0.6309
 4508SOL     OW24985   4.669   1.686   3.918  0.5072  0.0912  0.7319
 4508SOL    HW124986   4.710   1.756   3.969  1.4946  0.3753 -0.4550
 4508SOL    HW224987   4.601   1.733   3.869  1.8503 -0.3352 -1.5677
 4509SOL     OW24988   0.717   3.390   6.930 -0.6542 -0.1281  0.2613
 4509SOL    HW124989   0.690   3.465   6.877 -1.9066 -0.5465  0.3210
 4509SOL    HW224990   0.632   3.354   6.956 -0.8048 -0.8414 -1.1924
 4510SOL     OW24991   2.212   1.546  15.448 -0.0128  0.3054  0.2965
 4510SOL    HW124992   2.290   1.491  15.438  1.3142  2.0488  1.0816
 4510SOL    HW224993   2.151   1.480  15.414 -1.3802  0.4479  2.4508
 4511SOL     OW24994   0.331   3.069  15.965 -0.5305 -0.0366 -0.3530
 4511SOL    HW124995   0.401   3.039  16.023 -0.0075  0.9201 -0.4824
 4511SOL    HW224996   0.383   3.124  15.907 -0.5915 -0.2171 -0.5809
 4512SOL     OW24997   0.636   3.624   6.745  0.3921  0.0295 -0.0992
 4512SOL    HW124998   0.560   3.681   6.757  0.6153  0.3171 -0.0527
 4512SOL    HW224999   0.605   3.557   6.684  2.0327 -0.8698  0.0809
 4513SOL     OW25000   0.786   1.797  12.997  0.3789 -0.4715  0.0179
 4513SOL    HW125001   0.835   1.873  13.029  1.3265 -0.8300 -0.5770
 4513SOL    HW225002   0.736   1.777  13.076 -0.5535 -2.4161 -1.0512
 4514SOL     OW25003   3.246   3.378   6.566 -0.0417 -0.1945 -0.6878
 4514SOL    HW125004   3.204   3.458   6.600 -0.9562 -0.9742  0.0213
 4514SOL    HW225005   3.228   3.386   6.472  0.0005 -0.7859 -0.7455
 4515SOL     OW25006   2.897   3.828   2.201  0.1988  0.1097 -0.3125
 4515SOL    HW125007   2.805   3.844   2.184  0.2827  1.4972  0.5265
 4515SOL    HW225008   2.950   3.876   2.136 -0.2702 -0.3356 -1.0226
 4516SOL     OW25009   1.532   4.358  17.678  0.0039  0.1699 -0.0101
 4516SOL    HW125010   1.616   4.363   0.034  0.6374 -0.8001 -1.0247
 4516SOL    HW225011   1.525   4.444  17.638  1.3142  0.7912  1.0954
 4517SOL     OW25012   1.638   3.944   1.778  0.1455 -0.0484 -0.4341
 4517SOL    HW125013   1.595   3.893   1.847  0.2026  0.0123 -0.3546
 4517SOL    HW225014   1.659   3.882   1.709  1.7435  1.2413 -1.0959
 4518SOL     OW25015   3.117   2.104   4.370 -0.0563 -0.6855 -0.1587
 4518SOL    HW125016   3.116   2.033   4.435 -0.1504  0.1051  0.7107
 4518SOL    HW225017   3.111   2.057   4.287 -1.0837  0.1546 -0.5607
 4519SOL     OW25018   1.050   3.279   2.621 -0.0951  0.2425  0.7235
 4519SOL    HW125019   1.060   3.184   2.629 -0.5875  0.1024 -0.3952
 4519SOL    HW225020   1.079   3.315   2.705 -1.2580 -0.9883  1.6547
 4520SOL     OW25021   3.747   4.601  16.756  0.2073 -0.3151 -0.7509
 4520SOL    HW125022   3.681   4.559  16.810 -0.1101  2.0521  0.7141
 4520SOL    HW225023   3.813   4.532  16.758  0.1243 -0.4148 -1.2589
 4521SOL     OW25024   3.716   1.550   0.366 -0.2569 -0.1260 -0.1754
 4521SOL    HW125025   3.648   1.585   0.308  0.3457 -0.4998 -1.1200
 4521SOL    HW225026   3.724   1.463   0.327 -3.1009  0.4721 -2.1662
 4522SOL     OW25027   0.501   4.464   8.501  0.3522  0.3421  0.1150
 4522SOL    HW125028   0.496   4.556   8.528 -0.1068 -0.3081  2.2480
 4522SOL    HW225029   0.553   4.470   8.421  2.1611 -2.7356  1.0721
 4523SOL     OW25030   0.565   0.080  13.940 -1.1237  0.0825 -0.0227
 4523SOL    HW125031   0.583   4.709  13.928 -1.7418  0.1484 -1.5067
 4523SOL    HW225032   0.613   0.119  13.867  0.2039 -0.4855  0.5557
 4524SOL     OW25033   4.708   3.125   7.203  0.4084  0.0529  0.0994
 4524SOL    HW125034   4.694   3.045   7.153 -2.2260  1.0296 -0.7496
 4524SOL    HW225035   4.685   3.192   7.138  1.8272 -0.8766 -1.3605
 4525SOL     OW25036   0.032   3.868   4.619  0.1220 -0.0298  1.2622
 4525SOL    HW125037   4.660   3.864   4.600 -0.3510  0.5638  3.3987
 4525SOL    HW225038   0.040   3.938   4.683  0.0207  0.4999  0.6931
 4526SOL     OW25039   2.888   3.841   4.971 -0.4270 -0.1472 -0.1412
 4526SOL    HW125040   2.905   3.901   4.898 -3.6987  0.9618  0.0053
 4526SOL    HW225041   2.949   3.771   4.946 -3.2529 -2.8549  0.5785
 4527SOL     OW25042   0.805   1.017  16.307 -0.2999 -0.0580 -0.7951
 4527SOL    HW125043   0.825   0.934  16.262  3.3666  0.2450  0.2968
 4527SOL    HW225044   0.880   1.065  16.273  0.4892  0.2287  1.3793
 4528SOL     OW25045   2.507   3.332   9.591  0.3993  0.6576 -0.4157
 4528SOL    HW125046   2.454   3.258   9.620  1.5905 -0.6643 -1.5954
 4528SOL    HW225047   2.448   3.380   9.533 -1.0276  0.2528  0.6995
 4529SOL     OW25048   2.804   2.648   1.812  0.2341  0.2067 -0.0059
 4529SOL    HW125049   2.842   2.645   1.724 -0.3492 -0.8622 -0.2133
 4529SOL    HW225050   2.866   2.705   1.860  0.4874 -0.2512  0.2153
 4530SOL     OW25051   4.615   2.894   4.953  0.2868  0.2414 -0.2100
 4530SOL    HW125052   4.566   2.965   4.910 -0.6388 -1.0426 -1.2722
 4530SOL    HW225053   4.668   2.949   5.011  1.9324 -0.2638 -1.2251
 4531SOL     OW25054   0.884   0.031   4.344  0.4238 -0.0228  0.2162
 4531SOL    HW125055   0.886   0.102   4.408  0.2052  0.4567 -0.3021
 4531SOL    HW225056   0.817   0.063   4.283  0.1255 -0.1231  0.4927
 4532SOL     OW25057   2.437   0.301  14.708 -0.2839  0.0707  0.1352
 4532SOL    HW125058   2.486   0.220  14.723  1.0099  0.6650 -0.8538
 4532SOL    HW225059   2.431   0.308  14.613 -1.1714 -0.2231  0.1689
 4533SOL     OW25060   0.754   1.467   7.690 -0.5052  0.3599 -0.1872
 4533SOL    HW125061   0.757   1.397   7.754  1.8809  0.1574 -0.5381
 4533SOL    HW225062   0.773   1.423   7.607 -0.5986 -0.9722  0.5003
 4534SOL     OW25063   1.186   3.091   7.011  0.2134 -0.1245 -0.3054
 4534SOL    HW125064   1.142   3.018   6.966  2.2663 -0.6326 -1.4583
 4534SOL    HW225065   1.125   3.164   7.003  2.7100  2.1897  2.1020
 4535SOL     OW25066   0.466   1.923   1.619 -0.2070  0.0902 -0.1938
 4535SOL    HW125067   0.391   1.980   1.606 -0.1492  0.7739  2.5382
 4535SOL    HW225068   0.530   1.960   1.680  1.5929 -0.0769 -1.9714
 4536SOL     OW25069   0.368   3.609   1.248  0.6259  0.2715  0.2209
 4536SOL    HW125070   0.302   3.639   1.311 -1.0550  0.8518 -1.7997
 4536SOL    HW225071   0.423   3.687   1.252  0.8414  0.0371  1.9939
 4537SOL     OW25072   2.631   1.084   0.087 -0.1865 -0.0086  0.0661
 4537SOL    HW125073   2.701   1.123   0.140 -0.8237 -0.7161  1.4363
 4537SOL    HW225074   2.616   1.016   0.154 -0.9929  1.5531  1.4896
 4538SOL     OW25075   2.355   2.974  11.602 -0.6203  0.2751 -0.4379
 4538SOL    HW125076   2.449   2.961  11.610 -0.5820  0.3671 -0.7271
 4538SOL    HW225077   2.339   3.044  11.666 -0.0609 -0.1134  0.1282
 4539SOL     OW25078   2.581   4.422   3.271  0.2395  0.2188  0.1291
 4539SOL    HW125079   2.577   4.495   3.210  0.1168 -0.0219 -0.1504
 4539SOL    HW225080   2.620   4.473   3.342 -1.7436  0.9907  0.6799
 4540SOL     OW25081   1.112   3.799  14.055  0.0314  0.1866 -0.4329
 4540SOL    HW125082   1.025   3.763  14.073 -0.0112  0.9379  0.8946
 4540SOL    HW225083   1.141   3.827  14.142 -1.0601  0.3032 -0.1025
 4541SOL     OW25084   3.683   3.857   5.141 -0.8068 -0.8189  0.2845
 4541SOL    HW125085   3.677   3.765   5.170 -1.3959 -0.4855  1.2496
 4541SOL    HW225086   3.646   3.894   5.221  0.2538  0.3398  0.2307
 4542SOL     OW25087   4.532   4.646  14.407 -0.9005 -0.0427 -0.5797
 4542SOL    HW125088   4.474   4.719  14.427  2.7805  2.1905  1.9061
 4542SOL    HW225089   4.619   4.673  14.435 -1.4205  0.9422  0.0909
 4543SOL     OW25090   3.993   3.192   2.673  0.0997 -0.5484  0.0719
 4543SOL    HW125091   4.018   3.228   2.588 -0.8771  1.9369  0.8525
 4543SOL    HW225092   3.902   3.166   2.655  0.1020 -0.6391  0.1926
 4544SOL     OW25093   1.348   2.990   5.622  0.4460 -0.6673  0.0014
 4544SOL    HW125094   1.339   3.068   5.678  0.8929 -0.3198 -0.4061
 4544SOL    HW225095   1.389   3.037   5.549 -1.5351  0.4196 -0.3930
 4545SOL     OW25096   1.955   3.289   5.492  0.1017 -0.1992 -0.1712
 4545SOL    HW125097   1.998   3.372   5.473  1.6963 -0.6076  1.6955
 4545SOL    HW225098   1.920   3.272   5.404 -0.6531 -2.0621  0.4858
 4546SOL     OW25099   0.742   3.112  12.819  0.1792  0.8166  0.6085
 4546SOL    HW125100   0.700   3.119  12.734  0.3176 -3.5533  0.1451
 4546SOL    HW225101   0.836   3.112  12.804 -0.0085 -0.6898 -0.5188
 4547SOL     OW25102   3.634   1.377   7.987  0.4619  0.1721  0.4694
 4547SOL    HW125103   3.722   1.352   7.959 -0.6868 -0.1816 -2.7741
 4547SOL    HW225104   3.608   1.299   8.036  0.6389 -0.9432 -1.2085
 4548SOL     OW25105   1.343   4.114  17.022 -0.3371 -0.9134  0.0565
 4548SOL    HW125106   1.303   4.042  16.973  1.7645 -1.6609 -0.5386
 4548SOL    HW225107   1.428   4.125  16.979 -0.0381  0.7560  1.0812
 4549SOL     OW25108   3.934   2.825  12.176 -0.0376 -0.2311 -0.1674
 4549SOL    HW125109   3.907   2.802  12.265 -0.8056 -0.5856 -0.4949
 4549SOL    HW225110   3.902   2.750  12.125  2.0810  0.5057 -2.6152
 4550SOL     OW25111   1.550   2.514   5.329  0.1041  0.1366  0.1287
 4550SOL    HW125112   1.558   2.520   5.234  2.1141 -0.5915  0.2514
 4550SOL    HW225113   1.454   2.512   5.332  0.0858  1.3748  0.0382
 4551SOL     OW25114   2.168   3.095   7.551  0.4097  0.7790  0.1710
 4551SOL    HW125115   2.142   3.146   7.628  0.2619 -1.4738  1.6001
 4551SOL    HW225116   2.145   3.008   7.581  1.0789  0.5746  0.1005
 4552SOL     OW25117   1.540   3.001   0.985  0.2944 -0.2607  0.3172
 4552SOL    HW125118   1.458   2.960   1.013 -0.4758  0.9458 -0.1985
 4552SOL    HW225119   1.597   2.924   0.991 -1.1570 -1.2726  1.2496
 4553SOL     OW25120   2.207   2.165  15.159  0.0506 -0.1984 -0.1320
 4553SOL    HW125121   2.239   2.093  15.105  2.5768  1.6942 -1.1405
 4553SOL    HW225122   2.163   2.115  15.228 -0.2142  0.3263  0.0725
 4554SOL     OW25123   3.077   3.325  13.986 -0.1641 -0.2160 -0.1602
 4554SOL    HW125124   2.992   3.304  13.948 -0.3072 -1.1029  0.6652
 4554SOL    HW225125   3.097   3.238  14.022  0.1480  0.5525  1.5220
 4555SOL     OW25126   2.319   0.993   1.608 -0.0831  0.7812  0.4466
 4555SOL    HW125127   2.364   1.038   1.679 -0.7352  1.5224  0.3770
 4555SOL    HW225128   2.228   1.017   1.625 -0.3156  0.4648 -0.3305
 4556SOL     OW25129   1.479   1.615  10.132 -0.4375 -0.1639  0.0311
 4556SOL    HW125130   1.530   1.592  10.210 -1.1255 -0.1724  0.4883
 4556SOL    HW225131   1.412   1.546  10.136 -1.7333  0.9792 -2.1895
 4557SOL     OW25132   3.241   0.796   5.697 -0.4844 -0.6602  0.0552
 4557SOL    HW125133   3.209   0.878   5.659  0.2496 -0.3980  0.0088
 4557SOL    HW225134   3.268   0.823   5.785 -1.4484  0.4255  0.0149
 4558SOL     OW25135   3.300   0.035   3.493 -0.2347  0.3535  0.0223
 4558SOL    HW125136   3.373   4.712   3.452 -0.7761 -0.7667  0.2769
 4558SOL    HW225137   3.264   4.696   3.557 -0.6656  0.8032  0.2150
 4559SOL     OW25138   1.865   0.134  15.662 -0.1524  0.4350 -0.1474
 4559SOL    HW125139   1.771   0.151  15.665 -0.0097  1.3621 -0.8441
 4559SOL    HW225140   1.867   0.053  15.610 -2.7187 -0.2852  0.8493
 4560SOL     OW25141   4.634   1.028   2.819  0.7078 -0.5877  0.3514
 4560SOL    HW125142   4.589   1.111   2.799  1.2788 -0.3314  0.1281
 4560SOL    HW225143   4.697   1.024   2.747 -0.1101 -0.0706 -0.3906
 4561SOL     OW25144   2.142   0.468  10.346  0.7794 -0.1479 -0.3773
 4561SOL    HW125145   2.151   0.445  10.254  0.9039  0.9132 -0.6347
 4561SOL    HW225146   2.214   0.530  10.356  1.8477 -1.5741  0.7565
 4562SOL     OW25147   1.435   1.979   8.237 -0.0465  0.6075 -0.1395
 4562SOL    HW125148   1.434   1.884   8.237  1.3210  0.5996 -0.3643
 4562SOL    HW225149   1.462   2.004   8.326  0.8547 -0.9260  0.0159
 4563SOL     OW25150   0.896   0.019  15.323  0.3270 -0.0283  0.1460
 4563SOL    HW125151   0.894   0.105  15.283 -2.4854 -0.0930  0.1307
 4563SOL    HW225152   0.835   0.026  15.397 -0.5434  0.9249 -0.6722
 4564SOL     OW25153   2.852   0.060   8.295  0.4659  0.1692 -0.0732
 4564SOL    HW125154   2.924   0.121   8.312 -1.2419  1.9569  0.6922
 4564SOL    HW225155   2.899   0.004   8.233  0.0001 -0.7150  0.3714
 4565SOL     OW25156   2.441   3.129   8.547  0.1553 -0.0070  0.2121
 4565SOL    HW125157   2.484   3.108   8.630 -1.6568  0.5440  1.3026
 4565SOL    HW225158   2.366   3.178   8.581  0.5821 -0.7288  2.1988
 4566SOL     OW25159   0.367   2.797   1.572  0.0445  0.0482 -0.0623
 4566SOL    HW125160   0.432   2.802   1.642  0.1666  0.0425 -0.1759
 4566SOL    HW225161   0.290   2.780   1.627 -1.0049  0.4036 -1.4310
 4567SOL     OW25162   2.478   0.151  17.096 -0.4023 -0.2101  0.4328
 4567SOL    HW125163   2.386   0.168  17.116 -0.0690  2.0177  0.0054
 4567SOL    HW225164   2.515   0.158  17.184 -0.7975 -1.1619  0.6813
 4568SOL     OW25165   0.622   3.155  11.355 -0.2235  0.5805  0.5033
 4568SOL    HW125166   0.599   3.152  11.262  2.2605  1.9457 -0.1643
 4568SOL    HW225167   0.717   3.153  11.340 -0.3298  2.3408 -0.4010
 4569SOL     OW25168   3.670   0.913   0.231 -0.2710  0.3658  0.2173
 4569SOL    HW125169   3.619   0.859   0.292 -0.1811 -1.2135 -1.1057
 4569SOL    HW225170   3.737   0.849   0.205  0.9344  1.0179  1.7370
 4570SOL     OW25171   1.103   1.362   6.773  0.9715  0.1811 -0.0108
 4570SOL    HW125172   1.025   1.338   6.723  2.3359 -1.1907 -1.4668
 4570SOL    HW225173   1.079   1.341   6.863 -1.3525  2.1289 -0.1724
 4571SOL     OW25174   0.234   2.768   4.225 -0.3703 -0.0648  0.0838
 4571SOL    HW125175   0.327   2.743   4.228 -0.8428 -1.6557  1.2558
 4571SOL    HW225176   0.249   2.861   4.206  2.7678 -0.3512  1.0844
 4572SOL     OW25177   0.972   1.779   3.773  0.3943 -0.2914 -0.1554
 4572SOL    HW125178   1.039   1.713   3.753  0.9322 -0.2463  1.4673
 4572SOL    HW225179   0.901   1.746   3.719 -2.1858  1.2934  2.2777
 4573SOL     OW25180   4.064   2.974   6.640 -0.5058 -0.4583 -0.1524
 4573SOL    HW125181   4.128   3.045   6.648 -0.8285 -0.2141  0.2604
 4573SOL    HW225182   3.998   3.005   6.702  0.3490  0.4288  0.3271
 4574SOL     OW25183   1.421   3.929   1.088  0.0763  0.2098 -0.0736
 4574SOL    HW125184   1.355   3.911   1.021 -1.2384  1.0031  1.0176
 4574SOL    HW225185   1.419   3.854   1.147  0.5512  1.3513  1.3897
 4575SOL     OW25186   4.004   3.395   3.324 -0.2568 -0.1957 -0.1554
 4575SOL    HW125187   3.997   3.468   3.263  1.5365 -0.6196 -0.9040
 4575SOL    HW225188   4.057   3.436   3.393 -1.1659  0.5045  0.1177
 4576SOL     OW25189   4.549   3.931  17.560 -0.2945  0.4235 -0.4469
 4576SOL    HW125190   4.632   3.955  17.599  1.1532 -1.5414 -2.2927
 4576SOL    HW225191   4.573   3.930  17.467 -1.1812 -0.4793 -0.6626
 4577SOL     OW25192   0.922   4.695   2.018 -0.1518  0.3079  0.0008
 4577SOL    HW125193   0.925   0.037   2.089 -0.0756 -1.1966  1.3600
 4577SOL    HW225194   0.835   4.658   2.035  0.1302 -0.1252  0.5131
 4578SOL     OW25195   1.283   2.105  11.530 -0.2060 -0.1124 -0.0518
 4578SOL    HW125196   1.236   2.147  11.602 -0.1561 -2.6929  1.4985
 4578SOL    HW225197   1.275   2.174  11.464  0.7536 -0.3047 -0.3581
 4579SOL     OW25198   0.752   0.563   4.775 -0.2111  0.3176 -0.1787
 4579SOL    HW125199   0.758   0.584   4.868  2.1414  3.3760 -1.0168
 4579SOL    HW225200   0.719   0.474   4.784  2.0716 -0.3304  1.5984
 4580SOL     OW25201   1.348   1.161   5.661 -0.1121 -0.2732 -0.0438
 4580SOL    HW125202   1.369   1.068   5.672 -0.1862 -0.2644  0.1718
 4580SOL    HW225203   1.258   1.168   5.693 -0.4314 -0.3525 -0.9331
 4581SOL     OW25204   3.442   2.087  11.816  0.6159  0.3338 -0.0249
 4581SOL    HW125205   3.434   2.011  11.875 -0.3910  0.4920  0.0398
 4581SOL    HW225206   3.352   2.117  11.815  0.4245 -0.2484 -0.2072
 4582SOL     OW25207   3.819   2.296   4.390 -0.0764 -0.0538  0.4681
 4582SOL    HW125208   3.818   2.323   4.482 -2.9562  0.0853  0.3872
 4582SOL    HW225209   3.875   2.366   4.356  0.3964 -0.2965  0.7432
 4583SOL     OW25210   3.652   0.457  12.703 -0.1855  0.0202  0.2905
 4583SOL    HW125211   3.698   0.422  12.779  1.6392 -2.4898 -1.9757
 4583SOL    HW225212   3.715   0.415  12.645  0.1741  1.5844 -0.4431
 4584SOL     OW25213   2.318   0.851  17.046 -0.7280  0.1630 -0.3386
 4584SOL    HW125214   2.320   0.942  17.076 -0.5771  0.2528 -0.6200
 4584SOL    HW225215   2.242   0.813  17.091  0.6625 -2.2507  0.0116
 4585SOL     OW25216   3.868   2.630  14.299 -0.1271 -0.3093 -0.4718
 4585SOL    HW125217   3.884   2.723  14.315 -1.4404 -0.2475  0.5238
 4585SOL    HW225218   3.956   2.592  14.295 -0.6156 -1.4148 -0.4975
 4586SOL     OW25219   2.837   1.581   4.803  0.1240 -0.5364  0.1720
 4586SOL    HW125220   2.854   1.585   4.709 -0.6822 -3.9784 -0.1178
 4586SOL    HW225221   2.866   1.490   4.814  0.3977 -0.4386  0.2644
 4587SOL     OW25222   1.237   1.587   1.413 -0.0147  0.2832  0.8255
 4587SOL    HW125223   1.304   1.590   1.345 -0.5757 -0.4099  0.2384
 4587SOL    HW225224   1.161   1.550   1.368 -0.6175  0.4732  1.6850
 4588SOL     OW25225   4.303   3.152   3.216 -0.1965  0.6263 -0.0188
 4588SOL    HW125226   4.317   3.058   3.204 -1.3151  0.4188  0.3686
 4588SOL    HW225227   4.312   3.146   3.311  1.0302 -0.8734 -0.2259
 4589SOL     OW25228   0.136   4.575   4.718  0.6075  0.9391  0.4776
 4589SOL    HW125229   0.165   4.510   4.782  0.9100 -0.7441 -1.3524
 4589SOL    HW225230   0.118   4.640   4.786 -1.6227 -0.2476  1.0556
 4590SOL     OW25231   1.905   3.057   6.685  0.2838 -0.1970 -0.5748
 4590SOL    HW125232   1.870   3.025   6.769  2.2875  1.6125  0.9298
 4590SOL    HW225233   1.875   3.147   6.685 -0.3986 -0.4303 -1.9787
 4591SOL     OW25234   2.033   2.881   5.406 -0.3184  0.1709 -0.0244
 4591SOL    HW125235   1.978   2.852   5.334  1.4973 -1.5236 -0.7367
 4591SOL    HW225236   2.049   2.793   5.440  0.6908  0.4138  0.1337
 4592SOL     OW25237   2.262   2.241   5.664 -0.2497 -0.0840 -0.0784
 4592SOL    HW125238   2.273   2.159   5.615  0.3896  0.2277 -0.4500
 4592SOL    HW225239   2.256   2.213   5.756  1.6493 -2.2065 -0.6061
 4593SOL     OW25240   0.063   1.423   7.656 -0.6362  0.0680  0.6385
 4593SOL    HW125241   0.057   1.496   7.718  0.8356  0.0537  0.8017
 4593SOL    HW225242   4.704   1.438   7.608 -0.0031  2.0399  0.1599
 4594SOL     OW25243   4.028   3.533  12.330  0.0219 -0.3346  0.1758
 4594SOL    HW125244   4.009   3.439  12.329  0.9948 -0.5209 -1.4307
 4594SOL    HW225245   4.043   3.542  12.236 -1.6355 -1.3115 -0.1882
 4595SOL     OW25246   2.771   0.075  17.077  1.0490  0.3081  0.8645
 4595SOL    HW125247   2.689   0.052  17.120  0.1903  0.3376 -0.7637
 4595SOL    HW225248   2.741   0.158  17.040 -2.1775 -0.1494  2.4839
 4596SOL     OW25249   2.687   1.412   5.743 -0.4646  0.1679 -0.2568
 4596SOL    HW125250   2.733   1.368   5.815  1.0763 -0.2745 -1.5229
 4596SOL    HW225251   2.631   1.343   5.709  0.9026 -3.2073  4.3148
 4597SOL     OW25252   2.163   4.017   2.885  0.6637  0.0742  0.0082
 4597SOL    HW125253   2.190   3.925   2.891  2.1042  0.5937  1.5836
 4597SOL    HW225254   2.214   4.049   2.960 -1.3834  0.6962  1.1414
 4598SOL     OW25255   3.535   0.822  14.217  0.0226 -0.2771 -0.4747
 4598SOL    HW125256   3.627   0.840  14.198 -0.3349  1.1755 -0.8279
 4598SOL    HW225257   3.539   0.728  14.203 -2.4264 -0.1543 -2.0337
 4599SOL     OW25258   1.517   4.608   7.609 -0.5447 -0.0719  0.0984
 4599SOL    HW125259   1.531   4.702   7.592 -3.3618  0.2228 -0.6113
 4599SOL    HW225260   1.427   4.621   7.640 -0.5378 -1.9121  0.8387
 4600SOL     OW25261   3.221   0.183  15.050 -0.1307 -0.6744 -0.2250
 4600SOL    HW125262   3.166   0.197  14.973 -1.8415  0.0664  1.0993
 4600SOL    HW225263   3.183   0.101  15.082 -2.1921 -0.3674 -1.9282
 4601SOL     OW25264   4.280   2.643  15.288  0.1412  0.0724 -0.2379
 4601SOL    HW125265   4.288   2.630  15.194 -3.4661  2.5133 -0.8645
 4601SOL    HW225266   4.269   2.737  15.294  1.8329  0.2181  0.7166
 4602SOL     OW25267   1.773   1.675   8.762  0.6028 -0.0049 -0.4145
 4602SOL    HW125268   1.738   1.739   8.700  0.7130  0.7278  0.2950
 4602SOL    HW225269   1.784   1.600   8.702  0.9997 -0.8289  0.6826
 4603SOL     OW25270   2.884   2.309  12.921 -0.0494 -0.2321  0.2786
 4603SOL    HW125271   2.813   2.245  12.931 -1.5331  1.4645  0.7438
 4603SOL    HW225272   2.843   2.386  12.882  1.2309  0.6073  0.6057
 4604SOL     OW25273   1.181   1.528   7.782 -0.3896  0.0776 -0.0537
 4604SOL    HW125274   1.140   1.464   7.725 -1.6553  0.3341  0.5559
 4604SOL    HW225275   1.108   1.576   7.822 -1.9978 -2.1633 -0.3006
 4605SOL     OW25276   0.059   3.761   9.493 -0.1377  0.1946 -0.3577
 4605SOL    HW125277   0.011   3.843   9.500  0.7006  0.5835  0.6912
 4605SOL    HW225278   0.066   3.743   9.399  0.2239 -1.2831 -0.0472
 4606SOL     OW25279   3.984   4.366   2.053  0.3679 -0.1885 -0.2991
 4606SOL    HW125280   4.026   4.444   2.090 -0.0742 -0.5107  0.8722
 4606SOL    HW225281   3.981   4.309   2.129 -2.0266 -0.7804 -0.8633
 4607SOL     OW25282   0.169   1.423   2.589  0.5805  0.0583 -0.2747
 4607SOL    HW125283   0.246   1.412   2.533 -1.0458  0.1279 -2.5423
 4607SOL    HW225284   0.193   1.355   2.651  0.1380  0.2577  0.1222
 4608SOL     OW25285   2.304   4.655   2.653 -0.1196 -0.2595 -0.4653
 4608SOL    HW125286   2.321   4.660   2.559 -1.2341  1.3657 -0.5902
 4608SOL    HW225287   2.218   4.614   2.656 -0.9350  1.6279  1.6475
 4609SOL     OW25288   1.651   2.300   0.655 -0.3203  0.5241 -0.3717
 4609SOL    HW125289   1.658   2.273   0.746  2.5689  0.8839 -0.4803
 4609SOL    HW225290   1.580   2.247   0.619  0.7183 -0.3042 -1.2103
 4610SOL     OW25291   4.595   4.442   8.890 -0.3000 -0.7942 -0.6309
 4610SOL    HW125292   4.615   4.452   8.983  0.1154  0.6589 -0.8810
 4610SOL    HW225293   4.680   4.467   8.853 -0.1455  0.5617  0.6234
 4611SOL     OW25294   0.104   1.444  11.589 -0.0137 -0.1733 -0.3761
 4611SOL    HW125295   0.070   1.454  11.678  0.2616  1.8733 -0.4946
 4611SOL    HW225296   0.092   1.350  11.573 -0.8818  0.0596 -1.1020
 4612SOL     OW25297   3.050   3.585  11.109  0.6861 -0.2864 -0.3451
 4612SOL    HW125298   3.029   3.644  11.181  1.8632  0.1694 -0.3689
 4612SOL    HW225299   3.131   3.552  11.148 -0.2923 -0.2148  1.7256
 4613SOL     OW25300   0.452   4.224  15.431 -0.5243  0.4627  0.1076
 4613SOL    HW125301   0.433   4.247  15.522 -0.0036 -1.1337  0.6021
 4613SOL    HW225302   0.531   4.174  15.449 -1.0506 -0.1712  0.6603
 4614SOL     OW25303   0.298   0.375   0.951  0.1425  0.0988 -0.4689
 4614SOL    HW125304   0.335   0.462   0.970 -1.1728  0.2157  1.6527
 4614SOL    HW225305   0.247   0.362   1.031  2.7298  1.1776  1.3595
 4615SOL     OW25306   0.174   4.428  10.703  0.0803  0.1154  0.0562
 4615SOL    HW125307   0.176   4.358  10.769 -0.0514  2.1797  2.2450
 4615SOL    HW225308   0.263   4.424  10.668 -0.5312  1.0618 -1.6064
 4616SOL     OW25309   0.891   3.576   9.760 -0.0992  0.2801 -0.3717
 4616SOL    HW125310   0.915   3.492   9.801 -0.5364 -0.3500 -1.3905
 4616SOL    HW225311   0.839   3.545   9.686  0.9042 -1.6418 -0.2933
 4617SOL     OW25312   4.038   2.089   4.033  0.2227  0.0324 -0.0501
 4617SOL    HW125313   3.947   2.110   4.014 -0.4267 -1.8018  0.9701
 4617SOL    HW225314   4.062   2.115   4.122 -0.9065  4.2259 -0.9723
 4618SOL     OW25315   0.074   0.415   4.506 -0.0708 -0.0216 -0.5752
 4618SOL    HW125316   0.101   0.454   4.589 -1.5387  1.1044 -0.6385
 4618SOL    HW225317   0.134   0.341   4.519 -1.2073 -0.6823  0.9896
 4619SOL     OW25318   2.679   0.319   4.866  0.0149 -0.0371 -0.4931
 4619SOL    HW125319   2.621   0.391   4.890 -1.1513 -0.7916 -1.0514
 4619SOL    HW225320   2.765   0.360   4.867  0.4999 -1.0927  1.2036
 4620SOL     OW25321   0.642   2.258   0.059  0.0307  0.2590 -0.3455
 4620SOL    HW125322   0.625   2.352   0.058 -0.0940  0.2230 -1.4970
 4620SOL    HW225323   0.565   2.230   0.108 -1.0034  0.3517 -1.9368
 4621SOL     OW25324   4.275   0.709   6.663  0.3290 -0.3332  0.0154
 4621SOL    HW125325   4.290   0.708   6.569 -0.1746  2.3144 -0.0827
 4621SOL    HW225326   4.224   0.789   6.667  0.2157 -0.3859 -0.4412
 4622SOL     OW25327   4.379   0.238  13.288  0.3142  0.0135  0.5165
 4622SOL    HW125328   4.329   0.306  13.242  0.9737  0.2099  0.0943
 4622SOL    HW225329   4.380   0.172  13.218  0.8135  0.5081  0.0601
 4623SOL     OW25330   3.560   0.107   5.070  0.3176 -0.4911 -0.0238
 4623SOL    HW125331   3.600   0.073   4.990  1.4178  0.9886 -0.1013
 4623SOL    HW225332   3.621   0.078   5.138 -0.2010 -0.9104  0.2683
 4624SOL     OW25333   1.380   0.800  16.567  0.1654  0.4787  0.5420
 4624SOL    HW125334   1.389   0.795  16.472 -0.6547 -1.6136  0.5700
 4624SOL    HW225335   1.385   0.709  16.597 -0.4758 -0.1531 -1.2758
 4625SOL     OW25336   3.950   1.693  17.523 -0.1374 -0.6611 -0.4580
 4625SOL    HW125337   3.995   1.665  17.444 -2.5470 -0.5752 -1.8662
 4625SOL    HW225338   4.021   1.698  17.587 -1.1322  1.5384  0.4747
 4626SOL     OW25339   1.693   2.925   6.009 -0.5409 -0.1892 -0.9451
 4626SOL    HW125340   1.720   2.899   5.921 -0.4496 -1.4945 -0.5332
 4626SOL    HW225341   1.744   3.003   6.028  0.8328 -1.5483  0.9200
 4627SOL     OW25342   2.788   1.894  17.242 -0.3031 -0.0714 -0.6112
 4627SOL    HW125343   2.854   1.873  17.176 -0.0631  1.9070 -0.9807
 4627SOL    HW225344   2.792   1.989  17.231 -2.2917  0.0093 -0.7021
 4628SOL     OW25345   0.101   2.496   9.285  0.5356  0.1883  0.1824
 4628SOL    HW125346   0.018   2.458   9.312  0.1207  1.3016  0.4974
 4628SOL    HW225347   0.069   2.582   9.257  2.3458  0.1596 -2.0150
 4629SOL     OW25348   2.773   1.933  17.527  0.8956  0.0156 -0.3345
 4629SOL    HW125349   2.812   1.913  17.442  0.4565  0.3220 -0.6061
 4629SOL    HW225350   2.848   1.962  17.579  0.5661 -1.3666  0.9067
 4630SOL     OW25351   0.539   3.740   5.169 -0.4055  0.2670  0.2372
 4630SOL    HW125352   0.482   3.760   5.095 -0.1313 -1.5134 -0.4786
 4630SOL    HW225353   0.606   3.808   5.166 -1.5053  1.2556 -1.6150
 4631SOL     OW25354   2.731   2.537   7.160 -0.7886  0.3771  0.3849
 4631SOL    HW125355   2.705   2.473   7.226  1.7603  0.8122  1.7763
 4631SOL    HW225356   2.824   2.521   7.149 -1.1020 -2.0265  1.3716
 4632SOL     OW25357   3.768   3.094   8.229  0.5451  0.2426  0.6770
 4632SOL    HW125358   3.821   3.099   8.309 -0.2045  0.4945  1.1611
 4632SOL    HW225359   3.825   3.147   8.174 -1.8071  2.3481  0.3084
 4633SOL     OW25360   2.985   0.517  10.349  0.5182  0.5327 -0.1051
 4633SOL    HW125361   3.056   0.530  10.287  0.0500 -0.0558 -0.7669
 4633SOL    HW225362   3.005   0.584  10.414  0.7080  2.1405 -1.8255
 4634SOL     OW25363   4.378   0.994   2.617  0.2067  0.6811 -0.0639
 4634SOL    HW125364   4.390   1.047   2.538  1.0485 -0.8484 -0.9514
 4634SOL    HW225365   4.411   0.909   2.589 -0.2022  0.5351 -0.1024
 4635SOL     OW25366   2.134   4.481   0.292  0.4138  0.2144  0.1611
 4635SOL    HW125367   2.192   4.409   0.316  2.6277  1.5801 -1.1704
 4635SOL    HW225368   2.047   4.440   0.290  0.9397 -0.8694 -0.0627
 4636SOL     OW25369   4.485   3.712   4.011  0.1362  0.3838 -0.4834
 4636SOL    HW125370   4.557   3.649   4.011 -0.4902 -0.3219  0.5512
 4636SOL    HW225371   4.477   3.738   4.103  0.2967  0.2005 -0.4179
 4637SOL     OW25372   2.236   3.910  10.476  0.4633  0.2050  0.0287
 4637SOL    HW125373   2.287   3.983  10.442 -0.7599  0.9105 -0.2872
 4637SOL    HW225374   2.293   3.852  10.526 -1.4024  0.4630  2.4484
 4638SOL     OW25375   3.057   1.813  14.063 -0.5074 -0.0971  0.4122
 4638SOL    HW125376   3.091   1.775  13.982 -2.4010 -1.4078  0.2289
 4638SOL    HW225377   3.025   1.900  14.040 -0.8440  0.0499  1.4357
 4639SOL     OW25378   3.989   0.008   5.312 -0.0502 -0.3197  0.3483
 4639SOL    HW125379   4.071   0.038   5.273  0.5047 -1.3486  0.7133
 4639SOL    HW225380   4.022   0.024   5.401  0.3925  0.7377 -0.0011
 4640SOL     OW25381   3.609   0.907   3.171  0.4382  0.3005 -0.5139
 4640SOL    HW125382   3.656   0.934   3.093  1.1496 -0.6390 -0.4157
 4640SOL    HW225383   3.564   0.986   3.200  2.5184  1.7502 -1.1987
 4641SOL     OW25384   3.063   2.024   0.371 -0.3005 -0.1139  0.0987
 4641SOL    HW125385   3.023   2.111   0.360  0.6425  0.4614  1.2215
 4641SOL    HW225386   2.992   1.965   0.348  0.9264 -1.5096 -0.0788
 4642SOL     OW25387   0.238   1.237  10.229 -0.5364 -0.2483  0.0203
 4642SOL    HW125388   0.255   1.158  10.177 -0.4483 -0.1409 -0.1172
 4642SOL    HW225389   0.156   1.272  10.193 -0.7999  0.0598  0.9382
 4643SOL     OW25390   1.577   1.134  12.972  0.0408  0.5743 -0.4541
 4643SOL    HW125391   1.617   1.137  13.059  0.4029 -2.1391 -0.5372
 4643SOL    HW225392   1.484   1.122  12.988  0.4119  0.2226  1.5103
 4644SOL     OW25393   2.151   2.178  10.276  0.4711  0.1553  0.5011
 4644SOL    HW125394   2.198   2.112  10.225  1.1534  1.2147 -0.2506
 4644SOL    HW225395   2.218   2.246  10.270  0.3210  0.2413 -0.2337
 4645SOL     OW25396   3.793   1.602   1.716  0.5727 -0.2327  0.2491
 4645SOL    HW125397   3.705   1.602   1.676  1.1154  0.5684 -0.9628
 4645SOL    HW225398   3.783   1.679   1.771 -1.4751 -0.1896 -0.1647
 4646SOL     OW25399   0.342   2.255  12.510  0.0314 -1.1378 -0.1895
 4646SOL    HW125400   0.335   2.159  12.516 -0.8966 -1.2334 -2.6478
 4646SOL    HW225401   0.393   2.278  12.588 -0.1414  3.1305 -1.3512
 4647SOL     OW25402   2.130   0.551   0.315 -0.3236 -0.2519  0.1588
 4647SOL    HW125403   2.112   0.457   0.323 -0.5632 -0.3877 -2.1261
 4647SOL    HW225404   2.050   0.573   0.268 -0.2853 -1.7812 -0.6259
 4648SOL     OW25405   1.679   2.055   6.275  0.4100 -0.1302 -0.1637
 4648SOL    HW125406   1.638   1.971   6.292 -0.3079  0.3481  0.4538
 4648SOL    HW225407   1.669   2.067   6.181 -0.0534 -1.9283 -0.3395
 4649SOL     OW25408   2.248   4.717   0.250 -0.3294 -0.3305 -0.3794
 4649SOL    HW125409   2.198   4.635   0.258 -2.9671  1.2805 -0.2710
 4649SOL    HW225410   2.295   4.715   0.333 -1.5626  0.6992  0.3282
 4650SOL     OW25411   3.023   4.572   8.224  0.0517 -0.1963  0.1048
 4650SOL    HW125412   3.047   4.540   8.310 -0.1633 -1.2275 -0.2199
 4650SOL    HW225413   2.984   4.492   8.189  0.9465 -0.7151  0.2915
 4651SOL     OW25414   3.203   1.488   1.788  0.2777 -0.2563  0.2216
 4651SOL    HW125415   3.123   1.437   1.783  1.0804 -1.4553 -0.2784
 4651SOL    HW225416   3.172   1.579   1.782  0.5006 -0.0209  2.5378
 4652SOL     OW25417   2.970   2.965   5.299 -0.0971  0.1940  0.5522
 4652SOL    HW125418   3.021   2.898   5.345  0.9135  1.1394  0.8099
 4652SOL    HW225419   2.960   3.039   5.359  2.4249  3.0244 -2.5262
 4653SOL     OW25420   0.432   2.012   7.704 -0.0880 -0.6184 -0.0602
 4653SOL    HW125421   0.412   1.919   7.713 -1.3305 -0.1438  2.1522
 4653SOL    HW225422   0.490   2.023   7.779  2.1031 -0.1420 -1.8225
 4654SOL     OW25423   3.937   4.073   5.688  0.0231 -0.3286  0.0233
 4654SOL    HW125424   3.923   4.128   5.765 -0.8153  1.7808 -1.6519
 4654SOL    HW225425   3.851   4.086   5.648 -1.1633  3.0161  3.6902
 4655SOL     OW25426   3.729   0.445   4.266  0.0250 -0.2015 -0.0672
 4655SOL    HW125427   3.805   0.413   4.314 -0.3514  0.9561  1.2995
 4655SOL    HW225428   3.674   0.367   4.255 -0.4939  0.2500 -0.6978
 4656SOL     OW25429   3.972   2.231  14.265 -0.3258 -0.0776  0.3405
 4656SOL    HW125430   3.935   2.144  14.247 -0.0158 -0.4726  1.5699
 4656SOL    HW225431   3.934   2.282  14.194 -1.5706 -2.7092 -0.9135
 4657SOL     OW25432   3.846   2.719  14.845  0.1271 -0.4501  0.2760
 4657SOL    HW125433   3.853   2.801  14.795  0.3403 -0.7289 -0.1515
 4657SOL    HW225434   3.857   2.646  14.784  0.3300 -0.4641  0.3299
 4658SOL     OW25435   2.610   1.110   4.038  0.6691 -0.1316  0.2259
 4658SOL    HW125436   2.628   1.169   4.111 -0.1787  1.8503 -1.1389
 4658SOL    HW225437   2.692   1.076   4.004  0.7032  0.6056 -0.4405
 4659SOL     OW25438   1.289   4.498  10.711  0.1214 -0.2161 -0.3113
 4659SOL    HW125439   1.211   4.457  10.749  1.4902  0.7543  3.5040
 4659SOL    HW225440   1.249   4.585  10.706  0.5089  0.0642  1.5819
 4660SOL     OW25441   3.967   4.125   9.210  0.2247  0.6325 -0.0705
 4660SOL    HW125442   3.981   4.049   9.266 -0.1708  0.3948 -0.2927
 4660SOL    HW225443   4.034   4.123   9.142 -0.1626  0.1652 -0.4412
 4661SOL     OW25444   4.120   1.662   4.069 -0.4443  0.2307 -0.0140
 4661SOL    HW125445   4.077   1.577   4.057 -0.4401  0.0456  1.2877
 4661SOL    HW225446   4.187   1.668   4.000 -0.3173  1.1140  0.1849
 4662SOL     OW25447   0.734   2.502   8.231  0.0164  0.5431  0.0981
 4662SOL    HW125448   0.740   2.432   8.296  1.2141  0.3849 -0.1780
 4662SOL    HW225449   0.828   2.510   8.214  0.5571  0.0680  2.8639
 4663SOL     OW25450   0.055   2.699   3.170  0.5854  0.0775 -0.3877
 4663SOL    HW125451   0.054   2.619   3.117 -0.4295 -0.3397  0.2658
 4663SOL    HW225452   0.023   2.669   3.255 -1.7185  1.9913 -0.5994
 4664SOL     OW25453   4.606   4.252   2.572 -0.3068  0.5346  0.3623
 4664SOL    HW125454   4.615   4.292   2.485  1.0671  0.7249  0.6048
 4664SOL    HW225455   4.655   4.174   2.546  0.7465  0.6616  1.9921
 4665SOL     OW25456   4.686   2.664  13.153 -0.2823 -0.7339  0.2333
 4665SOL    HW125457   4.719   2.742  13.198  0.6489 -1.4034  0.7102
 4665SOL    HW225458   4.647   2.696  13.071  0.9123 -0.9266 -0.4034
 4666SOL     OW25459   1.895   2.037  12.177  0.7626 -0.3937  0.2179
 4666SOL    HW125460   1.827   2.102  12.197  0.7686 -0.9730  2.0536
 4666SOL    HW225461   1.862   2.004  12.093  2.0026  1.1391 -0.8766
 4667SOL     OW25462   4.103   3.851  15.094 -0.0877 -0.2044  0.2618
 4667SOL    HW125463   4.067   3.782  15.040  0.3317 -0.7088  0.6242
 4667SOL    HW225464   4.146   3.905  15.028 -3.0523 -0.2753 -1.7495
 4668SOL     OW25465   3.388   3.494   9.272 -0.5766 -0.2191  0.1033
 4668SOL    HW125466   3.373   3.522   9.182  0.6362 -1.7971 -0.6099
 4668SOL    HW225467   3.302   3.457   9.289 -0.2929 -2.0503 -2.5298
 4669SOL     OW25468   3.211   1.491   0.341 -0.4777 -0.0940  0.4405
 4669SOL    HW125469   3.128   1.535   0.357 -0.1798 -0.2250  2.4217
 4669SOL    HW225470   3.214   1.473   0.247 -1.1014 -1.0475  0.6059
 4670SOL     OW25471   0.406   0.251   6.230  0.5202  0.1763  0.5581
 4670SOL    HW125472   0.473   0.206   6.281 -0.0923 -1.7495 -0.3584
 4670SOL    HW225473   0.383   0.327   6.285 -2.3393 -1.1159  1.1147
 4671SOL     OW25474   3.444   3.883   0.435  0.0154 -0.1608  0.2766
 4671SOL    HW125475   3.377   3.815   0.446 -0.3117 -0.0460 -1.0396
 4671SOL    HW225476   3.405   3.950   0.492  1.1712  0.5573  0.2036
 4672SOL     OW25477   4.645   2.443   6.719  0.2549  0.2237 -0.6358
 4672SOL    HW125478   4.713   2.379   6.696 -0.9289 -1.6910  1.2216
 4672SOL    HW225479   4.582   2.383   6.758  0.3793  1.5141  1.5674
 4673SOL     OW25480   2.264   2.037   7.436 -0.1380  0.1667 -0.1175
 4673SOL    HW125481   2.293   2.066   7.350  1.9140 -0.8732  0.2160
 4673SOL    HW225482   2.218   1.961   7.400 -2.8510  0.1880  3.2294
 4674SOL     OW25483   4.454   3.719  14.563 -0.0601  0.3249  0.0041
 4674SOL    HW125484   4.372   3.752  14.526  0.4077  0.5924 -0.8012
 4674SOL    HW225485   4.475   3.664  14.487 -2.9319 -1.3393  0.4268
 4675SOL     OW25486   4.125   2.701   4.554  0.3085 -0.2318 -0.2826
 4675SOL    HW125487   4.191   2.716   4.486 -1.1737 -0.5919 -1.7987
 4675SOL    HW225488   4.079   2.617   4.547 -0.9643  0.4310  0.2042
 4676SOL     OW25489   3.227   0.398   1.268  0.3634 -0.1949 -0.0921
 4676SOL    HW125490   3.177   0.470   1.306  2.0083  0.0636  1.5266
 4676SOL    HW225491   3.279   0.378   1.346 -2.2252  1.1260  1.9724
 4677SOL     OW25492   0.484   4.441   4.208 -0.0560 -0.2684  0.6408
 4677SOL    HW125493   0.577   4.429   4.228  0.0471  1.0302  0.9118
 4677SOL    HW225494   0.452   4.438   4.298  0.3206 -0.5517  0.7616
 4678SOL     OW25495   2.656   0.583  16.961 -0.0267  0.2348  0.1422
 4678SOL    HW125496   2.671   0.664  17.009  2.5311 -1.2648  1.8224
 4678SOL    HW225497   2.744   0.546  16.952  0.7609  1.5411  2.6593
 4679SOL     OW25498   3.398   3.926   4.782 -0.7048 -0.2075 -0.3941
 4679SOL    HW125499   3.453   3.855   4.816  0.1562  0.7109  0.1153
 4679SOL    HW225500   3.330   3.917   4.849  1.3375  1.4201  1.8847
 4680SOL     OW25501   3.067   2.950   2.632 -0.6456  0.1494  0.0759
 4680SOL    HW125502   3.055   2.856   2.635 -2.7374  0.4140  0.1502
 4680SOL    HW225503   3.161   2.952   2.651 -0.5440  1.6851 -0.5198
 4681SOL     OW25504   0.757   1.729   8.489  0.2936  0.3069  0.0512
 4681SOL    HW125505   0.798   1.775   8.561 -0.9620  0.2714  0.7800
 4681SOL    HW225506   0.781   1.638   8.508 -1.5568 -0.2377 -0.1503
 4682SOL     OW25507   0.887   2.946   8.825  0.5546 -0.7082  0.3834
 4682SOL    HW125508   0.843   2.996   8.757  0.3709 -1.2207  0.1188
 4682SOL    HW225509   0.972   2.990   8.833 -1.3436  2.8986  0.5239
 4683SOL     OW25510   3.799   0.159   1.565  0.4616  0.5302  0.0279
 4683SOL    HW125511   3.792   0.236   1.508  0.3556  1.2729  1.0518
 4683SOL    HW225512   3.894   0.153   1.572  0.3907 -0.4635  0.1489
 4684SOL     OW25513   0.343   3.389   5.924 -0.1404 -1.1394 -0.2351
 4684SOL    HW125514   0.384   3.303   5.914  0.9779 -0.8192  1.6122
 4684SOL    HW225515   0.262   3.387   5.873 -0.1769 -1.5201 -0.1599
 4685SOL     OW25516   1.742   2.205   5.021  0.4048 -0.3212 -0.9466
 4685SOL    HW125517   1.787   2.287   4.998 -1.2352  0.5599 -0.9853
 4685SOL    HW225518   1.691   2.194   4.941 -1.8434  0.7551  0.3341
 4686SOL     OW25519   4.012   1.501   3.224 -0.3974  0.4255  0.5416
 4686SOL    HW125520   4.062   1.439   3.170  0.0756  1.8085 -0.5868
 4686SOL    HW225521   4.086   1.533   3.276 -0.3878  2.7242 -0.9483
 4687SOL     OW25522   2.578   4.006   7.383  0.7528  0.0367 -0.2720
 4687SOL    HW125523   2.554   4.028   7.473  3.7017  0.6153  0.3887
 4687SOL    HW225524   2.491   3.990   7.347  1.1070 -0.8838 -0.7218
 4688SOL     OW25525   0.365   4.653   3.094 -0.5232  0.4124 -0.1299
 4688SOL    HW125526   0.399   4.580   3.042 -2.1331  0.0983 -0.7388
 4688SOL    HW225527   0.278   4.613   3.102  0.1649  0.0907  5.7817
 4689SOL     OW25528   4.462   2.659  11.827 -0.5456  0.3105 -0.6482
 4689SOL    HW125529   4.427   2.747  11.843 -0.0369 -0.0608  2.5724
 4689SOL    HW225530   4.555   2.666  11.850 -1.0309  1.4873  1.0038
 4690SOL     OW25531   3.159   0.367   4.074  0.2184  0.3529 -0.0079
 4690SOL    HW125532   3.104   0.383   4.151 -0.4407  0.3074 -0.4734
 4690SOL    HW225533   3.215   0.444   4.063  1.5635 -0.2354  2.6918
 4691SOL     OW25534   0.732   0.520   5.563 -0.0092  0.6616  0.8763
 4691SOL    HW125535   0.796   0.575   5.607  1.3163  0.5963 -0.9680
 4691SOL    HW225536   0.658   0.551   5.616 -0.2258  1.6364 -0.0049
 4692SOL     OW25537   0.874   2.149   2.654 -0.0098  0.5285  0.8494
 4692SOL    HW125538   0.857   2.234   2.614 -1.0016 -0.4442 -0.7548
 4692SOL    HW225539   0.842   2.168   2.742 -0.6963  0.9211  0.5109
 4693SOL     OW25540   0.813   3.250   4.349 -0.0472  0.0663 -0.3732
 4693SOL    HW125541   0.877   3.232   4.280 -0.9840 -1.0537 -0.9481
 4693SOL    HW225542   0.834   3.339   4.379 -1.3315  0.9879 -2.1930
 4694SOL     OW25543   0.808   3.520   8.257  0.2974  0.0115 -0.4094
 4694SOL    HW125544   0.840   3.431   8.273 -0.0710 -0.3769 -1.8302
 4694SOL    HW225545   0.866   3.534   8.181  1.6481  1.7952  0.9397
 4695SOL     OW25546   1.860   0.785  16.697 -0.1529 -0.3105 -0.2456
 4695SOL    HW125547   1.923   0.854  16.675  0.3224 -0.4371  0.7468
 4695SOL    HW225548   1.842   0.811  16.787 -4.0159 -1.7287 -0.5946
 4696SOL     OW25549   3.574   0.213  11.733 -0.0268  0.3936  0.1517
 4696SOL    HW125550   3.596   0.136  11.784 -0.2882  1.5106  1.9466
 4696SOL    HW225551   3.485   0.198  11.700  0.7219 -0.6938 -1.3685
 4697SOL     OW25552   3.336   4.464  16.689  0.0714 -0.3161  0.0859
 4697SOL    HW125553   3.261   4.448  16.631  0.1217  1.9786 -0.6027
 4697SOL    HW225554   3.296   4.514  16.760  0.7303  2.4540 -1.4840
 4698SOL     OW25555   2.270   3.412   9.462 -0.2049 -0.0548 -0.1389
 4698SOL    HW125556   2.261   3.355   9.387 -2.3382  0.0619  0.0454
 4698SOL    HW225557   2.200   3.379   9.518 -0.7655  0.8079 -0.3353
 4699SOL     OW25558   3.824   3.697   0.211  0.0054 -0.0692 -0.6455
 4699SOL    HW125559   3.857   3.738   0.131 -0.7145 -0.1819 -1.0042
 4699SOL    HW225560   3.788   3.775   0.253  1.3488 -0.4175  1.1291
 4700SOL     OW25561   1.289   4.030  17.290 -0.5300  0.1386 -0.1259
 4700SOL    HW125562   1.376   4.062  17.313 -0.2115 -1.3608  0.8185
 4700SOL    HW225563   1.263   4.091  17.221  2.1433 -0.1645 -1.3685
 4701SOL     OW25564   2.908   1.462   3.307  0.1341 -0.0109  0.2869
 4701SOL    HW125565   2.968   1.460   3.381  3.0216  0.2772 -2.0741
 4701SOL    HW225566   2.946   1.398   3.247  0.1721 -0.1224  0.4306
 4702SOL     OW25567   3.657   2.844   9.504  0.2845 -0.0934  0.1796
 4702SOL    HW125568   3.569   2.854   9.540  0.2756  0.9721 -0.1569
 4702SOL    HW225569   3.701   2.896   9.572 -0.7810 -1.6724  2.0993
 4703SOL     OW25570   2.013   4.122   8.524  0.0807 -0.1861  0.1469
 4703SOL    HW125571   1.956   4.139   8.449  0.6501  1.3068  0.0488
 4703SOL    HW225572   1.944   4.110   8.588  0.6989  0.1434  0.8699
 4704SOL     OW25573   2.480   3.217   0.447 -0.3746 -0.2790  0.0828
 4704SOL    HW125574   2.477   3.134   0.399 -1.4373 -0.7907  1.0367
 4704SOL    HW225575   2.443   3.274   0.379  0.5615  1.4193  1.0016
 4705SOL     OW25576   2.373   2.158  11.974  0.7455  0.3890 -0.2512
 4705SOL    HW125577   2.297   2.127  12.024 -1.6212  1.4144 -3.2231
 4705SOL    HW225578   2.357   2.252  11.974 -1.6586 -0.0317  0.6029
 4706SOL     OW25579   3.974   3.126   8.395 -0.3825 -0.1034  0.5192
 4706SOL    HW125580   3.990   3.054   8.456  0.7621 -0.1922  0.1218
 4706SOL    HW225581   4.058   3.118   8.350 -0.7895 -0.7719 -0.1359
 4707SOL     OW25582   3.195   3.973   8.284 -0.0060  0.3349 -0.0386
 4707SOL    HW125583   3.243   4.010   8.210  1.5407 -0.8389  0.3747
 4707SOL    HW225584   3.266   3.971   8.348 -1.6931 -1.0522  1.8083
 4708SOL     OW25585   4.022   0.385   5.183 -0.0987 -0.4958  0.5401
 4708SOL    HW125586   4.101   0.435   5.199 -0.9882  2.2447 -3.5394
 4708SOL    HW225587   4.032   0.323   5.255  2.2319  0.8579  1.3633
 4709SOL     OW25588   2.953   2.900   1.856 -0.2517 -0.1676 -0.6543
 4709SOL    HW125589   2.927   2.911   1.947 -0.1145 -3.9897 -0.1649
 4709SOL    HW225590   2.917   2.978   1.813 -0.6801 -0.8194 -1.4668
 4710SOL     OW25591   3.182   0.090  13.187 -0.4277 -0.2205 -0.2686
 4710SOL    HW125592   3.261   0.038  13.176  0.1532  0.6138 -0.0344
 4710SOL    HW225593   3.203   0.154  13.255  0.0452  0.7334 -1.3108
 4711SOL     OW25594   2.312   3.918   8.615  0.7465  0.2620 -0.2351
 4711SOL    HW125595   2.397   3.938   8.654  2.2322 -1.9025 -2.3798
 4711SOL    HW225596   2.288   3.852   8.679 -0.0942  0.2906 -0.5236
 4712SOL     OW25597   3.322   3.107   1.732 -0.1185 -0.3411 -0.1383
 4712SOL    HW125598   3.249   3.091   1.673 -0.9594  1.9560  0.2521
 4712SOL    HW225599   3.346   3.198   1.712 -1.2937 -0.0243 -0.1288
 4713SOL     OW25600   0.423   0.469   5.045  0.4065  0.3128  0.2681
 4713SOL    HW125601   0.517   0.451   5.053  0.2531 -0.4746  0.2770
 4713SOL    HW225602   0.424   0.539   4.979  2.2872 -0.5367 -0.5904
 4714SOL     OW25603   4.573   4.132   9.020 -0.0655 -0.2683 -0.0906
 4714SOL    HW125604   4.559   4.042   8.989 -2.7924  0.0760  0.1488
 4714SOL    HW225605   4.661   4.127   9.056 -0.2399 -0.1004  0.3509
 4715SOL     OW25606   0.190   0.582   5.257  0.9709  1.2272  0.2910
 4715SOL    HW125607   0.279   0.601   5.287  1.1902  0.8139 -0.1135
 4715SOL    HW225608   0.170   0.523   5.330  3.1024 -1.6963 -1.4911
 4716SOL     OW25609   1.822   3.197   6.352  0.2280  0.1842 -0.3222
 4716SOL    HW125610   1.780   3.111   6.342  0.7317 -0.3349  1.7931
 4716SOL    HW225611   1.915   3.182   6.337  0.4914 -0.2204  1.6118
 4717SOL     OW25612   1.635   0.431   0.427  0.1871 -0.6246  0.2021
 4717SOL    HW125613   1.625   0.488   0.351  1.9096 -0.4666  0.0986
 4717SOL    HW225614   1.639   0.351   0.376 -0.1077 -1.2328  1.1189
 4718SOL     OW25615   1.155   0.549  15.567 -0.3322  0.5012 -0.2937
 4718SOL    HW125616   1.083   0.551  15.504 -0.4256 -0.3655 -0.2193
 4718SOL    HW225617   1.227   0.555  15.504  0.5874 -0.5058  0.6580
 4719SOL     OW25618   0.213   1.258   4.751 -0.6299 -0.0365  0.0278
 4719SOL    HW125619   0.251   1.344   4.734  0.2681 -0.3083  0.6184
 4719SOL    HW225620   0.150   1.272   4.821 -0.6749  0.0697 -0.0343
 4720SOL     OW25621   3.768   0.750   3.828 -0.3028  0.6020 -0.0682
 4720SOL    HW125622   3.678   0.738   3.799  0.0578  0.0036 -0.9163
 4720SOL    HW225623   3.765   0.846   3.831 -2.8179  0.4063  4.1758
 4721SOL     OW25624   1.157   2.611   0.898  0.2603 -0.0050  0.5951
 4721SOL    HW125625   1.192   2.522   0.908  3.2877  1.2370  0.9947
 4721SOL    HW225626   1.065   2.588   0.886  0.4842 -0.5739 -0.0135
 4722SOL     OW25627   2.404   2.627   1.518  0.4665 -0.7113  0.4144
 4722SOL    HW125628   2.467   2.622   1.447  2.8153  0.1846  2.4445
 4722SOL    HW225629   2.331   2.669   1.473  0.3133  0.1110  1.4361
 4723SOL     OW25630   1.636   2.317  14.625  0.0251 -0.2423  0.5068
 4723SOL    HW125631   1.670   2.246  14.571 -2.5872 -1.4699  0.5090
 4723SOL    HW225632   1.690   2.393  14.601 -2.0649  0.9361 -0.4382
 4724SOL     OW25633   3.631   1.918   6.247 -0.1439  0.0616 -0.3534
 4724SOL    HW125634   3.587   1.861   6.184 -0.7612 -1.1543  1.1813
 4724SOL    HW225635   3.583   1.908   6.329  2.2989 -1.9045  0.7991
 4725SOL     OW25636   3.884   0.099   3.983  0.7231  0.7100 -0.4345
 4725SOL    HW125637   3.860   0.101   4.076  0.9392 -0.7675 -0.3479
 4725SOL    HW225638   3.883   0.192   3.961  1.9983  0.9410  0.4543
 4726SOL     OW25639   3.158   4.452  14.151 -0.1588 -0.3270  0.1501
 4726SOL    HW125640   3.114   4.466  14.235 -0.1266 -0.9762  0.2740
 4726SOL    HW225641   3.099   4.497  14.091  0.0009  0.6096  0.6845
 4727SOL     OW25642   4.130   2.623   2.554 -0.1044 -0.2671  0.2295
 4727SOL    HW125643   4.185   2.627   2.633  0.5014 -0.3719 -0.1898
 4727SOL    HW225644   4.056   2.569   2.580 -0.5490  0.7273  1.0474
 4728SOL     OW25645   0.438   1.047   2.216  0.0275 -0.7854 -0.1322
 4728SOL    HW125646   0.465   1.120   2.161 -0.5216 -0.6015 -0.1563
 4728SOL    HW225647   0.372   1.097   2.263  2.3030  2.9396 -0.9456
 4729SOL     OW25648   3.387   1.565   4.038 -0.1708 -0.0905  0.1515
 4729SOL    HW125649   3.433   1.483   4.053 -0.1005  0.2758  1.9475
 4729SOL    HW225650   3.424   1.607   4.116 -1.9754  0.5418  0.6690
 4730SOL     OW25651   1.536   1.985   5.875  0.0270  0.1971  0.7151
 4730SOL    HW125652   1.588   1.914   5.913  2.0645  0.7000 -1.1439
 4730SOL    HW225653   1.603   2.036   5.830  0.0887 -0.9130 -0.4824
 4731SOL     OW25654   4.393   3.623  16.273 -0.3996 -0.4273 -0.3328
 4731SOL    HW125655   4.375   3.691  16.209 -0.1622 -0.3910 -0.3621
 4731SOL    HW225656   4.432   3.672  16.346  0.0405  0.1042 -0.9319
 4732SOL     OW25657   4.171   3.967   4.169 -0.3074 -0.8902 -0.0639
 4732SOL    HW125658   4.120   4.017   4.105 -0.7554 -0.4050  0.6684
 4732SOL    HW225659   4.177   3.880   4.130 -3.5355 -0.3733 -1.7126
 4733SOL     OW25660   3.696   2.694  12.743  0.2219 -0.6165  0.6102
 4733SOL    HW125661   3.629   2.697  12.811 -0.3046 -0.2633  0.0843
 4733SOL    HW225662   3.667   2.633  12.675  1.3529  0.4206 -0.8107
 4734SOL     OW25663   1.321   3.375  12.168 -0.2079 -0.2799 -0.0721
 4734SOL    HW125664   1.321   3.280  12.181  0.5913 -0.2616  0.0955
 4734SOL    HW225665   1.390   3.402  12.229 -1.6377  1.2573  0.8739
 4735SOL     OW25666   2.790   3.368   3.186  0.4872  0.0056 -0.2552
 4735SOL    HW125667   2.881   3.373   3.217  0.1174 -4.0262  1.6200
 4735SOL    HW225668   2.776   3.415   3.104  0.8660  0.3356 -0.1300
 4736SOL     OW25669   2.776   0.681   0.554 -0.2021  0.2313  0.5667
 4736SOL    HW125670   2.825   0.605   0.521  1.8906  1.2256  1.3675
 4736SOL    HW225671   2.709   0.678   0.486  1.6294 -1.5812 -1.1679
 4737SOL     OW25672   1.431   3.129   6.482  0.2019  0.3116 -0.0364
 4737SOL    HW125673   1.393   3.174   6.406 -0.4218  1.4877  0.9726
 4737SOL    HW225674   1.396   3.041   6.471 -0.8838  0.5245  1.7354
 4738SOL     OW25675   1.698   3.937   3.170  0.1768 -0.2380 -0.1473
 4738SOL    HW125676   1.682   3.843   3.158 -1.6236  0.2322 -1.5240
 4738SOL    HW225677   1.791   3.940   3.192  0.0623  1.7610  0.0530
 4739SOL     OW25678   1.804   0.926  11.427 -0.0006 -0.1234  0.3148
 4739SOL    HW125679   1.879   0.929  11.367  0.2234  2.2893  0.7256
 4739SOL    HW225680   1.780   0.834  11.415  1.4897 -0.7733  2.3382
 4740SOL     OW25681   3.724   3.103   7.756 -0.0249  0.3731  0.2322
 4740SOL    HW125682   3.721   3.196   7.776 -1.7597 -0.2183  2.7534
 4740SOL    HW225683   3.754   3.072   7.842 -1.4296 -0.8647  0.2843
 4741SOL     OW25684   1.736   0.863  17.387 -0.2847 -0.1160 -0.0903
 4741SOL    HW125685   1.784   0.925  17.332 -0.5979  1.2782  1.2210
 4741SOL    HW225686   1.688   0.823  17.314  0.1662 -0.6353 -0.1042
 4742SOL     OW25687   4.038   0.821  12.317 -0.6029  0.4300  0.2920
 4742SOL    HW125688   3.989   0.752  12.360 -1.9210  0.4745 -1.1257
 4742SOL    HW225689   4.113   0.831  12.376 -0.1466 -0.2660 -0.1646
 4743SOL     OW25690   4.196   1.761   2.476 -0.3098  0.2061  0.0357
 4743SOL    HW125691   4.124   1.725   2.527  2.0326 -0.9141  2.5281
 4743SOL    HW225692   4.206   1.692   2.411 -0.3744 -0.0166  0.2625
 4744SOL     OW25693   4.247   2.446   3.189  0.0396  0.0077 -0.0697
 4744SOL    HW125694   4.159   2.426   3.220  0.3186  0.7723  1.2156
 4744SOL    HW225695   4.232   2.412   3.101  1.0562  1.4047 -0.7780
 4745SOL     OW25696   3.768   1.988   6.701  0.3943 -0.0302 -0.2840
 4745SOL    HW125697   3.768   1.990   6.605  0.2053 -0.5296 -0.2950
 4745SOL    HW225698   3.858   2.016   6.716 -0.1321  2.6997 -2.1607
 4746SOL     OW25699   1.346   3.152   9.637 -0.2335  0.1175 -0.1082
 4746SOL    HW125700   1.351   3.129   9.730 -0.8043 -0.0004 -0.1091
 4746SOL    HW225701   1.374   3.074   9.589  1.1605  1.9644 -2.3398
 4747SOL     OW25702   2.060   4.677   3.157 -0.5712 -0.1520  0.6249
 4747SOL    HW125703   2.147   4.642   3.173  0.1530  1.1871 -0.3710
 4747SOL    HW225704   2.083   0.048   3.156  2.0651 -0.8291  0.0045
 4748SOL     OW25705   1.066   0.567  13.990 -0.0313  0.0426  0.1337
 4748SOL    HW125706   1.096   0.644  14.037  0.3050 -0.8731  1.4314
 4748SOL    HW225707   1.141   0.559  13.930  0.1479 -1.7883  0.5828
 4749SOL     OW25708   2.498   1.082   2.576  0.5307 -0.3537  0.1782
 4749SOL    HW125709   2.473   1.081   2.668  0.2907  2.1839  0.1402
 4749SOL    HW225710   2.438   1.020   2.535  3.2094 -1.2179 -2.4011
 4750SOL     OW25711   0.513   0.265  13.031 -0.1835 -0.2843  0.1712
 4750SOL    HW125712   0.514   0.293  13.122 -0.0176 -0.6578  0.2825
 4750SOL    HW225713   0.589   0.315  12.999  0.3619 -2.7186 -2.3434
 4751SOL     OW25714   2.481   1.815   8.386 -0.0285 -0.3456  0.3584
 4751SOL    HW125715   2.494   1.883   8.452 -1.7764  0.2681  0.0582
 4751SOL    HW225716   2.450   1.865   8.310  1.0671  0.4225  0.4052
 4752SOL     OW25717   2.238   2.545   6.097  0.4956  0.1046 -0.4504
 4752SOL    HW125718   2.201   2.525   6.010 -1.3584  0.7988  0.1640
 4752SOL    HW225719   2.154   2.557   6.142  0.5184 -0.7744 -0.1848
 4753SOL     OW25720   0.247   0.893  17.486  0.7255  0.0113  0.5132
 4753SOL    HW125721   0.303   0.815  17.488 -0.0088 -0.4658  2.6477
 4753SOL    HW225722   0.263   0.934  17.571 -0.5934  0.4334  0.5453
 4754SOL     OW25723   1.168   3.228   5.374  0.0451 -0.2374  0.0856
 4754SOL    HW125724   1.255   3.239   5.411  0.2222 -1.1072 -0.0750
 4754SOL    HW225725   1.116   3.275   5.439  2.2140 -2.3303  3.3355
 4755SOL     OW25726   1.492   2.173   5.639  0.1250 -0.0269 -0.0721
 4755SOL    HW125727   1.521   2.085   5.615 -2.7086 -1.8107  3.0442
 4755SOL    HW225728   1.549   2.220   5.577  2.4166 -2.2929  0.3496
 4756SOL     OW25729   0.423   0.537  13.938 -0.0235  0.6918 -0.0956
 4756SOL    HW125730   0.341   0.547  13.888  2.0001 -0.8441 -3.7462
 4756SOL    HW225731   0.483   0.500  13.874 -1.0090  1.7788 -1.6683
 4757SOL     OW25732   0.005   0.060  17.199 -0.0086 -0.8229 -0.1673
 4757SOL    HW125733   0.024   0.127  17.265  0.3171 -1.6470  0.5748
 4757SOL    HW225734   4.638   0.034  17.223  0.2185 -0.3666  1.2024
 4758SOL     OW25735   4.365   0.563  10.046  0.1843  0.1239 -0.0901
 4758SOL    HW125736   4.314   0.495  10.090  1.3617 -0.4569  0.4053
 4758SOL    HW225737   4.389   0.616  10.122 -3.0860 -0.5978  1.4536
 4759SOL     OW25738   3.240   3.782   8.686  0.2204  0.4518  0.8012
 4759SOL    HW125739   3.215   3.780   8.593  1.2988 -1.3313  0.5381
 4759SOL    HW225740   3.183   3.719   8.730 -2.3840  0.9237 -1.8391
 4760SOL     OW25741   3.808   3.666   6.369 -0.8355  0.3021 -0.3197
 4760SOL    HW125742   3.789   3.580   6.406  0.6118  0.2110  0.1893
 4760SOL    HW225743   3.748   3.726   6.414 -0.5276  0.2777  0.1225
 4761SOL     OW25744   0.251   3.975   9.775 -0.2775 -0.1814 -0.7989
 4761SOL    HW125745   0.221   3.885   9.770  1.4008 -0.5667 -3.4555
 4761SOL    HW225746   0.234   3.988   9.869 -2.1202  0.9113 -1.2808
 4762SOL     OW25747   3.315   1.517  12.194 -0.3167  0.3030  0.3426
 4762SOL    HW125748   3.366   1.448  12.235 -0.5858  0.6803  1.3143
 4762SOL    HW225749   3.292   1.569  12.271  0.1390  0.0207  0.6691
 4763SOL     OW25750   4.390   2.387   7.026 -0.2645 -0.0768  0.7688
 4763SOL    HW125751   4.479   2.415   7.049 -0.3718  0.8118  0.1072
 4763SOL    HW225752   4.410   2.330   6.951 -0.4241 -0.3508  0.9358
 4764SOL     OW25753   3.636   1.989   5.490  0.3520  0.2210  0.1554
 4764SOL    HW125754   3.604   2.065   5.441  1.6825  0.8286  0.2217
 4764SOL    HW225755   3.726   1.996   5.458  0.8102 -1.6328  1.0543
 4765SOL     OW25756   1.627   3.142  11.145  0.2214 -0.0800 -0.4362
 4765SOL    HW125757   1.627   3.106  11.234  2.1311 -1.5915 -1.0632
 4765SOL    HW225758   1.534   3.163  11.132  0.2645 -0.9095 -2.0873
 4766SOL     OW25759   1.835   4.341   8.040  0.4063  0.0166  0.0092
 4766SOL    HW125760   1.849   4.274   7.973 -0.1854  0.7275 -0.8174
 4766SOL    HW225761   1.742   4.322   8.053  0.7425 -2.9184 -1.8821
 4767SOL     OW25762   2.615   2.723   7.930  0.2146 -0.1007  0.3843
 4767SOL    HW125763   2.630   2.717   7.836 -0.0714  4.1864  0.0627
 4767SOL    HW225764   2.645   2.812   7.951 -1.2382  0.4966 -0.0500
 4768SOL     OW25765   0.902   3.621   5.225 -0.0672 -0.0729  0.4509
 4768SOL    HW125766   0.976   3.586   5.174 -0.3892  0.5326 -0.4320
 4768SOL    HW225767   0.892   3.712   5.196  0.6562  0.1390  0.8634
 4769SOL     OW25768   1.620   4.222   4.013 -0.2698  0.4465 -0.2907
 4769SOL    HW125769   1.527   4.203   4.001 -0.7668  2.0232  0.9765
 4769SOL    HW225770   1.634   4.201   4.105  0.8223 -0.0968 -0.5878
 4770SOL     OW25771   4.613   4.438  10.861  0.1751  0.4761  0.3690
 4770SOL    HW125772   4.659   4.509  10.907 -2.3850  0.3583  3.0480
 4770SOL    HW225773   4.524   4.468  10.845  0.7442  1.9713 -0.0504
 4771SOL     OW25774   0.273   2.129   1.555  0.3353  0.3863 -0.0287
 4771SOL    HW125775   0.243   2.086   1.474  0.0684 -0.4370  0.5044
 4771SOL    HW225776   0.264   2.221   1.531 -0.3233  0.4571  0.4693
 4772SOL     OW25777   1.548   0.756   5.568  0.5797  0.0551 -0.5956
 4772SOL    HW125778   1.481   0.775   5.502  0.3076 -3.2044 -1.2564
 4772SOL    HW225779   1.625   0.802   5.535  0.6382 -0.1531 -0.7534
 4773SOL     OW25780   3.827   4.426   6.079  0.0602  0.1319 -0.2397
 4773SOL    HW125781   3.904   4.472   6.114  1.5003 -0.5432 -2.5181
 4773SOL    HW225782   3.784   4.380   6.151  0.3553  1.3750  0.7425
 4774SOL     OW25783   3.430   4.139   6.901 -0.1303  0.4906  0.2830
 4774SOL    HW125784   3.489   4.112   6.971 -0.9036 -0.6324  0.5015
 4774SOL    HW225785   3.375   4.204   6.945  0.2887  1.5832 -0.8124
 4775SOL     OW25786   2.073   4.427  11.064  0.1597 -0.2568 -0.4563
 4775SOL    HW125787   2.087   4.511  11.107  1.0548 -0.5694 -0.1506
 4775SOL    HW225788   2.147   4.382  11.103 -0.3296  1.1366  2.0197
 4776SOL     OW25789   4.423   2.848   8.914  0.0606  0.1378  0.4643
 4776SOL    HW125790   4.425   2.771   8.858 -3.8217  1.4083 -1.3634
 4776SOL    HW225791   4.508   2.889   8.893  0.9273 -1.1540  1.4639
 4777SOL     OW25792   0.651   3.547   6.334  0.6186 -0.0221  0.1303
 4777SOL    HW125793   0.604   3.518   6.413 -0.3454  0.2507 -0.3425
 4777SOL    HW225794   0.724   3.487   6.320 -0.2243 -0.8260 -0.7784
 4778SOL     OW25795   4.591   1.758  10.308 -0.2539 -0.2221 -0.3877
 4778SOL    HW125796   4.666   1.748  10.367 -0.4238 -2.0487 -0.4918
 4778SOL    HW225797   4.524   1.693  10.330  0.8697 -1.3487 -0.3222
 4779SOL     OW25798   3.439   0.481   8.909  0.6597 -0.3517 -0.1143
 4779SOL    HW125799   3.533   0.476   8.929  0.0909  0.9608  2.9512
 4779SOL    HW225800   3.406   0.525   8.987  1.3724  0.5497 -0.3163
 4780SOL     OW25801   2.073   0.622   7.212  0.8760  0.1480 -0.0170
 4780SOL    HW125802   1.990   0.640   7.254  2.6007  1.3151  2.8514
 4780SOL    HW225803   2.135   0.682   7.254  0.6292  1.3048 -1.3055
 4781SOL     OW25804   0.160   0.540   6.228 -0.0528 -0.4453  0.1050
 4781SOL    HW125805   0.231   0.512   6.285 -1.4076  2.3940  3.1519
 4781SOL    HW225806   0.100   0.467   6.243 -1.0600  0.0333 -1.6072
 4782SOL     OW25807   3.973   3.321   3.832 -0.0345 -0.1860  0.6109
 4782SOL    HW125808   3.884   3.286   3.832 -0.2057  0.2423 -0.8724
 4782SOL    HW225809   4.020   3.245   3.866  0.5398 -0.3975 -0.6410
 4783SOL     OW25810   0.418   0.423   8.798  0.2426 -0.1053 -0.2445
 4783SOL    HW125811   0.481   0.359   8.765 -0.5261 -0.1637 -1.6031
 4783SOL    HW225812   0.340   0.368   8.784 -1.6193  2.1769  1.2156
 4784SOL     OW25813   3.848   1.060   1.694  0.2564  0.3582 -0.5667
 4784SOL    HW125814   3.809   1.078   1.608 -1.0215  3.0017  0.5661
 4784SOL    HW225815   3.774   1.006   1.724  1.4292 -0.8281  0.1643
 4785SOL     OW25816   1.727   0.226   2.464 -0.1627  0.7929 -0.0144
 4785SOL    HW125817   1.640   0.186   2.462  0.7764 -1.2911  0.5304
 4785SOL    HW225818   1.775   0.146   2.443 -1.5878  0.2053 -1.0619
 4786SOL     OW25819   0.469   3.112   0.916 -0.1183  0.0770  0.1653
 4786SOL    HW125820   0.489   3.080   0.827  0.5485  1.3870 -0.1442
 4786SOL    HW225821   0.411   3.043   0.948  0.6110  0.2494  1.8359
 4787SOL     OW25822   3.606   0.053   5.879 -0.0050 -0.1624 -0.1534
 4787SOL    HW125823   3.520   0.034   5.842  0.0510  1.0356 -0.8941
 4787SOL    HW225824   3.590   0.147   5.873 -0.1063 -0.2606 -1.3879
 4788SOL     OW25825   4.071   3.600  17.194  0.8962  0.1894 -0.4959
 4788SOL    HW125826   4.084   3.654  17.116 -1.2350 -1.1343 -1.7988
 4788SOL    HW225827   4.101   3.512  17.172 -0.7532 -0.4857 -0.0951
 4789SOL     OW25828   1.935   1.779   4.048 -0.1027  0.1939 -0.5989
 4789SOL    HW125829   2.019   1.732   4.051  1.1122  2.3384 -0.8624
 4789SOL    HW225830   1.933   1.809   3.957  2.9219  1.8075 -0.1403
 4790SOL     OW25831   2.729   2.412   9.455  0.1704 -0.4745 -0.2073
 4790SOL    HW125832   2.703   2.466   9.530  0.3755  0.7398 -1.0093
 4790SOL    HW225833   2.823   2.397   9.466  0.5796  2.8338  1.0542
 4791SOL     OW25834   1.397   2.810   8.736  0.4813  0.2589  0.1488
 4791SOL    HW125835   1.419   2.902   8.741 -0.1006  0.4375 -0.5366
 4791SOL    HW225836   1.463   2.778   8.798 -0.7356  0.1846  1.4118
 4792SOL     OW25837   3.159   0.725   0.411  0.3915  0.0350 -0.1035
 4792SOL    HW125838   3.211   0.801   0.386 -0.2714  1.2796  2.3222
 4792SOL    HW225839   3.231   0.668   0.438 -0.4440 -1.0719 -0.1942
 4793SOL     OW25840   2.223   1.060  12.359  0.3235  0.0927  0.2559
 4793SOL    HW125841   2.253   1.054  12.268 -0.8001  1.6505 -0.2023
 4793SOL    HW225842   2.145   1.113  12.350 -1.6092 -2.8093 -0.0892
 4794SOL     OW25843   0.844   3.207   6.053  0.0115 -0.0329  0.0817
 4794SOL    HW125844   0.881   3.141   5.995  1.2989 -1.8416  2.9792
 4794SOL    HW225845   0.768   3.234   6.001  0.2277 -2.0415 -1.2674
 4795SOL     OW25846   4.235   2.036  17.409 -0.1913  0.2037 -0.0567
 4795SOL    HW125847   4.245   1.994  17.495  1.7364 -0.4575 -0.6055
 4795SOL    HW225848   4.157   1.999  17.369  0.0366  3.2136 -3.2943
 4796SOL     OW25849   0.767   1.651   2.800 -0.5746 -0.0483  0.3196
 4796SOL    HW125850   0.834   1.613   2.743  0.1413 -0.6657  1.5713
 4796SOL    HW225851   0.819   1.674   2.877 -1.4192  0.1596  0.8342
 4797SOL     OW25852   0.879   2.996   5.909  0.1485 -0.3816  0.0024
 4797SOL    HW125853   0.790   2.962   5.918 -0.2727  1.6553  3.3320
 4797SOL    HW225854   0.896   2.986   5.815  1.4575  3.6355 -0.1903
 4798SOL     OW25855   0.601   3.550   4.599 -0.0195  0.2771  0.6731
 4798SOL    HW125856   0.627   3.608   4.527 -3.6579 -0.6753 -1.3485
 4798SOL    HW225857   0.539   3.494   4.553  0.7608  0.8011 -1.0231
 4799SOL     OW25858   3.955   1.148   3.295  0.1574  0.1438  0.6276
 4799SOL    HW125859   4.003   1.207   3.238 -1.6738  1.0204  0.0051
 4799SOL    HW225860   3.897   1.093   3.242  1.1811 -0.3536  0.0380
 4800SOL     OW25861   2.863   4.104   5.454  0.2448 -0.9004 -0.3932
 4800SOL    HW125862   2.918   4.038   5.498 -0.3386 -0.1557  1.4456
 4800SOL    HW225863   2.877   4.082   5.362  0.0386  1.5748 -1.0069
 4801SOL     OW25864   0.813   1.738   1.888  0.0347 -0.3419 -0.0190
 4801SOL    HW125865   0.817   1.743   1.983 -1.1199 -0.2651  0.0160
 4801SOL    HW225866   0.730   1.694   1.870  0.4226 -1.4248  0.8692
 4802SOL     OW25867   4.255   0.701   7.814 -0.0305 -0.2016 -0.4626
 4802SOL    HW125868   4.210   0.763   7.871  1.6699  0.1655  0.4838
 4802SOL    HW225869   4.230   0.615   7.847 -0.9007  0.6939  1.2114
 4803SOL     OW25870   4.685   4.255   7.528  0.0336  0.1921  0.4656
 4803SOL    HW125871   0.024   4.216   7.590 -0.0363 -0.4296  0.1391
 4803SOL    HW225872   4.602   4.228   7.569  1.3237 -1.6993  1.7779
 4804SOL     OW25873   2.631   2.989   8.045 -0.2084 -0.6837 -0.0682
 4804SOL    HW125874   2.635   3.042   8.124  1.2402 -2.1694  0.8350
 4804SOL    HW225875   2.682   3.043   7.985  0.6056 -1.0381  0.3095
 4805SOL     OW25876   1.651   3.607   7.619 -0.0756  0.4298 -0.4455
 4805SOL    HW125877   1.679   3.663   7.691 -0.8662 -0.2152  0.3598
 4805SOL    HW225878   1.731   3.573   7.580 -0.8928 -1.7176 -0.2430
 4806SOL     OW25879   3.538   4.377   6.135 -0.2338  0.1524 -0.2354
 4806SOL    HW125880   3.468   4.368   6.199 -0.1341  0.9098 -0.0166
 4806SOL    HW225881   3.544   4.291   6.094 -0.5045  0.0955 -0.1545
 4807SOL     OW25882   0.844   3.347   6.301 -0.1378 -0.2309 -0.0795
 4807SOL    HW125883   0.843   3.273   6.363  1.6652  0.5188  0.8355
 4807SOL    HW225884   0.844   3.298   6.219  1.6085  0.0944 -0.2690
 4808SOL     OW25885   3.284   0.268   9.037 -0.1449 -0.5683  0.3878
 4808SOL    HW125886   3.257   0.340   9.095  2.3320  0.2373  0.5347
 4808SOL    HW225887   3.336   0.320   8.976  1.2886 -3.6881 -1.0455
 4809SOL     OW25888   3.321   4.400   3.578  0.5200 -0.4920 -0.1233
 4809SOL    HW125889   3.243   4.392   3.523  0.0119  2.0321  0.2567
 4809SOL    HW225890   3.297   4.456   3.652  0.5312 -2.3179  1.2793
 4810SOL     OW25891   3.909   1.762  11.342  0.1485 -0.5560  0.1468
 4810SOL    HW125892   3.959   1.842  11.356 -1.7136  0.9303 -1.8345
 4810SOL    HW225893   3.965   1.706  11.288 -1.6087 -0.1384 -2.0824
 4811SOL     OW25894   2.300   3.583   6.540 -0.2420  0.5180  0.4324
 4811SOL    HW125895   2.316   3.653   6.603  0.6497  0.6325  0.0834
 4811SOL    HW225896   2.329   3.627   6.461 -0.0777 -0.9999 -0.3558
 4812SOL     OW25897   2.497   1.277   9.899  0.5223 -0.0573  0.4624
 4812SOL    HW125898   2.479   1.194   9.855  0.1919  0.2648 -0.0030
 4812SOL    HW225899   2.583   1.260   9.937  1.4517  1.6293 -0.9417
 4813SOL     OW25900   3.144   1.813  10.169 -0.3129 -0.2032  0.2772
 4813SOL    HW125901   3.069   1.809  10.111 -0.3414  1.3111  0.2033
 4813SOL    HW225902   3.219   1.826  10.110 -1.4383 -0.6000 -1.2447
 4814SOL     OW25903   0.727   0.488  12.009 -0.1733 -0.1625  0.0389
 4814SOL    HW125904   0.728   0.411  12.065  0.6596  1.0857  1.7350
 4814SOL    HW225905   0.807   0.536  12.032  0.6913 -0.8175 -1.5954
 4815SOL     OW25906   0.070   2.012  12.370  0.1067 -0.5563  0.5107
 4815SOL    HW125907   0.080   2.107  12.379  0.1217 -0.4158 -0.9676
 4815SOL    HW225908   4.701   1.995  12.392 -0.0334 -1.9619 -1.0939
 4816SOL     OW25909   0.629   1.723   4.530 -0.1266  0.1874 -0.0278
 4816SOL    HW125910   0.711   1.766   4.553 -1.1668  0.2107  3.6220
 4816SOL    HW225911   0.577   1.800   4.507  0.0553  1.1371  2.7358
 4817SOL     OW25912   4.414   1.821   5.703 -0.2342  0.3417 -0.3777
 4817SOL    HW125913   4.503   1.805   5.672  0.0257  1.8336 -0.4130
 4817SOL    HW225914   4.387   1.736   5.739  0.5679  0.7763  1.2468
 4818SOL     OW25915   1.501   2.019   8.932  0.2910  0.3192  0.8312
 4818SOL    HW125916   1.482   1.936   8.974  3.0781 -1.1005 -0.6938
 4818SOL    HW225917   1.587   2.002   8.894  0.6094  0.7008  1.3834
 4819SOL     OW25918   3.579   1.194   9.743 -0.9595 -0.4049 -0.7599
 4819SOL    HW125919   3.603   1.283   9.717 -0.0060 -0.4091  0.1100
 4819SOL    HW225920   3.492   1.214   9.778 -0.5454  0.0553  0.0062
 4820SOL     OW25921   3.557   2.627   8.817  0.3430 -0.7954  0.1692
 4820SOL    HW125922   3.547   2.700   8.879  0.6213 -0.6188  0.0034
 4820SOL    HW225923   3.507   2.563   8.868  0.0492  0.1623  1.0813
 4821SOL     OW25924   4.576   1.735   4.426 -0.8034 -0.0004 -0.3603
 4821SOL    HW125925   4.638   1.796   4.465 -2.5366  2.0068 -0.7123
 4821SOL    HW225926   4.492   1.775   4.446  0.2755  3.0531 -1.9495
 4822SOL     OW25927   0.072   2.982   0.048 -0.2158  0.6076 -0.4453
 4822SOL    HW125928   0.092   2.900   0.092  0.4281  0.6440 -0.6764
 4822SOL    HW225929   4.704   2.987   0.081  0.0212  1.3867  0.0709
 4823SOL     OW25930   0.864   1.479   3.843 -0.3691 -0.0042 -0.2460
 4823SOL    HW125931   0.809   1.401   3.833  1.2421 -1.0020 -1.3095
 4823SOL    HW225932   0.932   1.443   3.900  1.3038 -0.9742 -2.8887
 4824SOL     OW25933   4.278   0.273  12.116 -0.3159  0.0170 -0.1634
 4824SOL    HW125934   4.280   0.292  12.022  1.1639 -1.6199 -0.4595
 4824SOL    HW225935   4.318   0.349  12.158  3.1627 -1.2097 -1.2705
 4825SOL     OW25936   4.001   2.148   0.123 -0.3039 -0.2131  0.2529
 4825SOL    HW125937   4.088   2.135   0.086  0.4242  3.3716  0.6878
 4825SOL    HW225938   3.956   2.191   0.050 -1.1397  0.1706  0.9904
 4826SOL     OW25939   2.181   3.711   3.070 -0.2204 -0.3016  0.0169
 4826SOL    HW125940   2.251   3.658   3.109 -0.4516 -2.0727 -1.9371
 4826SOL    HW225941   2.220   3.743   2.989 -0.2117 -0.8057 -0.1784
 4827SOL     OW25942   3.624   3.402   9.386 -0.2306 -0.0482 -0.2538
 4827SOL    HW125943   3.532   3.426   9.372  0.6746  2.6984 -1.4410
 4827SOL    HW225944   3.641   3.459   9.461  0.8676  0.8069 -1.1677
 4828SOL     OW25945   2.878   2.253   6.781 -0.1146 -0.0421  0.3476
 4828SOL    HW125946   2.903   2.345   6.779  0.2962 -0.1101  2.4516
 4828SOL    HW225947   2.886   2.212   6.694 -0.3209  2.5955 -0.9189
 4829SOL     OW25948   0.068   0.652   6.687  0.3852  0.2516  0.3066
 4829SOL    HW125949   0.108   0.570   6.716  2.7353  1.4968  0.6569
 4829SOL    HW225950   0.103   0.659   6.598 -0.3271 -1.5995 -0.1217
 4830SOL     OW25951   2.319   4.675  11.001 -0.3471 -0.3773 -0.0529
 4830SOL    HW125952   2.379   0.014  11.044  0.2382 -0.4584 -0.7463
 4830SOL    HW225953   2.273   4.641  11.078 -0.7199 -1.6331 -0.8196
 4831SOL     OW25954   1.224   1.579   1.005  0.2806 -0.4627  0.3705
 4831SOL    HW125955   1.285   1.533   0.946 -1.7308  1.0264 -2.8369
 4831SOL    HW225956   1.281   1.587   1.082  0.4761  3.6015 -0.2044
 4832SOL     OW25957   2.013   3.911  16.630 -0.2748 -0.1116 -0.0069
 4832SOL    HW125958   1.950   3.926  16.560 -1.8299  0.8661  1.6000
 4832SOL    HW225959   1.997   3.979  16.696  1.1463  0.3667 -0.1379
 4833SOL     OW25960   1.988   2.150  11.547 -0.3530 -0.1287  0.5511
 4833SOL    HW125961   2.055   2.144  11.479 -0.3342 -1.7601  0.7110
 4833SOL    HW225962   1.986   2.245  11.556  0.5777  0.0011 -0.5491
 4834SOL     OW25963   2.158   1.418   7.408 -0.2248 -0.2592 -0.1685
 4834SOL    HW125964   2.090   1.481   7.381  0.2893  0.2999 -0.1610
 4834SOL    HW225965   2.137   1.342   7.355  0.0819 -0.8363  0.5389
 4835SOL     OW25966   2.575   0.007   8.233 -0.0271 -0.8044  0.3198
 4835SOL    HW125967   2.665   0.037   8.215 -0.0774 -1.0646 -0.3833
 4835SOL    HW225968   2.586   4.636   8.254 -0.2565 -1.0462 -0.6019
 4836SOL     OW25969   0.262   1.780  10.716  0.3420 -0.2397  0.0587
 4836SOL    HW125970   0.278   1.741  10.802 -0.5689  0.0831  0.3681
 4836SOL    HW225971   0.189   1.841  10.717 -0.3410 -1.0635  0.3629
 4837SOL     OW25972   2.266   3.510   2.185  0.5487  0.0565  0.0715
 4837SOL    HW125973   2.231   3.530   2.098 -0.4716  1.7337  0.8615
 4837SOL    HW225974   2.235   3.423   2.208 -2.1427  1.4380  1.7307
 4838SOL     OW25975   3.606   2.185   0.217  0.1565  0.0746 -0.1717
 4838SOL    HW125976   3.621   2.222   0.130  0.7395 -2.2051 -1.0332
 4838SOL    HW225977   3.656   2.244   0.274 -0.4527  1.8236 -1.4309
 4839SOL     OW25978   1.032   4.174   3.719  0.0368  0.5932  0.8314
 4839SOL    HW125979   0.974   4.173   3.643  0.8232  0.0900  0.2326
 4839SOL    HW225980   1.076   4.089   3.712 -0.1942  0.3871  2.0555
 4840SOL     OW25981   2.986   4.342   6.983 -0.5363  0.5583 -0.3714
 4840SOL    HW125982   2.946   4.421   6.947  0.3205 -0.0229 -2.6159
 4840SOL    HW225983   2.958   4.279   6.917 -0.2001 -0.3999  0.4049
 4841SOL     OW25984   1.822   0.346   2.242  0.2358  0.2055 -0.4662
 4841SOL    HW125985   1.795   0.324   2.331 -0.1906  0.5180 -0.5247
 4841SOL    HW225986   1.773   0.295   2.177  0.5748  2.3945 -2.4178
 4842SOL     OW25987   3.357   3.159   5.549 -0.1861  0.2852  0.2904
 4842SOL    HW125988   3.411   3.190   5.621 -0.1688 -0.3216  0.5396
 4842SOL    HW225989   3.358   3.065   5.569  1.4763  0.2535  0.0732
 4843SOL     OW25990   3.411   3.934   7.761 -0.0264 -0.2670 -0.4228
 4843SOL    HW125991   3.409   3.859   7.821 -0.7459  1.1448  1.3316
 4843SOL    HW225992   3.326   3.972   7.782  0.0564  0.6197 -1.7031
 4844SOL     OW25993   0.853   2.635   2.839  0.1766  0.6436 -0.1842
 4844SOL    HW125994   0.825   2.604   2.925  0.2523 -0.5042 -0.5788
 4844SOL    HW225995   0.773   2.620   2.788  1.6159  0.1777 -2.3083
 4845SOL     OW25996   0.525   1.516   0.999  1.3547  0.0725  0.7735
 4845SOL    HW125997   0.562   1.430   0.980 -0.7026 -0.9378  1.3458
 4845SOL    HW225998   0.587   1.563   1.055  1.6623  0.0620  0.4496
 4846SOL     OW25999   3.405   1.251   2.921 -0.1161 -0.1944 -0.7661
 4846SOL    HW126000   3.477   1.223   2.864  1.3675  0.6482  0.6668
 4846SOL    HW226001   3.404   1.344   2.899  2.0031 -0.7127 -3.0730
 4847SOL     OW26002   1.350   4.188   4.064  0.1637  0.6806  0.5241
 4847SOL    HW126003   1.345   4.259   4.127  0.6718  1.1134  0.0789
 4847SOL    HW226004   1.286   4.127   4.101  2.7754 -2.3699  0.0728
 4848SOL     OW26005   1.113   0.239   7.443 -0.5313  0.3782  0.6676
 4848SOL    HW126006   1.154   0.267   7.361 -0.7293 -2.1786 -0.3141
 4848SOL    HW226007   1.152   0.153   7.453 -0.6547  0.2906  0.3887
 4849SOL     OW26008   1.035   3.645   3.316  0.0196  0.5119 -0.4758
 4849SOL    HW126009   1.121   3.616   3.285 -0.4915  1.6467 -2.9389
 4849SOL    HW226010   1.025   3.585   3.391 -0.4478 -1.1071 -1.8349
 4850SOL     OW26011   3.271   3.948   0.244 -0.6427 -0.6404  0.4947
 4850SOL    HW126012   3.351   3.922   0.289  0.5609 -1.1510 -1.9640
 4850SOL    HW226013   3.255   3.882   0.176  1.3380 -1.8738  1.2314
 4851SOL     OW26014   1.954   3.443   2.295  0.0590  0.1453  0.0522
 4851SOL    HW126015   1.915   3.441   2.208 -2.7017  2.5533  1.2053
 4851SOL    HW226016   2.036   3.396   2.280 -1.6647 -1.8342 -3.1387
 4852SOL     OW26017   2.226   2.644  12.915 -0.4997 -0.2692 -0.1560
 4852SOL    HW126018   2.294   2.637  12.848 -0.9725  0.2317 -0.6883
 4852SOL    HW226019   2.266   2.592  12.985 -1.8647 -1.5155 -0.3030
 4853SOL     OW26020   1.808   2.006  11.693 -0.3417  0.0113  0.3443
 4853SOL    HW126021   1.872   2.048  11.636 -0.1338 -1.3394 -0.4208
 4853SOL    HW226022   1.782   1.930  11.641  1.6160  0.8706 -1.8711
 4854SOL     OW26023   4.700   3.969   3.669 -0.0069 -0.5251 -0.9286
 4854SOL    HW126024   4.702   4.062   3.692 -0.9715 -0.8584  0.5172
 4854SOL    HW226025   4.608   3.953   3.645  0.0366 -0.7713 -0.9280
 4855SOL     OW26026   0.166   4.133   2.728  0.4189  0.0930 -0.2963
 4855SOL    HW126027   0.086   4.093   2.761  0.3308  0.1687 -0.4193
 4855SOL    HW226028   0.140   4.137   2.637 -1.1372  0.4960  0.1705
 4856SOL     OW26029   2.271   0.466   0.797 -0.0033  0.0971 -0.7077
 4856SOL    HW126030   2.312   0.386   0.828  0.3412  0.1565 -1.0256
 4856SOL    HW226031   2.282   0.465   0.702 -0.7207 -0.1646 -0.7864
 4857SOL     OW26032   4.242   1.333   3.641  1.0019 -0.4683 -0.0241
 4857SOL    HW126033   4.253   1.427   3.628 -1.8635  0.0403  1.3329
 4857SOL    HW226034   4.252   1.292   3.556  1.6959 -0.6637  0.1455
 4858SOL     OW26035   4.412   2.468   8.109 -0.2286  0.3025  0.3376
 4858SOL    HW126036   4.388   2.375   8.107  0.5236  0.0850  1.8809
 4858SOL    HW226037   4.501   2.456   8.078 -0.9322 -0.5024 -1.3748
 4859SOL     OW26038   0.656   1.236   4.730  0.0187  0.6604  0.0565
 4859SOL    HW126039   0.744   1.254   4.699  0.0022 -0.4518 -0.6132
 4859SOL    HW226040   0.674   1.214   4.821 -0.7495 -1.1236 -0.2290
 4860SOL     OW26041   1.177   3.398   9.738 -0.3224 -0.3964  0.0929
 4860SOL    HW126042   1.096   3.376   9.783  0.0156  0.8778  1.3368
 4860SOL    HW226043   1.232   3.320   9.738  0.2801  0.0356  1.8230
 4861SOL     OW26044   3.864   3.894   1.962  0.0264 -0.1923  0.0200
 4861SOL    HW126045   3.800   3.883   2.033  1.1721  0.9654  1.2171
 4861SOL    HW226046   3.891   3.985   1.973  1.3452 -0.7900  1.5690
 4862SOL     OW26047   1.631   2.903   2.852 -0.1221 -0.0088  0.1055
 4862SOL    HW126048   1.612   2.920   2.944  1.6437 -0.1392  0.4825
 4862SOL    HW226049   1.716   2.946   2.847  0.8610 -2.0708 -0.7597
 4863SOL     OW26050   1.787   0.357   0.807 -0.6593 -0.3765 -0.0336
 4863SOL    HW126051   1.711   0.301   0.818 -0.5222 -0.8413 -1.4581
 4863SOL    HW226052   1.855   0.314   0.860 -0.3940  1.2902  0.9744
 4864SOL     OW26053   0.180   1.666   7.536 -0.0269 -0.5226  0.4534
 4864SOL    HW126054   0.266   1.628   7.557  0.7536  1.0536  0.1490
 4864SOL    HW226055   0.118   1.594   7.536  1.3215 -1.7007 -2.6662
 4865SOL     OW26056   4.489   4.156   6.154 -0.1722 -0.3455 -0.5165
 4865SOL    HW126057   4.574   4.200   6.155 -0.7245  0.7367 -1.3201
 4865SOL    HW226058   4.473   4.143   6.247  0.3275  1.6616 -0.1696
 4866SOL     OW26059   4.088   2.670   8.632  0.7015  0.6158 -0.3458
 4866SOL    HW126060   4.116   2.673   8.724 -1.5095 -1.3866  0.4081
 4866SOL    HW226061   4.026   2.598   8.643  0.3671  1.1802  1.4950
 4867SOL     OW26062   3.725   2.706   6.067  0.6935 -0.1735  0.0102
 4867SOL    HW126063   3.761   2.627   6.107 -0.4803  0.0897  1.5878
 4867SOL    HW226064   3.806   2.755   6.053 -0.0912  1.5699  1.6155
 4868SOL     OW26065   4.348   0.833  15.547 -0.0234  0.3446 -0.2682
 4868SOL    HW126066   4.285   0.860  15.614  1.1254 -0.2163  1.0383
 4868SOL    HW226067   4.393   0.915  15.528  0.2922 -0.3280 -2.3765
 4869SOL     OW26068   0.193   2.634   5.002  0.3911 -0.0029  0.5512
 4869SOL    HW126069   0.137   2.564   5.036  1.2873 -1.1626 -0.3380
 4869SOL    HW226070   0.181   2.702   5.069  1.4204 -0.2080  0.9413
 4870SOL     OW26071   4.687   3.998  11.485  0.3301 -0.3897 -0.1123
 4870SOL    HW126072   4.594   3.978  11.479  0.3806 -0.9786  1.1384
 4870SOL    HW226073   0.008   3.921  11.523 -0.1554 -0.7491 -0.2839
 4871SOL     OW26074   1.539   3.737   6.474  0.3749 -0.0102  0.2304
 4871SOL    HW126075   1.464   3.767   6.526 -0.1382 -0.2462 -0.3838
 4871SOL    HW226076   1.505   3.662   6.425 -1.8926  1.2647 -0.1205
 4872SOL     OW26077   1.350   3.262   5.742  0.4680 -0.0042  0.0324
 4872SOL    HW126078   1.291   3.331   5.711 -0.0493 -0.1849  0.6145
 4872SOL    HW226079   1.320   3.251   5.832  1.3093 -0.8381  0.2128
 4873SOL     OW26080   0.342   1.134   8.357 -0.1382 -0.0066 -0.3813
 4873SOL    HW126081   0.377   1.086   8.282 -0.8545  0.7974 -1.2318
 4873SOL    HW226082   0.407   1.118   8.426 -0.1692  0.9623 -0.1181
 4874SOL     OW26083   1.424   3.491   6.320  0.5698 -0.0888 -0.5563
 4874SOL    HW126084   1.329   3.494   6.308  0.5065 -1.5052 -0.4200
 4874SOL    HW226085   1.446   3.447   6.238  0.8065 -0.1709 -0.4487
 4875SOL     OW26086   3.765   0.804  13.219 -0.0683 -0.1884 -0.4276
 4875SOL    HW126087   3.781   0.735  13.154 -4.4119 -0.7111 -0.9208
 4875SOL    HW226088   3.847   0.799  13.268  0.4604  2.8878 -1.0235
 4876SOL     OW26089   1.185   3.263   3.216 -0.6377 -0.7814 -0.0245
 4876SOL    HW126090   1.245   3.337   3.227 -0.7893 -0.1476 -3.3720
 4876SOL    HW226091   1.112   3.286   3.273  1.0136  0.2454  1.6769
 4877SOL     OW26092   1.885   4.390   0.583  0.3683 -0.0255  0.0510
 4877SOL    HW126093   1.961   4.435   0.621  1.0612 -3.0774  2.3037
 4877SOL    HW226094   1.926   4.305   0.565  0.5941 -0.1655  1.1827
 4878SOL     OW26095   0.449   0.899   8.992 -0.3746 -0.0984 -0.2735
 4878SOL    HW126096   0.477   0.809   9.009  1.6283  0.4979 -0.3948
 4878SOL    HW226097   0.358   0.883   8.968 -1.0912  0.6197  1.9558
 4879SOL     OW26098   2.643   2.218   7.119 -0.0532 -0.4830  0.2155
 4879SOL    HW126099   2.640   2.124   7.139 -0.2989 -0.6708 -0.6841
 4879SOL    HW226100   2.728   2.230   7.076  0.6622 -4.5105  0.4766
 4880SOL     OW26101   4.719   3.594   6.607  0.7957 -0.3940  0.0146
 4880SOL    HW126102   0.039   3.556   6.529  0.2798 -0.2013 -0.3550
 4880SOL    HW226103   4.653   3.656   6.576  0.4832  0.4078  2.3398
 4881SOL     OW26104   1.248   2.738   2.223  0.6516  0.3355 -0.2135
 4881SOL    HW126105   1.333   2.707   2.255  0.4684 -2.8461 -2.7068
 4881SOL    HW226106   1.278   2.828   2.212  0.0296  0.6241  0.4911
 4882SOL     OW26107   3.958   2.338   6.582 -0.4222  0.1560 -0.2188
 4882SOL    HW126108   4.004   2.389   6.515  1.3301 -0.0254  0.8483
 4882SOL    HW226109   4.027   2.354   6.647  0.6625  0.4945 -1.4416
 4883SOL     OW26110   3.782   2.768   7.352  0.4142 -0.1846 -0.1798
 4883SOL    HW126111   3.789   2.848   7.300  0.3817  0.5399  0.9281
 4883SOL    HW226112   3.873   2.737   7.349  0.4081 -0.4667  2.8748
 4884SOL     OW26113   2.183   4.636   1.100  0.0997  0.2601  0.2814
 4884SOL    HW126114   2.117   4.697   1.068 -0.0710 -0.3255 -0.4897
 4884SOL    HW226115   2.159   4.612   1.190 -1.9269 -2.4191 -0.9787
 4885SOL     OW26116   0.203   3.946  10.948  0.3507 -0.1085  0.2628
 4885SOL    HW126117   0.266   3.897  11.001  0.6304 -0.5168 -0.4471
 4885SOL    HW226118   0.227   4.035  10.974  0.5808 -0.2957  0.6833
 4886SOL     OW26119   1.832   0.948   7.522 -0.3537  0.2212  1.1459
 4886SOL    HW126120   1.895   0.943   7.594  0.9058 -1.0265 -0.0455
 4886SOL    HW226121   1.751   0.978   7.564 -1.1191 -1.9847  1.2065
 4887SOL     OW26122   2.667   1.879  11.421  0.7079 -0.0526 -0.0074
 4887SOL    HW126123   2.749   1.902  11.464  0.0925  2.6325 -0.3116
 4887SOL    HW226124   2.639   1.970  11.422 -1.7903 -0.8307  1.7500
 4888SOL     OW26125   2.003   1.579   8.858 -0.6368 -0.0224  0.4058
 4888SOL    HW126126   1.935   1.642   8.834 -0.0411 -0.1469 -1.6379
 4888SOL    HW226127   1.950   1.504   8.883 -2.0775  1.1694  0.9018
 4889SOL     OW26128   3.011   3.873   7.999 -0.7740 -0.0663  0.1002
 4889SOL    HW126129   3.036   3.781   8.012  2.5689  1.0993  1.9908
 4889SOL    HW226130   2.961   3.893   8.078 -0.9520  0.9432 -0.2700
 4890SOL     OW26131   0.686   0.156   4.222  0.0689  0.0701 -0.1212
 4890SOL    HW126132   0.688   0.195   4.134  0.2163  1.6866  0.6086
 4890SOL    HW226133   0.619   0.088   4.211 -0.2796 -0.2813  4.1319
 4891SOL     OW26134   1.005   1.087   6.142 -0.2529 -0.1267  0.3131
 4891SOL    HW126135   0.916   1.114   6.120  0.6347  3.8837  1.6252
 4891SOL    HW226136   0.989   0.998   6.173  0.5439 -0.4739 -0.2598
 4892SOL     OW26137   3.017   3.462   6.830  0.1922  0.1164  0.5472
 4892SOL    HW126138   2.979   3.510   6.756  0.0974 -2.0373 -0.8420
 4892SOL    HW226139   2.965   3.497   6.902 -0.8896 -1.0953  0.3715
 4893SOL     OW26140   1.720   4.183  14.644  0.0455  0.4154 -0.3379
 4893SOL    HW126141   1.802   4.221  14.611  0.2470  1.0813  0.9127
 4893SOL    HW226142   1.658   4.246  14.608 -2.5884 -1.8029  0.3680
 4894SOL     OW26143   3.534   0.853   1.323  0.5113 -0.1616  0.3200
 4894SOL    HW126144   3.469   0.897   1.378  1.7590 -1.2308  2.6459
 4894SOL    HW226145   3.583   0.929   1.293 -0.0887 -0.1376 -0.6044
 4895SOL     OW26146   3.345   0.119   0.289  0.3596 -0.0112 -0.0384
 4895SOL    HW126147   3.342   0.080   0.201  0.9493  2.9920 -1.4210
 4895SOL    HW226148   3.424   0.078   0.324  0.6099 -0.8630 -1.5669
 4896SOL     OW26149   1.704   1.891   8.599  0.0285 -0.2027  0.2794
 4896SOL    HW126150   1.765   1.866   8.529 -0.9159 -2.6222  0.3092
 4896SOL    HW226151   1.623   1.894   8.547 -1.0989  1.7437  2.1440
 4897SOL     OW26152   1.272   2.708   7.004 -0.9631  0.6220  0.0833
 4897SOL    HW126153   1.339   2.755   7.054 -0.1189  2.5315 -2.8684
 4897SOL    HW226154   1.265   2.620   7.041 -0.9762  0.5646 -0.0568
 4898SOL     OW26155   3.284   4.365   6.962  0.5016  0.2968  0.6151
 4898SOL    HW126156   3.196   4.388   6.932  0.3210 -1.5115 -0.2261
 4898SOL    HW226157   3.269   4.316   7.043  1.9019 -1.3704 -0.1211
 4899SOL     OW26158   1.003   0.463  14.422  0.0219  0.0192 -0.5141
 4899SOL    HW126159   0.954   0.387  14.454  2.1190 -1.5375 -0.9598
 4899SOL    HW226160   0.938   0.499  14.362 -1.1716 -0.0786  0.7238
 4900SOL     OW26161   4.215   0.056   0.516  0.0512 -0.2232 -0.3983
 4900SOL    HW126162   4.146   0.030   0.577  0.9521 -1.3523  0.1528
 4900SOL    HW226163   4.290   0.007   0.550  1.6693  1.5776 -1.3835
 4901SOL     OW26164   0.204   1.428  11.035 -0.3340  0.1329 -0.4605
 4901SOL    HW126165   0.263   1.362  11.072 -0.4832 -0.5752 -1.4760
 4901SOL    HW226166   0.177   1.378  10.958  0.9670 -0.5685 -0.4727
 4902SOL     OW26167   3.568   1.970   3.375  0.3923  0.1319  0.1442
 4902SOL    HW126168   3.572   1.987   3.281 -1.1462  2.9953  0.5775
 4902SOL    HW226169   3.541   1.878   3.378  1.9484 -0.3468 -0.8759
 4903SOL     OW26170   2.392   4.576   7.974  0.1783  0.8384 -0.1010
 4903SOL    HW126171   2.323   4.556   8.037  0.2910 -0.0089 -0.2478
 4903SOL    HW226172   2.461   4.530   8.021  0.1252 -2.1606 -2.9422
 4904SOL     OW26173   2.251   3.092   7.028 -0.1535  1.0623  0.1610
 4904SOL    HW126174   2.245   3.004   7.065 -1.6974  1.5148  0.9641
 4904SOL    HW226175   2.315   3.134   7.086  0.8244  0.7591 -0.7078
 4905SOL     OW26176   2.511   0.675  14.265 -0.0232 -0.2409  0.0079
 4905SOL    HW126177   2.503   0.656  14.359  0.0414 -0.5010 -0.0400
 4905SOL    HW226178   2.472   0.601  14.219 -0.5277 -1.0981  1.7892
 4906SOL     OW26179   4.046   3.699   2.676  0.3461  0.3156 -0.5232
 4906SOL    HW126180   3.986   3.766   2.641 -1.1922 -1.4541 -1.3006
 4906SOL    HW226181   4.003   3.621   2.640  1.3625 -0.8326  0.7629
 4907SOL     OW26182   4.598   1.675   2.337 -0.4183 -0.6997  0.6212
 4907SOL    HW126183   4.661   1.746   2.322  0.5866 -1.3275  1.9429
 4907SOL    HW226184   4.572   1.654   2.247 -1.1340  2.8154  0.0028
 4908SOL     OW26185   3.964   2.578  15.054 -0.0325 -0.1409  0.0334
 4908SOL    HW126186   3.946   2.650  14.993  0.3855  1.2909  1.5861
 4908SOL    HW226187   3.958   2.502  14.997 -0.5453 -2.4349  3.1514
 4909SOL     OW26188   4.458   4.588   2.593 -0.1693 -0.8021  0.4540
 4909SOL    HW126189   4.413   4.539   2.524  0.1076 -0.4288  0.0055
 4909SOL    HW226190   4.383   4.618   2.644  0.2232 -2.4324  1.9988
 4910SOL     OW26191   1.705   3.667  14.804  0.2347  0.7618 -0.0027
 4910SOL    HW126192   1.705   3.762  14.787  1.9355  0.5520 -1.1594
 4910SOL    HW226193   1.798   3.646  14.800  0.6547  2.4798  0.6790
 4911SOL     OW26194   1.091   1.567   4.295 -0.5922  0.3376  0.1867
 4911SOL    HW126195   1.066   1.475   4.291  1.1552 -0.0605 -1.7644
 4911SOL    HW226196   1.010   1.608   4.327 -0.8787  1.0922 -1.4917
 4912SOL     OW26197   1.215   3.737   6.867 -0.0038  0.0425  0.1603
 4912SOL    HW126198   1.164   3.700   6.940  1.2584  1.9998  2.0348
 4912SOL    HW226199   1.296   3.734   6.918 -0.4788  0.0862  0.9237
 4913SOL     OW26200   2.179   2.764   3.225 -0.1375 -0.0468  0.0857
 4913SOL    HW126201   2.167   2.681   3.179  1.3311 -0.6601  0.8030
 4913SOL    HW226202   2.116   2.827   3.190 -1.4446 -0.6536  1.3769
 4914SOL     OW26203   2.020   2.200   4.132 -0.4229  0.4756 -0.3221
 4914SOL    HW126204   2.098   2.157   4.098  1.0156  2.3087  0.6929
 4914SOL    HW226205   1.992   2.116   4.170  2.0701  0.4694  1.4965
 4915SOL     OW26206   1.309   1.505  12.483 -0.0287 -0.1928 -0.4856
 4915SOL    HW126207   1.214   1.497  12.484  0.2409 -3.0867  2.1476
 4915SOL    HW226208   1.316   1.598  12.462  0.8309  0.0922  1.0657
 4916SOL     OW26209   3.590   1.146   2.039 -0.3389 -0.2053  0.2580
 4916SOL    HW126210   3.589   1.124   2.132 -2.8469 -1.1689  0.0002
 4916SOL    HW226211   3.614   1.063   1.998  1.3728  0.8064 -0.8334
 4917SOL     OW26212   4.081   3.940  13.573  0.4029  0.0715 -0.7183
 4917SOL    HW126213   4.008   3.989  13.537 -0.0886 -0.3152 -0.2428
 4917SOL    HW226214   4.074   3.959  13.667 -0.1480 -0.3174 -0.6837
 4918SOL     OW26215   4.541   1.800  13.085 -0.0148  0.4487  0.0091
 4918SOL    HW126216   4.585   1.880  13.055 -3.0068  1.5112 -1.6152
 4918SOL    HW226217   4.613   1.756  13.129  0.6465  2.9553  1.4315
 4919SOL     OW26218   4.035   4.073  15.795  0.1998 -0.1285  0.0770
 4919SOL    HW126219   3.958   4.126  15.815  1.9956  1.8829  1.5956
 4919SOL    HW226220   4.049   4.096  15.703 -0.5824  1.3745  0.3310
 4920SOL     OW26221   4.139   3.759   0.696  0.3222  0.0148 -0.2756
 4920SOL    HW126222   4.096   3.673   0.698  0.3926 -0.0163 -0.1139
 4920SOL    HW226223   4.220   3.728   0.737  0.7115 -1.6876 -2.3071
 4921SOL     OW26224   2.508   0.698   3.066 -0.2322  1.0226 -0.7693
 4921SOL    HW126225   2.502   0.603   3.058  1.8407  0.8573 -0.5397
 4921SOL    HW226226   2.447   0.730   2.999 -0.8626  0.1550 -0.6024
 4922SOL     OW26227   0.325   1.736   3.515 -0.0145 -0.2773 -0.3680
 4922SOL    HW126228   0.259   1.720   3.448  0.3894 -0.5094 -0.7087
 4922SOL    HW226229   0.369   1.652   3.520 -0.7221 -0.6244  0.1497
 4923SOL     OW26230   2.123   2.161   5.253  0.3736  0.4687 -0.1165
 4923SOL    HW126231   2.191   2.100   5.226  0.4141  0.0816  0.8454
 4923SOL    HW226232   2.175   2.233   5.286  1.2270 -0.4866  0.6268
 4924SOL     OW26233   1.003   2.098   4.336 -0.1437 -0.3948 -0.3289
 4924SOL    HW126234   0.917   2.139   4.326 -0.6778 -1.8303 -1.6034
 4924SOL    HW226235   0.991   2.032   4.405 -3.2547 -2.1549 -2.5490
 4925SOL     OW26236   2.151   4.202  17.187 -0.1285 -0.0118 -0.1703
 4925SOL    HW126237   2.133   4.114  17.219  1.3507  1.2518  4.2237
 4925SOL    HW226238   2.061   4.222  17.162  0.0778  0.4371 -0.5662
 4926SOL     OW26239   0.684   1.086  16.868  0.8715 -0.0222 -0.0383
 4926SOL    HW126240   0.708   1.149  16.800 -1.8766  1.7810  0.6800
 4926SOL    HW226241   0.755   1.024  16.850  0.6840 -0.5390  0.9942
 4927SOL     OW26242   1.684   0.647   2.685  0.3771  0.3436  0.2013
 4927SOL    HW126243   1.618   0.687   2.742 -2.0070 -2.3488 -0.6930
 4927SOL    HW226244   1.619   0.612   2.625  2.6806 -1.8485 -0.9966
 4928SOL     OW26245   2.619   1.237  10.452  0.1361  0.0021 -0.4696
 4928SOL    HW126246   2.564   1.284  10.389 -1.3777 -0.5497  0.4371
 4928SOL    HW226247   2.658   1.309  10.502 -1.0072  0.5554 -0.3737
 4929SOL     OW26248   3.270   4.597   3.758 -0.0722  0.0569  0.9291
 4929SOL    HW126249   3.203   4.639   3.813  1.7013 -0.2897  3.3482
 4929SOL    HW226250   3.336   4.575   3.824 -0.8093 -1.1789  1.2710
 4930SOL     OW26251   4.218   0.816   2.752 -0.7224 -0.0783 -0.4537
 4930SOL    HW126252   4.248   0.885   2.692 -0.4147  0.1570 -0.0277
 4930SOL    HW226253   4.297   0.797   2.803 -0.7920 -1.0394 -0.7069
 4931SOL     OW26254   3.042   1.633   0.096  0.2800 -0.4100 -0.3749
 4931SOL    HW126255   3.121   1.683   0.118 -0.6478  0.4504  0.9664
 4931SOL    HW226256   3.080   1.581   0.024 -1.5718 -0.0977 -1.5754
 4932SOL     OW26257   3.248   1.336  14.418  0.2486  0.2074  0.1496
 4932SOL    HW126258   3.274   1.406  14.480 -0.4080 -1.9611  2.8753
 4932SOL    HW226259   3.319   1.328  14.354 -1.5961  0.8880 -1.9584
 4933SOL     OW26260   3.389   3.923   8.473 -0.2840 -0.5386 -0.0263
 4933SOL    HW126261   3.481   3.905   8.489 -0.2952  0.3588  1.0083
 4933SOL    HW226262   3.357   3.848   8.422 -0.1086  0.7348 -2.0193
 4934SOL     OW26263   3.505   0.951   0.661 -0.4437  0.2498 -0.4850
 4934SOL    HW126264   3.554   1.032   0.677 -0.1387 -0.1225  0.4716
 4934SOL    HW226265   3.484   0.928   0.752  1.4246  1.0670  0.1584
 4935SOL     OW26266   4.367   3.766  12.909 -0.0254 -0.6908  0.9983
 4935SOL    HW126267   4.287   3.715  12.900 -0.3144  0.0005 -0.2825
 4935SOL    HW226268   4.423   3.726  12.843 -0.1624  1.0261 -0.1484
 4936SOL     OW26269   2.983   4.236   6.095  0.4902 -0.3389  0.1453
 4936SOL    HW126270   3.019   4.252   6.182  0.6789 -1.8909  0.3527
 4936SOL    HW226271   2.978   4.140   6.088  1.1630 -0.4017  0.4586
 4937SOL     OW26272   3.797   0.143   9.538  0.1421 -0.2782 -0.6736
 4937SOL    HW126273   3.781   0.182   9.452 -0.6839  1.4978  0.2735
 4937SOL    HW226274   3.811   0.049   9.527  4.0177  0.3308 -0.8180
 4938SOL     OW26275   2.812   1.773   9.050  0.3080 -0.3810  0.0712
 4938SOL    HW126276   2.883   1.715   9.022  0.4129 -0.6997  0.9970
 4938SOL    HW226277   2.761   1.709   9.099  0.2744 -0.7732 -0.4798
 4939SOL     OW26278   1.153   3.781   9.398 -0.3413 -0.3996  0.1690
 4939SOL    HW126279   1.162   3.767   9.493  4.4539 -0.6900 -0.3439
 4939SOL    HW226280   1.185   3.697   9.367  0.5712 -0.2441  0.6711
 4940SOL     OW26281   2.501   3.343   4.809 -0.4222 -0.4962  0.6841
 4940SOL    HW126282   2.504   3.310   4.898 -2.6486 -0.9160  0.6012
 4940SOL    HW226283   2.594   3.347   4.789 -0.5463 -0.1240  0.1651
 4941SOL     OW26284   1.335   1.082   9.957  0.0297  0.2265 -0.3350
 4941SOL    HW126285   1.245   1.090   9.989 -1.1493 -1.3982 -3.2768
 4941SOL    HW226286   1.371   1.010  10.009 -0.2409 -1.1705 -2.0943
 4942SOL     OW26287   3.909   0.516   9.606 -0.1102 -0.0485 -0.0549
 4942SOL    HW126288   3.832   0.515   9.664 -0.6360 -0.0044 -0.7453
 4942SOL    HW226289   3.971   0.493   9.675  0.1447 -0.5857 -0.4739
 4943SOL     OW26290   1.270   2.610   4.126 -0.3404  0.0791 -0.1531
 4943SOL    HW126291   1.293   2.645   4.040 -0.3496  0.9172  0.1874
 4943SOL    HW226292   1.325   2.668   4.178  0.9216 -1.4034  0.1750
 4944SOL     OW26293   2.645   0.262   5.489 -0.2944  0.0282  0.2123
 4944SOL    HW126294   2.731   0.299   5.507  0.3457 -2.2234  1.7581
 4944SOL    HW226295   2.656   0.171   5.514 -1.7258 -0.3410 -0.5081
 4945SOL     OW26296   4.345   4.591  13.346  0.3911  0.2591 -0.4179
 4945SOL    HW126297   4.339   4.521  13.282  3.6391  0.7560 -1.2399
 4945SOL    HW226298   4.349   4.675  13.301  1.4648  0.1017 -0.6056
 4946SOL     OW26299   0.017   1.824   8.463 -0.2676 -0.6536 -0.3069
 4946SOL    HW126300   0.068   1.843   8.542  0.0776  1.6454 -1.0899
 4946SOL    HW226301   4.698   1.910   8.462 -2.8569 -1.8997 -0.7723
 4947SOL     OW26302   0.392   4.204   6.534 -0.2905 -0.1785  0.2107
 4947SOL    HW126303   0.413   4.226   6.625  0.6876 -1.4623  0.3005
 4947SOL    HW226304   0.311   4.154   6.543  1.4304 -2.8369  0.9509
 4948SOL     OW26305   0.958   2.691   6.146  0.1594 -0.1128 -0.0553
 4948SOL    HW126306   0.999   2.710   6.062  1.9667 -0.9654  0.6213
 4948SOL    HW226307   1.031   2.658   6.199  0.7050 -0.1135 -0.8052
 4949SOL     OW26308   3.230   0.429   3.671  0.3874 -0.2941  0.2582
 4949SOL    HW126309   3.234   0.363   3.739  1.3925 -1.8695 -1.3259
 4949SOL    HW226310   3.143   0.467   3.682  0.8056  0.4446  0.9723
 4950SOL     OW26311   0.153   0.805   5.942  0.0938  0.0533  0.1356
 4950SOL    HW126312   0.200   0.792   5.859 -0.4515 -0.4904 -0.0834
 4950SOL    HW226313   0.164   0.900   5.938  0.1145  0.0660  0.5814
 4951SOL     OW26314   2.468   2.974   0.292  0.4298  0.1165  0.1601
 4951SOL    HW126315   2.462   3.003   0.201  1.8357  0.9236  0.3170
 4951SOL    HW226316   2.390   2.922   0.308  0.2606  0.0957 -0.7578
 4952SOL     OW26317   2.456   4.408  12.520 -0.0418 -0.0587  0.0537
 4952SOL    HW126318   2.498   4.467  12.457  0.7395 -1.4799 -0.7555
 4952SOL    HW226319   2.371   4.404  12.476 -1.0348 -1.5056  2.0878
 4953SOL     OW26320   2.839   0.772   6.483 -0.0650  0.4177  0.1620
 4953SOL    HW126321   2.807   0.863   6.483 -0.6934  0.2055  1.3026
 4953SOL    HW226322   2.755   0.726   6.477  1.1561 -1.5922 -1.0493
 4954SOL     OW26323   4.270   1.194   3.407  0.2895 -0.4136  0.1845
 4954SOL    HW126324   4.206   1.123   3.412  1.7585 -1.5304  2.7175
 4954SOL    HW226325   4.260   1.221   3.316 -0.8911 -3.9326 -0.7024
 4955SOL     OW26326   2.251   1.575   6.907 -0.6569 -0.0427  0.0489
 4955SOL    HW126327   2.164   1.572   6.948 -0.5383 -0.7600  0.2420
 4955SOL    HW226328   2.231   1.635   6.835 -1.0940 -1.3980 -0.9757
 4956SOL     OW26329   3.829   3.268  14.709 -0.1337  0.2857  0.2382
 4956SOL    HW126330   3.786   3.333  14.653  0.6334  1.0168  0.4773
 4956SOL    HW226331   3.793   3.186  14.677  0.9231  0.8794 -2.5069
 4957SOL     OW26332   4.502   2.857   5.502  0.8235 -0.8244  0.2273
 4957SOL    HW126333   4.461   2.914   5.437  0.3047 -0.2272  1.0609
 4957SOL    HW226334   4.421   2.812   5.528  0.8476 -1.4817 -0.8409
 4958SOL     OW26335   1.320   0.511   7.370  0.2788 -0.0707 -0.3976
 4958SOL    HW126336   1.276   0.461   7.302 -0.3204 -1.0008  0.6911
 4958SOL    HW226337   1.241   0.532   7.420  1.3059  0.3427  1.0503
 4959SOL     OW26338   3.209   2.821   3.128  0.3131  0.0837  0.0104
 4959SOL    HW126339   3.269   2.768   3.075  2.2188  0.9090  1.3364
 4959SOL    HW226340   3.129   2.821   3.076  0.5275  0.6025 -0.3325
 4960SOL     OW26341   2.887   3.638   9.368 -0.3052 -0.0812 -0.0411
 4960SOL    HW126342   2.855   3.722   9.399 -0.8197 -0.4396  0.4047
 4960SOL    HW226343   2.958   3.616   9.428 -1.3450 -1.6609  0.6220
 4961SOL     OW26344   1.601   0.406   6.900  0.0725 -0.1447 -0.3122
 4961SOL    HW126345   1.653   0.346   6.954  1.5199 -0.0338 -1.5702
 4961SOL    HW226346   1.569   0.467   6.966  2.7949  0.0135  0.8591
 4962SOL     OW26347   0.343   2.097   3.571  0.0262 -0.4060 -0.0899
 4962SOL    HW126348   0.358   2.103   3.665 -2.3971 -5.2143  0.6455
 4962SOL    HW226349   0.280   2.024   3.570  0.6117 -0.9341  1.7169
 4963SOL     OW26350   1.450   0.658  15.171  0.3932 -0.2385  0.3578
 4963SOL    HW126351   1.384   0.656  15.101  0.1832  0.9228  0.5223
 4963SOL    HW226352   1.535   0.637  15.131 -0.2259 -0.2788 -0.9349
 4964SOL     OW26353   0.468   2.472   4.035 -0.6081 -0.1576  0.2814
 4964SOL    HW126354   0.396   2.427   4.080  0.0045 -0.2207  1.2055
 4964SOL    HW226355   0.500   2.523   4.110 -0.5053  0.5724 -0.2625
 4965SOL     OW26356   0.301   3.507  11.431  0.3590  0.3851  0.0236
 4965SOL    HW126357   0.229   3.570  11.420 -0.0242 -0.1289 -0.3978
 4965SOL    HW226358   0.272   3.448  11.362  1.7017  0.1778 -0.3593
 4966SOL     OW26359   0.726   0.524   8.522  0.7745 -0.1999  0.0107
 4966SOL    HW126360   0.817   0.533   8.494  1.3568 -2.0715  1.3140
 4966SOL    HW226361   0.737   0.560   8.610 -1.5941  0.9695 -0.1871
 4967SOL     OW26362   0.027   2.446   3.054  0.1481 -0.1566 -0.4696
 4967SOL    HW126363   0.109   2.397   3.051 -0.1326 -0.6313 -0.4974
 4967SOL    HW226364   4.685   2.382   3.084 -0.8235  1.6941  1.3681
 4968SOL     OW26365   1.674   1.032  16.301 -0.0197  0.3848 -0.3579
 4968SOL    HW126366   1.746   0.970  16.292 -0.4874 -0.1233 -0.6025
 4968SOL    HW226367   1.720   1.100  16.251 -2.7187  0.5220 -2.7047
 4969SOL     OW26368   2.947   4.705   7.456  0.0922 -0.6664 -0.0370
 4969SOL    HW126369   2.931   0.042   7.530 -0.1455  0.0524 -0.6589
 4969SOL    HW226370   2.884   4.638   7.481 -1.4940  0.8637  0.1174
 4970SOL     OW26371   4.002   1.593  15.524  0.0817  0.1679 -0.0292
 4970SOL    HW126372   4.001   1.499  15.503 -2.3584 -0.2864  2.1473
 4970SOL    HW226373   4.093   1.610  15.546  0.1846 -0.1302 -0.2223
 4971SOL     OW26374   0.558   0.010  15.816 -0.0074  0.6444 -0.1001
 4971SOL    HW126375   0.591   0.056  15.738 -0.0058  0.4126 -0.2377
 4971SOL    HW226376   0.479   0.059  15.835  0.5261  1.0379  1.0743
 4972SOL     OW26377   2.909   4.531   1.278  0.2618 -0.5390  0.3079
 4972SOL    HW126378   2.907   4.436   1.266 -0.7282 -0.7703  2.3581
 4972SOL    HW226379   2.815   4.551   1.283  0.8076  1.5952  2.0129
 4973SOL     OW26380   4.366   0.872   9.359  0.2733 -0.0415  0.5936
 4973SOL    HW126381   4.313   0.814   9.414 -0.2415  0.1805  0.3330
 4973SOL    HW226382   4.294   0.878   9.295  1.0114 -0.5783 -0.2838
 4974SOL     OW26383   1.124   1.812   8.266  0.1980  0.2946  0.8394
 4974SOL    HW126384   1.062   1.836   8.198 -0.3212  2.4372  2.0888
 4974SOL    HW226385   1.074   1.737   8.299 -0.9218  0.7631  0.1907
 4975SOL     OW26386   3.737   2.309  13.605  0.2633 -0.2032  0.4188
 4975SOL    HW126387   3.804   2.304  13.673  1.0778 -3.2259 -0.5911
 4975SOL    HW226388   3.668   2.274  13.660 -0.3930 -1.2544 -1.0626
 4976SOL     OW26389   3.050   4.681   0.739 -1.3557  0.0877  0.4522
 4976SOL    HW126390   3.114   4.710   0.804  0.4121 -2.3543 -0.1980
 4976SOL    HW226391   3.108   4.651   0.670 -0.5485  0.3223  1.0350
 4977SOL     OW26392   3.927   4.510   6.598  0.3088 -0.1194  0.2283
 4977SOL    HW126393   3.850   4.493   6.544  1.6151 -0.0988 -1.6055
 4977SOL    HW226394   3.985   4.444   6.561  1.9473  1.5957 -0.2320
 4978SOL     OW26395   1.641   2.102   2.705 -0.7145  0.8156 -0.3179
 4978SOL    HW126396   1.736   2.094   2.708 -0.7279  1.1249  1.2648
 4978SOL    HW226397   1.628   2.133   2.615 -1.4711 -2.1657 -1.2311
 4979SOL     OW26398   0.765   2.563  17.329  0.2980 -0.1418  0.4364
 4979SOL    HW126399   0.746   2.541  17.237 -1.6745 -1.1347  1.0763
 4979SOL    HW226400   0.744   2.482  17.376  0.7107 -0.3066  0.3417
 4980SOL     OW26401   3.836   0.510   1.076  0.2526  0.2620  0.0636
 4980SOL    HW126402   3.819   0.438   1.015 -0.9082  0.2106  0.4532
 4980SOL    HW226403   3.772   0.574   1.044  0.0132  0.3684  0.7717
 4981SOL     OW26404   3.473   4.349   2.904 -0.1313  0.3840 -0.1246
 4981SOL    HW126405   3.526   4.421   2.938 -0.9363  0.8591  0.1386
 4981SOL    HW226406   3.386   4.379   2.932  0.3252  0.6664  0.9808
 4982SOL     OW26407   3.659   3.982   4.648 -0.0574 -0.5320 -0.1267
 4982SOL    HW126408   3.681   3.995   4.740  1.4447 -1.3140 -0.3770
 4982SOL    HW226409   3.564   3.970   4.658  0.0179 -1.1462 -0.1596
 4983SOL     OW26410   3.633   1.018  17.419  0.5963 -0.3130 -0.3984
 4983SOL    HW126411   3.667   0.966  17.346  0.8126  1.9925 -1.9296
 4983SOL    HW226412   3.597   0.951  17.478 -1.8867  1.6588  0.2938
 4984SOL     OW26413   4.604   3.986   5.161  0.0365 -0.0148  0.3626
 4984SOL    HW126414   4.611   3.898   5.199  2.0038  0.6602  1.5930
 4984SOL    HW226415   4.642   4.044   5.227  0.4864  1.7228 -1.4335
 4985SOL     OW26416   3.792   2.663   3.880 -0.0662  0.0286 -0.3072
 4985SOL    HW126417   3.789   2.623   3.794 -2.0579 -2.0843  0.7397
 4985SOL    HW226418   3.751   2.749   3.865 -0.4826 -0.1933 -0.4321
 4986SOL     OW26419   2.635   0.306  12.066 -0.2343 -0.1055  0.3782
 4986SOL    HW126420   2.668   0.363  11.997 -1.5129 -0.9154 -0.8776
 4986SOL    HW226421   2.597   0.372  12.125 -1.1750  0.5268 -0.9391
 4987SOL     OW26422   3.533   1.622   6.885 -0.4259  0.0474  0.8452
 4987SOL    HW126423   3.511   1.585   6.971 -1.7000 -0.7919  0.1438
 4987SOL    HW226424   3.496   1.710   6.890 -1.7929 -0.6371  2.9548
 4988SOL     OW26425   1.515   4.631   1.140 -0.2242  0.0300  0.3713
 4988SOL    HW126426   1.441   4.599   1.192 -0.0393 -1.8630 -0.5266
 4988SOL    HW226427   1.486   4.722   1.131 -0.4112 -0.1513 -0.9101
 4989SOL     OW26428   1.512   2.738   1.867  0.1104 -0.2843  0.0033
 4989SOL    HW126429   1.550   2.825   1.877  0.3077 -0.3158 -0.4907
 4989SOL    HW226430   1.417   2.749   1.872  0.1504 -1.5018  3.6990
 4990SOL     OW26431   3.844   4.137  16.420 -0.0561  0.2201 -0.4829
 4990SOL    HW126432   3.868   4.126  16.512 -2.8960 -0.9182  0.1289
 4990SOL    HW226433   3.754   4.168  16.427 -0.5380 -1.0718 -0.9359
 4991SOL     OW26434   0.146   0.509   9.824  0.8907  0.3441 -0.8763
 4991SOL    HW126435   0.100   0.555   9.894  1.6249 -0.3336  0.0551
 4991SOL    HW226436   0.226   0.481   9.869 -0.3585  1.0454  1.7526
 4992SOL     OW26437   4.665   0.696   8.524 -0.3369  0.2670 -0.4294
 4992SOL    HW126438   0.031   0.720   8.498 -0.6832 -0.7470 -2.5762
 4992SOL    HW226439   4.657   0.628   8.457  1.4080 -0.0245 -0.3335
 4993SOL     OW26440   2.615   0.018   4.228  0.1288  0.0101 -0.5767
 4993SOL    HW126441   2.570   4.663   4.194 -0.8152  0.9580 -1.4881
 4993SOL    HW226442   2.601   4.711   4.318 -1.6256  0.7543 -0.5892
 4994SOL     OW26443   3.908   0.993  10.243  0.3498  0.4204  0.2696
 4994SOL    HW126444   3.870   0.936  10.176  2.2889  1.1090 -1.3854
 4994SOL    HW226445   3.885   0.947  10.324 -2.4651 -1.2399 -1.4924
 4995SOL     OW26446   4.022   1.509   3.725 -0.1496 -0.1821 -0.6139
 4995SOL    HW126447   4.107   1.544   3.696 -0.3463  1.5723  0.9345
 4995SOL    HW226448   4.010   1.433   3.668 -0.9664 -0.8330  0.4591
 4996SOL     OW26449   3.335   3.512  13.433  0.0139  0.6613 -0.6017
 4996SOL    HW126450   3.407   3.450  13.423  0.0511  0.5487  0.2980
 4996SOL    HW226451   3.269   3.465  13.381  0.4579  0.0492 -0.6072
 4997SOL     OW26452   1.826   4.005  13.467  0.2172 -0.2806 -0.2108
 4997SOL    HW126453   1.835   3.960  13.551  1.6282 -0.9788 -0.7288
 4997SOL    HW226454   1.888   3.956  13.412  0.0740 -0.3176 -0.3386
 4998SOL     OW26455   2.286   3.785  14.817  0.5269 -0.1076  0.2949
 4998SOL    HW126456   2.310   3.716  14.755  0.5314 -0.2858  0.4945
 4998SOL    HW226457   2.299   3.737  14.899  0.0829 -1.5388 -0.4753
 4999SOL     OW26458   2.628   0.511   6.700  0.0991 -0.3348  0.6419
 4999SOL    HW126459   2.680   0.432   6.715 -1.0749 -1.7540 -2.9478
 4999SOL    HW226460   2.681   0.582   6.737 -1.2720  1.5707 -1.0980
 5000SOL     OW26461   2.221   0.254   3.680  0.2598 -0.1449 -0.0517
 5000SOL    HW126462   2.137   0.225   3.714 -0.5267 -1.9940 -3.5075
 5000SOL    HW226463   2.226   0.350   3.687  1.7296 -0.0976 -1.6390
 5001SOL     OW26464   2.315   3.593  15.027  0.5288 -0.4820 -0.4198
 5001SOL    HW126465   2.370   3.526  15.066  1.2122 -0.3814 -1.2186
 5001SOL    HW226466   2.280   3.640  15.103 -2.4590 -0.7629 -1.6042
 5002SOL     OW26467   0.105   0.978   9.451  0.0716  0.1673  0.8003
 5002SOL    HW126468   0.039   0.910   9.436 -0.7697  1.3000 -0.5693
 5002SOL    HW226469   0.114   0.982   9.547  1.2772 -1.8093  0.7762
 5003SOL     OW26470   2.700   1.367  13.342 -0.2945  0.3907 -0.4983
 5003SOL    HW126471   2.774   1.345  13.399  0.3492  0.2110 -1.4076
 5003SOL    HW226472   2.676   1.455  13.371 -0.6396  0.3726 -0.7270
 5004SOL     OW26473   3.141   4.003   7.533 -0.2191 -0.0450  0.2384
 5004SOL    HW126474   3.160   4.012   7.627  0.7666  0.8526 -0.0473
 5004SOL    HW226475   3.228   3.993   7.493 -0.8664  2.2468 -1.7001
 5005SOL     OW26476   3.006   1.101   6.755 -0.9551  0.2898  0.0389
 5005SOL    HW126477   3.097   1.098   6.724 -0.5840 -2.8069  1.4493
 5005SOL    HW226478   3.023   1.065   6.842  0.0398  2.6771  0.8586
 5006SOL     OW26479   1.686   4.496   5.349 -0.3469  0.3298 -0.7240
 5006SOL    HW126480   1.723   4.448   5.422 -1.0595 -0.3235 -0.7860
 5006SOL    HW226481   1.598   4.525   5.374 -0.2364 -2.2786  2.5377
 5007SOL     OW26482   4.248   1.038   5.401  0.3288 -0.2840 -0.2355
 5007SOL    HW126483   4.198   1.043   5.319 -0.2927 -0.4670  0.1340
 5007SOL    HW226484   4.257   0.943   5.395  0.3279 -0.2829 -0.2569
 5008SOL     OW26485   2.805   3.886   6.850 -0.3034 -0.6147 -0.6094
 5008SOL    HW126486   2.884   3.870   6.799 -0.3022 -1.3565 -0.3740
 5008SOL    HW226487   2.759   3.802   6.853 -0.2244 -0.6169  0.6206
 5009SOL     OW26488   0.188   2.202   6.470 -0.1842 -0.1476 -0.6083
 5009SOL    HW126489   0.252   2.138   6.440  1.3538  1.7694 -1.4369
 5009SOL    HW226490   0.184   2.240   6.382  2.5141  2.0783  0.2441
 5010SOL     OW26491   3.632   4.138   7.970  0.7568  0.2930 -0.0558
 5010SOL    HW126492   3.654   4.150   8.062 -2.1283  2.4158  0.3873
 5010SOL    HW226493   3.680   4.058   7.948 -1.4584 -1.5482  1.8057
 5011SOL     OW26494   1.565   3.720   4.210  0.4505  0.3390 -0.0093
 5011SOL    HW126495   1.497   3.743   4.147  0.4406 -0.8815 -0.4488
 5011SOL    HW226496   1.510   3.661   4.260  1.1514 -1.4880 -1.3763
 5012SOL     OW26497   3.715   1.849   7.543  0.4593 -0.0491 -0.1108
 5012SOL    HW126498   3.716   1.921   7.480  1.8164 -1.2019 -1.4197
 5012SOL    HW226499   3.678   1.884   7.624 -0.0692 -0.1932 -0.2895
 5013SOL     OW26500   1.299   2.350  12.609  0.2441 -0.0957  0.3144
 5013SOL    HW126501   1.308   2.418  12.542  1.5375 -0.3674  0.2143
 5013SOL    HW226502   1.392   2.339  12.632  0.4328  1.4099  0.3285
 5014SOL     OW26503   1.616   1.363  16.526  0.1883  0.4404  0.6120
 5014SOL    HW126504   1.687   1.338  16.584 -0.2113 -2.0823  0.0071
 5014SOL    HW226505   1.576   1.440  16.568  2.6987  2.9647 -1.5902
 5015SOL     OW26506   1.881   3.426  12.953  0.6103 -0.3184  0.2490
 5015SOL    HW126507   1.858   3.352  13.009 -0.5416 -0.5921 -0.6019
 5015SOL    HW226508   1.963   3.390  12.920  0.0731 -1.4190  0.1118
 5016SOL     OW26509   2.059   2.634   8.633 -0.0865 -0.1550  0.6204
 5016SOL    HW126510   2.036   2.722   8.661 -0.2618 -0.1207  0.3725
 5016SOL    HW226511   2.013   2.580   8.698  1.9313 -2.1451  0.4015
 5017SOL     OW26512   3.529   2.681   7.021 -0.0612  0.0093  0.1737
 5017SOL    HW126513   3.574   2.608   6.980 -0.7084  0.2292 -0.9088
 5017SOL    HW226514   3.476   2.699   6.944  0.7988 -1.4205 -0.7468
 5018SOL     OW26515   2.812   0.677  13.784 -0.1573  0.0851  0.1374
 5018SOL    HW126516   2.756   0.602  13.801  0.3066 -0.5306 -1.0978
 5018SOL    HW226517   2.866   0.637  13.716  0.1502  1.5001 -0.4669
 5019SOL     OW26518   0.488   2.956  12.323  0.1056  0.2000  0.0079
 5019SOL    HW126519   0.565   2.973  12.268  0.6243  0.0263  0.6821
 5019SOL    HW226520   0.527   2.925  12.405  0.4202 -0.6278 -0.4535
 5020SOL     OW26521   3.723   1.559   5.533 -0.4877 -0.0290 -0.2540
 5020SOL    HW126522   3.635   1.542   5.568 -0.5895  2.3926  0.6734
 5020SOL    HW226523   3.702   1.619   5.461  1.8530  0.3722 -0.6037
 5021SOL     OW26524   1.051   2.967   7.470  0.3200  0.3095  1.0316
 5021SOL    HW126525   1.081   2.987   7.381 -0.6820 -0.2398  0.5679
 5021SOL    HW226526   0.961   2.941   7.454  0.8070 -0.4214 -0.4801
 5022SOL     OW26527   1.646   2.148   4.502  0.1706  0.2129 -0.0134
 5022SOL    HW126528   1.658   2.064   4.457  1.1866  0.0625  0.5282
 5022SOL    HW226529   1.557   2.162   4.472  0.0374 -0.1374  0.2173
 5023SOL     OW26530   4.574   0.426   0.132  0.3586 -1.0230 -0.3380
 5023SOL    HW126531   4.533   0.442   0.217 -0.6762 -2.3589 -0.5928
 5023SOL    HW226532   4.613   0.512   0.117 -0.1209 -0.3891  1.9432
 5024SOL     OW26533   3.038   3.134   4.355  0.0564  0.0874 -0.9785
 5024SOL    HW126534   3.101   3.176   4.297  1.2273  1.0124  0.9582
 5024SOL    HW226535   3.088   3.125   4.436  0.0345 -0.5659 -1.0384
 5025SOL     OW26536   1.337   1.380  10.987  0.6959 -0.0861 -0.0020
 5025SOL    HW126537   1.341   1.286  10.973 -0.5998 -0.0648 -0.5699
 5025SOL    HW226538   1.428   1.391  11.014  1.0078  3.7814 -2.4347
 5026SOL     OW26539   0.406   3.182   9.284  0.1259 -0.4090 -0.5899
 5026SOL    HW126540   0.411   3.184   9.188 -0.0221 -1.2871 -0.6160
 5026SOL    HW226541   0.352   3.106   9.306 -0.9412  0.3535 -0.5799
 5027SOL     OW26542   3.241   2.158  14.792 -0.5952  0.0030  0.4533
 5027SOL    HW126543   3.235   2.155  14.697 -0.0582 -1.6013  0.4593
 5027SOL    HW226544   3.316   2.216  14.806 -0.7387  0.7934 -2.0957
 5028SOL     OW26545   1.398   3.453   4.961  0.2963  0.2441 -0.0660
 5028SOL    HW126546   1.359   3.367   4.944 -0.9603  0.8051 -0.0237
 5028SOL    HW226547   1.363   3.469   5.048  3.7948 -1.0709  1.5898
 5029SOL     OW26548   4.063   0.155   1.593 -0.0138 -0.3865 -1.3208
 5029SOL    HW126549   4.093   0.195   1.675 -0.6233  1.0156 -1.7752
 5029SOL    HW226550   4.123   0.080   1.584  2.0754  1.2050 -0.7603
 5030SOL     OW26551   2.114   1.061  10.474 -0.6524 -0.1035  0.2698
 5030SOL    HW126552   2.027   1.090  10.501  0.8625  0.6292  4.4753
 5030SOL    HW226553   2.114   0.966  10.477 -0.5951 -0.1150 -0.0830
 5031SOL     OW26554   1.836   3.283   4.824 -0.0597 -0.3480 -0.0572
 5031SOL    HW126555   1.925   3.271   4.858 -0.1761  1.9917  1.0146
 5031SOL    HW226556   1.853   3.343   4.751  1.5019  0.2176  0.7879
 5032SOL     OW26557   3.377   0.318   5.349  0.1318  0.5310  0.3259
 5032SOL    HW126558   3.343   0.406   5.369 -2.2603 -0.5526  0.9516
 5032SOL    HW226559   3.463   0.335   5.388  0.5242 -1.7223  0.4434
 5033SOL     OW26560   2.790   3.202   1.476  0.2733 -0.0551  0.0183
 5033SOL    HW126561   2.811   3.208   1.570 -1.7719 -2.2969  0.6341
 5033SOL    HW226562   2.718   3.264   1.469  0.2708 -0.0163  0.3690
 5034SOL     OW26563   2.583   4.401   7.146  0.6844 -0.3870  0.6323
 5034SOL    HW126564   2.611   4.311   7.128  0.2325 -0.0279 -1.8708
 5034SOL    HW226565   2.508   4.380   7.201 -0.0447  2.4979  0.7502
 5035SOL     OW26566   3.597   1.994  15.471  0.1128  0.5582 -0.0140
 5035SOL    HW126567   3.655   1.929  15.511  0.7520  1.9119  1.2698
 5035SOL    HW226568   3.654   2.071  15.474  0.1468  0.5360 -0.0945
 5036SOL     OW26569   1.665   1.815   2.554  0.4109  0.1988 -0.2661
 5036SOL    HW126570   1.707   1.733   2.530 -2.8290 -1.6301  0.3293
 5036SOL    HW226571   1.678   1.815   2.648  1.0434  1.4234 -0.3472
 5037SOL     OW26572   0.029   0.997  10.794  0.0815 -0.1772 -0.1352
 5037SOL    HW126573   0.103   1.002  10.854 -0.3540  2.6055  0.2040
 5037SOL    HW226574   4.697   1.072  10.821  0.0909 -0.2945  0.2096
 5038SOL     OW26575   3.547   1.642  17.052 -0.1903 -0.9188 -0.1316
 5038SOL    HW126576   3.528   1.584  17.126 -0.1689  0.6087  1.0585
 5038SOL    HW226577   3.459   1.644  17.014  0.7350 -1.0252 -2.2994
 5039SOL     OW26578   3.668   3.565  16.382  0.1352 -0.0485 -0.1139
 5039SOL    HW126579   3.604   3.525  16.322  0.4706 -0.4809 -0.1819
 5039SOL    HW226580   3.749   3.536  16.341  0.2480  1.4792 -0.9477
 5040SOL     OW26581   1.293   2.060  13.761  0.2407 -0.0351 -0.3991
 5040SOL    HW126582   1.359   2.062  13.692  1.9315  1.3380  1.2955
 5040SOL    HW226583   1.326   2.014  13.838  1.6494  1.5841 -0.0409
 5041SOL     OW26584   1.493   1.026   4.082 -0.1381  0.1302  0.0439
 5041SOL    HW126585   1.466   1.116   4.100  2.5274  1.0227 -0.4353
 5041SOL    HW226586   1.443   1.007   4.002  3.1104  1.6731 -2.3512
 5042SOL     OW26587   2.163   4.325   6.052  0.0427 -0.6370  0.2098
 5042SOL    HW126588   2.192   4.327   6.143 -3.5161 -0.7570  1.3302
 5042SOL    HW226589   2.070   4.310   6.069 -0.3026  0.1958 -0.9522
 5043SOL     OW26590   3.829   1.227   8.077 -0.3129 -0.1621 -0.2166
 5043SOL    HW126591   3.841   1.195   8.167  0.1818  0.6904  0.0154
 5043SOL    HW226592   3.913   1.272   8.066 -1.1864  1.7358  0.8857
 5044SOL     OW26593   2.952   3.567   2.216  0.3953  0.4392 -0.0662
 5044SOL    HW126594   2.926   3.658   2.228 -1.3409  0.2545 -2.3313
 5044SOL    HW226595   2.921   3.561   2.125  2.1208 -2.3879 -0.4781
 5045SOL     OW26596   2.142   4.262   5.788  0.0127  0.0358 -0.3280
 5045SOL    HW126597   2.169   4.284   5.877 -0.1413  2.1156 -0.8020
 5045SOL    HW226598   2.093   4.341   5.767  1.5357  1.0233 -0.1882
 5046SOL     OW26599   0.401   0.581  10.147  0.1178  0.3188 -0.4577
 5046SOL    HW126600   0.333   0.554  10.085 -1.8966  0.1774  1.7968
 5046SOL    HW226601   0.394   0.677  10.154  0.3458  0.2141  1.1282
 5047SOL     OW26602   2.155   2.118   4.898  0.5324  0.0504  0.1091
 5047SOL    HW126603   2.237   2.158   4.869  1.2024 -0.3214  1.5101
 5047SOL    HW226604   2.108   2.104   4.815 -2.0415  1.1992  1.3652
 5048SOL     OW26605   2.883   3.500   6.094  0.1316  0.3216 -0.0871
 5048SOL    HW126606   2.896   3.405   6.093  1.2999  0.4377  1.8853
 5048SOL    HW226607   2.973   3.532   6.092 -0.1082  0.8501 -2.5201
 5049SOL     OW26608   3.959   3.095   3.509  0.3589 -0.0953  0.1247
 5049SOL    HW126609   3.992   3.184   3.494  0.3247 -0.5710 -2.8190
 5049SOL    HW226610   4.003   3.075   3.592  0.7226 -1.3987 -0.3861
 5050SOL     OW26611   3.939   2.850   6.119 -0.1065  0.3221 -0.0364
 5050SOL    HW126612   3.925   2.942   6.142  1.2473  0.0354  1.9308
 5050SOL    HW226613   4.034   2.850   6.130 -0.2417 -0.2749  1.1503
 5051SOL     OW26614   1.846   1.539   5.839  0.0512 -0.2829 -0.1490
 5051SOL    HW126615   1.767   1.586   5.813  0.1588  0.0819  0.1814
 5051SOL    HW226616   1.797   1.467   5.878  1.2576 -0.3870  1.1756
 5052SOL     OW26617   2.609   0.629   0.352 -0.8649  0.1164  0.2253
 5052SOL    HW126618   2.535   0.586   0.396  0.0135 -0.4668  1.1406
 5052SOL    HW226619   2.628   0.579   0.273 -0.3087 -0.8543  0.9693
 5053SOL     OW26620   3.238   3.191   5.314  0.1545 -0.7070  0.0738
 5053SOL    HW126621   3.150   3.173   5.347 -0.3158  1.6392  0.0724
 5053SOL    HW226622   3.291   3.183   5.394  1.1145 -0.6757 -0.5630
 5054SOL     OW26623   2.936   0.698  10.014 -0.5579 -0.1334  0.8185
 5054SOL    HW126624   3.014   0.650   9.988 -1.2834 -1.4436  1.0867
 5054SOL    HW226625   2.986   0.766  10.060 -2.0913  1.2346  0.4978
 5055SOL     OW26626   2.825   4.067   8.618 -0.6436  0.7165 -0.2989
 5055SOL    HW126627   2.900   4.060   8.677 -1.7989 -2.9834  0.7926
 5055SOL    HW226628   2.873   4.104   8.544 -2.7825  1.4934 -1.3092
 5056SOL     OW26629   3.827   1.923   6.067 -0.2841 -0.4277 -0.8184
 5056SOL    HW126630   3.882   1.985   6.115 -1.2911 -0.4440  0.3696
 5056SOL    HW226631   3.747   1.921   6.120  1.3728 -2.5056  1.6316
 5057SOL     OW26632   2.260   2.397   5.336  0.1731  0.1390 -0.4616
 5057SOL    HW126633   2.290   2.444   5.413 -2.3204 -0.7946  1.0688
 5057SOL    HW226634   2.344   2.378   5.294  0.5909  1.3400 -0.1759
 5058SOL     OW26635   1.057   2.003   3.949  0.2863 -0.5483 -0.4826
 5058SOL    HW126636   1.027   1.939   3.885  0.0734  0.6819 -1.6176
 5058SOL    HW226637   1.083   1.949   4.024  2.5805 -0.0508 -0.9291
 5059SOL     OW26638   1.104   2.473   2.452  0.2396  0.1220 -0.3801
 5059SOL    HW126639   1.195   2.502   2.464  0.2437 -0.1559  0.2605
 5059SOL    HW226640   1.119   2.387   2.412 -0.2336 -0.4808  0.7218
 5060SOL     OW26641   3.517   3.706   4.921 -0.2430  0.5223 -0.4668
 5060SOL    HW126642   3.465   3.693   5.000 -0.3456  0.7573 -0.4939
 5060SOL    HW226643   3.591   3.751   4.961 -0.2200 -1.1405  1.4002
 5061SOL     OW26644   0.077   1.986   5.900  0.4943  0.2719 -0.4894
 5061SOL    HW126645   0.035   2.059   5.946 -1.4602 -0.8637 -0.4614
 5061SOL    HW226646   0.170   2.007   5.891  0.3142  1.9188  1.5445
 5062SOL     OW26647   3.338   0.389   2.487 -0.3818 -0.0261  0.4143
 5062SOL    HW126648   3.258   0.360   2.530 -0.7376  0.1314 -0.1430
 5062SOL    HW226649   3.407   0.399   2.553 -1.2672 -1.0498  1.5124
 5063SOL     OW26650   0.452   2.861   1.289  0.2278  0.2273  0.0672
 5063SOL    HW126651   0.411   2.827   1.369  0.8498 -0.2775  0.1684
 5063SOL    HW226652   0.469   2.781   1.240 -1.1670 -0.1010  0.1093
 5064SOL     OW26653   1.431   2.480  14.137 -0.0823 -0.1768 -0.0978
 5064SOL    HW126654   1.484   2.405  14.111 -2.4362 -1.6494 -0.6788
 5064SOL    HW226655   1.482   2.528  14.202 -0.6689  0.1874  0.0903
 5065SOL     OW26656   0.892   0.968   6.952  0.0008  0.4644  0.3352
 5065SOL    HW126657   0.937   0.928   6.878 -1.8204 -0.0880 -0.4765
 5065SOL    HW226658   0.855   0.891   6.995 -0.4090  0.5906  0.2114
 5066SOL     OW26659   1.659   0.316   1.416  0.3979  0.1998  0.3496
 5066SOL    HW126660   1.699   0.403   1.422  0.6289  0.0890  0.4425
 5066SOL    HW226661   1.571   0.331   1.450  0.0790 -0.5964 -0.1315
 5067SOL     OW26662   2.782   4.106   0.769  0.2424 -0.2842  0.3699
 5067SOL    HW126663   2.788   4.202   0.760 -0.8277 -0.3030 -0.5659
 5067SOL    HW226664   2.753   4.094   0.860 -1.3367  0.2558 -0.0524
 5068SOL     OW26665   1.117   3.656   4.968 -0.6134 -0.1118  0.5744
 5068SOL    HW126666   1.063   3.597   4.916 -1.0725  0.1135  0.7974
 5068SOL    HW226667   1.198   3.661   4.918 -0.3203 -1.6136  0.8913
 5069SOL     OW26668   3.386   1.338   0.470  0.3898 -0.3925  0.3856
 5069SOL    HW126669   3.301   1.379   0.452  0.8744  0.1755 -0.5872
 5069SOL    HW226670   3.421   1.327   0.381 -2.1221 -2.2464 -0.3818
 5070SOL     OW26671   4.362   1.157   6.496 -0.2055  0.4358  0.4023
 5070SOL    HW126672   4.387   1.144   6.587  1.3522 -1.0209 -0.2446
 5070SOL    HW226673   4.270   1.130   6.503 -0.0085 -0.1812  0.6274
 5071SOL     OW26674   1.954   2.682   3.012  0.0857  0.4042  0.6611
 5071SOL    HW126675   2.033   2.723   2.976  0.1743 -1.4502 -1.2636
 5071SOL    HW226676   1.893   2.677   2.938 -1.3052  2.6127  1.6499
 5072SOL     OW26677   0.950   0.016   2.311  0.1171  0.1082  0.3125
 5072SOL    HW126678   0.909   0.032   2.396  1.1468  2.7803  0.3192
 5072SOL    HW226679   0.931   4.645   2.306  0.1321  0.0898  0.5852
 5073SOL     OW26680   3.698   1.456   3.471 -0.0548 -0.0790  0.0460
 5073SOL    HW126681   3.792   1.440   3.478 -0.1860 -0.9026 -0.1492
 5073SOL    HW226682   3.675   1.395   3.541  0.4006  0.3437  0.5642
 5074SOL     OW26683   1.089   3.820   1.989 -0.7275  0.1726  0.0597
 5074SOL    HW126684   1.062   3.885   2.054 -1.9513 -1.4476  1.2013
 5074SOL    HW226685   1.094   3.873   1.910 -2.7931 -0.8468 -0.7752
 5075SOL     OW26686   4.208   4.642   2.719 -0.1375 -0.2490  0.1198
 5075SOL    HW126687   4.196   0.015   2.709 -0.2476 -0.5268 -2.3849
 5075SOL    HW226688   4.125   4.605   2.690  1.2495 -2.1231 -1.4313
 5076SOL     OW26689   1.790   1.005   9.161 -0.3203 -0.0232 -0.4385
 5076SOL    HW126690   1.703   1.030   9.130 -0.4960 -0.0830  0.0147
 5076SOL    HW226691   1.776   1.026   9.253 -2.7839 -0.7636 -0.6584
 5077SOL     OW26692   3.177   3.948  15.457 -0.6118 -0.5911  0.3049
 5077SOL    HW126693   3.145   3.895  15.384 -1.6961  0.6590 -0.1204
 5077SOL    HW226694   3.224   3.877  15.502  0.7790 -1.2310 -2.1881
 5078SOL     OW26695   0.930   2.252   7.415  0.7481 -0.2067  0.2805
 5078SOL    HW126696   0.843   2.291   7.426  1.3906  0.9138  1.3303
 5078SOL    HW226697   0.970   2.262   7.501 -2.1410 -2.8648  1.9792
 5079SOL     OW26698   1.944   2.016   7.916  0.2960 -0.3946  0.3771
 5079SOL    HW126699   2.017   2.068   7.949 -0.3910  1.4191 -0.9584
 5079SOL    HW226700   1.973   1.959   7.845 -1.2438  0.7371 -1.1707
 5080SOL     OW26701   0.984   4.238   7.325  0.2628  0.1869  0.2413
 5080SOL    HW126702   0.897   4.275   7.338  1.2871  1.9907  2.0005
 5080SOL    HW226703   0.975   4.222   7.231  1.5668  2.1797 -0.2390
 5081SOL     OW26704   2.732   3.069   3.425  0.4470 -0.1792 -0.5884
 5081SOL    HW126705   2.825   3.088   3.432  0.2823 -0.0133  1.2614
 5081SOL    HW226706   2.724   3.016   3.346  2.5132 -2.4694  0.7580
 5082SOL     OW26707   3.680   4.375   8.635  0.1813  0.1750 -0.2269
 5082SOL    HW126708   3.773   4.351   8.639  0.2073 -0.0497 -2.3533
 5082SOL    HW226709   3.683   4.470   8.644 -1.4384  0.1319  0.7331
 5083SOL     OW26710   3.239   1.983   8.297 -0.6955  0.1967  0.2406
 5083SOL    HW126711   3.195   2.052   8.347 -0.4511  0.6681 -0.1979
 5083SOL    HW226712   3.318   1.970   8.350 -0.2801  1.5870 -0.0412
 5084SOL     OW26713   0.769   3.474   8.819  0.1821 -0.0496  0.1393
 5084SOL    HW126714   0.819   3.521   8.752  0.1565 -1.1056 -0.6191
 5084SOL    HW226715   0.843   3.453   8.877 -1.0034  1.3632  2.1547
 5085SOL     OW26716   3.398   3.839   3.966 -0.0200  0.4050 -0.6654
 5085SOL    HW126717   3.475   3.854   3.911  0.1722 -3.0274 -1.3445
 5085SOL    HW226718   3.382   3.745   3.959 -1.4953  0.5011  1.3550
 5086SOL     OW26719   1.874   0.556   7.618 -0.5981 -0.2502 -0.2592
 5086SOL    HW126720   1.894   0.463   7.627  0.6208  0.0904  0.4690
 5086SOL    HW226721   1.780   0.542   7.608 -1.1624  2.4754  1.0508
 5087SOL     OW26722   2.296   4.356   3.684 -0.8263  0.3040 -0.0225
 5087SOL    HW126723   2.270   4.429   3.740 -3.5104 -0.7953  0.1389
 5087SOL    HW226724   2.347   4.416   3.630  0.8398 -0.2295  0.9605
 5088SOL     OW26725   3.687   3.692   6.759 -0.1211  0.3335  0.3213
 5088SOL    HW126726   3.734   3.770   6.789  1.1760  0.3157 -1.7627
 5088SOL    HW226727   3.746   3.622   6.732 -0.8658  0.5135 -1.7662
 5089SOL     OW26728   2.360   3.695   9.474  0.3663  0.1626  0.1262
 5089SOL    HW126729   2.329   3.607   9.452  0.8344  0.2544 -0.8691
 5089SOL    HW226730   2.329   3.689   9.565 -0.3192 -2.0765 -0.2458
 5090SOL     OW26731   4.177   0.085   0.238  0.3676  0.4708 -0.3737
 5090SOL    HW126732   4.207   0.062   0.326 -0.4543 -0.6417 -0.3821
 5090SOL    HW226733   4.110   0.018   0.220  0.1520  0.1743  1.5115
 5091SOL     OW26734   3.903   3.922   3.923 -0.0526  0.0072  0.0213
 5091SOL    HW126735   3.932   4.010   3.945 -0.9052  0.3314 -0.1646
 5091SOL    HW226736   3.959   3.886   3.855  1.1946  2.9064 -0.4812
 5092SOL     OW26737   0.911   2.436   7.013  0.4803  0.7234  0.3653
 5092SOL    HW126738   0.971   2.399   7.078  0.0686 -1.5498 -0.5539
 5092SOL    HW226739   0.831   2.387   7.032  0.3539  0.9085  0.3153
 5093SOL     OW26740   1.937   0.444   1.126  0.5643  0.1323 -0.3534
 5093SOL    HW126741   1.843   0.451   1.143  0.3408  2.3150 -2.4826
 5093SOL    HW226742   1.960   0.530   1.092  0.7057  1.3495  2.8000
 5094SOL     OW26743   3.795   2.585   4.900 -0.2193 -0.1803 -0.5394
 5094SOL    HW126744   3.842   2.647   4.845 -0.9051  0.8845  0.0844
 5094SOL    HW226745   3.706   2.619   4.909 -0.2991 -0.5241  0.0079
 5095SOL     OW26746   3.758   1.057   0.474 -0.3454 -0.7249  0.1045
 5095SOL    HW126747   3.688   1.113   0.508  0.1683 -0.0865  0.1336
 5095SOL    HW226748   3.719   0.993   0.415 -2.2826  3.1571 -2.8478
 5096SOL     OW26749   4.239   2.988   8.781  0.8649  0.5002 -0.1292
 5096SOL    HW126750   4.292   2.930   8.836  2.9968 -0.1533 -2.8711
 5096SOL    HW226751   4.297   3.020   8.712 -1.7089  0.5634 -2.2607
 5097SOL     OW26752   1.706   0.156   3.723  0.2294  0.6417 -0.0157
 5097SOL    HW126753   1.793   0.194   3.733 -1.4115  3.8809  2.2630
 5097SOL    HW226754   1.736   0.067   3.706  1.0020  1.0223 -0.6823
 5098SOL     OW26755   4.541   0.853   8.801 -0.0292  0.1644 -0.3609
 5098SOL    HW126756   4.581   0.767   8.812  0.7497  0.5372 -0.2870
 5098SOL    HW226757   4.505   0.873   8.887 -0.7034  1.6214 -0.9840
 5099SOL     OW26758   0.336   0.309   5.253 -0.4357 -0.6733 -0.2303
 5099SOL    HW126759   0.253   0.350   5.278  0.4608  0.7255  0.4277
 5099SOL    HW226760   0.357   0.362   5.176  2.3847  1.0737  1.7668
 5100SOL     OW26761   3.399   4.037   5.670  0.0707  0.6097 -0.1734
 5100SOL    HW126762   3.457   4.006   5.601  0.8045  1.2228  0.1671
 5100SOL    HW226763   3.373   4.122   5.633 -0.2034  1.3061  1.6109
 5101SOL     OW26764   1.940   2.739   1.372  0.3495 -0.1568 -0.3434
 5101SOL    HW126765   1.877   2.750   1.301  0.7289 -0.0615 -0.6688
 5101SOL    HW226766   1.930   2.822   1.418  0.2664  0.3242 -1.2200
 5102SOL     OW26767   1.827   0.443   5.088 -0.3889  0.2048 -0.2718
 5102SOL    HW126768   1.833   0.536   5.067 -2.4674  0.1863 -0.9173
 5102SOL    HW226769   1.752   0.422   5.144  0.5754 -0.6866  0.6911
 5103SOL     OW26770   0.312   1.905   8.095  0.6222 -0.0947 -0.6221
 5103SOL    HW126771   0.223   1.881   8.119 -0.1955  3.1403 -0.4439
 5103SOL    HW226772   0.319   1.851   8.016 -0.1275 -0.6513 -0.3088
 5104SOL     OW26773   3.191   3.239   8.281  0.1420 -0.1177  0.3319
 5104SOL    HW126774   3.185   3.196   8.196  2.1684 -0.0708  0.1767
 5104SOL    HW226775   3.249   3.177   8.324  0.2200  2.1181  3.4642
 5105SOL     OW26776   2.151   1.304   4.042 -0.7096  0.0174 -0.2994
 5105SOL    HW126777   2.212   1.367   4.081  1.9323 -2.7453  0.0155
 5105SOL    HW226778   2.202   1.288   3.962 -2.1958 -0.0352 -1.2375
 5106SOL     OW26779   3.419   2.772   3.695 -0.6153 -0.5611 -0.0268
 5106SOL    HW126780   3.454   2.723   3.621 -1.3460 -0.3812 -0.4974
 5106SOL    HW226781   3.443   2.703   3.757 -0.2503 -0.7882 -0.4204
 5107SOL     OW26782   4.087   3.824   8.797  0.2772  0.2094  0.6310
 5107SOL    HW126783   4.095   3.801   8.890  2.4067 -0.1829  0.3358
 5107SOL    HW226784   4.007   3.777   8.773 -0.7855  0.9890  2.5746
 5108SOL     OW26785   1.457   1.077   8.225  0.6265  0.1846 -0.3996
 5108SOL    HW126786   1.407   1.079   8.143  1.0619  2.8079 -0.5948
 5108SOL    HW226787   1.537   1.038   8.190 -0.4125 -2.2951 -0.0051
 5109SOL     OW26788   0.730   1.115  13.007 -0.2127  0.0588 -0.2963
 5109SOL    HW126789   0.753   1.204  12.982  3.2681 -0.5065  0.9750
 5109SOL    HW226790   0.766   1.069  12.931  0.8975  0.6400 -0.1203
 5110SOL     OW26791   4.466   3.642   4.777 -0.0618 -0.1116  0.3373
 5110SOL    HW126792   4.427   3.680   4.699  0.7487 -2.7566 -1.3766
 5110SOL    HW226793   4.507   3.715   4.823  0.6489 -0.6855  0.6182
 5111SOL     OW26794   2.693   3.558   6.517 -0.1569  0.1242  0.0256
 5111SOL    HW126795   2.626   3.574   6.451 -1.3167 -1.2843  0.8601
 5111SOL    HW226796   2.699   3.462   6.522  2.8221  0.3400  0.8593
 5112SOL     OW26797   2.574   4.123   7.642  0.1875 -0.0835 -0.0898
 5112SOL    HW126798   2.532   4.208   7.651  2.0194  0.8580 -0.3223
 5112SOL    HW226799   2.662   4.140   7.675 -0.0414 -0.1944  0.5847
 5113SOL     OW26800   4.132   1.270   3.112 -0.2824 -0.1803 -0.1845
 5113SOL    HW126801   4.157   1.185   3.077  2.5749  1.0772 -1.1197
 5113SOL    HW226802   4.176   1.322   3.045  1.6796  1.4278  2.3325
 5114SOL     OW26803   2.270   0.550   8.144  0.1768  0.2560  0.1952
 5114SOL    HW126804   2.250   0.520   8.233  3.7851 -2.5239  0.0368
 5114SOL    HW226805   2.190   0.526   8.098  0.3146  0.5233 -0.1831
 5115SOL     OW26806   4.402   0.861   3.934 -0.3372 -0.2762  0.4142
 5115SOL    HW126807   4.487   0.897   3.961 -0.7899 -0.1348  1.6098
 5115SOL    HW226808   4.403   0.904   3.848  0.2845 -2.7199 -0.7831
 5116SOL     OW26809   3.535   1.222   4.944 -0.2848 -0.1688  0.7850
 5116SOL    HW126810   3.533   1.164   4.869 -0.7672  2.8357 -1.5248
 5116SOL    HW226811   3.441   1.220   4.962 -0.5482 -0.1288 -0.5947
 5117SOL     OW26812   2.673   3.880  10.591  0.2020  0.2251 -0.4372
 5117SOL    HW126813   2.589   3.900  10.550 -0.4749 -0.9003  0.3981
 5117SOL    HW226814   2.667   3.785  10.580  1.9356  0.1712 -0.9146
 5118SOL     OW26815   0.414   0.696  17.543 -0.0441 -0.4228  0.1555
 5118SOL    HW126816   0.345   0.672  17.605 -0.1110  1.0372  0.6573
 5118SOL    HW226817   0.469   0.730  17.614  1.0329  3.0889 -2.3479
 5119SOL     OW26818   1.277   3.398   3.738 -0.3053 -0.0964 -0.2634
 5119SOL    HW126819   1.218   3.360   3.673 -0.0868 -0.0394 -0.4947
 5119SOL    HW226820   1.362   3.396   3.694 -1.8661 -1.3818 -3.2163
 5120SOL     OW26821   2.886   4.170   5.740  0.3637  0.0021  0.3652
 5120SOL    HW126822   2.969   4.128   5.760 -1.5277 -3.5839  0.7109
 5120SOL    HW226823   2.826   4.115   5.790 -2.2864  0.9668 -1.7258
 5121SOL     OW26824   3.699   3.733   3.950 -0.2944  0.0065 -0.1192
 5121SOL    HW126825   3.702   3.760   4.042 -1.2471  1.6022 -0.5623
 5121SOL    HW226826   3.773   3.786   3.920  1.2759 -2.1431 -0.0651
 5122SOL     OW26827   2.650   2.501   6.014  0.1757  0.1969 -0.5876
 5122SOL    HW126828   2.568   2.521   5.968  1.6764  3.6882 -1.7206
 5122SOL    HW226829   2.718   2.520   5.949 -1.9662 -0.4497 -3.0303
 5123SOL     OW26830   3.635   2.471   9.629  0.3109  0.4120 -0.8081
 5123SOL    HW126831   3.692   2.445   9.557  1.2977 -0.1663  0.1631
 5123SOL    HW226832   3.575   2.398   9.611 -0.3238  0.6136  0.4723
 5124SOL     OW26833   2.144   4.020   1.931 -0.6244 -0.2786 -0.7885
 5124SOL    HW126834   2.164   3.951   1.867 -0.7369 -1.4697  0.4594
 5124SOL    HW226835   2.048   4.026   1.924 -0.6273  1.0627  0.4700
 5125SOL     OW26836   4.527   1.827   5.160  0.2283 -0.7271 -0.1670
 5125SOL    HW126837   4.600   1.766   5.162  0.5262 -0.4406 -2.2697
 5125SOL    HW226838   4.543   1.879   5.239 -2.3405 -3.9357  2.5227
 5126SOL     OW26839   3.215   2.501  10.875  0.4023 -0.2641 -0.0383
 5126SOL    HW126840   3.169   2.478  10.956  0.8035 -0.6788  0.0683
 5126SOL    HW226841   3.298   2.540  10.902 -0.7208  2.4818 -0.5899
 5127SOL     OW26842   1.491   3.784   2.463  0.1102  0.3766  0.3691
 5127SOL    HW126843   1.469   3.701   2.504  1.9946 -0.0135  0.5813
 5127SOL    HW226844   1.576   3.801   2.502  0.6609  2.0891 -1.5770
 5128SOL     OW26845   1.902   3.688   0.856 -0.3239  0.7123  0.2293
 5128SOL    HW126846   1.958   3.753   0.812  0.1093  0.7558  0.8503
 5128SOL    HW226847   1.962   3.653   0.921 -0.5899  1.2868  0.7876
 5129SOL     OW26848   0.189   0.320   2.889  0.1100 -0.0369 -0.0400
 5129SOL    HW126849   0.169   0.348   2.800  0.2280  1.2446  0.3331
 5129SOL    HW226850   0.202   0.402   2.936  1.2514  1.5208 -3.0530
 5130SOL     OW26851   4.486   1.552   1.637 -0.2866 -0.9048 -0.3837
 5130SOL    HW126852   4.502   1.646   1.649 -1.6891 -0.5150 -1.6821
 5130SOL    HW226853   4.541   1.507   1.701  1.2813 -0.3023 -1.3102
 5131SOL     OW26854   2.693   3.302   4.083  0.1822 -0.1266 -0.3865
 5131SOL    HW126855   2.759   3.363   4.051 -0.0881 -0.9738 -2.5522
 5131SOL    HW226856   2.670   3.261   3.999 -0.2812  1.0303 -0.8270
 5132SOL     OW26857   3.967   3.724   5.721 -0.0894  0.1768  0.3770
 5132SOL    HW126858   3.909   3.772   5.663 -0.4302  1.0712  1.4593
 5132SOL    HW226859   4.045   3.713   5.667 -0.4691 -1.3901  0.1528
 5133SOL     OW26860   1.612   0.486   3.640  0.3504  0.8820 -0.2166
 5133SOL    HW126861   1.702   0.471   3.669  1.0661  2.2376 -1.7441
 5133SOL    HW226862   1.604   0.415   3.576  0.1052 -1.3884  2.3628
 5134SOL     OW26863   2.436   1.989   8.146  0.0304 -0.0732 -0.1941
 5134SOL    HW126864   2.530   2.000   8.133  0.4402 -2.4361  0.8085
 5134SOL    HW226865   2.409   2.079   8.128 -0.8238 -0.5940 -1.5524
 5135SOL     OW26866   4.543   3.353  15.382 -0.1695  0.3967  0.4357
 5135SOL    HW126867   4.540   3.340  15.287  2.2358  2.0928  0.1085
 5135SOL    HW226868   4.610   3.420  15.398 -1.4330  1.5118  1.0573
 5136SOL     OW26869   4.142   1.735   6.148 -0.5945  0.3732 -0.5895
 5136SOL    HW126870   4.159   1.779   6.065 -0.2313  1.9934  0.3416
 5136SOL    HW226871   4.052   1.704   6.138 -0.1990 -1.5323  1.5157
 5137SOL     OW26872   3.220   3.904   5.015  0.0025 -0.1043  0.2345
 5137SOL    HW126873   3.251   3.912   5.105 -1.7047  0.7317  0.7490
 5137SOL    HW226874   3.164   3.826   5.009  0.5139 -0.4491 -0.0779
 5138SOL     OW26875   3.697   3.094   7.487 -0.0575 -0.0743 -0.2845
 5138SOL    HW126876   3.693   3.097   7.583 -0.1780  0.1014 -0.2950
 5138SOL    HW226877   3.737   3.177   7.462  0.7861 -0.4094 -0.0583
 5139SOL     OW26878   1.687   4.222   9.990  0.1815  0.9830  0.0910
 5139SOL    HW126879   1.666   4.216   9.897  1.1219  0.9024 -0.1243
 5139SOL    HW226880   1.714   4.314   9.988 -0.3534  1.1551  0.7400
 5140SOL     OW26881   0.247   3.585   5.160 -0.6623  0.1371 -0.0782
 5140SOL    HW126882   0.217   3.603   5.071  1.0357  0.1861 -0.6541
 5140SOL    HW226883   0.338   3.556   5.162 -0.6227  0.3129  0.8819
 5141SOL     OW26884   1.269   4.102   2.818 -0.4471 -0.2246  0.5457
 5141SOL    HW126885   1.304   4.020   2.783 -1.0850  0.1101 -0.8415
 5141SOL    HW226886   1.325   4.120   2.894  1.2209 -1.5143 -0.3724
 5142SOL     OW26887   2.395   4.328  11.600 -0.2703 -0.5767  0.2587
 5142SOL    HW126888   2.421   4.418  11.583 -1.4478  0.2693  2.9483
 5142SOL    HW226889   2.299   4.336  11.600 -0.3018 -0.9537  1.2142
 5143SOL     OW26890   2.145   2.031   2.872  0.3248  0.4791 -0.0369
 5143SOL    HW126891   2.113   1.952   2.917 -1.2783  1.2677  0.2038
 5143SOL    HW226892   2.204   1.993   2.806  1.1420  2.7415 -0.5896
 5144SOL     OW26893   4.252   0.645   4.519 -0.1186 -0.1516 -0.5717
 5144SOL    HW126894   4.344   0.656   4.544 -0.1305  0.7435 -0.9401
 5144SOL    HW226895   4.202   0.620   4.597  0.3802  2.4021  0.5564
 5145SOL     OW26896   3.191   4.494   5.687  0.3387  0.1842 -0.3573
 5145SOL    HW126897   3.124   4.456   5.630  0.6965 -2.6381  1.1207
 5145SOL    HW226898   3.208   4.418   5.742  1.3957  0.4968 -0.2409
 5146SOL     OW26899   2.325   0.741   6.917 -0.5465  1.0783  0.5963
 5146SOL    HW126900   2.235   0.711   6.927 -0.0726 -0.0217  1.5810
 5146SOL    HW226901   2.359   0.704   6.835  0.7488  1.6134  0.8940
 5147SOL     OW26902   0.968   3.442   7.349  0.0717  0.5830  0.1650
 5147SOL    HW126903   1.042   3.500   7.368 -0.0982  0.5859  0.8129
 5147SOL    HW226904   0.957   3.395   7.431 -1.2616 -0.0026 -0.3480
 5148SOL     OW26905   0.841   3.726   6.996  0.2912 -0.6674  0.2219
 5148SOL    HW126906   0.750   3.706   6.975  0.0146  0.7233  0.0994
 5148SOL    HW226907   0.818   3.803   7.047  0.5138 -0.0660 -0.5980
 5149SOL     OW26908   1.202   1.562   1.989 -0.7058 -0.5189 -0.6515
 5149SOL    HW126909   1.151   1.548   1.909 -0.4094  0.1215 -0.9484
 5149SOL    HW226910   1.207   1.656   2.001 -1.0410 -0.6759  0.7431
 5150SOL     OW26911   0.672   2.392   7.701 -0.2574  0.0121 -0.1455
 5150SOL    HW126912   0.596   2.437   7.738  0.7646 -1.0941  3.3158
 5150SOL    HW226913   0.717   2.365   7.781  1.5411  1.4423 -0.6698
 5151SOL     OW26914   3.578   0.555   1.399  0.1361  0.1943 -0.1226
 5151SOL    HW126915   3.544   0.577   1.486  2.5226  0.2062  0.7948
 5151SOL    HW226916   3.592   0.644   1.367 -0.8078  0.3906  0.0183
 5152SOL     OW26917   3.156   0.162   7.370 -0.3556  0.3100  0.2331
 5152SOL    HW126918   3.117   0.084   7.331  2.5975 -0.8698 -0.2970
 5152SOL    HW226919   3.196   0.128   7.450  2.3493 -1.4302 -1.8535
 5153SOL     OW26920   4.226   3.700   8.216 -0.0837  0.0289  0.2626
 5153SOL    HW126921   4.264   3.681   8.130  2.3864 -0.3026  1.4395
 5153SOL    HW226922   4.291   3.751   8.264 -0.5086  0.5204  0.3166
 5154SOL     OW26923   0.173   2.916   6.458  0.5863 -0.6129 -0.3518
 5154SOL    HW126924   0.163   2.860   6.535  1.0620  0.2253  0.3123
 5154SOL    HW226925   0.215   2.852   6.401  0.5127  1.1454 -2.4036
 5155SOL     OW26926   0.106   0.139   5.588 -0.0116  0.1949  0.3248
 5155SOL    HW126927   0.030   0.142   5.645 -2.0123 -2.5621 -2.1956
 5155SOL    HW226928   0.172   0.172   5.649 -1.8754  2.0293  1.3234
 5156SOL     OW26929   4.460   2.063  16.794  0.1328  0.2629  0.1131
 5156SOL    HW126930   4.532   2.114  16.832 -1.5645  2.3420  0.5600
 5156SOL    HW226931   4.438   2.004  16.865  0.4039 -1.1530 -0.9681
 5157SOL     OW26932   0.676   3.135   4.932  0.0986  0.0492 -0.2693
 5157SOL    HW126933   0.632   3.196   4.873 -0.1705 -0.6580 -0.8019
 5157SOL    HW226934   0.612   3.065   4.945  1.4168 -0.9385  0.8777
 5158SOL     OW26935   1.357   2.241   4.007  0.2191 -0.1551 -0.1810
 5158SOL    HW126936   1.284   2.304   4.004  0.6406  0.3547  0.1290
 5158SOL    HW226937   1.327   2.183   4.077  0.3150 -0.0205 -0.0281
 5159SOL     OW26938   1.776   1.947  11.953 -0.4231  0.4925 -0.0088
 5159SOL    HW126939   1.720   1.878  11.918 -0.4769 -0.4406  1.8892
 5159SOL    HW226940   1.803   1.985  11.870  2.4868 -0.1289  0.6367
 5160SOL     OW26941   3.327   2.165  15.104  0.2260  0.7328 -0.0882
 5160SOL    HW126942   3.329   2.135  15.013 -0.0793 -0.1496  0.2000
 5160SOL    HW226943   3.235   2.153  15.127 -0.1061  0.0068 -1.7800
 5161SOL     OW26944   0.793   4.093   7.504  0.1913  0.3165  0.0913
 5161SOL    HW126945   0.749   4.156   7.447 -0.4153  0.5698  0.8402
 5161SOL    HW226946   0.828   4.148   7.574 -0.8368 -1.1047  1.7152
 5162SOL     OW26947   1.642   0.647   6.780  0.2465  0.5051 -0.3068
 5162SOL    HW126948   1.711   0.688   6.832  0.2419  0.9911 -0.6870
 5162SOL    HW226949   1.646   0.558   6.814  1.4443  2.3736  4.4887
 5163SOL     OW26950   0.634   2.096   5.439 -0.0282 -0.0937  0.6057
 5163SOL    HW126951   0.567   2.165   5.442  0.8081  0.6591  1.9443
 5163SOL    HW226952   0.593   2.052   5.364 -2.5716  0.9999  1.3523
 5164SOL     OW26953   2.138   1.387  10.807  0.6555 -0.0932 -0.9015
 5164SOL    HW126954   2.079   1.444  10.856  1.5709 -0.6506  0.8175
 5164SOL    HW226955   2.105   1.300  10.829 -1.5290  1.0873  0.5772
 5165SOL     OW26956   0.624   1.923   1.034 -0.7472 -0.0709 -0.2473
 5165SOL    HW126957   0.545   1.925   0.981  0.1730  1.6249 -1.5595
 5165SOL    HW226958   0.629   2.014   1.063 -1.4288 -0.1679  0.1887
 5166SOL     OW26959   1.767   0.118   4.595 -0.1971  0.5596  0.4947
 5166SOL    HW126960   1.857   0.142   4.614 -0.3701  1.1520  0.5530
 5166SOL    HW226961   1.784   0.024   4.592 -0.7216  0.4281  1.6833
 5167SOL     OW26962   0.241   1.202   2.776 -0.3097 -0.6600  0.1500
 5167SOL    HW126963   0.205   1.131   2.723 -2.0249  0.5009 -0.2264
 5167SOL    HW226964   0.320   1.228   2.728 -1.2169  1.7883 -0.0166
 5168SOL     OW26965   4.271   3.107  13.529 -0.0863 -0.2838 -0.1100
 5168SOL    HW126966   4.339   3.128  13.465  1.8840  1.0986  2.4474
 5168SOL    HW226967   4.313   3.138  13.609 -2.0137 -2.9261  1.9306
 5169SOL     OW26968   0.823   4.080   5.794 -0.1752 -0.1102 -0.1284
 5169SOL    HW126969   0.794   4.171   5.782  1.4948  0.4188 -0.1360
 5169SOL    HW226970   0.870   4.069   5.711  1.1361  4.3435  0.0464
 5170SOL     OW26971   3.752   1.253  17.466  0.0878  0.4133  0.5614
 5170SOL    HW126972   3.831   1.207  17.437 -2.7314 -2.3532 -2.7128
 5170SOL    HW226973   3.700   1.173  17.461  0.1172  0.4720 -0.7027
 5171SOL     OW26974   1.037   0.196   5.334 -0.0192  0.1581  0.2265
 5171SOL    HW126975   0.989   0.133   5.387  2.4472 -2.9200 -1.2415
 5171SOL    HW226976   1.125   0.160   5.335  0.5236  1.4612 -0.6089
 5172SOL     OW26977   1.829   3.889   2.110 -0.6944  0.0476 -0.0450
 5172SOL    HW126978   1.906   3.859   2.062 -0.7949  0.4251 -0.4443
 5172SOL    HW226979   1.758   3.857   2.054  0.5269 -0.1099 -1.5037
 5173SOL     OW26980   4.242   4.216   5.373  0.0282  0.0953  0.0757
 5173SOL    HW126981   4.167   4.275   5.371 -1.3067 -1.6130 -1.0056
 5173SOL    HW226982   4.308   4.285   5.375  1.3974 -1.2197 -0.6172
 5174SOL     OW26983   0.735   0.610   5.293  0.4606  0.0431 -0.0983
 5174SOL    HW126984   0.774   0.580   5.375  0.4688 -1.0454 -0.4932
 5174SOL    HW226985   0.690   0.690   5.320 -0.7492 -0.8672  0.5738
 5175SOL     OW26986   2.547   2.404   3.597 -0.0597 -0.7448  0.6263
 5175SOL    HW126987   2.512   2.353   3.523  1.6247  1.9181 -1.9602
 5175SOL    HW226988   2.463   2.437   3.628  0.0063 -1.6670  1.7815
 5176SOL     OW26989   3.115   2.029   8.669 -0.4673  0.0293 -0.2101
 5176SOL    HW126990   3.078   2.094   8.609 -1.8932 -1.1114 -0.5725
 5176SOL    HW226991   3.036   1.982   8.696  0.6031 -0.7213  1.6448
 5177SOL     OW26992   0.161   0.884  11.534 -0.2244 -0.5473  0.0401
 5177SOL    HW126993   0.159   0.809  11.593 -0.9004  0.4334  1.2688
 5177SOL    HW226994   0.225   0.936  11.583 -0.7862 -0.8543  1.1049
 5178SOL     OW26995   1.643   0.615  14.946  0.3456 -0.1503 -0.0236
 5178SOL    HW126996   1.700   0.675  14.993  1.1805 -0.1062 -1.0906
 5178SOL    HW226997   1.683   0.618  14.859  0.2433 -3.0082 -0.1782
 5179SOL     OW26998   3.074   3.036   8.128 -0.0908 -0.0160  0.3374
 5179SOL    HW126999   3.027   3.015   8.209  1.3190 -0.7233  0.9699
 5179SOL    HW227000   3.086   2.950   8.088  1.8641  1.2337 -1.7369
 5180SOL     OW27001   2.318   1.769  14.830  0.4561 -0.8478 -0.2171
 5180SOL    HW127002   2.315   1.774  14.734 -1.0512  0.5277 -0.0973
 5180SOL    HW227003   2.366   1.690  14.852  0.4744 -0.5973  0.6202
 5181SOL     OW27004   3.455   4.147  13.947  0.0875 -0.0633  0.6586
 5181SOL    HW127005   3.366   4.154  13.913  0.9888  1.1313 -1.4299
 5181SOL    HW227006   3.468   4.235  13.983  1.9822  0.2676 -0.8375
 5182SOL     OW27007   4.290   0.840  13.418 -0.5435 -0.3505 -0.3550
 5182SOL    HW127008   4.359   0.809  13.359 -1.1864  0.1696 -1.3915
 5182SOL    HW227009   4.330   0.902  13.479  2.1324 -0.1753 -2.2469
 5183SOL     OW27010   0.828   3.980   2.834 -1.0047 -0.4666 -0.2001
 5183SOL    HW127011   0.759   3.914   2.828  1.7428 -3.3565  0.1751
 5183SOL    HW227012   0.788   4.048   2.780  0.1608 -1.0769 -1.8355
 5184SOL     OW27013   4.495   2.279   5.290  0.3058 -0.3247  0.2076
 5184SOL    HW127014   4.525   2.359   5.334  0.0115 -0.7303  1.1612
 5184SOL    HW227015   4.524   2.222   5.361  1.3424  0.2459  0.2388
 5185SOL     OW27016   0.373   3.535   7.260 -0.5383 -0.5050  0.3032
 5185SOL    HW127017   0.338   3.464   7.206  0.7599  0.4541 -1.7936
 5185SOL    HW227018   0.467   3.517   7.266 -0.4438  0.3590  1.5442
 5186SOL     OW27019   3.897   0.901  12.712 -0.1715  0.1707  0.0667
 5186SOL    HW127020   3.859   0.915  12.625  0.8427  1.1990 -0.2030
 5186SOL    HW227021   3.960   0.973  12.716 -1.5857  1.5047 -1.6527
 5187SOL     OW27022   2.384   0.156   5.745  0.1456 -0.0737 -0.0348
 5187SOL    HW127023   2.452   0.219   5.721  1.0731 -0.4690  1.6199
 5187SOL    HW227024   2.421   0.070   5.761 -0.4749 -0.2943  0.1936
 5188SOL     OW27025   1.849   2.494   1.530  0.0317  0.0224 -0.6763
 5188SOL    HW127026   1.896   2.561   1.481 -0.4359  0.9110  0.0887
 5188SOL    HW227027   1.781   2.542   1.577 -0.5291  0.5480 -2.0352
 5189SOL     OW27028   1.476   3.255   3.071 -0.0940  1.0233 -0.2195
 5189SOL    HW127029   1.402   3.251   3.011 -0.4034  0.7654  0.1786
 5189SOL    HW227030   1.511   3.337   3.036  0.2703  0.1797 -1.8400
 5190SOL     OW27031   2.747   3.745  11.439 -0.1243  0.3941  0.0420
 5190SOL    HW127032   2.735   3.663  11.486  1.3676  0.2398  0.1311
 5190SOL    HW227033   2.745   3.723  11.346  2.9636 -0.2362  0.1293
 5191SOL     OW27034   1.433   2.916   6.143  0.0925  0.0454 -0.0458
 5191SOL    HW127035   1.413   2.863   6.066  0.6976  0.5996 -0.5807
 5191SOL    HW227036   1.525   2.920   6.119 -0.1388 -0.3425 -0.9932
 5192SOL     OW27037   4.505   3.363   3.766 -0.8061  0.3273  0.0610
 5192SOL    HW127038   4.593   3.372   3.730 -0.2729 -1.7680  0.8433
 5192SOL    HW227039   4.446   3.418   3.714  0.8505  2.4655  0.4507
 5193SOL     OW27040   3.709   0.899   8.667 -0.3272 -0.4476 -0.4001
 5193SOL    HW127041   3.666   0.820   8.697 -2.5339  0.4697 -1.0907
 5193SOL    HW227042   3.706   0.885   8.572  0.0916  0.9435 -0.6325
 5194SOL     OW27043   0.231   3.140  17.560 -0.0601 -0.4692  0.2975
 5194SOL    HW127044   0.184   3.077  17.614 -1.6287 -0.7165 -1.3789
 5194SOL    HW227045   0.241   3.212  17.622  1.4218  0.8169 -1.4204
 5195SOL     OW27046   2.767   1.332  17.087  0.4439  0.0033  0.2019
 5195SOL    HW127047   2.774   1.428  17.080 -1.6593  0.1264 -0.2907
 5195SOL    HW227048   2.759   1.307  16.995  2.0781  0.8585 -0.1719
 5196SOL     OW27049   3.468   1.920   8.460 -0.1997 -0.2151 -0.1981
 5196SOL    HW127050   3.553   1.936   8.419  0.1607  0.9712  1.0197
 5196SOL    HW227051   3.433   1.847   8.409  1.0580  0.2954 -1.7957
 5197SOL     OW27052   4.398   0.373  12.756 -0.1421  0.0087  0.2885
 5197SOL    HW127053   4.423   0.376  12.663 -0.0824 -1.2360  0.2595
 5197SOL    HW227054   4.346   0.453  12.755 -2.2109 -1.3032  2.9331
 5198SOL     OW27055   1.984   2.816  15.829 -0.2086  0.6258 -0.1919
 5198SOL    HW127056   2.039   2.792  15.903  0.4939 -1.5680 -1.4238
 5198SOL    HW227057   1.917   2.748  15.840 -0.0854  0.8452  1.9461
 5199SOL     OW27058   2.927   2.252   7.044  0.3610  0.1050  0.6362
 5199SOL    HW127059   2.955   2.343   7.056  1.1120 -0.4281  2.8886
 5199SOL    HW227060   2.907   2.244   6.951  2.0682  0.0075  0.2691
 5200SOL     OW27061   2.243   2.004   5.537  0.5304 -0.2068  0.1454
 5200SOL    HW127062   2.188   1.952   5.596 -0.2185  1.7585  1.1736
 5200SOL    HW227063   2.214   1.980   5.449 -1.2892  0.1699  0.6346
 5201SOL     OW27064   4.581   4.318   4.355 -0.0421 -0.0447  0.6405
 5201SOL    HW127065   4.540   4.288   4.436  0.7512  1.1142  1.4743
 5201SOL    HW227066   4.644   4.384   4.385  1.0863  0.8313 -3.5620
 5202SOL     OW27067   3.967   4.661   7.257 -0.5846  0.5578  0.3758
 5202SOL    HW127068   4.011   4.607   7.191 -1.9844  1.8086 -1.5853
 5202SOL    HW227069   3.947   0.017   7.205 -1.8172  0.9282  1.4123
 5203SOL     OW27070   4.660   1.982   7.020  0.2554 -0.3446  0.0454
 5203SOL    HW127071   4.571   1.952   7.040 -1.6893  2.7256 -4.0312
 5203SOL    HW227072   4.687   2.021   7.103  1.5074 -0.0347 -0.5147
 5204SOL     OW27073   3.044   3.156   0.767 -0.3589 -0.2000  0.1293
 5204SOL    HW127074   3.025   3.063   0.777 -0.3750 -0.1055  1.0265
 5204SOL    HW227075   3.097   3.151   0.688 -0.6739  1.6867 -0.1949
 5205SOL     OW27076   1.734   0.224  14.583  0.5275 -0.2290  0.0542
 5205SOL    HW127077   1.646   0.196  14.560  0.0104  2.1293 -0.8192
 5205SOL    HW227078   1.779   0.148  14.621 -0.3289 -1.0388 -0.5768
 5206SOL     OW27079   3.861   1.655   7.667 -0.4535  0.2921  0.6940
 5206SOL    HW127080   3.802   1.702   7.607 -0.2684 -0.5074 -0.1150
 5206SOL    HW227081   3.907   1.591   7.613 -2.1595 -2.4831  2.5475
 5207SOL     OW27082   1.650   4.249   5.578 -0.1358  0.5995  0.2576
 5207SOL    HW127083   1.707   4.274   5.505 -0.0292 -0.7017 -0.1224
 5207SOL    HW227084   1.692   4.168   5.607  0.9922  1.2508  0.4261
 5208SOL     OW27085   4.709   3.390   4.467  0.1293  0.0052 -0.2242
 5208SOL    HW127086   4.671   3.436   4.392  1.9511  0.6480 -0.7502
 5208SOL    HW227087   4.623   3.358   4.497  0.2513 -0.2044 -0.1034
 5209SOL     OW27088   1.756   0.118   7.550 -0.3801 -0.8233  0.3767
 5209SOL    HW127089   1.694   0.138   7.620 -1.5043  0.5520 -0.9913
 5209SOL    HW227090   1.821   0.079   7.608 -0.7259 -1.6039  0.2370
 5210SOL     OW27091   2.049   2.365  13.737  1.0901 -0.8345 -0.2384
 5210SOL    HW127092   1.996   2.431  13.780  1.0041 -0.0739 -1.4907
 5210SOL    HW227093   2.016   2.288  13.784  2.3203 -0.6642  0.8930
 5211SOL     OW27094   2.848   1.155   7.653  0.6674 -0.2728  0.0011
 5211SOL    HW127095   2.881   1.244   7.641  0.7447 -0.3095 -0.0580
 5211SOL    HW227096   2.851   1.153   7.748 -1.3226 -1.5206  0.0273
 5212SOL     OW27097   3.672   1.233  15.871 -0.7120  0.3475 -0.0582
 5212SOL    HW127098   3.630   1.174  15.934 -1.7411  0.1506 -0.9084
 5212SOL    HW227099   3.688   1.311  15.924  0.5543 -0.7459  1.1313
 5213SOL     OW27100   4.302   2.510  10.407  0.3676  0.0851 -0.2055
 5213SOL    HW127101   4.306   2.535  10.315  2.1331  1.6994  0.3028
 5213SOL    HW227102   4.350   2.427  10.402  0.4846  0.1616 -0.3654
 5214SOL     OW27103   3.338   3.259  16.327 -0.4644  0.6334 -0.3158
 5214SOL    HW127104   3.243   3.269  16.340 -0.5551  0.8671 -1.1393
 5214SOL    HW227105   3.368   3.292  16.411 -0.0547 -1.0158  0.1897
 5215SOL     OW27106   2.546   0.584   2.638 -0.1754 -0.4974 -0.4869
 5215SOL    HW127107   2.465   0.597   2.589 -1.2315 -0.4604  1.2434
 5215SOL    HW227108   2.516   0.547   2.721 -2.4881 -1.3541 -1.6945
 5216SOL     OW27109   3.382   1.439   2.632 -0.0440 -0.4119 -0.1827
 5216SOL    HW127110   3.451   1.471   2.574  1.6422 -2.0816  0.9556
 5216SOL    HW227111   3.343   1.366   2.584 -1.0017 -0.6094  0.8940
 5217SOL     OW27112   2.927   2.208  14.862  0.1138 -0.0550 -0.6625
 5217SOL    HW127113   2.949   2.280  14.803 -0.9130  0.1199 -0.8313
 5217SOL    HW227114   3.015   2.184  14.891 -0.3020  2.2242  2.3997
 5218SOL     OW27115   1.339   4.305   6.991  0.2590 -0.6024  0.2731
 5218SOL    HW127116   1.336   4.373   7.058  0.1713  0.6698 -1.0352
 5218SOL    HW227117   1.306   4.231   7.042  2.4868 -1.8114 -0.0201
 5219SOL     OW27118   1.391   0.582   4.174 -0.2337  0.1158 -0.0032
 5219SOL    HW127119   1.335   0.598   4.099 -1.1670  0.6015  0.7943
 5219SOL    HW227120   1.401   0.674   4.199 -2.0101  0.6431 -1.3175
 5220SOL     OW27121   0.045   1.132   1.750  0.4304 -0.4702  0.8014
 5220SOL    HW127122   0.043   1.133   1.654  0.3857 -1.8431  0.7933
 5220SOL    HW227123   0.013   1.043   1.759 -2.4099  0.5531  0.5799
 5221SOL     OW27124   1.892   0.122   6.319  0.3323  0.4270 -0.6361
 5221SOL    HW127125   1.910   0.127   6.413 -2.4052  0.7604 -0.1358
 5221SOL    HW227126   1.815   0.066   6.319 -0.4980  1.5720  1.1631
 5222SOL     OW27127   2.926   3.437   4.606 -0.1611  0.4688  0.1520
 5222SOL    HW127128   2.861   3.385   4.558  0.4044 -1.7061  1.7377
 5222SOL    HW227129   2.859   3.478   4.662 -0.4167 -0.9522  0.8677
 5223SOL     OW27130   4.556   0.651  15.177 -0.2105 -0.0430  0.4652
 5223SOL    HW127131   4.520   0.728  15.132  2.0498  0.6401 -0.1581
 5223SOL    HW227132   4.623   0.698  15.226  2.4721 -2.1292 -1.2160
 5224SOL     OW27133   3.017   3.760  11.598 -0.4894  0.0938  0.0003
 5224SOL    HW127134   2.940   3.791  11.647 -1.8464  1.8127 -3.2157
 5224SOL    HW227135   3.081   3.775  11.668 -1.7131 -2.8152  1.7511
 5225SOL     OW27136   3.561   3.320   2.365 -0.2318  0.2296  0.3181
 5225SOL    HW127137   3.499   3.328   2.438 -2.3689  0.6816 -1.5618
 5225SOL    HW227138   3.489   3.311   2.304  1.8007 -0.4411 -1.9804
 5226SOL     OW27139   3.371   2.616   6.451  0.5565 -0.2039  0.1328
 5226SOL    HW127140   3.280   2.635   6.476  0.0786  0.0137 -1.7745
 5226SOL    HW227141   3.372   2.632   6.357  0.1598  1.4173  0.4132
 5227SOL     OW27142   1.608   1.420  15.994  0.0442  0.0216 -0.7005
 5227SOL    HW127143   1.567   1.336  16.011  1.2171 -0.6156 -1.0078
 5227SOL    HW227144   1.532   1.475  16.016 -0.4971 -0.8878 -0.3284
 5228SOL     OW27145   4.271   0.615   5.991 -0.1016  0.4565  0.2598
 5228SOL    HW127146   4.254   0.568   5.910  2.6720 -0.5792  0.3020
 5228SOL    HW227147   4.290   0.550   6.058  2.4243  0.9412  0.0086
 5229SOL     OW27148   1.424   0.189   5.971 -0.0186 -0.5300 -0.2347
 5229SOL    HW127149   1.513   0.154   5.969  0.2465  0.1234  0.2613
 5229SOL    HW227150   1.376   0.131   5.912  2.1211  0.3077 -2.8219
 5230SOL     OW27151   1.057   0.345   3.140 -0.5262  0.0357  0.2981
 5230SOL    HW127152   1.077   0.394   3.220  1.7751 -2.6418  1.3985
 5230SOL    HW227153   1.125   0.374   3.080  1.2317  0.6131  2.5523
 5231SOL     OW27154   0.026   4.650   3.967  0.5663  0.3045  0.0700
 5231SOL    HW127155   0.064   0.010   3.999 -2.3582  1.4478  0.6213
 5231SOL    HW227156   0.074   4.592   4.026  0.8994  0.5148  0.0054
 5232SOL     OW27157   1.871   4.042  15.829 -0.3018 -0.5617  0.3114
 5232SOL    HW127158   1.950   4.087  15.799 -1.4810  1.2369 -0.0810
 5232SOL    HW227159   1.868   3.964  15.773  1.8517 -0.5082  0.1108
 5233SOL     OW27160   3.946   1.536   0.511 -0.3664 -0.2815  0.3717
 5233SOL    HW127161   3.978   1.447   0.494  0.9312  0.3110 -0.2796
 5233SOL    HW227162   3.869   1.555   0.458  0.1645  1.3967  0.1840
 5234SOL     OW27163   3.501   2.807   4.260  0.1852  0.2783  0.9019
 5234SOL    HW127164   3.452   2.782   4.182 -0.8056 -0.2099  1.6748
 5234SOL    HW227165   3.449   2.879   4.296  2.2233  2.0172  0.3659
 5235SOL     OW27166   2.808   2.542   5.241 -0.1054 -0.0805  0.0765
 5235SOL    HW127167   2.867   2.555   5.166 -2.1668  1.3369 -1.3122
 5235SOL    HW227168   2.863   2.578   5.309 -2.1227  2.6314  0.3001
 5236SOL     OW27169   3.658   0.442   3.437  0.0830  1.0673  0.0243
 5236SOL    HW127170   3.658   0.468   3.345 -2.2027 -1.0593 -0.5667
 5236SOL    HW227171   3.751   0.458   3.454  0.3400 -1.1568  0.6266
 5237SOL     OW27172   0.813   3.065   1.516  0.0338  0.1088 -0.1983
 5237SOL    HW127173   0.721   3.080   1.538 -0.6313  0.2472 -3.1696
 5237SOL    HW227174   0.798   2.996   1.451 -0.9852 -1.8650  2.1233
 5238SOL     OW27175   1.592   1.398   8.105  0.8086  0.5826  0.1171
 5238SOL    HW127176   1.515   1.369   8.056  2.7030 -1.0076 -1.8605
 5238SOL    HW227177   1.584   1.493   8.097  2.9662  0.6261 -1.5208
 5239SOL     OW27178   4.519   1.908   3.114 -0.0133 -0.1994  0.0783
 5239SOL    HW127179   4.545   1.831   3.164 -0.4230 -1.9171 -2.3929
 5239SOL    HW227180   4.451   1.946   3.170 -1.1583 -0.5532 -1.0909
 5240SOL     OW27181   0.911   2.048  13.061  0.2488  0.0282  0.1320
 5240SOL    HW127182   0.906   2.132  13.015  2.3554  0.2888  0.3658
 5240SOL    HW227183   0.912   2.075  13.153 -0.3806  2.7385 -0.6749
 5241SOL     OW27184   1.956   1.117  12.004 -0.1073  0.8914  0.4051
 5241SOL    HW127185   1.898   1.188  11.976 -0.6256  1.1222  2.0730
 5241SOL    HW227186   1.997   1.085  11.923 -0.4849  0.7655  0.2676
 5242SOL     OW27187   3.095   0.166   7.004 -0.6876  0.3746  0.5765
 5242SOL    HW127188   3.071   0.121   7.085  0.5471 -0.2065  0.6156
 5242SOL    HW227189   3.013   0.211   6.980  0.2186  2.0704  0.6321
 5243SOL     OW27190   1.435   1.899   3.096 -0.1446 -0.3274  0.2836
 5243SOL    HW127191   1.491   1.943   3.159 -1.0693 -0.7684  1.4064
 5243SOL    HW227192   1.350   1.941   3.113  0.9178  2.9223 -2.3685
 5244SOL     OW27193   3.626   1.081  12.847 -0.3847  0.3267 -0.3764
 5244SOL    HW127194   3.681   1.012  12.882 -2.5339 -0.8586  0.6331
 5244SOL    HW227195   3.549   1.033  12.816  0.1001  0.8158 -2.3952
 5245SOL     OW27196   4.633   0.217  12.862 -0.0684  0.2952 -0.1362
 5245SOL    HW127197   4.644   0.285  12.928 -1.3753  0.6543 -0.2886
 5245SOL    HW227198   4.553   0.255  12.827 -0.5641  0.4475  1.1622
 5246SOL     OW27199   4.374   0.543   6.896 -0.1776  0.2106 -0.1182
 5246SOL    HW127200   4.349   0.461   6.854 -0.5282 -0.4541  1.4039
 5246SOL    HW227201   4.371   0.592   6.813  0.1808  0.0612 -0.2187
 5247SOL     OW27202   1.331   2.149   7.506 -0.7049  0.4456 -0.1357
 5247SOL    HW127203   1.386   2.086   7.552 -0.8422  0.3684 -0.0739
 5247SOL    HW227204   1.251   2.135   7.557  1.0626 -0.0209  2.4872
 5248SOL     OW27205   3.591   3.900   7.031 -0.1499  0.1375  0.1463
 5248SOL    HW127206   3.631   3.937   7.110  0.8694 -0.4353 -0.1148
 5248SOL    HW227207   3.511   3.876   7.079 -0.3998 -0.3803 -0.5231
 5249SOL     OW27208   2.951   2.871   0.455  0.0509 -0.4904  0.0259
 5249SOL    HW127209   2.863   2.849   0.425 -0.2512 -0.6660  1.0136
 5249SOL    HW227210   2.969   2.787   0.496  1.7696  0.1978  0.6940
 5250SOL     OW27211   0.005   1.991   2.002 -0.0242  0.3807  0.1207
 5250SOL    HW127212   4.695   2.062   2.057  1.4686  0.6228  0.6707
 5250SOL    HW227213   0.074   2.035   1.952 -0.9420  0.7875 -0.7888
 5251SOL     OW27214   0.466   2.411  13.215  0.4718 -0.5070  0.0460
 5251SOL    HW127215   0.404   2.427  13.285 -0.8654  1.6164 -1.6266
 5251SOL    HW227216   0.547   2.383  13.258  2.1602  0.8114 -2.2320
 5252SOL     OW27217   0.207   0.185   9.515 -0.1837  0.1525  0.2723
 5252SOL    HW127218   0.163   0.147   9.591 -2.2861  0.8257 -0.5981
 5252SOL    HW227219   0.198   0.278   9.532  2.1695  0.0573  1.9527
 5253SOL     OW27220   1.274   1.947  16.012  0.4886 -0.5678  0.0619
 5253SOL    HW127221   1.192   1.995  16.026  0.2778 -0.3627 -1.8284
 5253SOL    HW227222   1.341   2.012  15.991  0.3460 -0.3284  0.3537
 5254SOL     OW27223   2.603   4.468   1.187 -0.3389 -0.3067 -0.4917
 5254SOL    HW127224   2.586   4.458   1.094  2.5936  2.6764 -1.3141
 5254SOL    HW227225   2.633   4.559   1.186  1.5325 -0.9279 -0.3458
 5255SOL     OW27226   1.164   4.672   7.369 -0.2695  0.1132  0.1206
 5255SOL    HW127227   1.129   4.624   7.445 -0.2657 -0.8002 -0.4546
 5255SOL    HW227228   1.089   4.676   7.310 -0.6737  3.9292  0.9229
 5256SOL     OW27229   1.621   1.054  16.927  0.7325 -0.0667 -0.3355
 5256SOL    HW127230   1.530   1.051  16.956  0.6724  2.7991 -0.2316
 5256SOL    HW227231   1.605   1.075  16.835  1.4689 -3.2116 -1.1923
 5257SOL     OW27232   2.598   3.146   2.785  0.5918  0.0926  0.0598
 5257SOL    HW127233   2.608   3.236   2.752  1.0843  0.6824  1.8133
 5257SOL    HW227234   2.557   3.160   2.870 -3.1977  0.4191 -1.8049
 5258SOL     OW27235   2.068   3.111  17.077  0.2811  0.2809 -0.2276
 5258SOL    HW127236   2.106   3.158  17.003 -1.3523 -1.0369 -1.9136
 5258SOL    HW227237   1.974   3.133  17.074  0.0395 -0.6414  0.6876
 5259SOL     OW27238   1.238   1.930   8.573 -0.4261 -0.3078  0.0069
 5259SOL    HW127239   1.207   1.867   8.508  2.2218 -0.2029 -1.3673
 5259SOL    HW227240   1.201   1.884   8.648  1.1407 -0.5016  0.6475
 5260SOL     OW27241   4.155   4.574   8.158 -0.3625  0.3745 -0.0381
 5260SOL    HW127242   4.077   4.523   8.137 -0.5578  0.7128 -0.1380
 5260SOL    HW227243   4.200   4.563   8.074  1.7919 -3.8556  1.6596
 5261SOL     OW27244   4.512   1.641   3.230  0.3737  0.8876 -0.5597
 5261SOL    HW127245   4.576   1.621   3.162  0.9489  0.4499  0.1063
 5261SOL    HW227246   4.534   1.562   3.281  0.8712  1.1496 -0.3677
 5262SOL     OW27247   4.329   2.943  16.071 -0.1361  0.1690  0.3985
 5262SOL    HW127248   4.387   2.947  16.147 -0.7402 -0.4752  0.8936
 5262SOL    HW227249   4.382   2.983  16.002 -1.5250  1.2845 -0.0149
 5263SOL     OW27250   4.443   4.231   3.879  0.0864  0.1599  0.0103
 5263SOL    HW127251   4.495   4.239   3.959  2.0117  1.2672 -1.3528
 5263SOL    HW227252   4.458   4.318   3.843 -0.4418  0.1040 -0.3384
 5264SOL     OW27253   0.414   3.572   5.476 -0.3325 -0.1655 -0.6859
 5264SOL    HW127254   0.329   3.529   5.487  0.7078 -1.5584  1.9770
 5264SOL    HW227255   0.395   3.665   5.481  0.5642 -0.0699  1.0667
 5265SOL     OW27256   2.591   1.631  10.421 -0.3303 -0.2050  0.2026
 5265SOL    HW127257   2.619   1.557  10.367 -1.2646  0.0322 -0.6216
 5265SOL    HW227258   2.635   1.705  10.378 -0.8394  0.2507  0.4635
 5266SOL     OW27259   1.467   2.876   2.202 -0.0138 -0.2458 -0.2717
 5266SOL    HW127260   1.538   2.817   2.226 -0.1117  0.0472  0.7454
 5266SOL    HW227261   1.510   2.955   2.168  1.7878 -0.6259  1.1294
 5267SOL     OW27262   2.672   4.717   1.176 -0.1950  0.2770  0.1339
 5267SOL    HW127263   2.699   0.032   1.092  0.4366  0.3110  0.3571
 5267SOL    HW227264   2.583   0.030   1.187 -1.0234 -1.3045 -1.4417
 5268SOL     OW27265   4.135   4.722   3.947 -0.0424 -0.1155 -0.5557
 5268SOL    HW127266   4.178   0.035   4.024  0.3807  0.5200 -1.0779
 5268SOL    HW227267   4.046   0.034   3.945  0.9546  2.6556  3.1030
 5269SOL     OW27268   4.595   3.800   2.362 -1.1567  0.1824  0.0804
 5269SOL    HW127269   4.691   3.799   2.368 -1.2183 -1.2972  0.9487
 5269SOL    HW227270   4.590   3.849   2.280  2.8842  0.4211 -0.0609
 5270SOL     OW27271   2.003   1.623   6.056  0.5475  0.1149 -0.1689
 5270SOL    HW127272   2.044   1.536   6.057  2.8253  1.1822 -1.0017
 5270SOL    HW227273   1.948   1.616   5.978 -1.0051 -1.6287  1.0921
 5271SOL     OW27274   1.614   3.760  12.380  0.5647  0.6605 -1.1897
 5271SOL    HW127275   1.695   3.811  12.382  0.2492  1.0590  0.9528
 5271SOL    HW227276   1.595   3.745  12.472  1.5928  0.9754 -0.9294
 5272SOL     OW27277   4.717   0.264   6.978 -0.0519 -1.0674 -0.1429
 5272SOL    HW127278   0.055   0.193   7.001  3.5753  1.3280 -2.3044
 5272SOL    HW227279   4.696   0.305   7.062 -1.1634  1.5621 -1.7019
 5273SOL     OW27280   1.317   4.303  10.956  0.4775 -0.0204  0.1805
 5273SOL    HW127281   1.318   4.210  10.930  2.1309  0.1968 -0.5315
 5273SOL    HW227282   1.380   4.346  10.898  0.8607  0.1249  0.7039
 5274SOL     OW27283   1.581   3.660  11.591  0.6541 -0.5224  0.5297
 5274SOL    HW127284   1.541   3.719  11.527 -0.6322 -1.0896  0.8166
 5274SOL    HW227285   1.640   3.719  11.639  1.0514 -0.2465 -0.3060
 5275SOL     OW27286   0.950   4.615   5.808  0.2892 -0.3910  0.8385
 5275SOL    HW127287   0.961   4.710   5.798 -0.4949 -0.3468  0.3808
 5275SOL    HW227288   0.872   4.614   5.864  0.0113 -1.1116  0.4399
 5276SOL     OW27289   4.555   1.354   3.744  0.2705 -0.5020 -0.2922
 5276SOL    HW127290   4.591   1.356   3.833  0.1713  0.2763 -0.2663
 5276SOL    HW227291   4.465   1.330   3.764 -0.8668  3.1977 -0.9200
 5277SOL     OW27292   2.346   2.892   8.126 -0.6110 -0.8217 -0.1983
 5277SOL    HW127293   2.432   2.850   8.129 -0.3015 -0.2176 -0.5113
 5277SOL    HW227294   2.328   2.918   8.216  0.8006  0.0844 -0.1685
 5278SOL     OW27295   3.052   4.704   3.983 -0.0425  0.3376  0.2469
 5278SOL    HW127296   2.965   0.012   4.011  0.5946  0.6503  1.9015
 5278SOL    HW227297   3.061   4.612   4.007 -0.9022  0.7696  2.2499
 5279SOL     OW27298   0.416   2.684   4.858  0.4668  1.0736 -0.3006
 5279SOL    HW127299   0.344   2.635   4.898  0.3747  0.5055 -1.1734
 5279SOL    HW227300   0.414   2.757   4.920  0.6995  0.9452 -0.1427
 5280SOL     OW27301   0.578   1.071   4.229 -0.1000 -0.7900  0.3354
 5280SOL    HW127302   0.551   1.049   4.318 -0.0932 -0.6224  0.3790
 5280SOL    HW227303   0.517   1.140   4.205  0.3542 -1.0882 -1.6832
 5281SOL     OW27304   3.283   2.828  14.156 -0.3639  0.1217  0.2810
 5281SOL    HW127305   3.234   2.756  14.115 -1.0820 -0.0176  1.3796
 5281SOL    HW227306   3.269   2.818  14.250 -2.0411  1.1511  0.1392
 5282SOL     OW27307   0.400   0.362   0.711  0.1010 -0.1507  0.1297
 5282SOL    HW127308   0.388   0.367   0.806 -1.1219  1.2417 -0.0949
 5282SOL    HW227309   0.491   0.340   0.692  0.2484  2.5245 -2.1886
 5283SOL     OW27310   0.551   1.622   0.491  0.1425  0.6598 -0.2487
 5283SOL    HW127311   0.563   1.529   0.510  1.3822  0.9165  0.2205
 5283SOL    HW227312   0.498   1.647   0.568  1.3319  2.2639  0.0460
 5284SOL     OW27313   2.924   2.810  13.030  0.5534  0.5816 -0.0411
 5284SOL    HW127314   2.852   2.855  13.076  0.1499 -1.0326  0.9209
 5284SOL    HW227315   2.902   2.718  13.048 -0.0620  0.7948  0.3067
 5285SOL     OW27316   3.498   3.522   6.871  0.0890 -0.6085  0.2836
 5285SOL    HW127317   3.503   3.456   6.801 -2.9768 -0.6014  0.0590
 5285SOL    HW227318   3.565   3.584   6.842  0.0667  0.0740  1.7280
 5286SOL     OW27319   1.478   0.540   2.518  0.1636 -0.3405 -0.1094
 5286SOL    HW127320   1.547   0.549   2.453  0.0279 -2.0764 -0.4915
 5286SOL    HW227321   1.415   0.495   2.462 -1.1666 -0.8633  1.7730
 5287SOL     OW27322   0.396   1.304   7.673 -0.0601 -0.3567  0.1077
 5287SOL    HW127323   0.313   1.321   7.717  0.0786  2.4744 -0.7404
 5287SOL    HW227324   0.431   1.242   7.737  0.8652 -1.6717 -1.6728
 5288SOL     OW27325   3.109   4.153  14.287  0.4896  0.1730  0.4334
 5288SOL    HW127326   3.046   4.216  14.323  0.0148 -0.5908  0.9263
 5288SOL    HW227327   3.196   4.179  14.318  0.8006 -0.0966 -0.2144
 5289SOL     OW27328   1.812   0.091  17.617 -0.0502  0.2871  0.3863
 5289SOL    HW127329   1.874   0.121  17.684 -0.3428  1.4746  0.1126
 5289SOL    HW227330   1.838   0.140  17.540  0.2258 -1.4082 -0.5975
 5290SOL     OW27331   0.902   1.749  16.253  0.0344 -0.5965 -0.5918
 5290SOL    HW127332   0.984   1.701  16.240 -0.2784 -1.0229 -0.9582
 5290SOL    HW227333   0.931   1.837  16.280  3.9234 -1.8128 -0.7319
 5291SOL     OW27334   4.167   3.914   2.110 -0.7005 -0.4756 -0.3034
 5291SOL    HW127335   4.122   3.985   2.063  0.8803 -0.1252 -1.2957
 5291SOL    HW227336   4.132   3.835   2.068 -3.0263  0.5454 -0.2959
 5292SOL     OW27337   0.840   0.873   4.432  0.0658  0.3358 -0.1352
 5292SOL    HW127338   0.836   0.793   4.381  1.6202  1.1637 -1.5210
 5292SOL    HW227339   0.748   0.902   4.431  0.2280  0.7753 -1.7205
 5293SOL     OW27340   3.837   4.054   8.526  0.2483  0.5210  0.1014
 5293SOL    HW127341   3.873   4.080   8.610  1.3181 -0.3704 -0.0738
 5293SOL    HW227342   3.824   3.961   8.544 -2.1431  1.2233  1.9487
 5294SOL     OW27343   0.192   1.721  14.843 -0.1050 -0.4340 -1.2461
 5294SOL    HW127344   0.103   1.743  14.815  0.2025 -0.5437 -2.3081
 5294SOL    HW227345   0.176   1.632  14.872  0.7407  0.3068  1.4929
 5295SOL     OW27346   3.000   0.014   3.470  0.1242 -0.2241 -0.3342
 5295SOL    HW127347   2.970   0.100   3.443  0.6938  0.4693  1.2581
 5295SOL    HW227348   3.095   0.025   3.473 -0.1913  1.7652  2.3035
 5296SOL     OW27349   0.228   4.392   3.445  0.0871 -0.0893  0.0946
 5296SOL    HW127350   0.211   4.437   3.527 -2.6235 -0.5401 -0.2163
 5296SOL    HW227351   0.158   4.326   3.443  0.4915 -0.5054 -0.9157
 5297SOL     OW27352   1.462   1.196  17.130 -0.2273 -0.1508  0.7166
 5297SOL    HW127353   1.537   1.247  17.100 -0.7426  0.0881 -0.1590
 5297SOL    HW227354   1.411   1.184  17.049  0.3355  1.5544  0.1147
 5298SOL     OW27355   2.641   0.297  16.946  0.5956 -0.5102 -0.1831
 5298SOL    HW127356   2.633   0.389  16.971  0.2128 -0.3304 -0.9530
 5298SOL    HW227357   2.580   0.256  17.007  2.3647 -0.2738  1.7428
 5299SOL     OW27358   1.341   0.505   7.680 -0.3649  0.0651  0.1677
 5299SOL    HW127359   1.304   0.479   7.765 -2.1476  1.3587 -0.2082
 5299SOL    HW227360   1.292   0.583   7.653  2.2321  1.5324 -0.2122
 5300SOL     OW27361   0.467   4.530   7.086 -0.1762 -0.0937  0.1049
 5300SOL    HW127362   0.531   4.569   7.026  0.3311 -0.4252  0.4213
 5300SOL    HW227363   0.421   4.610   7.112 -0.7775 -1.1225  2.1630
 5301SOL     OW27364   2.906   1.167  16.418  0.0799 -0.3044 -0.0709
 5301SOL    HW127365   2.931   1.120  16.498  0.1936  0.4695  0.3510
 5301SOL    HW227366   2.888   1.255  16.453 -0.8064 -1.0644  1.3675
 5302SOL     OW27367   2.533   4.505   6.292 -0.4616 -0.4953  0.1857
 5302SOL    HW127368   2.612   4.454   6.272 -1.9965 -1.9949 -2.0805
 5302SOL    HW227369   2.479   4.486   6.215 -1.4913 -0.1175  0.8239
 5303SOL     OW27370   3.956   3.839  16.075  0.5352  0.5856  0.5101
 5303SOL    HW127371   3.878   3.852  16.021 -0.5705 -0.8826  1.7562
 5303SOL    HW227372   4.023   3.857  16.009  0.0492  3.3371  0.7926
 5304SOL     OW27373   1.248   2.253  16.575  0.2608 -0.7691  0.0819
 5304SOL    HW127374   1.258   2.344  16.602 -0.5040 -0.9198  0.8750
 5304SOL    HW227375   1.159   2.234  16.604 -0.3272  0.7380 -0.7569
 5305SOL     OW27376   2.751   3.116   4.479  0.2056  0.1306  0.6803
 5305SOL    HW127377   2.737   3.196   4.428  0.1948  0.8919  1.8892
 5305SOL    HW227378   2.839   3.089   4.451  0.6750  0.4905  1.8372
 5306SOL     OW27379   3.491   3.374   6.650  0.0186  0.3467 -0.1364
 5306SOL    HW127380   3.520   3.319   6.577  1.0602 -0.3341  0.7917
 5306SOL    HW227381   3.397   3.372   6.633  0.2125 -2.6646 -0.8826
 5307SOL     OW27382   1.290   2.892  12.356 -0.1242  0.3245 -0.3569
 5307SOL    HW127383   1.295   2.812  12.304  0.3142  1.0758 -1.4915
 5307SOL    HW227384   1.195   2.893  12.368 -0.2564 -0.3521 -1.3724
 5308SOL     OW27385   4.562   3.589   9.367  0.3986  0.2629  0.2236
 5308SOL    HW127386   4.552   3.623   9.456  0.4440  0.2932  0.2170
 5308SOL    HW227387   4.614   3.510   9.384 -2.8314 -2.0032 -0.4020
 5309SOL     OW27388   1.136   2.674  13.225  0.5023  0.0667  0.2912
 5309SOL    HW127389   1.214   2.713  13.265  0.2221  0.9547 -0.0312
 5309SOL    HW227390   1.120   2.605  13.290  2.5139 -0.7345 -0.0435
 5310SOL     OW27391   1.782   1.991   8.882  0.4664  0.3950 -0.2375
 5310SOL    HW127392   1.758   1.918   8.825  1.4280  0.3514 -0.5869
 5310SOL    HW227393   1.807   2.053   8.813 -1.5047  0.6997 -0.6800
 5311SOL     OW27394   3.740   2.186   2.691  0.2243 -0.2127 -0.3796
 5311SOL    HW127395   3.797   2.199   2.614  1.1803 -4.4031 -0.4008
 5311SOL    HW227396   3.687   2.265   2.686 -0.3074 -0.4826  0.9383
 5312SOL     OW27397   3.749   2.420   8.763 -0.0642 -0.2823 -0.1088
 5312SOL    HW127398   3.707   2.505   8.753  0.1880 -0.2306 -0.7405
 5312SOL    HW227399   3.817   2.416   8.695  0.6878 -3.0594  0.8072
 5313SOL     OW27400   3.740   0.876  17.201  0.2764 -0.2850 -0.1539
 5313SOL    HW127401   3.760   0.783  17.207  2.1871  0.1712  0.6423
 5313SOL    HW227402   3.821   0.913  17.165 -0.1613  3.3500  2.5607
 5314SOL     OW27403   0.936   1.194  11.100 -0.1512 -1.0860  0.1211
 5314SOL    HW127404   0.974   1.273  11.062 -2.9623 -0.4984 -1.4664
 5314SOL    HW227405   0.958   1.129  11.034  0.4912 -0.2866 -0.4583
 5315SOL     OW27406   1.672   0.102   3.137 -0.0311 -0.3556 -0.2821
 5315SOL    HW127407   1.727   0.123   3.212 -0.2236 -1.2792  0.1060
 5315SOL    HW227408   1.728   0.035   3.098  0.4434  0.0330 -0.2763
 5316SOL     OW27409   2.426   2.554   7.565 -0.3185  0.1937 -0.0930
 5316SOL    HW127410   2.334   2.579   7.555 -1.7469 -4.6462  0.7522
 5316SOL    HW227411   2.452   2.560   7.473 -1.8840 -3.2114 -0.7716
 5317SOL     OW27412   0.756   3.396  17.159  0.4605 -0.0512  0.4194
 5317SOL    HW127413   0.700   3.344  17.216 -1.6494  0.7875 -0.8728
 5317SOL    HW227414   0.781   3.326  17.098  1.0151  0.0332  0.5521
 5318SOL     OW27415   3.660   0.371   4.787 -0.4930 -0.2756  0.2880
 5318SOL    HW127416   3.723   0.339   4.851 -0.6562 -0.6052  0.2839
 5318SOL    HW227417   3.681   0.460   4.759 -0.2846 -1.1021 -2.1474
 5319SOL     OW27418   1.088   3.632   8.859 -0.1917 -0.0429  0.7321
 5319SOL    HW127419   1.182   3.612   8.851 -0.4685 -2.1119  2.7376
 5319SOL    HW227420   1.084   3.722   8.891  0.1040  0.0043  0.6420
 5320SOL     OW27421   1.962   0.693  10.758  0.1062 -0.1897  0.1122
 5320SOL    HW127422   1.874   0.712  10.789 -0.9590 -0.1375 -2.9651
 5320SOL    HW227423   1.949   0.686  10.663  0.3956 -3.7059  0.3400
 5321SOL     OW27424   3.644   2.265   6.338  0.0889  0.5687  0.3016
 5321SOL    HW127425   3.585   2.230   6.406  0.9228  0.6546  1.0629
 5321SOL    HW227426   3.725   2.215   6.352 -0.5977 -0.2473  1.3840
 5322SOL     OW27427   3.006   4.248   3.819 -0.2503  0.1394  0.1453
 5322SOL    HW127428   2.979   4.189   3.748 -2.2466  1.2276  0.0033
 5322SOL    HW227429   2.984   4.202   3.899  0.5283  0.5991  0.6309
 5323SOL     OW27430   3.864   0.654   3.522  0.1682  0.4960  0.1196
 5323SOL    HW127431   3.807   0.716   3.566 -0.5482 -0.8531  1.0763
 5323SOL    HW227432   3.909   0.711   3.459 -0.1552  1.9328  1.2116
 5324SOL     OW27433   1.640   1.941  14.288 -0.1660 -0.5233 -0.9654
 5324SOL    HW127434   1.714   1.971  14.236  0.8268 -2.1890 -0.5229
 5324SOL    HW227435   1.663   1.849  14.272  0.7174 -0.4207 -0.2405
 5325SOL     OW27436   0.807   4.278   6.282 -0.2654  0.1449  0.0532
 5325SOL    HW127437   0.744   4.248   6.347  0.8073 -2.4282 -0.0866
 5325SOL    HW227438   0.840   4.194   6.251  0.6893  0.1973  0.9109
 5326SOL     OW27439   3.842   0.292   6.331  0.5155 -0.0148 -0.0086
 5326SOL    HW127440   3.787   0.367   6.354 -1.2603 -0.5598 -2.5028
 5326SOL    HW227441   3.797   0.229   6.275 -0.3604  1.4123 -0.8945
 5327SOL     OW27442   0.483   1.860  15.330  0.2613 -0.3703 -0.3542
 5327SOL    HW127443   0.435   1.848  15.247 -1.1699 -1.7405  0.6755
 5327SOL    HW227444   0.556   1.900  15.284  1.1808 -1.4530  0.1773
 5328SOL     OW27445   4.196   2.385   6.731 -0.3074 -0.0305 -0.4363
 5328SOL    HW127446   4.244   2.457   6.690 -0.5619  0.1095 -0.4861
 5328SOL    HW227447   4.261   2.316   6.739 -0.8851 -0.4699  0.4194
 5329SOL     OW27448   4.048   3.625   7.669 -0.8515  0.3960  0.6057
 5329SOL    HW127449   4.003   3.656   7.590  0.8135  0.5501 -0.2752
 5329SOL    HW227450   4.118   3.572   7.631  0.3816  2.4515  0.0214
 5330SOL     OW27451   1.994   3.689   5.661 -0.1578 -0.3479 -0.4380
 5330SOL    HW127452   2.038   3.616   5.618  1.9228  0.3537  0.5445
 5330SOL    HW227453   2.064   3.749   5.687 -1.0127  0.7162 -0.5867
 5331SOL     OW27454   2.106   0.977   4.817  0.6090 -0.3300  0.1909
 5331SOL    HW127455   2.055   0.901   4.789  0.5024 -0.6308  1.2168
 5331SOL    HW227456   2.037   1.023   4.865 -0.4982  0.3449 -2.0352
 5332SOL     OW27457   1.195   0.518   8.775 -0.1567 -0.2234  0.1229
 5332SOL    HW127458   1.236   0.581   8.716 -0.7972 -0.5401 -0.6558
 5332SOL    HW227459   1.275   0.493   8.821  1.1874  0.0006 -2.0934
 5333SOL     OW27460   1.869   0.069   8.691  0.2104  0.4403  0.5685
 5333SOL    HW127461   1.785   0.100   8.726 -1.1614 -2.2874 -0.2551
 5333SOL    HW227462   1.890   0.002   8.756 -0.4177 -0.6819 -0.3741
 5334SOL     OW27463   0.800   0.799   3.684 -0.4270 -0.3095 -0.6404
 5334SOL    HW127464   0.881   0.763   3.647 -1.1660 -0.9376 -1.6279
 5334SOL    HW227465   0.810   0.754   3.768  2.7661 -1.2314 -1.5054
 5335SOL     OW27466   1.317   1.075   7.965 -0.1232  0.4004  0.4040
 5335SOL    HW127467   1.266   0.998   7.989 -0.9787  0.7751 -0.2169
 5335SOL    HW227468   1.250   1.142   7.981  0.6687  1.3705 -0.3398
 5336SOL     OW27469   4.028   1.059  12.164  0.4030  0.2086 -0.1892
 5336SOL    HW127470   4.072   1.121  12.223  0.7820  0.0886 -0.3487
 5336SOL    HW227471   4.002   0.983  12.216  1.1398  0.4295  0.4938
 5337SOL     OW27472   1.246   2.046   3.352 -0.3667 -0.4069 -0.0943
 5337SOL    HW127473   1.331   2.046   3.395  0.3697  2.2024 -1.5712
 5337SOL    HW227474   1.203   1.968   3.388 -0.6832 -0.7750 -1.2507
 5338SOL     OW27475   3.432   4.504   0.542  0.2915  0.0646 -0.1158
 5338SOL    HW127476   3.422   4.554   0.623 -2.0015 -0.3392 -0.1498
 5338SOL    HW227477   3.400   4.420   0.575  0.5636  0.6695  1.6759
 5339SOL     OW27478   1.295   0.091   5.326  0.4613  0.3504  0.0039
 5339SOL    HW127479   1.362   0.159   5.323 -0.8232  1.7461  2.5052
 5339SOL    HW227480   1.267   0.086   5.235 -2.4482 -0.0706  0.9205
 5340SOL     OW27481   2.888   3.793   6.098  0.3799  0.0043  0.2757
 5340SOL    HW127482   2.871   3.699   6.089  1.3843 -0.0876 -0.7111
 5340SOL    HW227483   2.975   3.794   6.059  0.7503  1.9590  1.1482
 5341SOL     OW27484   4.302   4.465   5.955  0.1834  0.4072 -0.1410
 5341SOL    HW127485   4.379   4.496   6.002 -0.7848  0.3623  1.4620
 5341SOL    HW227486   4.289   4.377   5.989  0.0753  1.2357  1.9748
 5342SOL     OW27487   3.350   1.126   4.362 -0.4959 -0.2576  0.2014
 5342SOL    HW127488   3.268   1.173   4.378 -0.1332  0.1134  0.9450
 5342SOL    HW227489   3.413   1.185   4.404 -0.1114 -2.6752  2.9870
 5343SOL     OW27490   0.854   3.922   9.239  0.2064  0.1662 -0.1798
 5343SOL    HW127491   0.789   3.902   9.306 -0.8048 -0.0052 -1.2242
 5343SOL    HW227492   0.815   3.899   9.155 -0.1903 -1.6747  0.4942
 5344SOL     OW27493   4.574   4.035   3.393 -0.3045  0.8306 -0.4969
 5344SOL    HW127494   4.596   3.946   3.420 -0.0107  0.5966 -1.4952
 5344SOL    HW227495   4.561   4.034   3.298  1.7131 -1.9013 -0.7446
 5345SOL     OW27496   1.158   1.123   9.682 -0.0244 -0.0979 -0.2313
 5345SOL    HW127497   1.078   1.073   9.665  0.6121 -0.2530 -2.7370
 5345SOL    HW227498   1.196   1.105   9.596  0.2553 -0.4112 -0.0452
 5346SOL     OW27499   3.914   0.082   3.568 -0.0951 -0.0165  0.4045
 5346SOL    HW127500   3.826   0.049   3.585 -0.3044 -0.2625 -1.1638
 5346SOL    HW227501   3.929   0.156   3.626 -1.0752 -1.6026  2.6871
 5347SOL     OW27502   4.397   3.162  15.713  0.1134  0.1969 -0.6059
 5347SOL    HW127503   4.348   3.214  15.778 -2.3615 -0.6492 -1.7913
 5347SOL    HW227504   4.356   3.077  15.729  0.8186 -0.3532 -1.8391
 5348SOL     OW27505   3.551   0.677   8.728 -0.4531 -0.3546 -0.3634
 5348SOL    HW127506   3.462   0.642   8.732 -1.6170  2.4761 -1.4542
 5348SOL    HW227507   3.598   0.606   8.772 -0.0887 -0.2484 -0.5781
 5349SOL     OW27508   0.828   4.334   4.939  1.3154 -0.0807 -0.1734
 5349SOL    HW127509   0.844   4.428   4.930  0.1473  0.1787  0.3566
 5349SOL    HW227510   0.852   4.318   5.030  1.8260  1.5419 -0.0296
 5350SOL     OW27511   1.759   1.774   4.882  0.0945  0.3805 -0.4705
 5350SOL    HW127512   1.785   1.857   4.920 -1.9596  2.2456 -3.1552
 5350SOL    HW227513   1.842   1.744   4.845  1.0496  0.7797  1.3293
 5351SOL     OW27514   3.047   3.832   3.054 -0.0224  0.3609  0.3244
 5351SOL    HW127515   3.051   3.923   3.025  3.2868  0.3402  0.6592
 5351SOL    HW227516   3.106   3.787   2.993 -1.7781 -1.8155  0.2235
 5352SOL     OW27517   4.511   0.882   8.382 -0.5325 -0.0269  0.7668
 5352SOL    HW127518   4.541   0.812   8.441  0.1065 -1.1434 -0.8791
 5352SOL    HW227519   4.541   0.954   8.437 -0.7045 -0.0966  0.9508
 5353SOL     OW27520   0.830   1.919   4.518 -0.0571  0.1182 -0.0946
 5353SOL    HW127521   0.891   1.908   4.591 -0.2835  1.8691  0.3715
 5353SOL    HW227522   0.797   2.007   4.538  1.5668  1.1248 -1.7640
 5354SOL     OW27523   4.272   3.145   2.121 -0.3453  0.4418 -0.6604
 5354SOL    HW127524   4.205   3.117   2.183  0.0797  0.7940 -0.0471
 5354SOL    HW227525   4.227   3.139   2.036 -0.9770  1.1342 -0.3821
 5355SOL     OW27526   2.156   3.445   3.998  0.8913  0.1712 -0.2189
 5355SOL    HW127527   2.193   3.506   4.062 -0.4192  0.4792  0.2383
 5355SOL    HW227528   2.231   3.424   3.941 -0.5990 -4.0119 -0.6459
 5356SOL     OW27529   4.293   0.421   9.652 -0.3220  0.1799  0.0602
 5356SOL    HW127530   4.273   0.462   9.568  1.7763 -1.4998 -1.2241
 5356SOL    HW227531   4.351   0.484   9.694 -1.7320 -0.3370  2.8435
 5357SOL     OW27532   0.073   4.034   4.372 -0.8933  0.1069 -0.2046
 5357SOL    HW127533   0.088   4.005   4.462  3.4006 -1.8080 -1.5680
 5357SOL    HW227534   0.001   4.096   4.370 -0.2151  0.8807 -0.6705
 5358SOL     OW27535   0.310   0.514  12.432 -0.2043  0.2428  0.1115
 5358SOL    HW127536   0.348   0.563  12.504  0.0394  1.6963 -1.0148
 5358SOL    HW227537   0.224   0.547  12.407 -1.6090 -2.1265  1.7753
 5359SOL     OW27538   3.417   0.731   6.603  0.3387 -0.5344  0.2322
 5359SOL    HW127539   3.411   0.645   6.563  1.3645 -0.5288  0.0783
 5359SOL    HW227540   3.327   0.733   6.637  0.9028 -2.4234  1.8269
 5360SOL     OW27541   4.722   1.927   4.565  0.4820  0.4039 -0.0636
 5360SOL    HW127542   0.073   1.971   4.522  0.9000 -0.2458 -0.0183
 5360SOL    HW227543   0.006   1.959   4.654  2.0864 -0.0797 -0.0126
 5361SOL     OW27544   3.566   1.226  10.128  0.1863  0.0092  0.4584
 5361SOL    HW127545   3.499   1.293  10.111 -0.3343 -0.9051 -1.0245
 5361SOL    HW227546   3.634   1.280  10.167 -2.0892  4.2524 -1.4107
 5362SOL     OW27547   0.681   2.849   4.471 -0.2381  0.2210  0.1314
 5362SOL    HW127548   0.688   2.939   4.503  0.3772  0.2822 -0.1758
 5362SOL    HW227549   0.624   2.865   4.397 -0.7760  2.0746  0.9635
 5363SOL     OW27550   3.010   1.905   4.166 -0.5489  0.3338 -0.5402
 5363SOL    HW127551   2.916   1.918   4.154 -0.0854  3.3700 -0.7885
 5363SOL    HW227552   3.024   1.810   4.169 -1.4673  0.1653 -1.6266
 5364SOL     OW27553   3.349   1.159   7.005  0.4524 -0.0460 -0.7719
 5364SOL    HW127554   3.322   1.238   7.051  0.3366  1.2936 -3.1299
 5364SOL    HW227555   3.444   1.155   7.017  0.3027  0.0236  0.4353
 5365SOL     OW27556   4.634   0.189   5.743  0.3688  0.1353  0.2266
 5365SOL    HW127557   4.550   0.145   5.757 -0.6889  1.4457 -1.9572
 5365SOL    HW227558   4.658   0.208   5.833  0.2677  1.2145  0.0199
 5366SOL     OW27559   2.738   0.847   3.086 -0.0978  0.2552  0.0682
 5366SOL    HW127560   2.671   0.781   3.068 -0.4352  0.5877  0.0863
 5366SOL    HW227561   2.729   0.894   3.002  3.6396  1.2041  0.2174
 5367SOL     OW27562   3.243   2.015   2.924 -0.3970  0.2574  0.0025
 5367SOL    HW127563   3.173   2.018   2.989 -0.9131  2.3578 -0.6563
 5367SOL    HW227564   3.257   2.101   2.886 -1.3944 -1.0085 -3.2188
 5368SOL     OW27565   2.444   2.629   5.840 -0.3788 -0.2442  0.2034
 5368SOL    HW127566   2.379   2.686   5.881 -0.4337 -0.6940  0.7244
 5368SOL    HW227567   2.494   2.694   5.790 -0.8495 -0.7962 -0.9934
 5369SOL     OW27568   0.322   2.498   9.041 -0.2207 -0.3112 -0.4251
 5369SOL    HW127569   0.409   2.468   9.068  0.2665  0.2212 -1.4186
 5369SOL    HW227570   0.270   2.419   9.026  0.7202 -1.2406  1.0972
 5370SOL     OW27571   4.691   0.692   6.130 -0.4677  0.1093 -0.1947
 5370SOL    HW127572   0.046   0.680   6.185 -1.6343  0.1037  1.4381
 5370SOL    HW227573   0.009   0.731   6.053 -2.2241  0.5172 -0.9149
 5371SOL     OW27574   4.017   4.272   9.610  0.1515  0.4440  0.1253
 5371SOL    HW127575   4.029   4.361   9.576 -1.7956  0.1060 -1.4179
 5371SOL    HW227576   3.980   4.287   9.697 -2.2281 -0.3412 -0.7643
 5372SOL     OW27577   0.105   0.101  12.443  0.1549 -0.0915  0.6671
 5372SOL    HW127578   0.130   0.010  12.430 -0.5986 -0.1853 -0.1557
 5372SOL    HW227579   0.193   0.137  12.453  0.1901 -0.0942  0.3578
 5373SOL     OW27580   3.894   2.204  12.568  0.3813  0.2854 -0.3307
 5373SOL    HW127581   3.878   2.279  12.625 -2.2040  0.4049 -1.2032
 5373SOL    HW227582   3.819   2.215  12.509 -0.8175  1.2387  1.3619
 5374SOL     OW27583   2.961   4.547   2.296 -0.1108 -0.1815 -0.5917
 5374SOL    HW127584   3.000   4.476   2.346 -0.2280  0.1930  0.0236
 5374SOL    HW227585   2.868   4.525   2.295 -0.3774  1.0110 -1.2703
 5375SOL     OW27586   1.353   1.998   9.216 -0.7333 -0.1732  0.2602
 5375SOL    HW127587   1.313   2.056   9.151 -0.0291  2.4542  2.1755
 5375SOL    HW227588   1.393   1.936   9.155  0.2592  0.4119  0.3151
 5376SOL     OW27589   3.003   3.415   5.150  0.1809 -0.1317 -0.0418
 5376SOL    HW127590   3.093   3.386   5.138  1.0457  2.5567 -0.0597
 5376SOL    HW227591   3.019   3.483   5.215 -0.6384 -0.8810  0.9481
 5377SOL     OW27592   3.160   3.328   5.864 -0.1570  0.1573 -0.2160
 5377SOL    HW127593   3.184   3.333   5.956  1.0838  2.3678 -0.6827
 5377SOL    HW227594   3.240   3.289   5.831 -2.0543 -2.0161 -2.2694
 5378SOL     OW27595   1.516   3.961  11.415 -0.2903  0.7088  0.5588
 5378SOL    HW127596   1.569   4.030  11.377 -2.7294  0.6839 -2.9350
 5378SOL    HW227597   1.496   4.002  11.499  2.0800 -0.4854  1.7107
 5379SOL     OW27598   2.724   1.919   4.237 -0.0949  0.2272 -0.1810
 5379SOL    HW127599   2.714   1.854   4.167 -1.2590  0.8147 -0.5725
 5379SOL    HW227600   2.763   1.882   4.316  1.0032 -1.2642 -1.4230
 5380SOL     OW27601   0.261   1.554   1.019  0.8931 -0.7737 -0.3206
 5380SOL    HW127602   0.355   1.537   1.016  0.9037 -0.7867  0.0707
 5380SOL    HW227603   0.253   1.548   1.114 -0.6049  1.4794 -0.2949
 5381SOL     OW27604   0.369   0.313   3.390 -0.4333  0.1295  0.0890
 5381SOL    HW127605   0.328   0.238   3.434 -1.0703  0.5691  0.2556
 5381SOL    HW227606   0.348   0.294   3.298 -0.8766  0.8125  0.0521
 5382SOL     OW27607   1.597   4.422   6.909  0.2344  0.1737 -0.2609
 5382SOL    HW127608   1.512   4.380   6.899  1.6372 -2.9319  0.8113
 5382SOL    HW227609   1.576   4.497   6.965 -1.5030  0.8377 -1.8099
 5383SOL     OW27610   0.773   3.093   8.620  0.4301  0.3015  0.4207
 5383SOL    HW127611   0.694   3.076   8.568  0.0883 -0.3962  1.1615
 5383SOL    HW227612   0.833   3.034   8.573 -1.3896 -0.6130 -0.7339
 5384SOL     OW27613   3.803   0.546   6.531  0.4501  0.5396  0.0990
 5384SOL    HW127614   3.855   0.487   6.586 -0.5562  0.6981  1.2289
 5384SOL    HW227615   3.786   0.611   6.600 -1.5764  1.1733 -0.9943
 5385SOL     OW27616   3.241   0.381   7.002  0.1276 -0.5284 -0.6416
 5385SOL    HW127617   3.185   0.303   7.004 -1.5834  0.7091 -0.5922
 5385SOL    HW227618   3.253   0.398   7.095  0.0859  1.2396 -0.9693
 5386SOL     OW27619   1.587   2.518   4.122 -0.1425  0.3474  0.3229
 5386SOL    HW127620   1.549   2.431   4.134 -1.5612  0.8026 -0.8210
 5386SOL    HW227621   1.522   2.560   4.065 -0.9871  1.5458  2.1628
 5387SOL     OW27622   1.445   2.845   5.282 -0.0689  0.2000 -0.2530
 5387SOL    HW127623   1.434   2.750   5.273  0.0124  0.2654 -0.9997
 5387SOL    HW227624   1.353   2.872   5.289  0.3507  1.7960 -0.9539
 5388SOL     OW27625   2.815   1.273   6.818 -0.1866  0.6678  0.1894
 5388SOL    HW127626   2.877   1.205   6.791 -0.3115  0.9943 -0.9256
 5388SOL    HW227627   2.741   1.222   6.852 -1.8903  3.1592  0.2239
 5389SOL     OW27628   0.137   0.646  15.003 -0.4885 -0.5671  0.3885
 5389SOL    HW127629   0.209   0.682  14.952  0.2436 -1.2796  0.9138
 5389SOL    HW227630   0.163   0.674  15.091  2.9143 -0.0329 -0.7632
 5390SOL     OW27631   0.171   0.170   0.784 -0.5112  0.3910 -0.1441
 5390SOL    HW127632   0.166   0.237   0.852 -0.2090 -0.0234  0.2891
 5390SOL    HW227633   0.249   0.195   0.735 -0.4783  3.2851  1.3927
 5391SOL     OW27634   2.900   2.112  11.090 -0.5157  0.3181  0.4457
 5391SOL    HW127635   2.976   2.152  11.047  0.0652 -0.7531  0.4722
 5391SOL    HW227636   2.885   2.031  11.042 -0.7847  0.5085  0.2072
 5392SOL     OW27637   2.530   1.040   0.451 -0.4610  0.1236 -0.3893
 5392SOL    HW127638   2.614   1.043   0.496 -0.5096 -2.4974 -0.1470
 5392SOL    HW227639   2.500   1.130   0.466  0.5628  0.5037 -0.6008
 5393SOL     OW27640   1.442   4.189   5.425  0.1427 -0.4208  0.6521
 5393SOL    HW127641   1.510   4.214   5.488 -0.9730  1.2618  1.1734
 5393SOL    HW227642   1.372   4.245   5.459 -0.0315 -0.7630  0.8558
 5394SOL     OW27643   1.895   1.967  17.415 -0.2883  0.2130  0.1469
 5394SOL    HW127644   1.962   1.988  17.350 -1.1693  0.2833 -0.7381
 5394SOL    HW227645   1.935   1.888  17.452  2.5113  0.5284 -2.2161
 5395SOL     OW27646   2.532   1.375   2.844  0.3012 -0.1119 -0.2682
 5395SOL    HW127647   2.449   1.411   2.813 -0.6580 -0.8333  1.4276
 5395SOL    HW227648   2.574   1.457   2.872  0.1251  0.0644 -0.5268
 5396SOL     OW27649   3.503   3.555   2.685  0.4820  0.2388  0.5829
 5396SOL    HW127650   3.532   3.588   2.600 -1.7117 -1.3573 -0.7839
 5396SOL    HW227651   3.538   3.466   2.683 -1.1085 -0.3755  0.2717
 5397SOL     OW27652   3.264   1.939  16.396 -0.0960  0.3294 -0.8331
 5397SOL    HW127653   3.189   1.936  16.456  0.2687  0.6363 -0.3623
 5397SOL    HW227654   3.294   1.849  16.391  1.6548  0.8637 -0.0747
 5398SOL     OW27655   2.307   2.705   8.833  0.2890 -0.2609  0.0328
 5398SOL    HW127656   2.387   2.749   8.804  0.7151 -0.7248  0.5087
 5398SOL    HW227657   2.277   2.695   8.743  0.5169 -0.1935 -0.0521
 5399SOL     OW27658   3.119   0.020  17.643  0.5254 -0.3893  0.2612
 5399SOL    HW127659   3.044   0.061  17.687  1.4297  0.8796  0.6215
 5399SOL    HW227660   3.178   0.091  17.669  1.4223 -1.4922  1.1897
 5400SOL     OW27661   0.646   2.052   1.350 -0.8423  0.2567  0.1154
 5400SOL    HW127662   0.725   2.013   1.313 -0.7299  2.7900 -2.2647
 5400SOL    HW227663   0.649   2.124   1.288 -1.9549  2.8609  3.0708
 5401SOL     OW27664   4.166   4.419   8.927  0.4336 -0.2926 -0.1434
 5401SOL    HW127665   4.204   4.348   8.978 -0.0364  0.3403  1.1026
 5401SOL    HW227666   4.148   4.374   8.845 -1.7208 -2.0514  1.2914
 5402SOL     OW27667   0.030   3.069   4.097 -0.1905  0.0788 -0.2969
 5402SOL    HW127668   0.121   3.056   4.123 -0.3600  0.5541  0.5451
 5402SOL    HW227669   4.714   3.063   4.184  0.2792 -0.4953 -0.1297
 5403SOL     OW27670   4.123   2.217   4.305  0.6684 -0.3688  0.6791
 5403SOL    HW127671   4.172   2.299   4.296  0.3291 -0.3158 -0.7573
 5403SOL    HW227672   4.048   2.259   4.347  0.0690  1.2810 -2.0333
 5404SOL     OW27673   1.647   2.080  11.283 -0.6192  0.1074 -0.1845
 5404SOL    HW127674   1.646   2.142  11.209  0.6537 -0.5519 -0.7496
 5404SOL    HW227675   1.649   2.142  11.356  0.4053 -0.5489  0.3454
 5405SOL     OW27676   3.326   2.015   3.503 -0.0359 -0.0922  0.2506
 5405SOL    HW127677   3.313   2.107   3.526  2.5747 -0.1907  2.0985
 5405SOL    HW227678   3.397   2.026   3.441 -0.7864  0.1707 -0.5570
 5406SOL     OW27679   3.890   0.630   6.990  0.2425  0.1165  0.1345
 5406SOL    HW127680   3.925   0.607   6.904 -1.6703  0.4032 -0.7313
 5406SOL    HW227681   3.867   0.554   7.043 -0.3422  0.5545  0.5157
 5407SOL     OW27682   3.608   3.988   7.595 -0.1438  0.1550 -0.4550
 5407SOL    HW127683   3.690   3.948   7.625 -1.1297 -0.5863  1.2549
 5407SOL    HW227684   3.552   3.973   7.672 -1.8271  1.6982 -1.3964
 5408SOL     OW27685   0.306   1.827   0.903 -0.1856 -0.6006 -0.0856
 5408SOL    HW127686   0.301   1.740   0.942 -1.9712  0.0146  1.0860
 5408SOL    HW227687   0.319   1.806   0.811  0.4184  0.7129 -0.2978
 5409SOL     OW27688   1.850   1.285   5.647 -0.1288 -0.0710  0.0436
 5409SOL    HW127689   1.925   1.339   5.671  1.0810 -1.7853  0.1660
 5409SOL    HW227690   1.780   1.350   5.651 -0.8926 -0.9157  0.4056
 5410SOL     OW27691   0.651   0.992  16.046 -0.3714  0.5871 -0.0393
 5410SOL    HW127692   0.587   1.026  15.983 -2.6719 -1.9181  0.9444
 5410SOL    HW227693   0.697   1.070  16.077  1.6413 -0.0859 -1.3320
 5411SOL     OW27694   3.394   3.866  14.095 -0.1576  0.4596 -0.0419
 5411SOL    HW127695   3.410   3.943  14.040 -1.1467  0.5611 -0.1922
 5411SOL    HW227696   3.379   3.801  14.026 -0.2302  1.5014 -1.0082
 5412SOL     OW27697   3.660   3.035   0.244 -0.1256 -0.0051  0.5592
 5412SOL    HW127698   3.718   3.090   0.191  1.1367 -1.3042  0.5905
 5412SOL    HW227699   3.716   2.977   0.294 -0.4862 -0.9939 -0.1822
 5413SOL     OW27700   2.670   2.511  16.506  0.4824  0.6643  0.2619
 5413SOL    HW127701   2.751   2.543  16.547 -0.2957  1.6221  1.0535
 5413SOL    HW227702   2.600   2.574  16.526 -0.6027 -0.5588  0.3204
 5414SOL     OW27703   3.267   0.668  12.076 -0.0673 -0.6961 -0.0267
 5414SOL    HW127704   3.357   0.700  12.076 -0.0777 -0.7164  3.0286
 5414SOL    HW227705   3.230   0.699  11.993  3.0530 -0.4522 -1.3425
 5415SOL     OW27706   1.871   4.075   1.863  0.1839  0.1723  0.0829
 5415SOL    HW127707   1.835   4.149   1.814 -0.2512 -2.3674 -3.4258
 5415SOL    HW227708   1.790   4.026   1.850 -0.0820  1.0760 -1.6876
 5416SOL     OW27709   2.500   3.645   8.178 -0.2493 -0.1495  0.0839
 5416SOL    HW127710   2.534   3.724   8.221 -2.5435  0.8388  0.1120
 5416SOL    HW227711   2.527   3.657   8.087  3.6900 -2.3893  0.9976
 5417SOL     OW27712   1.017   3.360   3.394 -0.0213  0.2261 -0.7255
 5417SOL    HW127713   1.084   3.323   3.452 -1.4990 -1.1617  0.1025
 5417SOL    HW227714   0.941   3.359   3.452 -0.3698  1.0166 -1.1643
 5418SOL     OW27715   1.498   4.388   3.149  0.1969  0.1979  0.1249
 5418SOL    HW127716   1.579   4.393   3.097 -0.5393 -0.6708 -1.1080
 5418SOL    HW227717   1.436   4.374   3.078 -1.9604  2.1119  1.6511
 5419SOL     OW27718   3.560   4.719   0.388  0.1820 -0.0102  0.1077
 5419SOL    HW127719   3.650   4.692   0.408  0.1088 -0.8067 -0.6751
 5419SOL    HW227720   3.504   4.653   0.428  2.1485 -2.2218 -0.8175
 5420SOL     OW27721   0.604   0.433  13.762  0.6261  0.5189  0.5953
 5420SOL    HW127722   0.686   0.460  13.804  0.6225 -0.7541  1.4045
 5420SOL    HW227723   0.605   0.457  13.669 -1.5571 -0.7550  0.2540
 5421SOL     OW27724   0.216   4.654   2.764 -0.5370 -0.0673 -0.4865
 5421SOL    HW127725   0.144   4.593   2.746  1.4032 -1.5029 -3.4087
 5421SOL    HW227726   0.280   4.587   2.789 -1.3783 -1.5746 -2.3767
 5422SOL     OW27727   0.031   0.922  13.117  0.7202  0.4585 -0.1853
 5422SOL    HW127728   0.009   0.926  13.210 -2.6467  0.2733 -0.9532
 5422SOL    HW227729   0.101   0.987  13.123  1.2349 -0.1967  0.8791
 5423SOL     OW27730   4.027   0.844   6.312 -0.1547 -0.1754 -0.2274
 5423SOL    HW127731   4.116   0.879   6.322 -1.1010  2.4578 -1.2430
 5423SOL    HW227732   4.016   0.867   6.220 -2.9890 -3.3525 -0.6771
 5424SOL     OW27733   0.540   4.198   6.144  0.1577  0.1060 -0.3768
 5424SOL    HW127734   0.549   4.255   6.068  2.6970  0.6730  0.3659
 5424SOL    HW227735   0.548   4.266   6.211  0.1608 -0.0010 -0.2677
 5425SOL     OW27736   2.738   1.182   3.656  0.4875  0.1434  0.4045
 5425SOL    HW127737   2.778   1.268   3.650  0.0214  0.3774  0.6129
 5425SOL    HW227738   2.790   1.146   3.728 -1.1436 -0.9940  1.0109
 5426SOL     OW27739   1.682   4.134  13.287 -0.5876  0.1639  0.0427
 5426SOL    HW127740   1.718   4.203  13.343  0.0493  0.2497 -0.4655
 5426SOL    HW227741   1.701   4.060  13.344 -0.4101 -0.1368 -0.4124
 5427SOL     OW27742   0.347   3.063   6.792 -0.5534  0.0620 -0.3513
 5427SOL    HW127743   0.398   3.048   6.712  0.3165 -0.0107  0.2137
 5427SOL    HW227744   0.258   3.082   6.761 -0.8218 -1.3938 -0.4539
 5428SOL     OW27745   0.436   4.493   1.557  0.2116 -0.3619 -0.4567
 5428SOL    HW127746   0.384   4.434   1.611 -1.8416  0.8316 -1.1174
 5428SOL    HW227747   0.380   4.499   1.479 -1.3395 -1.7070  0.5535
 5429SOL     OW27748   3.425   0.626   1.648 -0.4307 -1.2556  0.0261
 5429SOL    HW127749   3.420   0.559   1.717 -1.1142 -1.4466 -0.2082
 5429SOL    HW227750   3.352   0.681   1.675  0.8431  0.0895  0.7164
 5430SOL     OW27751   2.818   2.446   8.151  0.0701 -0.5707  0.0516
 5430SOL    HW127752   2.816   2.477   8.061  2.1816  2.9708  1.2544
 5430SOL    HW227753   2.748   2.502   8.184 -1.9160 -3.5026  0.8115
 5431SOL     OW27754   2.834   0.592   2.824 -0.0710  0.3311 -0.3532
 5431SOL    HW127755   2.809   0.500   2.831 -1.3476  0.6438 -0.8248
 5431SOL    HW227756   2.760   0.629   2.776 -2.3336 -1.4140  1.7378
 5432SOL     OW27757   2.977   2.531   6.729 -0.8463 -0.2899  0.1424
 5432SOL    HW127758   2.913   2.580   6.780 -2.4859 -0.7518 -1.4691
 5432SOL    HW227759   3.061   2.558   6.766  0.0803  0.0371 -2.2093
 5433SOL     OW27760   1.061   1.528  12.477  0.1372 -0.2309  0.1546
 5433SOL    HW127761   1.009   1.520  12.397 -0.0968  1.3605  0.1536
 5433SOL    HW227762   1.005   1.502  12.550  0.8238  0.0417  0.7796
 5434SOL     OW27763   3.397   1.084   2.309 -0.2800 -0.1881  0.0984
 5434SOL    HW127764   3.487   1.053   2.301  0.3313  2.0128 -1.6328
 5434SOL    HW227765   3.353   1.010   2.266 -2.2516  1.0353 -0.0084
 5435SOL     OW27766   4.547   1.442   7.528 -0.0958  0.5127 -0.4036
 5435SOL    HW127767   4.503   1.502   7.587  0.1954 -0.8589  1.1980
 5435SOL    HW227768   4.546   1.491   7.446  1.9383 -0.8487 -1.2502
 5436SOL     OW27769   1.452   4.421   9.072  0.3678 -0.3349  0.2332
 5436SOL    HW127770   1.513   4.430   9.000 -0.0502 -2.0782 -0.3530
 5436SOL    HW227771   1.395   4.353   9.035  0.1672 -0.9206  1.5916
 5437SOL     OW27772   4.391   2.687   6.010 -0.8487  0.2799 -0.1321
 5437SOL    HW127773   4.331   2.690   6.084  0.6064  0.8472  1.0300
 5437SOL    HW227774   4.359   2.760   5.957 -0.4938 -0.1145 -0.8873
 5438SOL     OW27775   1.488   2.932   4.586 -0.1256 -0.1612 -0.4403
 5438SOL    HW127776   1.414   2.971   4.632  0.0547 -0.1498 -0.1562
 5438SOL    HW227777   1.545   3.003   4.556 -0.6743  0.1768 -0.6773
 5439SOL     OW27778   3.780   2.398   9.403  0.0640  0.5201  0.0799
 5439SOL    HW127779   3.797   2.309   9.373  0.7918  0.4728  0.6214
 5439SOL    HW227780   3.741   2.437   9.325  1.3622  0.2422 -0.7159
 5440SOL     OW27781   1.818   4.660   5.195  0.6465  0.1185 -0.2197
 5440SOL    HW127782   1.823   0.014   5.253  2.3589 -0.5365  0.4932
 5440SOL    HW227783   1.767   4.592   5.238  0.7872  0.7804  0.9900
 5441SOL     OW27784   3.460   4.010   6.328  0.1338 -0.0528 -0.0662
 5441SOL    HW127785   3.374   3.968   6.320  1.5042 -2.5574 -1.5702
 5441SOL    HW227786   3.522   3.964   6.271 -0.7971  0.5201 -1.5715
 5442SOL     OW27787   4.279   3.560   5.936  0.3802  0.7186 -0.2524
 5442SOL    HW127788   4.373   3.580   5.930  0.8331 -1.6479 -0.8124
 5442SOL    HW227789   4.254   3.540   5.846 -2.2197  1.1857  0.3515
 5443SOL     OW27790   1.082   4.655   8.769 -0.6968  0.1534  0.1743
 5443SOL    HW127791   1.131   4.639   8.850  1.0525  0.5914 -0.8052
 5443SOL    HW227792   1.009   4.597   8.791 -0.3393  0.1815  1.4726
 5444SOL     OW27793   2.090   0.413   2.179 -0.4915  0.0722  0.0880
 5444SOL    HW127794   2.136   0.361   2.114  1.0106  1.8283 -0.2688
 5444SOL    HW227795   2.000   0.380   2.180 -0.1829 -0.7696 -0.7333
 5445SOL     OW27796   3.377   3.293  15.131 -0.4326  0.5906 -0.2348
 5445SOL    HW127797   3.425   3.237  15.069 -0.8526  1.1828 -1.1019
 5445SOL    HW227798   3.417   3.262  15.212  1.1786  0.1695 -1.2025
 5446SOL     OW27799   4.546   1.491   7.038 -0.2387 -0.0831  0.1447
 5446SOL    HW127800   4.559   1.523   7.127 -0.8832  0.1391  0.1636
 5446SOL    HW227801   4.485   1.419   7.057  0.3931 -0.4732  0.6621
 5447SOL     OW27802   3.035   0.529   6.372  0.4212  0.0975 -0.2296
 5447SOL    HW127803   3.073   0.514   6.285  0.1497  0.8013 -0.4706
 5447SOL    HW227804   2.959   0.584   6.352 -0.1348 -0.1033  1.3153
 5448SOL     OW27805   1.230   4.371   9.866  0.3408 -0.0184 -0.6229
 5448SOL    HW127806   1.229   4.291   9.814 -1.4271  0.6718 -1.6383
 5448SOL    HW227807   1.138   4.378   9.890  0.4079 -1.4012  0.0715
 5449SOL     OW27808   2.538   2.133   4.260 -0.2948  0.0634 -0.1266
 5449SOL    HW127809   2.581   2.047   4.254  0.1605  0.2487  0.4609
 5449SOL    HW227810   2.543   2.144   4.355  1.1108  0.4338 -0.2471
 5450SOL     OW27811   3.601   0.352   5.515 -0.2405  0.1247  0.0982
 5450SOL    HW127812   3.659   0.385   5.446  1.0077  1.9046  2.0217
 5450SOL    HW227813   3.564   0.434   5.548 -0.1916 -0.5602  1.8364
 5451SOL     OW27814   3.387   0.429   6.770  0.4939 -0.3882 -1.0743
 5451SOL    HW127815   3.412   0.517   6.796 -0.5832  0.0082 -1.3668
 5451SOL    HW227816   3.296   0.437   6.741 -0.0135  0.0611  0.6261
 5452SOL     OW27817   1.464   0.170  16.964  0.0360  0.9799 -0.3653
 5452SOL    HW127818   1.541   0.115  16.985 -3.3744 -3.8159 -0.3819
 5452SOL    HW227819   1.431   0.173  17.054  2.1220  3.6609  0.3108
 5453SOL     OW27820   3.685   3.641   7.095  0.5029 -0.2329  0.1225
 5453SOL    HW127821   3.595   3.624   7.122  0.6959 -1.9191 -0.3334
 5453SOL    HW227822   3.669   3.722   7.046  0.4400 -0.3568 -0.0617
 5454SOL     OW27823   2.504   2.411   3.038  0.2090 -0.4798 -0.5226
 5454SOL    HW127824   2.581   2.459   3.007  2.0517 -1.2124  2.8846
 5454SOL    HW227825   2.487   2.363   2.957 -1.0851  1.7240 -1.5300
 5455SOL     OW27826   1.278   4.259   8.782  0.2783  0.2079  0.0648
 5455SOL    HW127827   1.320   4.217   8.707  1.7399 -1.1589  1.6345
 5455SOL    HW227828   1.313   4.347   8.767  1.5166  0.3501  3.6277
 5456SOL     OW27829   0.569   1.790  10.715  0.2194 -0.2889  0.1237
 5456SOL    HW127830   0.611   1.734  10.650 -1.0279 -3.4251  2.0221
 5456SOL    HW227831   0.476   1.773  10.704  0.7338 -0.5104 -3.8733
 5457SOL     OW27832   0.071   0.613  10.049  0.1857  0.5004 -0.4095
 5457SOL    HW127833   0.071   0.593  10.142 -1.1999  1.8776 -0.1176
 5457SOL    HW227834   0.021   0.693  10.062  0.0300 -0.2535  3.5445
 5458SOL     OW27835   4.306   1.642  16.046 -0.1138 -0.0156  0.1834
 5458SOL    HW127836   4.348   1.601  15.970 -0.1707 -1.6081  0.9975
 5458SOL    HW227837   4.383   1.671  16.094  0.4172  3.3729 -2.7048
 5459SOL     OW27838   1.047   3.689  16.879 -0.0795  0.6482 -0.1009
 5459SOL    HW127839   1.026   3.693  16.785 -2.3214 -0.1839  0.3810
 5459SOL    HW227840   0.970   3.659  16.926  2.2012 -0.2936  3.0338
 5460SOL     OW27841   0.864   4.619   1.078 -0.0268  0.2229  0.0366
 5460SOL    HW127842   0.893   4.533   1.107 -1.5215 -0.2631  0.1022
 5460SOL    HW227843   0.770   4.608   1.059  0.3922 -2.0426 -0.7092
 5461SOL     OW27844   0.118   0.056   8.510 -0.5498 -0.1361 -0.6663
 5461SOL    HW127845   0.146   0.102   8.431 -0.4513 -0.0109 -0.5579
 5461SOL    HW227846   0.145   4.690   8.485  1.2227  1.0705 -2.9698
 5462SOL     OW27847   2.819   1.652   6.597  0.1844  0.0544  0.1778
 5462SOL    HW127848   2.767   1.588   6.549 -3.5306  3.1602  0.1235
 5462SOL    HW227849   2.863   1.588   6.654 -0.0119  1.2914  1.7190
 5463SOL     OW27850   0.666   0.057   8.790 -0.0781  0.3545 -0.5391
 5463SOL    HW127851   0.672   0.006   8.709  2.4310 -1.3119  0.6717
 5463SOL    HW227852   0.747   0.108   8.788 -0.1254  0.4856  0.8753
 5464SOL     OW27853   4.114   1.421   6.858 -0.3317  0.1665 -0.6708
 5464SOL    HW127854   4.119   1.326   6.854  2.9368  0.3362 -0.2816
 5464SOL    HW227855   4.029   1.438   6.898  0.6591  1.0090  1.0725
 5465SOL     OW27856   3.702   1.256   2.538  0.0719  0.2541  0.2794
 5465SOL    HW127857   3.780   1.240   2.485 -1.2791 -2.4711 -0.9071
 5465SOL    HW227858   3.657   1.327   2.494 -1.3698 -1.3492 -0.8442
 5466SOL     OW27859   0.586   2.992   6.312 -0.3457  0.1603  0.4135
 5466SOL    HW127860   0.613   3.061   6.252 -1.0004 -1.4061 -1.7088
 5466SOL    HW227861   0.666   2.944   6.334  0.1922  1.3361  0.9968
 5467SOL     OW27862   1.136   0.680   7.783  0.3243 -0.1252 -0.1587
 5467SOL    HW127863   1.107   0.679   7.874  0.0338  0.5716 -0.2423
 5467SOL    HW227864   1.091   0.602   7.752 -0.4446  0.3526 -0.2613
 5468SOL     OW27865   2.669   0.822   8.712 -0.7088 -0.3429  0.3232
 5468SOL    HW127866   2.764   0.810   8.712 -0.5988  0.4764  1.5063
 5468SOL    HW227867   2.648   0.833   8.619  0.1301  1.6300  0.3644
 5469SOL     OW27868   4.310   2.613  12.652  0.3382  0.2670 -0.2891
 5469SOL    HW127869   4.218   2.603  12.674  0.6001  0.1975  0.7744
 5469SOL    HW227870   4.345   2.673  12.718  0.3723  0.7296 -0.7339
 5470SOL     OW27871   1.854   2.747   8.865  0.1100 -0.1682  0.4267
 5470SOL    HW127872   1.828   2.834   8.835 -0.4002 -1.2342 -2.3007
 5470SOL    HW227873   1.928   2.774   8.920 -0.4383  2.6803 -0.2282
 5471SOL     OW27874   0.850   0.620   8.243 -0.1009 -0.0391  0.1018
 5471SOL    HW127875   0.929   0.566   8.246  0.4362  0.9336  2.9466
 5471SOL    HW227876   0.884   0.692   8.296  0.8337  1.5832 -2.6969
 5472SOL     OW27877   1.418   3.666   5.635 -0.2143 -0.2727  0.1582
 5472SOL    HW127878   1.504   3.626   5.622  0.1706  0.6098  0.0152
 5472SOL    HW227879   1.357   3.594   5.617 -1.9694  0.9014  1.3181
 5473SOL     OW27880   1.357   1.636   7.623 -0.4376 -0.3789 -0.6121
 5473SOL    HW127881   1.297   1.619   7.695  0.4728 -0.0315  0.2205
 5473SOL    HW227882   1.319   1.581   7.554 -1.5475 -1.1198  0.6125
 5474SOL     OW27883   2.455   1.385   4.049  0.1932  0.2507  0.5126
 5474SOL    HW127884   2.430   1.425   4.133  0.6742  1.3112  0.1508
 5474SOL    HW227885   2.526   1.325   4.072 -0.0561 -0.1327  0.2964
 5475SOL     OW27886   1.669   0.570   2.316  0.3133 -0.0156  1.2057
 5475SOL    HW127887   1.750   0.621   2.321  0.1413  0.3147  0.6029
 5475SOL    HW227888   1.718   0.499   2.276  0.2161  1.3711 -1.4239
 5476SOL     OW27889   3.654   3.824   8.880  0.3146  0.3695  0.4576
 5476SOL    HW127890   3.657   3.920   8.880 -1.9958  0.4534  1.9962
 5476SOL    HW227891   3.733   3.807   8.931  0.3094 -2.2452 -0.3857
 5477SOL     OW27892   3.030   1.699   7.788 -0.0324 -0.1475 -0.6706
 5477SOL    HW127893   3.074   1.614   7.801  1.5204  0.4944 -1.7620
 5477SOL    HW227894   3.093   1.761   7.823 -0.4578  0.9718 -1.9175
 5478SOL     OW27895   0.427   0.309   3.697  0.0609 -0.0943  0.0916
 5478SOL    HW127896   0.505   0.365   3.702 -0.7713  1.1071 -0.5877
 5478SOL    HW227897   0.398   0.332   3.609 -1.3182  1.2720  0.9182
 5479SOL     OW27898   4.249   2.035   6.825  0.6844  0.2455 -0.5998
 5479SOL    HW127899   4.255   1.963   6.763  1.6131  0.6598 -0.9974
 5479SOL    HW227900   4.160   2.062   6.804  0.3583  0.3820  0.9708
 5480SOL     OW27901   0.640   0.981  17.134  0.0958 -0.2927 -0.2067
 5480SOL    HW127902   0.666   1.048  17.070 -0.6705  1.9355  1.7780
 5480SOL    HW227903   0.551   1.011  17.151  0.3668  1.1700 -1.3325
 5481SOL     OW27904   1.945   3.244   2.773  0.1864  0.3745  0.0595
 5481SOL    HW127905   1.925   3.158   2.810 -1.4629  0.4817 -0.5443
 5481SOL    HW227906   2.039   3.245   2.788  0.9775 -1.5100 -4.6112
 5482SOL     OW27907   3.457   2.086   6.081  0.5766 -0.0539  0.3470
 5482SOL    HW127908   3.383   2.025   6.078  0.0209  0.6902 -0.7840
 5482SOL    HW227909   3.486   2.050   6.165  0.8140 -0.6935 -0.0104
 5483SOL     OW27910   3.198   0.789   4.010 -0.5521  0.0071 -0.6114
 5483SOL    HW127911   3.110   0.794   4.048 -1.5668  0.5475 -3.0618
 5483SOL    HW227912   3.171   0.746   3.929  2.1220  0.2024 -1.5918
 5484SOL     OW27913   3.494   1.293   4.551 -0.1179  0.3363 -0.5856
 5484SOL    HW127914   3.489   1.225   4.619  0.5572  2.1669  1.3082
 5484SOL    HW227915   3.505   1.367   4.611 -1.3590 -1.6127  2.0372
 5485SOL     OW27916   0.841   0.924  13.198 -0.1594  0.3491  0.1210
 5485SOL    HW127917   0.854   0.976  13.277  1.1835 -0.5138  0.4822
 5485SOL    HW227918   0.796   0.990  13.145 -0.1812  0.4411  0.2539
 5486SOL     OW27919   2.068   2.505   5.193 -0.3452  0.2280  0.2041
 5486SOL    HW127920   2.142   2.462   5.235  0.3392  0.6437 -0.5907
 5486SOL    HW227921   2.024   2.528   5.275  0.5078 -1.2058  1.0812
 5487SOL     OW27922   2.160   2.204   6.762 -0.3247  0.0742 -0.2015
 5487SOL    HW127923   2.150   2.256   6.841 -0.9914  0.7466 -0.7319
 5487SOL    HW227924   2.199   2.124   6.796 -1.3721 -0.3520  0.0202
 5488SOL     OW27925   1.798   3.627  12.810  0.3082  0.1642  0.0970
 5488SOL    HW127926   1.886   3.640  12.776  0.3931  0.8101  0.5616
 5488SOL    HW227927   1.812   3.574  12.888 -1.8830  0.6131  0.8076
 5489SOL     OW27928   2.882   4.417   5.313 -0.2214 -0.0799 -0.3250
 5489SOL    HW127929   2.827   4.495   5.305  0.8225  0.6843  0.0001
 5489SOL    HW227930   2.887   4.389   5.221  0.1293  1.0998 -0.6661
 5490SOL     OW27931   1.731   4.045   0.719 -0.3763  0.4261 -0.1855
 5490SOL    HW127932   1.697   3.975   0.663  2.0766 -0.6238 -0.3765
 5490SOL    HW227933   1.741   4.000   0.803  0.3491  0.3191 -0.3291
 5491SOL     OW27934   2.185   4.539   7.752  0.0252 -0.2200  0.0738
 5491SOL    HW127935   2.228   4.567   7.833  0.1043  0.2166 -0.1172
 5491SOL    HW227936   2.170   4.446   7.767  0.5597 -0.1674  0.8981
 5492SOL     OW27937   2.138   1.357   0.061  0.2769 -0.2730  0.3845
 5492SOL    HW127938   2.139   1.267   0.026  1.1553 -0.9236  2.0878
 5492SOL    HW227939   2.230   1.376   0.074  0.6323  0.0651 -2.7209
 5493SOL     OW27940   2.258   0.211   4.443 -0.3639 -0.4030  0.1111
 5493SOL    HW127941   2.335   0.204   4.500  0.5159  2.1863 -0.7872
 5493SOL    HW227942   2.298   0.193   4.357  0.5923 -1.4853  0.7737
 5494SOL     OW27943   3.817   2.604   5.431 -0.0245 -0.6029  0.1384
 5494SOL    HW127944   3.726   2.586   5.407  0.3750 -0.3102 -1.6158
 5494SOL    HW227945   3.838   2.515   5.459 -1.1773 -1.2469 -1.0071
 5495SOL     OW27946   4.422   0.286   6.709 -0.2388  0.2371  0.1298
 5495SOL    HW127947   4.471   0.208   6.735 -0.9067  0.0416  0.8274
 5495SOL    HW227948   4.494   0.338   6.673  2.8257 -3.1513  1.4069
 5496SOL     OW27949   0.904   1.341   6.613  0.3295  0.0233 -0.0215
 5496SOL    HW127950   0.893   1.327   6.519  1.3231  0.7756 -0.2542
 5496SOL    HW227951   0.824   1.382   6.644  0.3104 -0.4968  0.6199
 5497SOL     OW27952   3.623   3.759   6.071  0.7862 -0.2073  0.1350
 5497SOL    HW127953   3.563   3.713   6.130 -0.6618 -0.1198 -1.2586
 5497SOL    HW227954   3.563   3.786   6.001 -0.8089  1.8824  2.3052
 5498SOL     OW27955   1.425   3.539   0.308 -0.0172  0.0172  0.1169
 5498SOL    HW127956   1.462   3.615   0.353  1.7741 -1.9994  2.0147
 5498SOL    HW227957   1.506   3.503   0.272  0.4115  0.8917  0.2044
 5499SOL     OW27958   1.640   2.569  16.068  0.2855 -0.2860 -0.4260
 5499SOL    HW127959   1.702   2.562  16.140 -1.2539  1.8128  1.0919
 5499SOL    HW227960   1.601   2.482  16.065 -1.4740  0.5020 -0.6358
 5500SOL     OW27961   4.485   4.547   5.626 -0.8307 -0.2056  0.1801
 5500SOL    HW127962   4.488   4.452   5.638  2.4853 -0.1155  0.0261
 5500SOL    HW227963   4.578   4.568   5.617 -1.1669  1.4975  0.7304
 5501SOL     OW27964   1.160   1.137  16.340  0.4280  0.2279 -0.8266
 5501SOL    HW127965   1.142   1.046  16.364 -3.7120  0.4918 -2.8069
 5501SOL    HW227966   1.255   1.128  16.334  0.3675  0.4207 -2.1451
 5502SOL     OW27967   4.435   4.239  17.514  0.8705 -0.1463 -0.8362
 5502SOL    HW127968   4.471   4.235  17.603 -2.0493 -1.2957  0.2773
 5502SOL    HW227969   4.428   4.148  17.489 -2.5184 -0.4305  1.1877
 5503SOL     OW27970   2.096   1.367   6.101 -0.5998 -0.3661 -0.2093
 5503SOL    HW127971   2.092   1.377   6.196 -0.7235 -1.9008 -0.0455
 5503SOL    HW227972   2.190   1.372   6.086 -0.6658 -1.9078 -1.1152
 5504SOL     OW27973   2.915   4.455   5.027  0.0885 -0.7567 -0.6628
 5504SOL    HW127974   2.953   4.543   5.025  0.7396 -1.0248 -0.2105
 5504SOL    HW227975   2.964   4.410   4.958 -1.3445  1.2210 -2.9838
 5505SOL     OW27976   2.309   0.296   6.167 -0.1660 -0.4909 -0.9294
 5505SOL    HW127977   2.248   0.352   6.214  0.4070 -0.2307 -0.4852
 5505SOL    HW227978   2.316   0.217   6.220 -2.2112  0.7266  1.1456
 5506SOL     OW27979   2.119   4.181   2.645  0.4985  0.2268 -0.0210
 5506SOL    HW127980   2.149   4.176   2.736 -1.3215  1.5861  0.6476
 5506SOL    HW227981   2.165   4.263   2.628 -0.1740  1.0321  2.0378
 5507SOL     OW27982   2.477   1.066   7.856  0.2709  0.0724  0.5034
 5507SOL    HW127983   2.400   1.028   7.897  0.2635 -1.1048 -0.5770
 5507SOL    HW227984   2.435   1.121   7.790  1.6533 -0.9012 -1.1981
 5508SOL     OW27985   2.257   0.351  15.080 -0.0793  0.3963 -0.0141
 5508SOL    HW127986   2.327   0.396  15.032 -0.5605  0.2032 -0.9045
 5508SOL    HW227987   2.186   0.411  15.100 -1.5206 -0.8493 -1.3857
 5509SOL     OW27988   0.728   4.080   4.503 -0.1253  0.5091  0.3588
 5509SOL    HW127989   0.692   4.071   4.415 -0.7652  0.8871  0.5784
 5509SOL    HW227990   0.781   4.000   4.502  0.7085  1.0601  0.7644
 5510SOL     OW27991   1.701   2.801  10.981  0.0455  0.3361  0.6134
 5510SOL    HW127992   1.750   2.883  10.984 -1.7932  1.4727 -0.9038
 5510SOL    HW227993   1.753   2.744  10.924 -1.0705 -1.6185  1.5534
 5511SOL     OW27994   3.910   2.980   7.213  0.1916 -0.1492 -0.5166
 5511SOL    HW127995   3.885   3.056   7.267  0.4025 -0.7814  0.4797
 5511SOL    HW227996   3.991   3.013   7.175  1.3802 -2.3284  0.1484
 5512SOL     OW27997   0.404   2.736   6.255  0.0625 -0.4286  0.1270
 5512SOL    HW127998   0.482   2.708   6.208  0.5713 -1.8317  1.8246
 5512SOL    HW227999   0.442   2.734   6.343 -1.6450  0.3356  0.8793
 5513SOL     OW28000   2.245   4.249   7.114 -1.0974  0.2409 -0.6059
 5513SOL    HW128001   2.287   4.279   7.033  0.0084 -0.2153 -0.1982
 5513SOL    HW228002   2.152   4.262   7.098 -1.7371 -1.9731  1.2914
 5514SOL     OW28003   1.657   0.265   8.279  0.1851 -0.1319 -0.0051
 5514SOL    HW128004   1.605   0.201   8.329  2.2833 -0.0101  2.3092
 5514SOL    HW228005   1.728   0.295   8.334 -0.1560  0.0927  0.3144
 5515SOL     OW28006   0.790   1.317  16.065  0.0534  0.6141 -0.2454
 5515SOL    HW128007   0.812   1.313  15.972  0.6741 -2.9551  0.0387
 5515SOL    HW228008   0.874   1.282  16.096 -0.5793 -0.6599  0.0685
 5516SOL     OW28009   4.284   1.165   2.867  0.3609  0.2383  0.2193
 5516SOL    HW128010   4.199   1.176   2.823  1.2364  1.6784 -1.1454
 5516SOL    HW228011   4.302   1.078   2.830  3.3365  0.0111  2.2429
 5517SOL     OW28012   3.375   2.908   5.533  0.3311  0.1889  0.0125
 5517SOL    HW128013   3.466   2.893   5.506 -0.3209 -0.0090 -2.0550
 5517SOL    HW228014   3.364   2.823   5.576  0.8628 -0.3899 -1.0043
 5518SOL     OW28015   3.469   4.459  14.316 -0.1364 -0.1075 -0.4033
 5518SOL    HW128016   3.401   4.424  14.260  0.6637 -2.9739  0.4069
 5518SOL    HW228017   3.541   4.425  14.262  0.2668 -1.3095  0.8699
 5519SOL     OW28018   3.680   4.510   5.841 -0.5368 -0.4216 -0.1555
 5519SOL    HW128019   3.654   4.599   5.863  0.4077 -0.5126  1.3003
 5519SOL    HW228020   3.705   4.481   5.929  0.5075 -0.7691 -0.5771
 5520SOL     OW28021   1.682   0.884   3.859 -0.3419 -0.8727 -0.0363
 5520SOL    HW128022   1.674   0.791   3.882 -0.1590 -1.1678 -1.2091
 5520SOL    HW228023   1.758   0.893   3.916  0.3886 -1.3582 -0.9555
 5521SOL     OW28024   0.239   3.725   4.705 -0.0464 -0.0422  0.4871
 5521SOL    HW128025   0.317   3.767   4.669 -0.3307  0.7449  0.7798
 5521SOL    HW228026   0.174   3.779   4.661 -1.2556 -1.2644  0.7688
 5522SOL     OW28027   1.212   0.910   6.246  0.0102  0.0460  0.0459
 5522SOL    HW128028   1.187   0.989   6.198 -0.0770 -0.1167 -0.1736
 5522SOL    HW228029   1.243   0.947   6.329 -0.7438  1.5824 -0.3607
 5523SOL     OW28030   1.680   1.628  13.528 -0.4126 -0.1057 -0.1133
 5523SOL    HW128031   1.602   1.591  13.487  0.4311  2.4600 -4.0683
 5523SOL    HW228032   1.748   1.603  13.465 -1.7842  1.6646 -2.3319
 5524SOL     OW28033   2.114   2.173   8.085 -0.3546  0.2879  0.2811
 5524SOL    HW128034   2.088   2.264   8.101 -2.4449 -0.7118  2.3935
 5524SOL    HW228035   2.209   2.189   8.084 -0.3868  0.5702  2.7618
 5525SOL     OW28036   0.200   2.753  17.396 -0.2953  0.8036  0.3197
 5525SOL    HW128037   0.214   2.834  17.346 -3.7856 -0.1550 -2.1696
 5525SOL    HW228038   0.289   2.749  17.431  0.6640  3.6469 -1.7546
 5526SOL     OW28039   3.279   1.226   4.998  0.5107  0.2366 -0.0709
 5526SOL    HW128040   3.208   1.239   5.061 -0.6826  1.8670 -1.7369
 5526SOL    HW228041   3.278   1.130   4.997 -0.4451  0.2345  0.3245
 5527SOL     OW28042   0.644   1.873   2.664  0.2491  0.6546 -0.4002
 5527SOL    HW128043   0.675   1.839   2.580 -0.9553 -0.9990 -0.1687
 5527SOL    HW228044   0.704   1.830   2.725  2.2359 -0.0268 -2.8065
 5528SOL     OW28045   1.436   1.708   8.680  0.4421 -0.5230 -0.2697
 5528SOL    HW128046   1.437   1.744   8.768 -0.8572 -2.0218  0.3583
 5528SOL    HW228047   1.361   1.748   8.637  1.3161  0.0179 -1.2832
 5529SOL     OW28048   3.229   3.392   1.721  0.0406  0.1526  0.4829
 5529SOL    HW128049   3.256   3.453   1.652 -0.6841 -0.3471 -0.2350
 5529SOL    HW228050   3.135   3.396   1.735 -0.0128  1.8220 -0.4039
 5530SOL     OW28051   1.532   4.366   7.264 -0.1177  0.1903  0.1909
 5530SOL    HW128052   1.511   4.332   7.351 -0.1321  0.6407  0.3657
 5530SOL    HW228053   1.459   4.427   7.254  0.7160  0.8199 -1.9660
 5531SOL     OW28054   2.137   0.717   3.153 -0.1050  0.2605  0.1496
 5531SOL    HW128055   2.063   0.713   3.214 -0.6188 -0.6456 -0.5260
 5531SOL    HW228056   2.104   0.784   3.094  1.6807  0.8219 -0.2033
 5532SOL     OW28057   0.552   2.026   2.847 -0.4242 -0.5102  0.5816
 5532SOL    HW128058   0.591   1.977   2.775  0.0687  1.6177 -0.6170
 5532SOL    HW228059   0.609   2.103   2.847 -1.4111  0.2323 -1.0918
 5533SOL     OW28060   1.587   0.062   2.183 -0.2697  0.0510 -0.3651
 5533SOL    HW128061   1.551   4.701   2.213  0.0671  0.5414  1.3755
 5533SOL    HW228062   1.560   0.133   2.240 -1.7959 -1.8138  1.1942
 5534SOL     OW28063   0.047   3.221   8.883  0.2864  0.2127  0.1355
 5534SOL    HW128064   0.131   3.262   8.906 -0.6398  0.9572  2.1563
 5534SOL    HW228065   0.026   3.260   8.799  0.4229  0.8565  0.4024
 5535SOL     OW28066   3.153   0.350   2.018 -0.4368 -0.2058  0.4935
 5535SOL    HW128067   3.226   0.288   2.027  1.7894  2.2694 -0.3734
 5535SOL    HW228068   3.193   0.428   1.980 -2.1023  0.0414 -0.7628
 5536SOL     OW28069   4.623   1.362   1.780  0.2316 -0.0267  0.2759
 5536SOL    HW128070   4.662   1.379   1.866 -2.9503  1.1745  1.4966
 5536SOL    HW228071   4.671   1.284   1.752 -1.8142 -0.8040 -1.0898
 5537SOL     OW28072   2.601   0.672   5.314  0.5084 -0.1795 -0.7754
 5537SOL    HW128073   2.643   0.590   5.341  0.4767  0.4033  1.0861
 5537SOL    HW228074   2.513   0.639   5.299  0.2635  0.0386  0.1452
 5538SOL     OW28075   3.952   1.442   5.455 -0.0180  0.0335  0.0350
 5538SOL    HW128076   3.876   1.490   5.489  0.6241  1.0473  0.0217
 5538SOL    HW228077   3.926   1.445   5.362  1.8903  0.9041 -0.4645
 5539SOL     OW28078   1.063   2.351   4.509  0.0102  0.0843  0.0132
 5539SOL    HW128079   1.092   2.442   4.510 -1.6370  0.6136 -0.9283
 5539SOL    HW228080   1.060   2.325   4.418 -2.4645 -0.6182  0.2957
 5540SOL     OW28081   0.147   4.310   2.459  0.1598  0.0260 -0.1257
 5540SOL    HW128082   0.163   4.243   2.393 -1.2892  0.2926 -0.7736
 5540SOL    HW228083   0.066   4.347   2.422  0.0699 -2.2689 -2.2068
 5541SOL     OW28084   4.480   1.838   3.809  0.0286  0.0061 -0.3515
 5541SOL    HW128085   4.524   1.882   3.735 -0.3095  1.0861  0.0929
 5541SOL    HW228086   4.444   1.916   3.851 -1.0038 -0.6622 -0.0125
 5542SOL     OW28087   2.698   4.709   6.586  0.4166 -0.0201 -0.3768
 5542SOL    HW128088   2.656   4.622   6.588 -0.6389  0.5479  2.0475
 5542SOL    HW228089   2.677   0.016   6.674 -2.2097 -1.1689 -0.6263
 5543SOL     OW28090   0.275   4.076   0.755 -0.2022 -0.0417 -0.1612
 5543SOL    HW128091   0.236   3.994   0.786 -0.1583  0.2564  0.6869
 5543SOL    HW228092   0.221   4.145   0.792 -0.6058  0.1832 -1.1675
 5544SOL     OW28093   3.579   0.215  16.071  0.6529 -0.1306 -0.6065
 5544SOL    HW128094   3.550   0.137  16.023 -2.8305  0.4720  0.5028
 5544SOL    HW228095   3.591   0.187  16.161 -1.2149  0.2172 -0.2573
 5545SOL     OW28096   3.863   3.597   4.293  0.0645  0.1306 -0.5300
 5545SOL    HW128097   3.820   3.681   4.279 -0.0117  0.4345  1.4320
 5545SOL    HW228098   3.788   3.540   4.309 -0.6954  1.3948  0.4472
 5546SOL     OW28099   0.682   4.307   9.467 -0.3390  0.1802  0.4326
 5546SOL    HW128100   0.664   4.270   9.381  1.9934 -1.4486  0.6646
 5546SOL    HW228101   0.752   4.369   9.447 -1.2738  0.6663 -1.2830
 5547SOL     OW28102   2.064   1.498   2.222 -0.1883 -0.0705 -0.3079
 5547SOL    HW128103   2.145   1.491   2.171  1.6595  0.2228  2.5840
 5547SOL    HW228104   2.057   1.410   2.259 -1.6175  0.7806  1.4098
 5548SOL     OW28105   4.657   0.922   2.218  0.5130  0.0473  0.1091
 5548SOL    HW128106   4.706   0.971   2.284  0.5860 -0.3643  0.3657
 5548SOL    HW228107   4.689   0.975   2.145 -0.2462 -0.1647 -0.3830
 5549SOL     OW28108   3.599   2.472   5.171  0.0593  0.4101 -0.6286
 5549SOL    HW128109   3.603   2.417   5.093  0.1810  0.7645 -0.8723
 5549SOL    HW228110   3.525   2.437   5.221  0.1575  0.2188 -0.6195
 5550SOL     OW28111   4.029   3.962  17.687 -0.3876  0.0752  0.0044
 5550SOL    HW128112   4.009   3.883  17.636  0.8166 -0.3438  0.1662
 5550SOL    HW228113   3.986   3.945   0.080 -0.4554  1.8368  0.3180
 5551SOL     OW28114   2.483   4.401  15.909 -0.5244  0.5551 -0.1463
 5551SOL    HW128115   2.554   4.337  15.921 -0.0564  0.6872 -2.2273
 5551SOL    HW228116   2.511   4.478  15.958  2.4764  0.6348 -2.0007
 5552SOL     OW28117   2.903   1.103   4.910  0.1579  0.2160 -0.1377
 5552SOL    HW128118   2.854   1.083   4.989 -0.4148  2.1343 -0.0007
 5552SOL    HW228119   2.955   1.029   4.880  0.8005  0.6235 -0.0233
 5553SOL     OW28120   2.267   4.666  16.543  0.2269 -0.2921 -0.6107
 5553SOL    HW128121   2.243   4.671  16.450 -0.3423 -0.9608 -0.5010
 5553SOL    HW228122   2.333   0.013  16.546 -1.4802  1.3918 -1.7025
 5554SOL     OW28123   2.738   0.398   2.525  0.0011  0.6938  0.0242
 5554SOL    HW128124   2.694   0.313   2.529  0.6780  0.3396 -0.1078
 5554SOL    HW228125   2.675   0.461   2.559 -0.2982  0.7433 -0.6172
 5555SOL     OW28126   0.620   2.120   8.992 -0.0086  0.2016  0.0220
 5555SOL    HW128127   0.596   2.193   9.049  1.7852  0.9552 -0.1816
 5555SOL    HW228128   0.712   2.126   8.966 -0.6595  0.3000 -2.3200
 5556SOL     OW28129   0.903   1.750   6.840  0.1469 -0.0899 -0.8593
 5556SOL    HW128130   0.953   1.803   6.778  0.5386 -0.7285 -1.0776
 5556SOL    HW228131   0.869   1.824   6.891  0.5756  0.7724 -1.8211
 5557SOL     OW28132   0.698   3.014   6.926 -0.0963  0.2334  0.3676
 5557SOL    HW128133   0.689   2.925   6.891 -1.0041  0.1521  0.8129
 5557SOL    HW228134   0.740   3.063   6.856 -0.5823  0.3741  0.1740
 5558SOL     OW28135   3.713   1.503   2.934 -0.1809  0.2342  0.1276
 5558SOL    HW128136   3.722   1.504   3.029 -0.4536  1.9763  0.1457
 5558SOL    HW228137   3.618   1.517   2.925 -0.1459  0.5064  0.1697
 5559SOL     OW28138   1.498   4.133   9.377 -0.1970 -0.0341 -0.0455
 5559SOL    HW128139   1.590   4.118   9.397  0.0457  1.1954 -0.2402
 5559SOL    HW228140   1.471   4.044   9.356  1.3348 -1.1262  2.5706
 5560SOL     OW28141   1.367   0.553  16.659 -0.5032  0.1981 -0.1472
 5560SOL    HW128142   1.461   0.536  16.662 -0.3130  1.2275 -0.2117
 5560SOL    HW228143   1.321   0.475  16.692  1.1841 -1.7471 -2.3563
 5561SOL     OW28144   3.925   0.665   3.106 -0.6470 -0.1307 -0.1906
 5561SOL    HW128145   4.015   0.634   3.116  0.3466  2.7442 -0.4437
 5561SOL    HW228146   3.932   0.718   3.027 -0.3307  1.3882  0.8652
 5562SOL     OW28147   1.481   1.423  12.760 -0.1669 -0.5639 -0.5319
 5562SOL    HW128148   1.459   1.435  12.667  0.4049  2.7517 -0.2436
 5562SOL    HW228149   1.550   1.358  12.756 -0.9489 -1.4497  0.4735
 5563SOL     OW28150   2.911   3.310  11.477  0.2211  0.1312 -0.6572
 5563SOL    HW128151   2.947   3.230  11.515 -3.1799 -0.1924  1.8816
 5563SOL    HW228152   2.900   3.287  11.384 -0.9360 -0.8547 -0.2823
 5564SOL     OW28153   4.606   2.203   5.529  0.5486  0.2134 -0.2019
 5564SOL    HW128154   4.637   2.293   5.526  0.7236  0.2003  0.9149
 5564SOL    HW228155   4.669   2.157   5.585 -0.1231 -0.1454  0.2709
 5565SOL     OW28156   2.789   0.012   7.049 -0.5326  0.4684 -0.0460
 5565SOL    HW128157   2.746   0.092   7.021 -1.8780 -0.4863 -0.6912
 5565SOL    HW228158   2.724   4.715   7.116 -0.7210 -2.5088 -1.0677
 5566SOL     OW28159   0.189   0.888   4.768 -0.0789  0.5978  0.0427
 5566SOL    HW128160   0.192   0.890   4.672  1.9032 -1.1995  0.0576
 5566SOL    HW228161   0.218   0.977   4.783 -1.1217  0.8289  0.7042
 5567SOL     OW28162   1.015   3.426   9.441  0.0225  0.1627 -0.2243
 5567SOL    HW128163   0.981   3.339   9.462 -0.6220  0.4503 -0.0698
 5567SOL    HW228164   1.030   3.470   9.524  1.7440 -0.4626 -0.2098
 5568SOL     OW28165   2.910   4.547   6.200  0.2777  0.1645 -0.2824
 5568SOL    HW128166   2.858   4.477   6.240  1.1783  0.5876  1.6459
 5568SOL    HW228167   2.876   4.623   6.248  1.6045  0.6505 -0.1239
 5569SOL     OW28168   1.947   3.213   8.169 -0.6311 -0.0546  0.2840
 5569SOL    HW128169   2.009   3.142   8.148 -1.6210 -0.7356 -0.3289
 5569SOL    HW228170   1.933   3.202   8.263 -0.2174 -0.6805  0.2756
 5570SOL     OW28171   3.064   1.031   7.467  0.4861  0.2578  0.0907
 5570SOL    HW128172   3.136   0.983   7.509  0.3734  1.0701  1.1910
 5570SOL    HW228173   2.993   1.037   7.530 -0.4342  2.6856 -1.1893
 5571SOL     OW28174   1.462   0.365   6.660  0.3757  0.5106  0.0283
 5571SOL    HW128175   1.366   0.370   6.656  0.4797  0.9565 -1.9685
 5571SOL    HW228176   1.465   0.388   6.753 -0.5203  2.8113 -0.5323
 5572SOL     OW28177   3.469   0.134   0.992  0.5053  0.2155  0.2203
 5572SOL    HW128178   3.477   0.206   1.054  2.6394 -0.7206  1.0111
 5572SOL    HW228179   3.449   0.062   1.052  0.0359  1.4706  1.5507
 5573SOL     OW28180   4.630   2.072   6.518  0.1361  0.6412  0.3934
 5573SOL    HW128181   4.673   2.021   6.586  1.7024  3.2606  1.3584
 5573SOL    HW228182   4.698   2.129   6.482 -0.6385 -0.0514 -2.1538
 5574SOL     OW28183   4.550   2.145  10.597 -0.5037  0.0111 -0.3772
 5574SOL    HW128184   4.599   2.227  10.594 -1.4331  0.6746  3.0888
 5574SOL    HW228185   4.503   2.149  10.513 -1.6252  2.0097  0.3605
 5575SOL     OW28186   0.889   3.642   0.582 -0.0792 -0.0405  0.8225
 5575SOL    HW128187   0.815   3.669   0.635 -0.6604 -1.2409  0.6047
 5575SOL    HW228188   0.964   3.676   0.631 -0.0203 -0.4407  1.0044
 5576SOL     OW28189   0.908   3.393  13.626  0.0442 -0.0843  0.0994
 5576SOL    HW128190   0.972   3.364  13.562  0.5970  0.3433  0.4523
 5576SOL    HW228191   0.848   3.319  13.624  0.3200 -0.2998 -0.1311
 5577SOL     OW28192   2.802   1.185   2.597  1.1115  0.1074 -0.0974
 5577SOL    HW128193   2.709   1.190   2.577  1.1606 -3.2776 -1.1414
 5577SOL    HW228194   2.802   1.146   2.684 -1.6266 -0.8357 -0.5213
 5578SOL     OW28195   3.455   2.144  10.015 -0.0920  0.5820  0.4951
 5578SOL    HW128196   3.468   2.050  10.016  1.0479  0.7201 -0.6745
 5578SOL    HW228197   3.534   2.179  10.055  2.0057 -2.6553 -0.8238
 5579SOL     OW28198   1.706   2.958  10.667  0.2790 -0.0975 -0.6158
 5579SOL    HW128199   1.693   3.027  10.732  1.5895 -0.8506  0.4489
 5579SOL    HW228200   1.777   2.904  10.703 -0.6989 -1.1934 -0.3046
 5580SOL     OW28201   2.541   4.620   4.496 -0.3524  0.2481 -0.4080
 5580SOL    HW128202   2.490   4.548   4.534  0.2109  0.3270  0.4838
 5580SOL    HW228203   2.529   4.690   4.559  0.9007  0.5434 -0.5141
 5581SOL     OW28204   0.081   0.110   9.094 -1.0959 -0.8809  0.0095
 5581SOL    HW128205   0.045   0.118   9.005  1.8554  1.6038 -0.9514
 5581SOL    HW228206   0.010   0.089   9.155  0.8682 -1.3435  2.1468
 5582SOL     OW28207   1.894   2.855  10.176  0.1069  0.1140  0.3660
 5582SOL    HW128208   1.873   2.873  10.268  2.4320  0.4213  0.8343
 5582SOL    HW228209   1.842   2.919  10.126 -0.3714 -1.3118 -0.9667
 5583SOL     OW28210   4.436   4.164   8.393 -0.3183  0.0488 -0.2526
 5583SOL    HW128211   4.343   4.187   8.397 -0.1037  1.0983 -1.6980
 5583SOL    HW228212   4.485   4.244   8.376 -2.5000  1.6575  0.9714
 5584SOL     OW28213   2.667   3.778   1.225  0.4396  0.1492  0.1891
 5584SOL    HW128214   2.707   3.707   1.175 -1.0912 -0.3189 -0.3874
 5584SOL    HW228215   2.694   3.752   1.312 -1.2345  1.0348  0.9819
 5585SOL     OW28216   3.038   4.535  11.158  0.3718 -0.7308  0.0333
 5585SOL    HW128217   3.013   4.626  11.170  0.2687 -0.5623 -1.5236
 5585SOL    HW228218   3.052   4.514  11.251  0.2452  1.8499  0.6228
 5586SOL     OW28219   3.940   0.170   5.721 -0.3459 -0.2518 -0.4170
 5586SOL    HW128220   3.853   0.136   5.741 -0.9281 -0.8824 -3.9988
 5586SOL    HW228221   3.943   0.237   5.789  1.7416 -0.5021 -0.2623
 5587SOL     OW28222   3.434   1.938   6.724 -0.0986 -0.1122  0.8180
 5587SOL    HW128223   3.393   1.880   6.788 -1.5678 -0.3237 -0.3000
 5587SOL    HW228224   3.450   2.009   6.786  1.5501  0.0171  0.2411
 5588SOL     OW28225   4.714   0.060   0.616 -0.5227  0.2232  0.1434
 5588SOL    HW128226   0.054   0.025   0.553 -1.2165  2.4828 -1.7776
 5588SOL    HW228227   0.048   0.103   0.681  1.6800  1.4559 -2.5939
 5589SOL     OW28228   1.984   0.975   3.048 -0.1261 -0.1715  0.0421
 5589SOL    HW128229   2.064   1.027   3.033  1.1539 -1.8370  1.1436
 5589SOL    HW228230   1.944   0.993   2.963  1.2943  0.3576 -0.5305
 5590SOL     OW28231   3.598   1.933   0.228 -0.2325 -0.8907  0.1037
 5590SOL    HW128232   3.637   1.867   0.171  1.4736 -1.1223  1.5634
 5590SOL    HW228233   3.626   2.020   0.201 -2.2882 -0.6695 -1.3087
 5591SOL     OW28234   2.896   3.063   6.496  0.2062 -0.7195 -1.0958
 5591SOL    HW128235   2.954   3.101   6.562  0.8687 -1.7476 -1.0756
 5591SOL    HW228236   2.829   3.013   6.544 -0.7601 -0.6142 -2.3250
 5592SOL     OW28237   0.621   2.844   5.923 -0.1084 -0.3299  0.1925
 5592SOL    HW128238   0.603   2.791   5.846 -1.5397  0.8904 -0.3107
 5592SOL    HW228239   0.537   2.883   5.948  0.0269 -1.2068  2.0053
 5593SOL     OW28240   2.050   2.942   7.207 -0.2962 -0.8126 -0.9783
 5593SOL    HW128241   2.122   2.880   7.202  0.7614  0.3004  0.4016
 5593SOL    HW228242   1.976   2.881   7.204  0.3769 -1.6504 -0.6772
 5594SOL     OW28243   4.452   1.309   9.701 -0.1279  0.3288  0.7644
 5594SOL    HW128244   4.404   1.234   9.666 -0.4957  0.3245  1.2705
 5594SOL    HW228245   4.450   1.375   9.632  0.7737  0.9966  1.3819
 5595SOL     OW28246   1.774   3.741  15.227  0.2947  0.4458  0.2049
 5595SOL    HW128247   1.792   3.779  15.313  1.4937 -0.1051  0.1951
 5595SOL    HW228248   1.746   3.821  15.183  0.8630  1.1504  1.1271
 5596SOL     OW28249   0.683   4.082  15.796 -0.5789  0.6395  0.2067
 5596SOL    HW128250   0.609   4.135  15.766 -1.2280 -0.0336  0.6209
 5596SOL    HW228251   0.739   4.145  15.841  0.1696 -1.1026  1.7004
 5597SOL     OW28252   1.014   2.642   5.446  0.1545 -0.0232 -0.5190
 5597SOL    HW128253   1.102   2.677   5.437  0.6792 -1.5223 -1.0494
 5597SOL    HW228254   1.024   2.564   5.500 -3.6987  0.7603  1.3490
 5598SOL     OW28255   1.638   1.645   8.051 -0.1191  0.3504  0.0300
 5598SOL    HW128256   1.680   1.729   8.069 -1.1220  1.0273 -0.7959
 5598SOL    HW228257   1.562   1.677   8.003 -0.9031  1.1426  1.8349
 5599SOL     OW28258   1.743   3.334  10.052  0.1383  0.5438 -0.5735
 5599SOL    HW128259   1.767   3.340  10.144  1.1026  0.2657 -0.8126
 5599SOL    HW228260   1.723   3.424  10.027  1.5391  1.4256  1.4957
 5600SOL     OW28261   3.000   3.799  11.286  0.1079 -0.2873  0.3402
 5600SOL    HW128262   3.089   3.826  11.308 -0.0605  1.3911 -1.0012
 5600SOL    HW228263   2.956   3.814  11.370  1.2414  2.2864  0.4820
 5601SOL     OW28264   4.689   0.565  14.811 -0.6041  0.5516  0.2220
 5601SOL    HW128265   0.016   0.595  14.888  0.0193  0.9574 -0.3358
 5601SOL    HW228266   4.626   0.515  14.863  0.5977 -0.5777  0.6010
 5602SOL     OW28267   0.928   4.132   3.022  0.9250  0.2447 -0.1376
 5602SOL    HW128268   0.922   4.058   2.961 -0.2886  1.6104 -1.6944
 5602SOL    HW228269   0.836   4.157   3.029  1.2876  1.0876  1.5023
 5603SOL     OW28270   0.799   2.881   0.671  0.4515  0.3591 -0.0690
 5603SOL    HW128271   0.858   2.874   0.746 -0.2201 -0.6139  0.3723
 5603SOL    HW228272   0.780   2.791   0.642 -2.9620  0.7422  0.9929
 5604SOL     OW28273   2.136   4.290   2.014 -0.2154  0.1268  0.0602
 5604SOL    HW128274   2.162   4.324   1.929  0.2322 -0.1080  0.1010
 5604SOL    HW228275   2.159   4.198   1.995 -0.5342 -0.0926  0.7397
 5605SOL     OW28276   4.193   0.372  13.092  0.2315 -0.0060  0.2360
 5605SOL    HW128277   4.226   0.438  13.031 -3.0242  1.3487 -0.0469
 5605SOL    HW228278   4.175   0.424  13.170  0.6375 -1.3144  1.2089
 5606SOL     OW28279   3.407   1.607  10.332 -0.1289 -0.0369  0.7828
 5606SOL    HW128280   3.365   1.549  10.269  2.0959  0.3891 -1.1053
 5606SOL    HW228281   3.394   1.555  10.411  1.3830 -2.4088 -0.4984
 5607SOL     OW28282   3.047   3.223   6.703 -0.1568 -0.0362 -0.0792
 5607SOL    HW128283   3.135   3.252   6.681  0.2811 -2.1253 -1.0862
 5607SOL    HW228284   3.015   3.308   6.733  0.7425  0.4853 -0.5958
 5608SOL     OW28285   3.285   0.428  11.136 -0.0662 -0.5811  1.1678
 5608SOL    HW128286   3.222   0.383  11.080  0.4311 -0.1136  0.2342
 5608SOL    HW228287   3.357   0.456  11.080  1.2038 -2.8619  1.6705
 5609SOL     OW28288   1.443   0.933   7.663 -0.0280  0.1825  0.1854
 5609SOL    HW128289   1.465   0.942   7.570 -0.3713 -0.0963  0.0758
 5609SOL    HW228290   1.356   0.973   7.660  0.6060  1.6754  1.6050
 5610SOL     OW28291   0.433   1.587   7.644 -0.2369 -0.0772 -0.1426
 5610SOL    HW128292   0.458   1.495   7.655 -2.3205 -0.4454  1.3899
 5610SOL    HW228293   0.505   1.624   7.594 -1.1745  0.8894 -0.7574
 5611SOL     OW28294   4.537   2.043  12.526  0.3710  0.0372  0.3335
 5611SOL    HW128295   4.546   1.976  12.593 -1.0869 -1.2928 -0.8046
 5611SOL    HW228296   4.479   2.105  12.571  0.2372  1.6510 -2.0265
 5612SOL     OW28297   4.212   2.694   9.282  0.0496  0.1813  0.1389
 5612SOL    HW128298   4.162   2.745   9.345 -0.5455 -0.1291 -0.0833
 5612SOL    HW228299   4.300   2.729   9.294  0.1642 -0.8963  2.3814
 5613SOL     OW28300   1.171   3.317   8.598 -0.2496 -0.4621 -0.5448
 5613SOL    HW128301   1.247   3.311   8.656 -0.3943 -1.2414 -0.4354
 5613SOL    HW228302   1.104   3.283   8.658 -0.8328 -1.4869 -1.7600
 5614SOL     OW28303   0.629   0.708   6.601  0.2431 -0.6699  0.4401
 5614SOL    HW128304   0.713   0.691   6.559  0.0217 -0.0190 -0.2765
 5614SOL    HW228305   0.583   0.720   6.518  0.7237 -1.5536  0.0471
 5615SOL     OW28306   0.845   2.509   2.327 -0.4963  0.0131 -0.0088
 5615SOL    HW128307   0.779   2.564   2.368 -2.2673 -0.5814 -2.0996
 5615SOL    HW228308   0.919   2.533   2.384  0.2895 -0.0838 -0.9902
 5616SOL     OW28309   2.795   0.020   8.614  0.2755 -0.8305  0.1034
 5616SOL    HW128310   2.855   4.704   8.550  1.9099  2.5894 -0.4100
 5616SOL    HW228311   2.811   0.114   8.604  1.7638 -1.2702 -1.5308
 5617SOL     OW28312   4.318   4.459   9.593  0.3726 -0.4006 -0.1298
 5617SOL    HW128313   4.398   4.459   9.540  0.6168 -0.0329  0.2452
 5617SOL    HW228314   4.349   4.399   9.660 -0.7391  0.1870  0.9242
 5618SOL     OW28315   3.174   0.074   3.196 -0.2210 -0.1685  0.3376
 5618SOL    HW128316   3.225   0.003   3.235 -3.9106 -2.6385  0.6253
 5618SOL    HW228317   3.144   0.128   3.269 -0.7314  1.2252 -0.8973
 5619SOL     OW28318   3.784   4.272  12.783  0.1108 -0.2545 -0.5853
 5619SOL    HW128319   3.747   4.322  12.856  1.6962 -1.0878  0.8143
 5619SOL    HW228320   3.721   4.201  12.769  0.9606 -1.0607 -0.3770
 5620SOL     OW28321   0.659   2.561  10.562 -0.8534  0.1568  0.5948
 5620SOL    HW128322   0.721   2.600  10.624  1.1246 -0.8911 -0.6992
 5620SOL    HW228323   0.582   2.590  10.610 -0.1573 -0.9195  2.3828
 5621SOL     OW28324   1.681   0.316  13.738  0.0075  0.2928 -0.0528
 5621SOL    HW128325   1.602   0.330  13.790  0.6633  0.6281  0.8470
 5621SOL    HW228326   1.746   0.279  13.798 -2.0974 -0.2593  1.8859
 5622SOL     OW28327   2.895   3.598   7.963 -0.1448 -0.6284  0.3484
 5622SOL    HW128328   2.829   3.624   7.898 -0.0142 -0.6227  0.2184
 5622SOL    HW228329   2.852   3.521   8.000 -2.6916  0.7304  0.2528
 5623SOL     OW28330   4.422   2.414   4.006  0.5880  0.0833 -0.0257
 5623SOL    HW128331   4.495   2.389   3.951  2.7692  1.7571  2.1097
 5623SOL    HW228332   4.355   2.346   3.997 -1.8787  2.6401 -0.8604
 5624SOL     OW28333   2.804   2.274   5.190  0.1418  0.3932 -0.6936
 5624SOL    HW128334   2.838   2.197   5.236 -0.5015  0.8446  0.5627
 5624SOL    HW228335   2.806   2.345   5.254 -3.4976 -0.2176  0.0930
 5625SOL     OW28336   0.545   1.697   2.192 -1.1807  0.0677 -0.4688
 5625SOL    HW128337   0.502   1.621   2.152  0.1035 -1.1443  0.4129
 5625SOL    HW228338   0.637   1.669   2.191 -1.2083  0.1335 -2.9879
 5626SOL     OW28339   1.143   4.354   7.533 -0.6131 -0.2574 -0.0493
 5626SOL    HW128340   1.113   4.331   7.445  1.4403  0.2454 -0.8745
 5626SOL    HW228341   1.094   4.436   7.541  1.0284  0.3947  3.5331
 5627SOL     OW28342   3.337   3.588   3.894  0.3532 -0.5835 -0.1368
 5627SOL    HW128343   3.411   3.529   3.909  0.7185 -0.7787 -2.7792
 5627SOL    HW228344   3.298   3.546   3.818 -0.1602 -1.0053  0.3538
 5628SOL     OW28345   2.905   0.341   5.534  0.3366  0.0665 -0.1866
 5628SOL    HW128346   2.943   0.395   5.604 -0.7059  1.1050 -0.4238
 5628SOL    HW228347   2.980   0.298   5.493 -1.6583 -3.6015  0.0312
 5629SOL     OW28348   2.988   0.947  16.617 -0.0870  0.3883  0.4785
 5629SOL    HW128349   3.030   0.862  16.610  1.6024  0.9483  3.7308
 5629SOL    HW228350   3.035   0.998  16.684  1.4591 -1.3837  0.7308
 5630SOL     OW28351   3.798   3.801   8.606  0.3113  0.2012  0.6499
 5630SOL    HW128352   3.723   3.777   8.660 -0.4765 -2.7796 -1.7183
 5630SOL    HW228353   3.831   3.711   8.604  1.5881  0.6283  2.9963
 5631SOL     OW28354   0.531   2.620   7.806  1.0052  0.3162  0.2257
 5631SOL    HW128355   0.540   2.703   7.760 -0.7648  0.0949 -0.5023
 5631SOL    HW228356   0.495   2.650   7.889  1.4094 -1.8523  1.1966
 5632SOL     OW28357   3.096   0.887   6.489  0.0587 -0.0098 -0.2545
 5632SOL    HW128358   3.021   0.828   6.481  1.1438 -1.8606  3.3238
 5632SOL    HW228359   3.135   0.872   6.575  3.3100 -0.1439 -1.7598
 5633SOL     OW28360   1.690   4.386   5.104  0.2443  0.2919  0.2301
 5633SOL    HW128361   1.680   4.413   5.195  2.0293  1.2608  0.1450
 5633SOL    HW228362   1.760   4.322   5.115 -1.3564 -1.6001 -0.6770
 5634SOL     OW28363   1.019   3.019   7.910 -0.4283 -0.4966  0.3222
 5634SOL    HW128364   0.962   2.978   7.845  1.0894 -0.4743 -1.0100
 5634SOL    HW228365   1.072   2.943   7.933 -0.8022 -0.3747  1.6228
 5635SOL     OW28366   2.289   3.081   8.811  0.5047 -0.0357  0.2065
 5635SOL    HW128367   2.280   3.022   8.886 -1.4725  1.4065  1.0855
 5635SOL    HW228368   2.323   3.163   8.847  1.6677 -0.3328 -0.2065
 5636SOL     OW28369   4.675   2.727   9.200  0.6666 -0.3867  0.3040
 5636SOL    HW128370   4.713   2.808   9.167  0.9337  0.4773  2.7556
 5636SOL    HW228371   4.594   2.769   9.226 -0.0395 -2.0832  0.8207
 5637SOL     OW28372   1.707   3.234   3.742  0.4531  0.5823  0.3432
 5637SOL    HW128373   1.747   3.230   3.655 -0.0530  0.2965  0.1254
 5637SOL    HW228374   1.741   3.158   3.788  0.8325  0.8591  0.5199
 5638SOL     OW28375   2.525   3.357   0.683 -0.1375  0.0069  0.0258
 5638SOL    HW128376   2.460   3.426   0.674  2.6448  2.3605 -1.9933
 5638SOL    HW228377   2.533   3.332   0.591  1.0051 -3.1119  0.9646
 5639SOL     OW28378   0.913   1.527   1.580 -0.4664 -0.0241  0.4292
 5639SOL    HW128379   0.939   1.546   1.490 -0.3591 -0.3411  0.3928
 5639SOL    HW228380   0.820   1.553   1.580 -0.5351 -0.2580 -0.4937
 5640SOL     OW28381   1.789   3.652   6.510 -0.3631  0.4905  0.2923
 5640SOL    HW128382   1.777   3.558   6.495 -0.8338  0.9045 -1.9329
 5640SOL    HW228383   1.698   3.681   6.501 -0.6366 -0.1554  0.9726
 5641SOL     OW28384   4.688   2.252   3.768 -0.0842 -0.1762 -0.0287
 5641SOL    HW128385   4.594   2.263   3.784 -0.0286  2.0802 -1.4134
 5641SOL    HW228386   4.702   2.157   3.774  1.7629  0.0945 -0.1342
 5642SOL     OW28387   1.636   3.533   1.758  0.1152  0.0005 -0.1394
 5642SOL    HW128388   1.556   3.487   1.734  0.7796 -0.8488 -0.7219
 5642SOL    HW228389   1.622   3.617   1.714  0.1323  0.0498 -0.0498
 5643SOL     OW28390   2.952   3.648   6.619 -0.3037  0.1942 -0.1930
 5643SOL    HW128391   2.872   3.631   6.571  0.5409  0.6164 -1.7524
 5643SOL    HW228392   2.997   3.702   6.554  0.5311 -1.4782 -1.0022
 5644SOL     OW28393   0.150   3.092   8.541  0.2041 -0.2391  0.1426
 5644SOL    HW128394   0.127   3.005   8.506 -1.0895  0.7107 -1.3484
 5644SOL    HW228395   0.215   3.116   8.474  1.6572 -1.7624  0.9712
 5645SOL     OW28396   3.786   3.993   6.707 -0.7996  0.4080  0.4945
 5645SOL    HW128397   3.859   3.981   6.647  0.4996 -0.7383  2.3128
 5645SOL    HW228398   3.732   4.061   6.666  2.8147  2.6613 -0.5719
 5646SOL     OW28399   2.243   3.672   5.127 -0.0371 -0.4737 -0.4209
 5646SOL    HW128400   2.271   3.666   5.218 -0.3833  0.2447 -0.2663
 5646SOL    HW228401   2.309   3.625   5.076 -0.4946 -2.2068  0.5956
 5647SOL     OW28402   0.813   1.770   7.324 -0.4229  0.2958 -0.3238
 5647SOL    HW128403   0.803   1.711   7.250  2.5174 -1.7488  0.9003
 5647SOL    HW228404   0.884   1.726   7.372 -1.8613  1.0954  2.5661
 5648SOL     OW28405   1.869   2.705   7.161 -0.4714 -0.0582  0.5387
 5648SOL    HW128406   1.877   2.650   7.239 -1.4587  2.4083  2.3473
 5648SOL    HW228407   1.919   2.655   7.096  0.3882  1.8215 -0.2455
 5649SOL     OW28408   4.043   3.351   2.891  0.5981  0.0248 -0.0315
 5649SOL    HW128409   3.967   3.399   2.859  0.4377 -1.0505 -1.2671
 5649SOL    HW228410   4.033   3.276   2.831 -0.9691  1.2119 -1.2354
 5650SOL     OW28411   1.933   0.344   0.509  0.5398  0.1040  0.0700
 5650SOL    HW128412   1.920   0.291   0.587  1.2817 -1.8558 -1.1395
 5650SOL    HW228413   1.948   0.432   0.545 -2.5826  0.2968  0.9314
 5651SOL     OW28414   3.946   4.614   3.266 -0.6531  1.0100 -0.5920
 5651SOL    HW128415   3.974   4.658   3.186 -0.2545  1.3701 -0.2612
 5651SOL    HW228416   3.853   4.632   3.254 -1.6716 -1.1558  4.0148
 5652SOL     OW28417   3.685   2.388   4.089 -0.5671 -0.3983  0.4338
 5652SOL    HW128418   3.729   2.462   4.131  2.3360 -1.3651 -0.9629
 5652SOL    HW228419   3.600   2.430   4.077 -0.4224  0.3127  1.9021
 5653SOL     OW28420   2.395   4.439   5.093 -0.1914  0.2697  0.4052
 5653SOL    HW128421   2.398   4.525   5.135  0.2538  1.8209 -2.7718
 5653SOL    HW228422   2.486   4.411   5.083 -0.6419 -1.0117 -0.2045
 5654SOL     OW28423   2.378   0.283   1.133  0.7519  0.6084  0.4273
 5654SOL    HW128424   2.348   0.269   1.043  1.0448  0.0761  0.4109
 5654SOL    HW228425   2.295   0.282   1.182 -0.9042  2.4085 -2.3146
 5655SOL     OW28426   0.488   4.556  17.426  0.0352 -0.6712 -0.1895
 5655SOL    HW128427   0.515   4.497  17.356 -0.6046  1.2091 -2.0068
 5655SOL    HW228428   0.477   4.501  17.503 -1.3744 -0.8574 -0.5159
 5656SOL     OW28429   3.891   4.621   5.055 -0.1240  0.1397  0.5644
 5656SOL    HW128430   3.853   4.665   5.131  2.0435  0.5030  1.4314
 5656SOL    HW228431   3.981   4.600   5.081 -0.3248 -1.5673 -0.1131
 5657SOL     OW28432   0.671   0.580   6.844  0.6834 -0.4676  0.2722
 5657SOL    HW128433   0.646   0.623   6.762 -1.7384 -2.8698 -0.2745
 5657SOL    HW228434   0.761   0.560   6.819  0.6458 -0.2850 -0.0053
 5658SOL     OW28435   1.790   2.897  10.413  0.0858  0.2236  0.4186
 5658SOL    HW128436   1.727   2.824  10.407 -0.4184  0.8771 -2.5430
 5658SOL    HW228437   1.775   2.927  10.502  0.2538 -1.0686  0.8853
 5659SOL     OW28438   0.613   1.040   8.825  0.1808  0.3355 -0.5494
 5659SOL    HW128439   0.553   1.001   8.889  0.5597  2.3811  1.0623
 5659SOL    HW228440   0.583   1.130   8.834  0.8091  0.5049 -0.1057
 5660SOL     OW28441   2.159   0.252  14.827  0.8018  0.2980 -0.1125
 5660SOL    HW128442   2.174   0.265  14.921 -1.0611 -1.6988  0.4442
 5660SOL    HW228443   2.250   0.260  14.798  1.2347  0.3822  1.2557
 5661SOL     OW28444   2.076   3.417   6.680 -0.3739  0.0029  0.0905
 5661SOL    HW128445   2.094   3.336   6.727 -1.9761 -1.0038 -1.0177
 5661SOL    HW228446   2.125   3.407   6.598 -0.5319  0.7235 -0.0922
 5662SOL     OW28447   4.190   0.266  15.789 -0.1190  0.2328 -0.4922
 5662SOL    HW128448   4.219   0.310  15.708 -0.1554 -1.6481 -1.5205
 5662SOL    HW228449   4.168   0.335  15.852 -0.5198  0.4206 -0.8364
 5663SOL     OW28450   1.027   1.269  10.269  0.1597  0.7819  0.0902
 5663SOL    HW128451   0.938   1.297  10.292 -0.4587 -0.2101 -1.1148
 5663SOL    HW228452   1.032   1.181  10.305  0.1119 -0.3984 -2.7751
 5664SOL     OW28453   1.096   2.395  15.708  0.4430  0.1222 -0.3161
 5664SOL    HW128454   1.017   2.406  15.761  0.6236  0.8650 -0.1985
 5664SOL    HW228455   1.059   2.425  15.625 -3.5440  0.0397  1.4281
 5665SOL     OW28456   3.286   3.614   1.208 -0.3306  0.0567 -0.0260
 5665SOL    HW128457   3.261   3.526   1.183  2.9177 -0.9004  0.0462
 5665SOL    HW228458   3.209   3.668   1.193 -0.7413 -0.5032  0.0892
 5666SOL     OW28459   1.267   0.588   3.229 -0.2728  0.0460  0.3063
 5666SOL    HW128460   1.346   0.542   3.259  0.1623  1.5663  1.4927
 5666SOL    HW228461   1.276   0.673   3.271  0.4604 -0.0169  0.2861
 5667SOL     OW28462   2.796   3.118   0.520  0.2574 -0.1247  0.1322
 5667SOL    HW128463   2.856   3.059   0.474 -0.7149 -0.4417 -0.7155
 5667SOL    HW228464   2.803   3.200   0.471 -3.2423 -0.9547 -1.7360
 5668SOL     OW28465   2.028   0.080   0.759 -0.7364  0.0732  0.1166
 5668SOL    HW128466   2.022   0.149   0.825 -2.7819  0.6965 -0.7255
 5668SOL    HW228467   2.016   0.002   0.814  1.6554 -0.5674 -0.2916
 5669SOL     OW28468   2.202   4.618   6.505 -0.4512  0.1633 -0.1822
 5669SOL    HW128469   2.210   4.522   6.503 -1.3398  0.1128 -1.4194
 5669SOL    HW228470   2.107   4.625   6.498 -0.5199 -0.5825  0.0031
 5670SOL     OW28471   0.573   3.998   7.298  0.3045 -0.0337 -0.4473
 5670SOL    HW128472   0.620   3.963   7.374 -0.3644 -0.9932 -0.4720
 5670SOL    HW228473   0.483   4.012   7.328  0.3743 -0.6336  0.0414
 5671SOL     OW28474   4.342   1.844   4.534 -0.8657 -0.6222 -0.4105
 5671SOL    HW128475   4.308   1.819   4.620 -1.7847 -1.4839 -1.0260
 5671SOL    HW228476   4.266   1.832   4.477 -1.3185 -2.3249  0.5634
 5672SOL     OW28477   3.117   4.358   9.446  0.3878  0.1810  0.6657
 5672SOL    HW128478   3.147   4.436   9.400  2.8103 -2.5568 -2.3479
 5672SOL    HW228479   3.157   4.292   9.390 -0.3009 -0.6118  1.1018
 5673SOL     OW28480   1.623   2.139   4.791 -0.1141  0.2801  0.2484
 5673SOL    HW128481   1.598   2.166   4.702 -0.3019 -0.4331  0.0827
 5673SOL    HW228482   1.598   2.047   4.790  2.6195 -0.4387  0.2747
 5674SOL     OW28483   3.209   1.063   8.465 -0.3886 -0.2132 -0.3102
 5674SOL    HW128484   3.159   0.985   8.440  1.3191 -1.2374 -0.4779
 5674SOL    HW228485   3.149   1.119   8.415  0.0509  0.4529 -0.0921
 5675SOL     OW28486   4.539   3.998  15.975  0.1886  0.4021  0.3914
 5675SOL    HW128487   4.584   4.036  15.900  0.3951  1.2221  0.9265
 5675SOL    HW228488   4.618   3.975  16.024  0.0129 -1.3307 -0.1316
 5676SOL     OW28489   0.623   0.322  14.297 -0.0622 -0.1479 -0.1865
 5676SOL    HW128490   0.659   0.391  14.242 -1.6753  1.2016  0.4719
 5676SOL    HW228491   0.547   0.302  14.242 -0.3785 -1.4457  0.7172
 5677SOL     OW28492   1.107   0.890   8.078  0.5594  0.3718  0.1352
 5677SOL    HW128493   1.149   0.827   8.135  0.8529  0.0456 -0.4365
 5677SOL    HW228494   1.053   0.827   8.029  1.0971 -1.9374  2.5451
 5678SOL     OW28495   1.500   1.389   9.909 -0.3857  0.3722  0.1446
 5678SOL    HW128496   1.592   1.412   9.921 -0.4282 -0.2458  1.6561
 5678SOL    HW228497   1.464   1.473   9.936  0.4327  0.8502 -0.2774
 5679SOL     OW28498   1.619   3.563   4.703  0.1387 -0.5342  0.5893
 5679SOL    HW128499   1.682   3.634   4.687  0.7167 -1.3670 -0.8125
 5679SOL    HW228500   1.627   3.544   4.796 -2.3595  0.9924  1.1046
 5680SOL     OW28501   3.371   1.338   5.393  0.1888 -0.2146 -0.0030
 5680SOL    HW128502   3.401   1.377   5.310  0.9868  2.3251  1.4845
 5680SOL    HW228503   3.446   1.338   5.452 -0.6299  1.0607  1.0063
 5681SOL     OW28504   1.304   1.193   8.916  0.5264  0.0951  0.3866
 5681SOL    HW128505   1.322   1.287   8.913  1.5737 -0.0850  1.2609
 5681SOL    HW228506   1.241   1.185   8.845  1.3911 -2.2502 -0.1077
 5682SOL     OW28507   3.479   1.232   6.616 -0.0900  0.1101  1.0159
 5682SOL    HW128508   3.420   1.262   6.547 -0.2133  1.3578  1.6540
 5682SOL    HW228509   3.529   1.313   6.627  0.6041 -0.3006  0.8947
 5683SOL     OW28510   2.254   1.795   4.864 -0.2391  0.0144 -0.5522
 5683SOL    HW128511   2.207   1.832   4.939  0.1972 -2.1849  0.7763
 5683SOL    HW228512   2.221   1.842   4.787 -0.3751  0.1341 -0.4219
 5684SOL     OW28513   0.821   1.567  12.828 -0.0289 -0.2698  0.2657
 5684SOL    HW128514   0.843   1.635  12.764 -3.0762 -1.0819 -1.6834
 5684SOL    HW228515   0.819   1.626  12.903 -1.1295 -0.7824  0.6490
 5685SOL     OW28516   1.430   4.070   4.399  0.3776 -0.4497  0.1377
 5685SOL    HW128517   1.351   4.025   4.370 -1.0656  2.1390  0.0954
 5685SOL    HW228518   1.418   4.057   4.493  2.7100 -1.8801  0.2380
 5686SOL     OW28519   4.168   2.602   5.336 -0.0974  0.8294  0.1722
 5686SOL    HW128520   4.152   2.550   5.414 -0.9278 -1.2373 -1.3736
 5686SOL    HW228521   4.263   2.596   5.322 -0.0313 -0.4540  1.2706
 5687SOL     OW28522   3.955   2.771  15.254  0.1575 -0.3226  0.2407
 5687SOL    HW128523   3.982   2.704  15.192 -1.1149 -1.3035  0.7652
 5687SOL    HW228524   3.869   2.742  15.285 -0.9747  0.4513 -2.2235
 5688SOL     OW28525   1.669   3.420   6.456 -0.1522 -0.5992 -0.2285
 5688SOL    HW128526   1.590   3.450   6.410  0.4525  3.3914  1.3516
 5688SOL    HW228527   1.688   3.338   6.410 -1.8490 -1.4061  0.5093
 5689SOL     OW28528   3.328   2.413   7.573  0.0428 -0.1167 -0.6788
 5689SOL    HW128529   3.399   2.356   7.602 -1.4216 -0.5250  2.1691
 5689SOL    HW228530   3.371   2.492   7.608 -0.8665 -0.3090  0.8982
 5690SOL     OW28531   1.296   4.375   1.921 -0.3408 -0.1815  0.4530
 5690SOL    HW128532   1.243   4.452   1.906 -1.2466 -0.8697  0.1548
 5690SOL    HW228533   1.237   4.326   1.978 -1.9916  3.0792  1.5535
 5691SOL     OW28534   4.256   3.754   5.262  0.3285  0.1388 -0.4860
 5691SOL    HW128535   4.291   3.840   5.239 -1.5128  1.4927  1.7291
 5691SOL    HW228536   4.221   3.730   5.177  2.2461  0.1468 -1.2764
 5692SOL     OW28537   2.314   0.026   2.128 -0.2974  0.4696 -0.7453
 5692SOL    HW128538   2.277   4.718   2.045  1.4982  0.2041 -1.4553
 5692SOL    HW228539   2.300   0.121   2.122  0.1729  0.7390  2.5636
 5693SOL     OW28540   0.493   3.989  15.141  0.3020  0.2549 -0.4590
 5693SOL    HW128541   0.531   4.001  15.228 -1.3222  1.0985  0.1392
 5693SOL    HW228542   0.555   3.927  15.102 -0.0290 -1.6498  2.0359
 5694SOL     OW28543   0.290   1.917  15.499  0.0497 -0.3060 -0.3368
 5694SOL    HW128544   0.344   1.895  15.423 -0.8462  1.1261 -1.3915
 5694SOL    HW228545   0.311   2.008  15.518 -0.3507 -0.3651  0.3533
 5695SOL     OW28546   3.303   2.005  17.591 -0.1321  0.1313 -0.1373
 5695SOL    HW128547   3.376   1.976  17.537  0.0134  0.7415 -0.2752
 5695SOL    HW228548   3.339   2.006  17.679 -0.7346  0.0861  0.1116
 5696SOL     OW28549   4.124   1.779   8.042  0.4276 -1.0306 -0.4971
 5696SOL    HW128550   4.092   1.863   8.010 -0.9420 -2.6416 -3.3087
 5696SOL    HW228551   4.217   1.781   8.020  0.3593 -2.5936 -0.8653
 5697SOL     OW28552   1.150   0.202   8.676  0.5014  0.3742  0.1087
 5697SOL    HW128553   1.144   0.123   8.731  1.1024  0.7501  0.6990
 5697SOL    HW228554   1.238   0.225   8.704  0.8743 -0.8052 -0.0950
 5698SOL     OW28555   1.449   3.890   7.535  0.0039  0.0749 -0.2879
 5698SOL    HW128556   1.452   3.935   7.619  1.2047 -1.6450  0.5929
 5698SOL    HW228557   1.413   3.960   7.482 -1.0051 -0.6233 -0.5260
 5699SOL     OW28558   1.239   1.526   2.745  0.6079 -0.7437  0.3708
 5699SOL    HW128559   1.322   1.565   2.771 -0.8032  1.8858  0.9362
 5699SOL    HW228560   1.248   1.517   2.650 -0.7136  0.3553  0.1362
 5700SOL     OW28561   2.680   3.257  17.092 -0.4336  0.1481 -0.3551
 5700SOL    HW128562   2.680   3.188  17.025  0.8520 -0.3603  0.1670
 5700SOL    HW228563   2.589   3.285  17.096 -1.2457 -2.4188 -0.8626
 5701SOL     OW28564   3.329   1.432   4.789 -0.2191 -0.5097  0.0524
 5701SOL    HW128565   3.325   1.364   4.856 -0.8764  0.3048  0.8377
 5701SOL    HW228566   3.288   1.502   4.839  0.4367  1.6966 -2.4977
 5702SOL     OW28567   2.787   3.165   4.762 -0.0329  0.4455  0.2816
 5702SOL    HW128568   2.726   3.108   4.810 -0.3789 -2.1018 -3.1475
 5702SOL    HW228569   2.766   3.143   4.671  0.5977 -1.3164  0.5665
 5703SOL     OW28570   2.431   0.421   2.300 -0.4109 -0.4163  0.9766
 5703SOL    HW128571   2.381   0.404   2.220  1.3140  1.1686 -0.4362
 5703SOL    HW228572   2.493   0.489   2.275 -0.5547 -0.6998 -0.1774
 5704SOL     OW28573   0.467   0.213   4.893  0.5356  0.1119  0.1208
 5704SOL    HW128574   0.554   0.208   4.932 -0.2822 -2.6176  1.5765
 5704SOL    HW228575   0.476   0.302   4.858 -1.4636  0.1040 -0.4328
 5705SOL     OW28576   3.241   4.453   2.929 -0.6235  0.5246  0.4742
 5705SOL    HW128577   3.226   4.517   2.860  0.7662 -0.2788 -0.5815
 5705SOL    HW228578   3.171   4.470   2.991  1.0033  0.2886  2.3728
 5706SOL     OW28579   2.907   2.778  14.175 -0.1394  0.3585  0.1348
 5706SOL    HW128580   2.812   2.788  14.175 -0.3386 -1.5474 -0.1712
 5706SOL    HW228581   2.947   2.861  14.202 -0.5596  0.5120  0.2917
 5707SOL     OW28582   1.683   2.658   1.656  0.4138  0.0664 -0.3177
 5707SOL    HW128583   1.615   2.646   1.723 -0.3920  0.9277 -0.9812
 5707SOL    HW228584   1.732   2.735   1.686 -1.0768  0.9524 -0.1314
 5708SOL     OW28585   3.539   4.167   8.672 -0.0043 -0.0070 -0.1764
 5708SOL    HW128586   3.595   4.243   8.658 -0.6611  0.5480  0.1810
 5708SOL    HW228587   3.606   4.127   8.726 -0.6964 -0.1456  0.5872
 5709SOL     OW28588   0.616   3.113   2.538 -0.1649 -0.0675  0.1319
 5709SOL    HW128589   0.707   3.142   2.544 -0.6141  1.2638  0.3902
 5709SOL    HW228590   0.643   3.022   2.525 -0.8283 -0.0893 -1.0552
 5710SOL     OW28591   3.179   0.008   0.966 -0.3007 -0.4367  0.5349
 5710SOL    HW128592   3.145   0.091   0.999 -0.7034 -1.1902  2.0128
 5710SOL    HW228593   3.248   4.703   1.027  1.0816 -0.7523 -1.1708
 5711SOL     OW28594   3.621   2.225   5.362 -0.0281 -0.3655  0.4774
 5711SOL    HW128595   3.651   2.311   5.392  1.9447 -0.5961 -0.8784
 5711SOL    HW228596   3.530   2.249   5.345  0.3672  1.0250  0.2603
 5712SOL     OW28597   4.016   3.249   4.126 -0.0042  0.5097 -0.1119
 5712SOL    HW128598   3.941   3.291   4.083 -0.8861 -0.5425  0.3814
 5712SOL    HW228599   3.983   3.230   4.213 -0.8806 -0.5559 -0.6737
 5713SOL     OW28600   3.426   0.495   8.236 -0.5068  0.1725  0.3301
 5713SOL    HW128601   3.399   0.587   8.235 -0.1146  0.2853  0.1526
 5713SOL    HW228602   3.389   0.464   8.319 -2.5748 -1.1613 -1.0712
 5714SOL     OW28603   2.898   4.083   2.962  0.0101 -0.1044 -0.5724
 5714SOL    HW128604   2.921   4.138   2.887 -1.6236  1.1751 -0.1387
 5714SOL    HW228605   2.864   4.152   3.019 -1.1754  0.2603 -1.7186
 5715SOL     OW28606   1.846   2.162   6.736 -0.1891  0.0152  0.5313
 5715SOL    HW128607   1.842   2.078   6.690  1.9138 -0.3427  0.9617
 5715SOL    HW228608   1.782   2.208   6.684 -0.2512 -1.3583 -0.6132
 5716SOL     OW28609   2.217   3.233   2.603  0.0805 -0.2888  0.2688
 5716SOL    HW128610   2.185   3.187   2.525 -0.5082  1.1354 -0.3505
 5716SOL    HW228611   2.268   3.164   2.644 -1.9946 -0.7413  2.1167
 5717SOL     OW28612   1.545   2.494   7.849 -0.2555  0.4147 -0.0582
 5717SOL    HW128613   1.602   2.418   7.849  0.2320  0.7785  0.5016
 5717SOL    HW228614   1.475   2.445   7.807  0.6002 -1.1501  0.3477
 5718SOL     OW28615   1.408   4.507  12.965  0.2976 -0.4912  0.5115
 5718SOL    HW128616   1.410   4.577  12.900 -1.2370 -2.1816 -1.3763
 5718SOL    HW228617   1.424   4.432  12.907  1.9055  0.6841 -0.5682
 5719SOL     OW28618   2.897   1.655   2.754 -0.2730 -0.2774 -0.1351
 5719SOL    HW128619   2.893   1.678   2.847  0.5865  1.4748 -0.5286
 5719SOL    HW228620   2.806   1.670   2.727 -0.8645 -2.0509  0.8663
 5720SOL     OW28621   3.908   2.898   4.465 -0.0381 -0.0359 -0.5495
 5720SOL    HW128622   3.974   2.866   4.527  0.4674  1.6476 -0.2285
 5720SOL    HW228623   3.828   2.905   4.518  0.8468 -0.8677  0.9059
 5721SOL     OW28624   3.098   2.732  10.809  0.1727 -0.0865  0.2607
 5721SOL    HW128625   3.004   2.717  10.821  0.0531  0.3056 -0.1717
 5721SOL    HW228626   3.138   2.645  10.810 -0.3903 -0.3560 -0.5510
 5722SOL     OW28627   3.215   0.528   5.403  0.2267  0.2246 -0.1030
 5722SOL    HW128628   3.132   0.511   5.360 -1.0038  2.9408  1.2044
 5722SOL    HW228629   3.200   0.610   5.450 -0.1283  1.5925 -2.6314
 5723SOL     OW28630   2.132   2.964   4.605 -0.0452  0.2244  0.2244
 5723SOL    HW128631   2.043   2.951   4.638 -0.3501 -0.2529 -0.7936
 5723SOL    HW228632   2.168   3.036   4.657 -0.2854  0.2771  0.3160
 5724SOL     OW28633   3.752   3.015   6.471  0.1299  0.3734  0.5751
 5724SOL    HW128634   3.812   3.022   6.545  1.0576 -0.0731 -0.1222
 5724SOL    HW228635   3.698   2.943   6.504  1.5371 -0.2498  1.5161
 5725SOL     OW28636   1.097   1.421   4.788  0.2132  0.3225  0.0469
 5725SOL    HW128637   1.120   1.513   4.780  0.9522  0.2861  1.7518
 5725SOL    HW228638   1.180   1.377   4.807  0.5333  0.6291 -0.6313
 5726SOL     OW28639   4.486   1.263   4.532 -0.5885  0.3389  0.3330
 5726SOL    HW128640   4.402   1.304   4.511 -1.5503 -1.7179  0.1438
 5726SOL    HW228641   4.472   1.174   4.499  0.3469  0.8520 -1.4720
 5727SOL     OW28642   1.554   1.529  11.043  0.4367 -0.4815  0.3123
 5727SOL    HW128643   1.637   1.491  11.014  0.4240  0.0189 -0.3868
 5727SOL    HW228644   1.578   1.582  11.118  0.8500  0.5364 -0.5432
 5728SOL     OW28645   2.016   2.295   4.465  0.3643 -0.7718  0.2088
 5728SOL    HW128646   1.930   2.270   4.431 -0.6895  2.0003  0.8576
 5728SOL    HW228647   1.998   2.384   4.494  1.5504 -0.2398 -0.6490
 5729SOL     OW28648   4.166   2.564  14.177 -0.7250  0.3399 -0.0040
 5729SOL    HW128649   4.215   2.578  14.096  1.0139 -1.6745  0.7114
 5729SOL    HW228650   4.223   2.506  14.227 -1.6290 -0.9904 -0.5248
 5730SOL     OW28651   1.461   0.388   5.787  0.1209 -0.6682 -0.4067
 5730SOL    HW128652   1.467   0.310   5.843 -2.3211 -1.3804 -1.1455
 5730SOL    HW228653   1.454   0.460   5.850  1.6060 -0.5246 -0.3968
 5731SOL     OW28654   3.891   3.360   6.916 -0.1161 -0.2147  0.1381
 5731SOL    HW128655   3.823   3.358   6.983  0.9842 -0.1505  1.2629
 5731SOL    HW228656   3.912   3.453   6.914 -0.9248 -0.0184  0.7570
 5732SOL     OW28657   0.579   0.795   4.668  0.3777  0.1485  0.3546
 5732SOL    HW128658   0.558   0.730   4.601 -1.8998 -0.2864  1.5094
 5732SOL    HW228659   0.603   0.871   4.614  0.4653 -1.6436 -2.0979
 5733SOL     OW28660   3.828   3.478   2.726  0.4370  0.4219  1.1661
 5733SOL    HW128661   3.746   3.430   2.720 -0.8941  2.5978  2.2080
 5733SOL    HW228662   3.854   3.504   2.638  1.6971 -3.3556  0.4121
 5734SOL     OW28663   0.250   4.311   4.869  0.2472  0.4568  0.3585
 5734SOL    HW128664   0.314   4.381   4.861 -1.9320  2.3609 -0.3260
 5734SOL    HW228665   0.245   4.293   4.963 -2.6209  0.7981  0.2948
 5735SOL     OW28666   0.615   1.066   3.152  0.7080 -0.5259  0.0491
 5735SOL    HW128667   0.609   0.978   3.190  1.4118 -0.6503 -0.1323
 5735SOL    HW228668   0.522   1.088   3.141  0.4693 -1.5180  0.1168
 5736SOL     OW28669   3.841   2.976   9.659  0.4462  0.0054  0.0964
 5736SOL    HW128670   3.857   3.037   9.587  0.7832 -0.2338 -0.0346
 5736SOL    HW228671   3.923   3.000   9.703  1.0237 -2.0571  0.1362
 5737SOL     OW28672   0.114   0.146   2.191  0.3735  0.2464 -0.0836
 5737SOL    HW128673   0.142   0.225   2.145 -0.5658 -0.4638 -1.8944
 5737SOL    HW228674   0.028   0.171   2.226  1.0599  2.2815  0.1683
 5738SOL     OW28675   4.676   3.598   7.999  0.4830 -0.2309  0.2503
 5738SOL    HW128676   0.026   3.609   7.937  0.2250 -1.7677 -0.3343
 5738SOL    HW228677   4.694   3.514   8.042 -1.3485 -0.5621  0.3448
 5739SOL     OW28678   1.826   1.401   7.503 -0.0707 -0.0330 -0.3159
 5739SOL    HW128679   1.779   1.399   7.587 -2.3045 -1.3554 -1.6149
 5739SOL    HW228680   1.889   1.472   7.516 -0.0707 -0.0145 -0.4163
 5740SOL     OW28681   3.159   1.205   5.271 -0.0738  0.3546  0.3874
 5740SOL    HW128682   3.221   1.131   5.268  0.2901  0.6934 -0.2716
 5740SOL    HW228683   3.208   1.266   5.326  0.5387 -0.2473  0.5168
 5741SOL     OW28684   2.985   4.190  11.214 -0.3739  0.6487  0.1831
 5741SOL    HW128685   2.991   4.256  11.144  0.6790  0.9459  0.5450
 5741SOL    HW228686   2.988   4.108  11.166 -0.9724  0.9335 -0.3431
 5742SOL     OW28687   2.489   4.189   2.804 -0.0553 -0.1591  0.5092
 5742SOL    HW128688   2.419   4.244   2.769 -1.1245 -0.7251  1.7332
 5742SOL    HW228689   2.543   4.194   2.725 -3.0333 -1.4830 -1.6043
 5743SOL     OW28690   2.369   3.968   7.987  0.1681 -0.4514 -0.0846
 5743SOL    HW128691   2.385   3.971   8.081 -0.7467  1.9369  0.0101
 5743SOL    HW228692   2.347   4.060   7.971 -0.0660 -0.2014  1.6848
 5744SOL     OW28693   2.692   4.719  13.624 -0.0158 -0.2251  0.1785
 5744SOL    HW128694   2.634   4.646  13.603 -1.0068  0.6224 -0.0634
 5744SOL    HW228695   2.721   0.026  13.538 -0.2020  1.4181  0.6641
 5745SOL     OW28696   0.389   0.654  12.639 -0.4292 -0.0788  0.0638
 5745SOL    HW128697   0.404   0.696  12.724 -2.1625 -0.0281  0.3418
 5745SOL    HW228698   0.422   0.726  12.586 -3.1905  0.9042 -0.2958
 5746SOL     OW28699   3.194   0.219   3.825  0.4227  0.0875  0.2141
 5746SOL    HW128700   3.179   0.255   3.913  1.1239 -1.1649  0.8545
 5746SOL    HW228701   3.152   0.134   3.837  1.3361 -0.4903 -0.7184
 5747SOL     OW28702   0.441   2.699   8.064 -0.9758  0.2347  0.7093
 5747SOL    HW128703   0.510   2.744   8.113 -1.5658  2.6178 -0.6169
 5747SOL    HW228704   0.388   2.648   8.125  0.0307 -1.9529 -0.2609
 5748SOL     OW28705   4.454   3.194   6.030  0.9440 -0.5660  0.1028
 5748SOL    HW128706   4.460   3.127   6.098  2.1711 -1.7845 -1.2024
 5748SOL    HW228707   4.372   3.239   6.050  0.8996 -0.8013  0.4425
 5749SOL     OW28708   0.213   1.174   5.454 -0.2817  0.8974  0.3302
 5749SOL    HW128709   0.212   1.187   5.549 -0.6313  0.3301  0.4027
 5749SOL    HW228710   0.241   1.262   5.429 -0.4428  0.7347 -0.4032
 5750SOL     OW28711   3.195   1.692   6.105  0.0459  0.5365  0.2780
 5750SOL    HW128712   3.105   1.699   6.134 -0.3083  2.7540 -1.3651
 5750SOL    HW228713   3.198   1.598   6.085 -0.3392  0.8856 -1.4139
 5751SOL     OW28714   0.339   3.185   4.877  0.5211 -0.9423  0.0972
 5751SOL    HW128715   0.316   3.150   4.791  0.8246  1.1825 -0.8531
 5751SOL    HW228716   0.395   3.258   4.851 -1.1061  0.1107 -0.4414
 5752SOL     OW28717   3.681   2.344   5.874 -0.4791 -0.0783 -0.4592
 5752SOL    HW128718   3.757   2.290   5.895  0.3518  1.3969  0.3009
 5752SOL    HW228719   3.651   2.355   5.964 -1.5138 -0.2923 -0.7811
 5753SOL     OW28720   4.225   0.448  16.208  0.2659  0.1037  0.0545
 5753SOL    HW128721   4.137   0.458  16.242  0.2360  2.2880 -0.6578
 5753SOL    HW228722   4.200   0.448  16.115  2.1243 -2.1173 -0.4545
 5754SOL     OW28723   0.785   1.213   4.993  0.3410 -0.0923 -0.3182
 5754SOL    HW128724   0.814   1.303   4.980 -2.0654  0.9716  1.7402
 5754SOL    HW228725   0.868   1.167   4.984  0.7980  0.1837  2.7606
 5755SOL     OW28726   3.287   4.212   5.473  0.0000 -0.0987  0.0116
 5755SOL    HW128727   3.205   4.262   5.469  0.2214  0.3898  1.2748
 5755SOL    HW228728   3.348   4.282   5.452 -0.5536  0.4401  0.1793
 5756SOL     OW28729   1.574   2.617   8.590 -0.1516  0.1424 -0.0041
 5756SOL    HW128730   1.610   2.581   8.671  1.2123  0.0690 -0.6629
 5756SOL    HW228731   1.519   2.690   8.619 -2.0718 -2.0720  1.9621
 5757SOL     OW28732   3.286   1.245   9.875 -0.5667 -0.4901 -0.4672
 5757SOL    HW128733   3.237   1.324   9.898  1.0988  0.2298  0.6221
 5757SOL    HW228734   3.231   1.200   9.811 -1.2362  1.4324 -1.2322
 5758SOL     OW28735   2.307   2.124   6.398 -0.1928 -0.4914  0.2248
 5758SOL    HW128736   2.218   2.123   6.433  0.9817  2.1614  3.2590
 5758SOL    HW228737   2.304   2.181   6.321 -0.6829  1.0336  1.3780
 5759SOL     OW28738   0.407   4.298   4.478 -0.2070  0.2016  0.0520
 5759SOL    HW128739   0.316   4.302   4.507 -0.9515 -2.2693 -1.8947
 5759SOL    HW228740   0.449   4.280   4.562  0.3409  0.3796 -0.1844
 5760SOL     OW28741   1.218   2.889   0.705 -0.0390  0.4699  0.8990
 5760SOL    HW128742   1.196   2.847   0.622  0.4693 -2.0249  2.0509
 5760SOL    HW228743   1.143   2.947   0.722 -1.5529 -1.8015  1.8386
 5761SOL     OW28744   1.462   2.841   4.124  0.1022  0.3775 -0.4274
 5761SOL    HW128745   1.491   2.862   4.035  0.7378  1.7413  0.1138
 5761SOL    HW228746   1.487   2.927   4.155  0.2391 -0.0192  0.5501
 5762SOL     OW28747   2.172   2.314   7.365 -0.3744 -0.5685 -0.3311
 5762SOL    HW128748   2.121   2.275   7.436  3.0511  0.3999  2.6668
 5762SOL    HW228749   2.247   2.257   7.377  0.1463  0.0824 -0.4606
 5763SOL     OW28750   1.136   3.929   3.675 -0.0435  0.6841  0.3217
 5763SOL    HW128751   1.150   3.836   3.656  1.4121  1.1201 -0.7930
 5763SOL    HW228752   1.218   3.960   3.637 -1.2880  0.9000 -2.1940
 5764SOL     OW28753   1.881   2.394   0.578 -0.0174  0.5544 -0.3769
 5764SOL    HW128754   1.843   2.475   0.544 -1.4646  0.1814  0.3716
 5764SOL    HW228755   1.800   2.351   0.605 -0.4004  0.7982 -1.1572
 5765SOL     OW28756   0.929   0.288   4.411 -0.6940 -0.3537 -0.1733
 5765SOL    HW128757   0.916   0.361   4.471  0.5140 -1.0608  0.9630
 5765SOL    HW228758   1.019   0.304   4.382 -1.5665  0.5858 -2.3378
 5766SOL     OW28759   3.805   3.446   1.907  0.0018  0.3801  0.4648
 5766SOL    HW128760   3.766   3.429   1.821  0.0912 -2.8147  1.0499
 5766SOL    HW228761   3.742   3.408   1.970 -0.3888  0.4486  0.1160
 5767SOL     OW28762   2.831   1.446  16.537  0.2676 -0.4447  0.8223
 5767SOL    HW128763   2.888   1.490  16.474  0.8156 -0.6724  1.1585
 5767SOL    HW228764   2.893   1.441  16.610  0.6199  0.6903  0.6014
 5768SOL     OW28765   1.526   4.675  12.247  0.1359 -0.1492  0.5150
 5768SOL    HW128766   1.475   4.675  12.166 -0.2383  2.2817  0.7327
 5768SOL    HW228767   1.498   0.043  12.263  0.3633 -0.0511  0.3571
 5769SOL     OW28768   3.236   2.028   5.628 -0.5258 -0.2419 -0.0951
 5769SOL    HW128769   3.330   2.044   5.638 -0.9680  0.6408  2.5940
 5769SOL    HW228770   3.214   1.977   5.706  0.6796  0.0064  0.3982
 5770SOL     OW28771   0.516   3.352   5.322 -0.0208 -0.7493 -0.0485
 5770SOL    HW128772   0.593   3.355   5.380  0.9661  0.5471 -1.4444
 5770SOL    HW228773   0.478   3.434   5.354  2.2759  1.3501 -2.6744
 5771SOL     OW28774   2.079   2.052  17.262 -0.0852  0.3618  0.0940
 5771SOL    HW128775   2.136   2.128  17.253 -2.4430  2.1876  0.4630
 5771SOL    HW228776   2.138   1.984  17.229 -0.1882 -0.4985  1.7136
 5772SOL     OW28777   4.062   3.947   0.527  0.5427  0.4824  0.1262
 5772SOL    HW128778   4.074   4.028   0.578  0.5094 -0.3883  1.5302
 5772SOL    HW228779   4.077   3.885   0.598 -0.3700 -0.1375 -0.2249
 5773SOL     OW28780   1.806   4.048   6.984  0.3532 -0.0278 -0.4751
 5773SOL    HW128781   1.805   4.141   7.010 -0.9255 -0.5455  1.2882
 5773SOL    HW228782   1.720   4.024   7.017 -0.3839 -0.2075 -2.5620
 5774SOL     OW28783   3.568   2.013  11.309 -0.4682 -0.6876  0.4302
 5774SOL    HW128784   3.551   2.061  11.391  0.0333 -2.5138  1.6071
 5774SOL    HW228785   3.611   2.080  11.256  0.0923 -0.6088  0.9806
 5775SOL     OW28786   3.466   0.853  13.120  0.3714 -0.3134 -0.8354
 5775SOL    HW128787   3.464   0.941  13.157  0.6490 -0.6701  0.0373
 5775SOL    HW228788   3.490   0.806  13.200  1.7049 -1.4527 -1.9074
 5776SOL     OW28789   1.511   1.135  17.419  0.2784  0.1622 -0.3102
 5776SOL    HW128790   1.599   1.139  17.381  0.7362 -2.6709  0.4661
 5776SOL    HW228791   1.464   1.136  17.336 -2.3727 -0.9791  1.1638
 5777SOL     OW28792   3.879   1.283  15.522 -0.5773  0.9157  0.0071
 5777SOL    HW128793   3.834   1.342  15.462 -0.2528  0.6070 -0.5406
 5777SOL    HW228794   3.936   1.248  15.454  1.6796  2.4489  1.0926
 5778SOL     OW28795   0.390   0.266   6.856  0.3055 -0.2616 -0.2756
 5778SOL    HW128796   0.381   0.172   6.871  2.8698 -0.3757  0.6098
 5778SOL    HW228797   0.465   0.270   6.796  1.6508  2.5242  1.5788
 5779SOL     OW28798   2.853   3.013  10.214  0.2853 -0.1071 -0.6245
 5779SOL    HW128799   2.839   2.993  10.121 -0.9851  1.0097 -0.6581
 5779SOL    HW228800   2.905   2.940  10.250  0.9995  0.1133 -1.2065
 5780SOL     OW28801   0.722   4.424   2.312 -0.4421 -0.2253  0.1350
 5780SOL    HW128802   0.678   4.478   2.246  1.7856  0.5346 -0.7390
 5780SOL    HW228803   0.807   4.412   2.269  0.6664 -0.9130  2.4981
 5781SOL     OW28804   0.576   0.707   2.487  0.0726  0.1572  0.0913
 5781SOL    HW128805   0.579   0.651   2.410  0.8055  0.8899 -0.4007
 5781SOL    HW228806   0.645   0.773   2.476  1.1794 -1.0163  0.0434
 5782SOL     OW28807   3.425   4.198  16.774  0.2307  0.1615 -0.0413
 5782SOL    HW128808   3.401   4.288  16.793  2.4331  0.5313  1.0111
 5782SOL    HW228809   3.448   4.178  16.865 -1.6475  0.4054  0.4783
 5783SOL     OW28810   4.246   0.433   8.369 -0.1236 -0.2070  0.5517
 5783SOL    HW128811   4.187   0.398   8.303  1.0192 -0.6944 -0.1991
 5783SOL    HW228812   4.217   0.521   8.393  1.6739  0.1928  1.2430
 5784SOL     OW28813   3.421   2.568   0.024  0.0361  0.4860  0.1858
 5784SOL    HW128814   3.403   2.474   0.018 -0.2793  0.5758 -0.2956
 5784SOL    HW228815   3.426   2.596  17.623  2.8661  2.2105  0.8482
 5785SOL     OW28816   2.669   3.000  17.247 -0.4670  0.1328 -0.6349
 5785SOL    HW128817   2.657   3.088  17.211 -3.8263  1.1242  2.9138
 5785SOL    HW228818   2.765   3.004  17.255 -0.4104 -2.4501 -0.1600
 5786SOL     OW28819   2.846   0.033  10.848 -0.5003  0.0898 -0.4719
 5786SOL    HW128820   2.766   4.703  10.853  0.3433 -1.0493  1.2259
 5786SOL    HW228821   2.899   4.710  10.782  2.5339 -0.1221  2.0906
 5787SOL     OW28822   4.228   1.104   8.877 -0.5695 -0.0589  0.4270
 5787SOL    HW128823   4.165   1.092   8.805 -0.5612  0.0400  0.4025
 5787SOL    HW228824   4.291   1.157   8.827  0.4342  0.2575  2.0568
 5788SOL     OW28825   1.751   0.744   9.167 -0.0230 -0.6064  0.2613
 5788SOL    HW128826   1.681   0.747   9.102  0.5665 -0.5442 -0.3741
 5788SOL    HW228827   1.805   0.823   9.165  0.3116 -0.8308  0.4444
 5789SOL     OW28828   0.091   2.793   3.522  0.0029 -0.0149  0.1401
 5789SOL    HW128829   0.055   2.861   3.465  0.2467 -0.4478 -0.5300
 5789SOL    HW228830   0.076   2.715   3.469 -0.6346  1.0571 -1.2730
 5790SOL     OW28831   3.444   2.274   9.545  0.0889  0.9448 -0.1048
 5790SOL    HW128832   3.418   2.222   9.470 -0.3971  0.4847  0.3809
 5790SOL    HW228833   3.500   2.211   9.590  0.9259  1.8564  0.1399
 5791SOL     OW28834   0.585   4.262   7.082 -0.6432 -0.4035  0.1098
 5791SOL    HW128835   0.530   4.186   7.065 -0.1607 -1.0091  1.2497
 5791SOL    HW228836   0.513   4.324   7.082  0.1263  0.4828  1.5234
 5792SOL     OW28837   3.889   3.385   5.107 -0.8110 -0.1337 -0.5902
 5792SOL    HW128838   3.879   3.451   5.039  0.3768  1.5480  0.8740
 5792SOL    HW228839   3.975   3.408   5.143 -1.9231 -0.9635  2.5678
 5793SOL     OW28840   0.311   2.345   7.960  0.0550  0.2355 -0.0449
 5793SOL    HW128841   0.397   2.363   7.999 -0.2860  2.7124 -0.4627
 5793SOL    HW228842   0.253   2.391   8.019  0.4335  0.6270  0.0238
 5794SOL     OW28843   1.881   4.131   7.855  0.5732 -0.0573 -0.9703
 5794SOL    HW128844   1.859   4.061   7.794 -2.4976  0.5380 -0.5854
 5794SOL    HW228845   1.930   4.088   7.925 -0.9731 -0.9619 -0.4467
 5795SOL     OW28846   2.225   1.488   4.810  0.5834 -0.0177 -0.4278
 5795SOL    HW128847   2.310   1.452   4.836  0.6642 -0.2476 -1.0024
 5795SOL    HW228848   2.246   1.581   4.798 -0.1075  0.4632  2.1374
 5796SOL     OW28849   4.232   3.170   6.367  0.0904  0.3422 -0.2590
 5796SOL    HW128850   4.322   3.139   6.369  0.5162  1.5101 -1.0011
 5796SOL    HW228851   4.230   3.231   6.441  1.3863  0.4463 -0.3132
 5797SOL     OW28852   3.650   2.667   8.114 -0.0361  0.2221  0.2517
 5797SOL    HW128853   3.697   2.707   8.187  1.5773 -0.7352 -0.2688
 5797SOL    HW228854   3.592   2.608   8.163 -1.9264  0.0365 -2.2189
 5798SOL     OW28855   3.594   2.539   7.738  0.6220 -0.0918 -0.9242
 5798SOL    HW128856   3.690   2.536   7.748  0.4379  1.8235  1.5180
 5798SOL    HW228857   3.580   2.604   7.669 -0.0879  2.2026  1.3611
 5799SOL     OW28858   0.556   2.872  17.530 -0.5200  0.5908 -0.3250
 5799SOL    HW128859   0.624   2.875  17.463  0.3236 -0.5387  0.4889
 5799SOL    HW228860   0.515   2.786  17.522 -2.3522  1.4781 -0.6509
 5800SOL     OW28861   2.628   0.746   0.798  0.2782  0.5800  0.0588
 5800SOL    HW128862   2.673   0.704   0.871 -1.0608 -0.0590  0.5069
 5800SOL    HW228863   2.695   0.738   0.730 -1.2917  1.9847 -1.6347
 5801SOL     OW28864   4.509   0.001   8.726  0.2428  0.7360  0.4092
 5801SOL    HW128865   4.468   4.702   8.810  1.1421 -4.8298 -0.5255
 5801SOL    HW228866   4.436   4.709   8.666 -0.6567  1.1572  1.3928
 5802SOL     OW28867   3.360   4.321   1.090 -0.1021  0.0211 -0.5120
 5802SOL    HW128868   3.426   4.254   1.109  1.8174  1.3344 -2.5209
 5802SOL    HW228869   3.419   4.393   1.114  0.9485  0.0660 -3.1994
 5803SOL     OW28870   1.101   4.500   9.124 -0.3412  0.4311  0.0476
 5803SOL    HW128871   1.166   4.568   9.105 -1.5987  1.7644  0.5785
 5803SOL    HW228872   1.160   4.433   9.160  0.7403  1.8896  1.0185
 5804SOL     OW28873   4.029   3.505   1.020 -0.1499 -0.2716  0.1204
 5804SOL    HW128874   3.941   3.499   1.057 -0.7901 -0.3643 -1.4292
 5804SOL    HW228875   4.077   3.545   1.092 -0.1485  1.6029 -0.9148
 5805SOL     OW28876   2.594   2.526  10.538 -0.1880  0.1711  0.0961
 5805SOL    HW128877   2.660   2.579  10.583 -1.3600  0.1223  1.8806
 5805SOL    HW228878   2.530   2.598  10.531 -1.9212 -1.8019 -4.2630
 5806SOL     OW28879   2.763   2.657   6.920  0.1720 -0.5123  0.0590
 5806SOL    HW128880   2.679   2.650   6.873  0.2893 -1.4627 -0.0072
 5806SOL    HW228881   2.747   2.609   7.001  1.3834  1.1034  1.2415
 5807SOL     OW28882   1.912   0.887   5.941 -0.0135  0.4064 -0.4731
 5807SOL    HW128883   1.908   0.873   6.036  0.2868  0.8114 -0.4003
 5807SOL    HW228884   1.926   0.982   5.938  1.4281  0.1991 -0.3952
 5808SOL     OW28885   1.186   0.055   3.058  0.4296  0.6109 -0.6266
 5808SOL    HW128886   1.253   0.013   3.112  3.3284  1.9586 -3.1943
 5808SOL    HW228887   1.222   0.142   3.041  1.1852  0.2745 -0.7608
 5809SOL     OW28888   0.485   1.106  13.972  0.2335 -0.1747  0.2993
 5809SOL    HW128889   0.498   1.119  14.066 -0.1255 -1.4364  0.5170
 5809SOL    HW228890   0.392   1.084  13.971  0.0372  0.8404 -2.3426
 5810SOL     OW28891   3.302   3.855   3.216 -0.2132 -0.0687  0.4759
 5810SOL    HW128892   3.375   3.848   3.155 -1.4031 -2.5648 -0.6679
 5810SOL    HW228893   3.227   3.833   3.160  0.2998 -0.0555 -0.2010
 5811SOL     OW28894   0.492   4.319   1.910  0.4962 -0.0608 -0.8270
 5811SOL    HW128895   0.443   4.284   1.836 -0.2240 -2.9645  1.0067
 5811SOL    HW228896   0.440   4.392   1.942 -0.1972 -0.6212 -0.6562
 5812SOL     OW28897   4.187   3.956   7.603 -0.4039  0.7697  0.2984
 5812SOL    HW128898   4.145   3.935   7.519 -1.0799  0.7401  0.6414
 5812SOL    HW228899   4.273   3.936   7.566 -0.5211 -1.2901  1.1370
 5813SOL     OW28900   0.746   4.714   8.501  0.2208 -0.0298 -0.0553
 5813SOL    HW128901   0.790   4.681   8.423  3.2995  1.9726  0.8208
 5813SOL    HW228902   0.811   0.061   8.516 -0.0440  0.2917 -0.3792
 5814SOL     OW28903   4.101   0.280   6.369 -0.1825  0.5137  0.4498
 5814SOL    HW128904   4.008   0.300   6.355  0.4205  3.0462  0.0252
 5814SOL    HW228905   4.096   0.299   6.463 -3.7464 -0.0410  0.3633
 5815SOL     OW28906   0.645   1.805   0.747 -0.6150  0.0146 -0.2048
 5815SOL    HW128907   0.574   1.747   0.775 -1.2348  0.8733  0.0109
 5815SOL    HW228908   0.718   1.750   0.774  0.2581  1.3992  0.2822
 5816SOL     OW28909   3.029   1.195   7.240 -0.1542  0.0471  0.1290
 5816SOL    HW128910   2.963   1.235   7.297  0.0308 -0.1829  0.5002
 5816SOL    HW228911   3.093   1.167   7.306 -0.4424 -0.8772  0.0020
 5817SOL     OW28912   3.061   1.527  12.362 -0.3415 -0.2736  0.3318
 5817SOL    HW128913   3.142   1.497  12.404  0.7795  1.0934 -0.8555
 5817SOL    HW228914   3.083   1.618  12.342 -0.3217 -0.2184  0.6072
 5818SOL     OW28915   2.811   3.467  16.484  0.2490  0.3373 -0.1717
 5818SOL    HW128916   2.827   3.541  16.427  0.8387  0.6582  0.4071
 5818SOL    HW228917   2.783   3.400  16.421 -0.6943 -1.3884  2.0335
 5819SOL     OW28918   3.586   3.252   6.391 -0.5061  0.4414 -0.0086
 5819SOL    HW128919   3.566   3.236   6.299 -0.2915 -0.4329  0.0979
 5819SOL    HW228920   3.624   3.167   6.412 -0.7482  0.1028 -0.9640
 5820SOL     OW28921   2.547   1.293   2.446 -0.2861 -0.0356 -0.4868
 5820SOL    HW128922   2.528   1.213   2.496  1.3750 -0.6903 -0.9009
 5820SOL    HW228923   2.490   1.293   2.370 -1.1307 -2.4579  0.1614
 5821SOL     OW28924   0.117   2.861   4.590 -0.2354  0.0772 -0.2608
 5821SOL    HW128925   0.097   2.817   4.673 -0.8866  0.8369 -0.0180
 5821SOL    HW228926   0.107   2.954   4.609  0.1972  0.4064 -1.6576
 5822SOL     OW28927   1.996   2.563   8.353 -0.0259  0.0949 -0.1062
 5822SOL    HW128928   2.022   2.596   8.439  0.8041 -1.0928  0.0971
 5822SOL    HW228929   2.059   2.613   8.300 -0.3341  1.0175  0.3973
 5823SOL     OW28930   2.375   1.830  17.518  0.5987 -0.0372  0.0419
 5823SOL    HW128931   2.361   1.762  17.452 -0.1010  1.1435 -1.0277
 5823SOL    HW228932   2.423   1.894  17.464 -0.6749 -0.2851 -1.3584
 5824SOL     OW28933   2.757   2.739  17.074  0.2921  0.5107 -0.7000
 5824SOL    HW128934   2.698   2.799  17.121 -0.2686  0.6261 -1.5432
 5824SOL    HW228935   2.711   2.739  16.990  0.4088 -0.6977 -0.7603
 5825SOL     OW28936   3.468   4.562   3.397 -0.0538 -0.1119 -0.1791
 5825SOL    HW128937   3.402   4.554   3.327 -0.0583  0.0212 -0.1885
 5825SOL    HW228938   3.437   4.482   3.440  0.1286 -0.6571 -1.0533
 5826SOL     OW28939   0.847   3.042   7.140 -0.2424  0.0926  0.1487
 5826SOL    HW128940   0.793   3.042   7.062  0.6069 -1.6372 -0.4383
 5826SOL    HW228941   0.913   2.978   7.111  0.0039  0.3209  0.2050
 5827SOL     OW28942   1.539   4.657   3.910 -0.0564 -0.2804  0.2647
 5827SOL    HW128943   1.604   4.664   3.981 -1.7299 -0.1319  1.7941
 5827SOL    HW228944   1.574   4.581   3.864  3.3644  1.7855 -0.5217
 5828SOL     OW28945   4.468   1.029   8.154  0.4248  0.8898 -0.0096
 5828SOL    HW128946   4.379   0.999   8.171  0.1567  1.7520  0.1306
 5828SOL    HW228947   4.520   0.981   8.219 -0.8196 -1.6059 -0.8696
 5829SOL     OW28948   2.904   4.020   4.521  0.2787  0.3884  0.3399
 5829SOL    HW128949   2.881   3.933   4.488 -1.8317  1.5245 -1.2417
 5829SOL    HW228950   2.984   4.041   4.472  0.0094  0.0976 -0.2309
 5830SOL     OW28951   4.161   0.167  11.846  0.1979 -0.3652  0.3634
 5830SOL    HW128952   4.239   0.130  11.805 -0.0757  1.0186 -1.4176
 5830SOL    HW228953   4.093   0.106  11.820 -0.1496 -0.2682  1.0332
 5831SOL     OW28954   3.260   1.823   6.913  0.3054  0.5853 -0.1218
 5831SOL    HW128955   3.225   1.771   6.984 -2.4843  0.0563 -1.8715
 5831SOL    HW228956   3.201   1.897   6.898 -1.0512 -0.7613 -1.4813
 5832SOL     OW28957   1.505   3.216  10.617 -0.3161 -0.5278  0.4965
 5832SOL    HW128958   1.556   3.166  10.681 -0.2367  0.8166  1.4821
 5832SOL    HW228959   1.437   3.153  10.593 -1.0241 -0.0529  1.2744
 5833SOL     OW28960   2.824   0.569   9.116 -0.2296  0.0752 -0.6143
 5833SOL    HW128961   2.827   0.492   9.173  1.1747 -1.3290 -2.6089
 5833SOL    HW228962   2.853   0.644   9.170 -0.9891  0.4509 -0.7306
 5834SOL     OW28963   2.526   3.256   7.931  0.6508  0.2935  0.0827
 5834SOL    HW128964   2.459   3.192   7.953 -1.1802  2.3863  0.6357
 5834SOL    HW228965   2.551   3.219   7.846  1.2899  0.9838 -0.0369
 5835SOL     OW28966   0.855   3.225   6.761 -0.2719 -0.0230 -0.2248
 5835SOL    HW128967   0.794   3.273   6.817 -0.7520 -1.7171  0.7136
 5835SOL    HW228968   0.934   3.275   6.781 -0.8704  1.3403 -1.2669
 5836SOL     OW28969   1.264   3.402   4.200 -0.5279  0.3507  0.0391
 5836SOL    HW128970   1.263   3.317   4.243 -1.1310  0.2034 -0.2728
 5836SOL    HW228971   1.277   3.370   4.111 -2.5978 -1.8010  0.5125
 5837SOL     OW28972   3.221   2.059  11.130 -0.1908 -0.3658  0.4586
 5837SOL    HW128973   3.311   2.050  11.097  0.4683  2.7530  1.3876
 5837SOL    HW228974   3.232   2.024  11.218 -3.9745  1.0829  1.5232
 5838SOL     OW28975   2.440   0.989   9.343  0.2464  0.0038 -0.1662
 5838SOL    HW128976   2.403   1.060   9.395 -0.3472 -0.3764 -0.0722
 5838SOL    HW228977   2.413   0.912   9.393 -0.8535  0.0493 -0.6919
 5839SOL     OW28978   1.912   1.221   5.368 -0.4292  0.0727  0.3237
 5839SOL    HW128979   1.963   1.140   5.377 -0.9926 -0.4603 -1.1377
 5839SOL    HW228980   1.907   1.250   5.459 -0.2036 -0.1977  0.4219
 5840SOL     OW28981   1.247   0.618   1.441 -0.2022  0.3327 -0.0876
 5840SOL    HW128982   1.263   0.655   1.354  0.2293  0.7098  0.1572
 5840SOL    HW228983   1.151   0.623   1.446 -0.4242 -0.2933 -3.2163
 5841SOL     OW28984   3.032   4.069  12.065  0.4239 -0.7955 -0.1666
 5841SOL    HW128985   3.000   4.016  11.992  2.0423 -1.3975 -0.4511
 5841SOL    HW228986   2.954   4.082  12.118 -0.5953 -0.8693 -1.6756
 5842SOL     OW28987   1.817   3.788   8.289  0.2429 -0.4544  0.0054
 5842SOL    HW128988   1.872   3.742   8.226  2.7528 -0.2861  2.1226
 5842SOL    HW228989   1.797   3.872   8.246  2.3375  0.4839  0.8822
 5843SOL     OW28990   0.161   1.231   6.957 -0.5231 -0.4874  0.0172
 5843SOL    HW128991   0.117   1.207   7.039 -0.3576 -2.5302 -0.4803
 5843SOL    HW228992   0.154   1.326   6.964 -1.4670 -0.5346 -0.2300
 5844SOL     OW28993   4.095   3.717  16.292 -0.1475 -0.3654  0.2407
 5844SOL    HW128994   4.163   3.738  16.228  1.3049  0.4282  2.0624
 5844SOL    HW228995   4.015   3.747  16.248  0.1021 -2.5124 -1.6725
 5845SOL     OW28996   4.442   1.235   7.093  0.1069  0.0731  0.3480
 5845SOL    HW128997   4.390   1.229   7.173  2.3491  0.3133  1.8375
 5845SOL    HW228998   4.427   1.149   7.053  1.0266  0.0727  0.0013
 5846SOL     OW28999   1.118   4.321   5.233 -0.3284 -0.3798 -0.6231
 5846SOL    HW129000   1.177   4.247   5.220  1.7493  0.8793  1.6382
 5846SOL    HW229001   1.170   4.395   5.200  0.4491 -0.1457  1.1613
 5847SOL     OW29002   1.101   0.366   6.367 -0.7051  0.1722  0.0989
 5847SOL    HW129003   1.167   0.309   6.325  0.6619  2.3293 -0.6583
 5847SOL    HW229004   1.120   0.450   6.326  0.6415 -0.1863 -0.0168
 5848SOL     OW29005   1.299   1.663   3.009 -0.4124 -0.1068  0.1603
 5848SOL    HW129006   1.332   1.746   3.044  0.9220 -0.0098 -1.3246
 5848SOL    HW229007   1.373   1.635   2.955 -1.3413  0.4068 -1.3991
 5849SOL     OW29008   3.701   4.556   6.422 -0.2104 -0.1948  0.2595
 5849SOL    HW129009   3.700   4.607   6.341 -1.3777  0.1371  0.4900
 5849SOL    HW229010   3.639   4.484   6.412  0.0856 -0.3448 -0.5644
 5850SOL     OW29011   1.604   4.484  12.710  0.2734 -0.4994 -0.1648
 5850SOL    HW129012   1.557   4.565  12.729 -0.4279 -0.5998 -1.4827
 5850SOL    HW229013   1.626   4.497  12.617 -1.0511  1.4439 -0.2003
 5851SOL     OW29014   4.615   4.087   6.426 -0.1116 -0.0703  0.0403
 5851SOL    HW129015   4.531   4.042   6.415 -0.7105  1.3703 -1.3391
 5851SOL    HW229016   4.667   4.046   6.356  1.2289  0.4652  0.7391
 5852SOL     OW29017   4.142   4.565   4.727 -0.9382  0.2010 -0.5529
 5852SOL    HW129018   4.154   4.569   4.632  2.5316  0.2001 -0.1362
 5852SOL    HW229019   4.193   4.639   4.762  0.5340 -1.0896  0.0412
 5853SOL     OW29020   4.290   3.608   8.539 -0.2519 -0.0645  0.0301
 5853SOL    HW129021   4.293   3.551   8.616  0.5071 -1.9398 -1.3948
 5853SOL    HW229022   4.370   3.658   8.528 -0.4454  0.4438  0.9339
 5854SOL     OW29023   1.494   4.132  13.098 -0.1764 -0.1165  0.0202
 5854SOL    HW129024   1.419   4.186  13.123  0.4745  0.1040  1.4798
 5854SOL    HW229025   1.552   4.125  13.174  2.2874 -1.7593 -2.0094
 5855SOL     OW29026   4.070   1.773   0.100  0.1659 -0.2872 -0.7567
 5855SOL    HW129027   4.139   1.771   0.167  0.2735 -0.3565 -0.8691
 5855SOL    HW229028   4.008   1.703   0.118  1.8693 -1.4759  0.5230
 5856SOL     OW29029   2.008   1.755  15.403 -0.0391 -0.2650 -0.3116
 5856SOL    HW129030   1.941   1.707  15.451 -0.0157  0.9015  0.8915
 5856SOL    HW229031   2.083   1.699  15.421 -1.2991 -2.4026 -1.7061
 5857SOL     OW29032   1.475   3.914   9.049 -0.1357 -0.8912 -0.1553
 5857SOL    HW129033   1.518   3.853   9.109 -1.4451 -1.8450 -0.1806
 5857SOL    HW229034   1.544   3.978   9.036 -0.6666 -0.5569 -1.3148
 5858SOL     OW29035   2.583   2.764   7.218  0.2497  0.2564  0.0894
 5858SOL    HW129036   2.628   2.691   7.175 -1.8992 -1.1846  0.2889
 5858SOL    HW229037   2.616   2.838   7.166  2.5465 -2.3122 -2.1147
 5859SOL     OW29038   0.298   1.044   8.045  0.3604  0.1549 -0.2955
 5859SOL    HW129039   0.268   1.119   8.096 -0.9148 -1.3169  1.0897
 5859SOL    HW229040   0.357   1.084   7.981  0.6131 -0.1672 -0.2639
 5860SOL     OW29041   4.097   3.551   6.141  0.0931  0.3550 -0.1178
 5860SOL    HW129042   4.151   3.547   6.063  0.7220  2.3697  0.2077
 5860SOL    HW229043   4.027   3.616   6.126 -0.9368 -1.0272 -1.2546
 5861SOL     OW29044   3.698   3.369   7.842  0.0718 -0.1455  0.1894
 5861SOL    HW129045   3.764   3.379   7.773 -0.2033  1.7038  0.1899
 5861SOL    HW229046   3.710   3.451   7.891  0.0211  0.6011 -1.0349
 5862SOL     OW29047   1.635   4.050   3.649  0.3518 -0.0486  0.2008
 5862SOL    HW129048   1.695   4.080   3.717  1.3377  0.1292 -0.7339
 5862SOL    HW229049   1.675   3.967   3.621 -1.9431 -0.7222 -1.1045
 5863SOL     OW29050   1.990   0.922  17.057  0.0458 -0.2490  0.3653
 5863SOL    HW129051   2.054   0.866  17.101  0.6884  0.9011  0.8800
 5863SOL    HW229052   2.042   0.937  16.978  1.8363 -0.5642  1.4777
 5864SOL     OW29053   2.000   1.593   6.961 -0.7088 -0.2212  0.9455
 5864SOL    HW129054   1.954   1.529   6.907  0.2691 -0.4540  0.3981
 5864SOL    HW229055   1.938   1.666   6.960 -1.7509 -1.1063  1.3378
 5865SOL     OW29056   4.311   1.620   8.602 -0.6423 -0.1337 -0.4710
 5865SOL    HW129057   4.240   1.672   8.565  0.1592  2.3333  1.4864
 5865SOL    HW229058   4.373   1.634   8.530  1.3424  3.0128  1.8543
 5866SOL     OW29059   4.471   4.642   4.005 -0.1766 -0.2213 -0.2855
 5866SOL    HW129060   4.562   4.631   3.976  0.0560  0.0819  0.3177
 5866SOL    HW229061   4.442   4.700   3.936 -1.3540 -2.3023 -1.5293
 5867SOL     OW29062   4.334   4.461   3.713  0.2144 -0.3638 -0.0652
 5867SOL    HW129063   4.308   4.405   3.640 -2.6281  1.1549 -0.1849
 5867SOL    HW229064   4.423   4.486   3.687 -0.1192 -0.1407 -0.9555
 5868SOL     OW29065   3.565   0.677  13.842  0.4940  0.5946 -0.1405
 5868SOL    HW129066   3.638   0.649  13.897  0.3220  2.7911  1.2049
 5868SOL    HW229067   3.588   0.768  13.821  1.9934  0.2538 -0.0311
 5869SOL     OW29068   4.161   0.473   3.363  0.4161 -0.2906  0.2171
 5869SOL    HW129069   4.141   0.472   3.457  1.5307 -0.2862  0.4563
 5869SOL    HW229070   4.100   0.404   3.341  0.7243 -0.0157 -1.4568
 5870SOL     OW29071   3.378   3.096   0.845 -0.7624  0.6112 -0.0120
 5870SOL    HW129072   3.322   3.062   0.775  1.2367  1.7753 -2.2041
 5870SOL    HW229073   3.466   3.099   0.806 -0.5868  0.1848  0.3577
 5871SOL     OW29074   0.874   4.618   8.254 -0.3676  0.3241 -0.5474
 5871SOL    HW129075   0.922   4.536   8.270 -0.3075  0.8805  2.2151
 5871SOL    HW229076   0.942   4.685   8.249  0.8856 -0.8342  0.8723
 5872SOL     OW29077   4.618   1.723   8.884  0.2279  0.2186 -0.3946
 5872SOL    HW129078   4.581   1.805   8.915 -0.4726  0.1031 -0.9155
 5872SOL    HW229079   4.705   1.761   8.896  0.3139  0.3122 -1.3167
 5873SOL     OW29080   0.098   3.836  10.715  0.0349 -0.1240  0.0899
 5873SOL    HW129081   0.004   3.830  10.733 -0.4134 -1.8051 -2.7222
 5873SOL    HW229082   0.122   3.875  10.799  0.6578 -0.8109  0.2310
 5874SOL     OW29083   3.442   1.027   3.863  0.0345  0.0836  0.2761
 5874SOL    HW129084   3.387   1.032   3.941  2.0486 -0.3388  1.6968
 5874SOL    HW229085   3.516   0.975   3.895 -1.3282 -2.1629 -0.1734
 5875SOL     OW29086   2.214   3.192   5.561 -0.5972  0.3849  0.0554
 5875SOL    HW129087   2.240   3.266   5.615  1.6921 -0.3506 -0.0289
 5875SOL    HW229088   2.126   3.217   5.533 -1.3849 -1.5721  0.7823
 5876SOL     OW29089   3.065   3.286  16.288  0.3839  0.4256  0.2199
 5876SOL    HW129090   2.983   3.240  16.268 -0.0929  0.4316  2.1123
 5876SOL    HW229091   3.036   3.374  16.265  1.2175  0.2386 -1.5638
 5877SOL     OW29092   1.688   1.882  13.999  0.5581 -0.0313  0.0190
 5877SOL    HW129093   1.689   1.825  13.922 -0.8465 -0.8102  0.5614
 5877SOL    HW229094   1.695   1.821  14.072 -0.6869  0.8236  0.8502
 5878SOL     OW29095   3.451   0.887   0.063 -0.1977 -0.6765 -0.3046
 5878SOL    HW129096   3.497   0.806   0.039 -1.3389 -1.1701 -0.8236
 5878SOL    HW229097   3.526   0.940   0.089 -0.6707  0.7403 -1.8340
 5879SOL     OW29098   3.734   1.710  13.263 -0.6054 -0.2987  0.2564
 5879SOL    HW129099   3.796   1.783  13.259 -0.8884  0.1214  3.3834
 5879SOL    HW229100   3.786   1.633  13.286 -1.1726 -0.5145  0.8084
 5880SOL     OW29101   1.354   0.510  15.374  0.2671  0.8692 -0.4020
 5880SOL    HW129102   1.400   0.572  15.318  1.0268  1.9621  1.4051
 5880SOL    HW229103   1.295   0.473  15.309  1.2034  0.4852 -1.0178
 5881SOL     OW29104   3.170   0.374   4.818 -0.1371  0.0704 -0.4805
 5881SOL    HW129105   3.181   0.469   4.813  2.2601 -0.1139  1.0975
 5881SOL    HW229106   3.176   0.355   4.724 -0.6897 -1.2789 -0.2254
 5882SOL     OW29107   1.935   0.400   6.861  0.6473 -0.3861  0.6935
 5882SOL    HW129108   1.997   0.384   6.932  1.2467  0.4232  0.3611
 5882SOL    HW229109   1.854   0.396   6.911  0.1297  0.4556 -0.0779
 5883SOL     OW29110   1.482   3.374   8.087 -0.7161 -0.1457 -0.7481
 5883SOL    HW129111   1.491   3.283   8.062  1.3177 -0.5059  1.2819
 5883SOL    HW229112   1.557   3.413   8.043  0.2917  0.3101  1.3726
 5884SOL     OW29113   1.882   1.487   6.280  0.2095 -0.3072 -0.5263
 5884SOL    HW129114   1.796   1.452   6.256 -1.5070  1.7533  2.6709
 5884SOL    HW229115   1.909   1.543   6.208 -0.4242 -1.2549 -1.5028
 5885SOL     OW29116   0.981   0.551   2.658 -0.0440  0.4434 -0.4844
 5885SOL    HW129117   1.073   0.545   2.635  0.1034  0.4983  0.0903
 5885SOL    HW229118   0.973   0.600   2.740 -0.2678 -0.0067 -0.2353
 5886SOL     OW29119   2.323   1.766   7.650 -0.0702 -0.3033  0.5407
 5886SOL    HW129120   2.385   1.797   7.584 -0.8794  2.4172  1.0321
 5886SOL    HW229121   2.337   1.672   7.642 -2.8147 -0.5247 -1.8829
 5887SOL     OW29122   0.499   3.928   7.720  0.0308  0.4543  0.4060
 5887SOL    HW129123   0.537   3.856   7.771 -3.4232 -0.9504  0.9508
 5887SOL    HW229124   0.406   3.908   7.726  0.2549 -1.0442 -1.0455
 5888SOL     OW29125   2.300   1.438   2.117  0.6520  0.1152  0.3182
 5888SOL    HW129126   2.392   1.418   2.101  1.2452  0.7635  2.8314
 5888SOL    HW229127   2.275   1.387   2.040 -1.2740 -0.0881  1.0956
 5889SOL     OW29128   1.736   0.680   7.060  0.4385  0.2093 -0.5085
 5889SOL    HW129129   1.748   0.677   7.155  3.6131  1.5186 -0.8974
 5889SOL    HW229130   1.654   0.728   7.049 -0.3751 -1.3386 -1.2549
 5890SOL     OW29131   0.909   2.611  12.202 -0.0966  0.0282  0.0436
 5890SOL    HW129132   0.830   2.627  12.254  0.0400 -1.6267  0.7352
 5890SOL    HW229133   0.882   2.531  12.156  0.8828  0.1829 -0.7936
 5891SOL     OW29134   4.485   1.575  15.844  0.2517 -0.8855 -0.0833
 5891SOL    HW129135   4.438   1.613  15.769 -1.7182 -2.2609  0.4570
 5891SOL    HW229136   4.555   1.539  15.790  0.2334  0.0481 -0.7313
 5892SOL     OW29137   2.685   2.806   0.421 -0.2507 -0.3407  0.4216
 5892SOL    HW129138   2.653   2.881   0.369 -0.6003 -0.4319  0.5079
 5892SOL    HW229139   2.655   2.729   0.373 -1.5272  0.1798  0.3813
 5893SOL     OW29140   1.084   1.516  10.162  0.3188  0.0283  0.2360
 5893SOL    HW129141   1.114   1.562  10.241 -2.3648  1.3505  0.4840
 5893SOL    HW229142   1.071   1.432  10.208 -1.4911  0.3189  0.2421
 5894SOL     OW29143   4.436   1.297   9.978 -0.7139 -0.4846 -0.2224
 5894SOL    HW129144   4.464   1.282   9.888 -0.6533  0.5230 -0.3648
 5894SOL    HW229145   4.347   1.327   9.962 -0.4998 -1.3906 -3.0052
 5895SOL     OW29146   3.273   0.783   6.058 -0.1612 -0.6914  0.0362
 5895SOL    HW129147   3.185   0.759   6.086 -1.0047  0.1111 -1.9041
 5895SOL    HW229148   3.254   0.866   6.014  1.5041  0.2968  1.1911
 5896SOL     OW29149   2.251   1.549   2.865 -0.6105  0.1753  0.4434
 5896SOL    HW129150   2.261   1.512   2.953  0.1790  1.7604  1.0055
 5896SOL    HW229151   2.196   1.477   2.833 -0.4576  1.0013 -1.6868
 5897SOL     OW29152   2.719   0.115   4.662  0.1463  0.3112 -0.1025
 5897SOL    HW129153   2.765   0.031   4.653 -1.3368 -0.3832 -1.3058
 5897SOL    HW229154   2.723   0.141   4.754  1.6898  0.6615 -0.2740
 5898SOL     OW29155   3.737   1.188   3.098 -0.0236  0.7275 -0.5184
 5898SOL    HW129156   3.747   1.198   3.003 -0.7710 -0.4471 -0.7212
 5898SOL    HW229157   3.727   1.279   3.125 -1.0567  0.3613  0.3184
 5899SOL     OW29158   3.308   2.426   7.145 -0.4412  0.2274  0.4268
 5899SOL    HW129159   3.353   2.352   7.188 -1.2037  0.4007  1.5298
 5899SOL    HW229160   3.368   2.457   7.078  0.3714 -0.4793  0.8193
 5900SOL     OW29161   1.898   0.366   8.371 -0.1194 -0.6630 -0.3620
 5900SOL    HW129162   1.925   0.426   8.440 -0.6082  0.3637 -1.0616
 5900SOL    HW229163   1.982   0.373   8.326 -0.9212 -2.3403 -2.1137
 5901SOL     OW29164   1.080   2.413  17.324  0.4552  0.5233  0.4972
 5901SOL    HW129165   1.173   2.411  17.301 -0.1444  0.5510 -1.9174
 5901SOL    HW229166   1.065   2.502  17.355 -1.9317  0.0806  0.6104
 5902SOL     OW29167   3.181   1.516   6.512  0.1896 -0.4486  0.7682
 5902SOL    HW129168   3.147   1.598   6.475  0.5542  0.3346  2.1967
 5902SOL    HW229169   3.136   1.503   6.595 -1.0742  1.0461  0.3399
 5903SOL     OW29170   4.393   0.110   5.792 -0.8840  0.4670  0.4929
 5903SOL    HW129171   4.352   0.023   5.793  0.7701 -0.3273 -0.4781
 5903SOL    HW229172   4.342   0.158   5.857 -0.4992  1.8885 -0.2553
 5904SOL     OW29173   3.059   1.995   6.866 -0.0375 -0.1140 -0.4005
 5904SOL    HW129174   3.081   2.023   6.777  1.5680  3.0551  1.0217
 5904SOL    HW229175   2.964   2.003   6.866  0.2422  2.7766  1.3631
 5905SOL     OW29176   1.801   4.295  16.394  0.1540  0.6841  0.2908
 5905SOL    HW129177   1.725   4.239  16.407  0.0281  0.2837 -2.0816
 5905SOL    HW229178   1.800   4.286  16.298 -3.5578 -0.8355  0.4414
 5906SOL     OW29179   3.618   2.504   6.825 -0.7424 -0.5351 -0.3167
 5906SOL    HW129180   3.543   2.460   6.786 -0.3716 -1.4842  0.0376
 5906SOL    HW229181   3.688   2.454   6.784  0.2040 -0.7212  1.5198
 5907SOL     OW29182   3.455   3.104   9.024  0.2534  0.0543 -0.1115
 5907SOL    HW129183   3.518   3.130   9.091 -0.0111  1.5912 -0.4697
 5907SOL    HW229184   3.375   3.156   9.034  0.4469 -0.2172  2.6845
 5908SOL     OW29185   2.340   4.251   5.367  0.1998 -0.6315  0.1667
 5908SOL    HW129186   2.335   4.305   5.289  0.5073 -0.5090  0.2330
 5908SOL    HW229187   2.429   4.216   5.365  1.5082  2.8856 -1.9429
 5909SOL     OW29188   4.694   2.229   7.540 -0.1178  0.2161 -0.3728
 5909SOL    HW129189   0.020   2.269   7.612 -0.7261 -2.0724  1.3107
 5909SOL    HW229190   4.680   2.299   7.475 -1.6623  0.8894  0.6980
 5910SOL     OW29191   2.961   2.548  16.663 -0.1877  0.2591  0.4320
 5910SOL    HW129192   2.961   2.567  16.569 -0.1408  1.3243  0.6505
 5910SOL    HW229193   3.025   2.611  16.695  0.2174 -0.5364  1.2023
 5911SOL     OW29194   4.622   1.560   9.105 -0.4982 -0.1280  0.2563
 5911SOL    HW129195   4.668   1.476   9.105  0.0077  0.1499 -0.6644
 5911SOL    HW229196   4.653   1.599   9.023 -0.7730  0.6585  0.5342
 5912SOL     OW29197   0.851   2.289   1.513 -0.0978  0.1920 -0.3834
 5912SOL    HW129198   0.784   2.264   1.576 -1.3097  2.1742 -0.8886
 5912SOL    HW229199   0.923   2.313   1.571  0.1628 -0.3221 -0.4842
 5913SOL     OW29200   1.191   0.537   0.960 -0.2121  0.0015 -0.6883
 5913SOL    HW129201   1.136   0.468   0.997  0.9818 -0.9344 -0.6667
 5913SOL    HW229202   1.241   0.489   0.895 -1.2382 -0.5434 -1.0807
 5914SOL     OW29203   4.029   2.534   6.390 -0.3525  0.5404 -0.0279
 5914SOL    HW129204   4.119   2.565   6.374 -0.8071  1.5029 -0.7231
 5914SOL    HW229205   3.986   2.612   6.424 -0.7484 -0.3009  1.4189
 5915SOL     OW29206   0.797   2.746   3.486  0.1385 -0.0230  0.5816
 5915SOL    HW129207   0.820   2.817   3.427 -1.2987  0.4592  0.6071
 5915SOL    HW229208   0.730   2.709   3.429 -1.2361  0.1865  2.0608
 5916SOL     OW29209   2.815   2.127   5.581  0.5504 -0.5400  0.4181
 5916SOL    HW129210   2.764   2.115   5.661  0.8045  1.3957  0.8523
 5916SOL    HW229211   2.748   2.147   5.515  1.0044  0.5101  0.2881
 5917SOL     OW29212   3.709   0.133   8.807 -0.7241 -0.4339  0.5122
 5917SOL    HW129213   3.633   0.189   8.820 -0.3494  0.0644  0.5368
 5917SOL    HW229214   3.755   0.173   8.733  1.5555 -1.5956  1.3036
 5918SOL     OW29215   0.552   1.850   3.453 -0.1122  0.1337  0.4355
 5918SOL    HW129216   0.609   1.828   3.527 -1.1300 -2.7175  0.3755
 5918SOL    HW229217   0.467   1.823   3.488  1.2540 -0.1811  3.4769
 5919SOL     OW29218   0.231   2.202   8.691  0.7040 -0.5403 -0.0790
 5919SOL    HW129219   0.221   2.197   8.786 -0.3523  3.4343  0.0255
 5919SOL    HW229220   0.152   2.249   8.665  0.6094 -1.8353 -2.1464
 5920SOL     OW29221   0.556   1.272   0.254  0.0226 -0.0251 -0.3858
 5920SOL    HW129222   0.511   1.317   0.325  2.3551 -0.5815  1.4448
 5920SOL    HW229223   0.639   1.321   0.252 -0.3561  0.5750 -1.3559
 5921SOL     OW29224   1.785   4.454   6.347  0.2366 -0.1923 -0.1546
 5921SOL    HW129225   1.817   4.479   6.434  2.5187 -0.7901 -0.8186
 5921SOL    HW229226   1.692   4.467   6.366 -0.5305 -2.8309 -2.2022
 5922SOL     OW29227   0.412   0.686   1.844 -0.4925 -0.2588 -0.0047
 5922SOL    HW129228   0.487   0.626   1.836 -1.0265 -1.0987  1.3511
 5922SOL    HW229229   0.448   0.773   1.827  0.5702 -0.8261 -0.6868
 5923SOL     OW29230   1.737   2.742  17.656  0.3249  0.6673  0.4938
 5923SOL    HW129231   1.825   2.725  17.621  0.5587  1.1101  0.8595
 5923SOL    HW229232   1.694   2.657  17.650  1.3963  0.1903 -0.4398
 5924SOL     OW29233   3.276   0.176   0.677  0.1585 -0.2376 -0.2497
 5924SOL    HW129234   3.264   0.108   0.611  0.6685 -0.6873  0.1231
 5924SOL    HW229235   3.283   0.121   0.755 -0.4900 -0.8322 -0.6036
 5925SOL     OW29236   1.116   2.923   6.543  0.0306 -0.4121  0.4467
 5925SOL    HW129237   1.100   3.017   6.545  1.8404 -0.1068 -0.1420
 5925SOL    HW229238   1.205   2.934   6.509 -0.2051 -0.5478 -0.2177
 5926SOL     OW29239   4.381   2.041   5.857  0.5880 -0.4694  0.5261
 5926SOL    HW129240   4.327   2.091   5.796  0.4472 -1.1522  0.0890
 5926SOL    HW229241   4.392   1.961   5.805 -0.9591  0.4904 -1.2477
 5927SOL     OW29242   0.967   3.884   3.903  0.2378 -0.1315  0.6972
 5927SOL    HW129243   1.016   3.860   3.824 -1.2053 -0.2810 -0.1502
 5927SOL    HW229244   0.884   3.923   3.876  1.0930  0.3292 -1.2908
 5928SOL     OW29245   0.216   0.036  15.744 -0.2992  0.1113 -0.0114
 5928SOL    HW129246   0.256   0.123  15.731  0.9777 -0.2389  1.6101
 5928SOL    HW229247   0.152   0.048  15.814  0.6391  0.3950  0.7968
 5929SOL     OW29248   2.336   3.544   0.673 -0.4212 -0.1146 -0.1413
 5929SOL    HW129249   2.324   3.586   0.588  2.4687 -0.3837 -0.6729
 5929SOL    HW229250   2.291   3.605   0.732  1.0840  1.8032 -1.0233
 5930SOL     OW29251   0.984   4.437  14.751 -0.1703 -0.1978 -0.1865
 5930SOL    HW129252   0.951   4.351  14.777 -0.3226  0.2871  1.2368
 5930SOL    HW229253   1.049   4.449  14.820 -2.5417 -2.5300  2.4936
 5931SOL     OW29254   2.430   2.787  14.971  0.2239  0.7159  0.3855
 5931SOL    HW129255   2.427   2.828  14.885 -2.3321  0.3844  0.3384
 5931SOL    HW229256   2.454   2.854  15.035  2.1617 -0.6675  1.1027
 5932SOL     OW29257   0.342   0.137  14.372 -0.5530  0.4112 -0.2598
 5932SOL    HW129258   0.404   0.136  14.445  0.6271 -1.2940 -1.2714
 5932SOL    HW229259   0.392   0.171  14.298  0.2534  1.6158  0.8291
 5933SOL     OW29260   0.996   3.305   7.097 -0.1050 -0.5263 -0.3411
 5933SOL    HW129261   0.949   3.223   7.114 -1.0522  0.3267  1.1202
 5933SOL    HW229262   0.993   3.350   7.181 -0.4006 -0.8693 -0.1716
 5934SOL     OW29263   2.577   1.267   4.968  0.4158 -0.1589 -0.0750
 5934SOL    HW129264   2.512   1.331   4.998 -0.2511  0.3733 -2.7095
 5934SOL    HW229265   2.652   1.289   5.024  0.8813  0.5753 -1.0038
 5935SOL     OW29266   1.913   4.474   0.145  0.1284 -0.2040 -0.1138
 5935SOL    HW129267   1.992   4.460   0.093 -0.1750  1.7499 -1.1083
 5935SOL    HW229268   1.860   4.513   0.076 -1.3123  0.9826  1.6638
 5936SOL     OW29269   4.432   0.945   3.074  0.1115 -0.6851  0.4060
 5936SOL    HW129270   4.422   0.891   2.995  0.4204  0.1696 -0.2140
 5936SOL    HW229271   4.500   0.901   3.123 -0.4261 -1.0989  0.7827
 5937SOL     OW29272   1.679   0.759   4.879  0.5347 -0.1268 -0.0438
 5937SOL    HW129273   1.734   0.710   4.941  0.8732  1.9171  1.2594
 5937SOL    HW229274   1.598   0.708   4.878  0.4021  0.0505  1.9689
 5938SOL     OW29275   1.922   4.174   2.166  0.2370  0.5123 -0.1176
 5938SOL    HW129276   1.839   4.218   2.146 -0.3082 -0.1063  0.7481
 5938SOL    HW229277   1.978   4.235   2.120  0.7734 -0.8919 -1.3451
 5939SOL     OW29278   4.628   4.347   2.327 -0.0363 -0.0791  0.1362
 5939SOL    HW129279   4.612   4.410   2.256 -0.7782 -0.4188  0.0075
 5939SOL    HW229280   4.576   4.279   2.284 -0.6825 -1.0996  2.5709
 5940SOL     OW29281   1.923   1.545   3.686 -0.2262  0.2155 -0.7456
 5940SOL    HW129282   1.917   1.639   3.670 -1.4377 -0.1836 -2.6259
 5940SOL    HW229283   1.973   1.546   3.767 -0.0888  1.8903 -0.8533
 5941SOL     OW29284   2.417   1.272   9.157  0.3023 -0.7009  0.0442
 5941SOL    HW129285   2.342   1.215   9.174 -0.1918  0.2293  0.9844
 5941SOL    HW229286   2.461   1.278   9.242  1.3901  1.4375 -0.6714
 5942SOL     OW29287   1.058   3.609   7.080 -0.0618 -0.8898  0.0694
 5942SOL    HW129288   1.045   3.589   7.172  3.1124 -0.2190  0.6567
 5942SOL    HW229289   0.976   3.647   7.048  0.0517 -0.2821  0.5138
 5943SOL     OW29290   3.138   2.471   7.422  0.0980  0.4890 -0.4809
 5943SOL    HW129291   3.077   2.539   7.450 -1.2750 -1.4909  1.3628
 5943SOL    HW229292   3.210   2.466   7.486 -0.3753  1.1275  0.0957
 5944SOL     OW29293   2.977   1.294  10.772 -0.3923 -0.5516  0.1293
 5944SOL    HW129294   3.058   1.297  10.823 -0.8340 -0.8369  0.8496
 5944SOL    HW229295   2.938   1.381  10.778  0.9072  0.0972 -1.1025
 5945SOL     OW29296   1.706   4.578   0.018 -0.0246 -0.2748  0.0282
 5945SOL    HW129297   1.615   4.597   0.042  1.0732  1.3605  2.8048
 5945SOL    HW229298   1.732   4.666  17.683  2.2247 -0.9876 -0.1064
 5946SOL     OW29299   3.267   4.659   7.497  0.1759  0.1491  0.0574
 5946SOL    HW129300   3.276   4.593   7.566  1.1294  1.9247  1.6353
 5946SOL    HW229301   3.351   4.706   7.505 -0.3236  0.9118  0.8208
 5947SOL     OW29302   1.276   3.730  11.124  0.4792 -0.0091  0.8211
 5947SOL    HW129303   1.207   3.797  11.121  1.9522  1.3247 -2.8596
 5947SOL    HW229304   1.331   3.778  11.062  1.0043 -1.0320  0.4938
 5948SOL     OW29305   1.648   3.680   8.544 -0.9270 -0.4733 -0.0365
 5948SOL    HW129306   1.744   3.686   8.549 -0.8760 -1.0345 -0.2298
 5948SOL    HW229307   1.643   3.768   8.507 -0.8000  0.5700  2.4286
 5949SOL     OW29308   2.240   4.588   9.162 -0.0127 -0.3360  0.5894
 5949SOL    HW129309   2.178   4.643   9.114  0.6711 -0.1452 -0.0648
 5949SOL    HW229310   2.215   4.602   9.254 -2.1657  3.2041 -0.5529
 5950SOL     OW29311   1.692   2.846   4.404 -0.4016 -0.4517  0.0229
 5950SOL    HW129312   1.637   2.919   4.374 -0.0700 -0.7403 -1.3009
 5950SOL    HW229313   1.634   2.781   4.443 -1.1298  0.3914  0.3501
 5951SOL     OW29314   0.918   0.923  12.028  0.0871  0.0023 -0.1666
 5951SOL    HW129315   0.889   1.012  12.007  0.1702 -0.2128 -1.1729
 5951SOL    HW229316   0.902   0.867  11.953  2.3708 -0.5908 -0.2229
 5952SOL     OW29317   0.930   0.814   4.693  0.8441 -0.9704 -0.3699
 5952SOL    HW129318   0.840   0.795   4.721 -0.1179  1.9506 -1.3609
 5952SOL    HW229319   0.905   0.869   4.618 -0.9005 -1.9930 -0.5348
 5953SOL     OW29320   0.630   1.303  13.813  0.0206  0.2215  0.2854
 5953SOL    HW129321   0.534   1.308  13.820 -0.0459  0.1114 -0.5984
 5953SOL    HW229322   0.644   1.209  13.824  0.3545  0.1957 -0.4089
 5954SOL     OW29323   2.710   3.235  13.601  0.3195 -0.0697  0.4044
 5954SOL    HW129324   2.662   3.309  13.638  0.7778  0.2876  0.3050
 5954SOL    HW229325   2.795   3.272  13.574 -1.0586  2.4228 -0.5364
 5955SOL     OW29326   0.362   4.578   7.566  0.2446 -0.3900  0.3596
 5955SOL    HW129327   0.352   4.639   7.640  1.0632  0.8629 -0.5564
 5955SOL    HW229328   0.273   4.562   7.536  0.8103 -2.1196 -0.3827
 5956SOL     OW29329   1.380   0.678  13.587  0.6320 -0.4460  0.4107
 5956SOL    HW129330   1.466   0.687  13.628  0.3713  0.2544  0.7938
 5956SOL    HW229331   1.363   0.758  13.538  0.5379 -0.7815 -0.1063
 5957SOL     OW29332   3.250   2.270   3.548 -0.1811  0.4093 -0.3065
 5957SOL    HW129333   3.198   2.284   3.627  1.3989 -0.8330  0.9383
 5957SOL    HW229334   3.288   2.355   3.528  0.4226  0.2673  0.2574
 5958SOL     OW29335   4.569   2.354   6.360  0.1064 -0.0922 -0.1056
 5958SOL    HW129336   4.598   2.439   6.394 -0.4103 -0.4957  1.3477
 5958SOL    HW229337   4.609   2.358   6.273  1.8528  0.0309  0.7085
 5959SOL     OW29338   4.552   1.282   8.093 -0.3110  0.0595 -0.4571
 5959SOL    HW129339   4.520   1.319   8.011  0.0344  1.9213  0.2456
 5959SOL    HW229340   4.510   1.195   8.097  0.0823 -0.1324 -0.5055
 5960SOL     OW29341   4.625   2.023   2.463  0.4342 -0.6364  1.3459
 5960SOL    HW129342   4.600   2.111   2.436 -0.1664 -1.5993 -1.1492
 5960SOL    HW229343   4.651   1.987   2.379  2.5152  0.5616  1.4662
 5961SOL     OW29344   4.117   1.602   4.939  0.5709 -0.0055  0.3654
 5961SOL    HW129345   4.180   1.647   4.994 -0.4280  0.6851  0.9505
 5961SOL    HW229346   4.160   1.517   4.943  1.1747  0.2253 -1.1196
 5962SOL     OW29347   3.822   1.401   1.923  0.2555 -0.2370 -0.6204
 5962SOL    HW129348   3.755   1.449   1.972  0.4669  0.6227 -1.1698
 5962SOL    HW229349   3.809   1.455   1.845  1.4205  0.9420  0.0032
 5963SOL     OW29350   3.513   3.409  15.399  0.5722  0.3779  0.7309
 5963SOL    HW129351   3.521   3.390  15.492  0.3493 -1.9818  0.2622
 5963SOL    HW229352   3.482   3.500  15.404 -1.5323 -0.1803 -1.9769
 5964SOL     OW29353   1.649   3.663   3.093 -0.7355 -0.4510 -0.2834
 5964SOL    HW129354   1.597   3.656   3.013 -0.6695 -0.9916 -0.2828
 5964SOL    HW229355   1.719   3.599   3.078 -2.4521 -2.7827  1.6805
 5965SOL     OW29356   2.104   2.662   6.489 -0.2552  0.5116 -0.1998
 5965SOL    HW129357   2.151   2.579   6.477 -0.7924  0.0737  0.6598
 5965SOL    HW229358   2.050   2.647   6.567 -2.2211  1.6948 -1.3315
 5966SOL     OW29359   3.475   0.706   4.840 -0.2860 -0.4235 -0.4378
 5966SOL    HW129360   3.558   0.702   4.791  0.2149  1.9174  0.2337
 5966SOL    HW229361   3.469   0.795   4.876 -0.2611 -0.6314  0.0723
 5967SOL     OW29362   3.957   3.437   6.361 -0.4820 -0.5057  0.1153
 5967SOL    HW129363   3.945   3.349   6.326 -0.5786 -0.1071 -0.8557
 5967SOL    HW229364   4.005   3.478   6.289 -1.5066 -0.7153 -0.6873
 5968SOL     OW29365   2.245   1.471   3.170 -0.6876 -0.4816  0.5447
 5968SOL    HW129366   2.192   1.477   3.249 -3.4343 -2.0918 -1.2037
 5968SOL    HW229367   2.252   1.377   3.158  1.5876 -0.3319  0.6647
 5969SOL     OW29368   1.094   4.456   5.679  0.2709  0.5949  0.0985
 5969SOL    HW129369   1.108   4.427   5.769 -1.2432  0.6658  0.3522
 5969SOL    HW229370   1.036   4.529   5.699  1.5806  2.2252 -2.0334
 5970SOL     OW29371   0.715   1.372   7.967  0.2244 -0.5268  1.0159
 5970SOL    HW129372   0.730   1.464   7.944  0.3702 -0.8307 -0.0839
 5970SOL    HW229373   0.678   1.386   8.054  2.4338 -0.5415  1.9582
 5971SOL     OW29374   1.785   0.691   5.783  0.2013 -0.1631  0.2157
 5971SOL    HW129375   1.823   0.763   5.833  0.8597 -0.4039  0.0622
 5971SOL    HW229376   1.755   0.629   5.851 -0.3656 -0.6887 -0.5104
 5972SOL     OW29377   3.738   2.935   7.984  0.3769 -0.1622  0.4497
 5972SOL    HW129378   3.673   2.871   8.013  0.7126 -0.3649  0.7624
 5972SOL    HW229379   3.774   2.958   8.070  1.7814 -1.3038  0.1713
 5973SOL     OW29380   2.773   0.070   2.923 -0.3198  0.0525  0.7364
 5973SOL    HW129381   2.752   0.044   3.012 -1.9647 -0.1221  0.3067
 5973SOL    HW229382   2.853   0.019   2.913 -0.3760  0.2117 -0.5133
 5974SOL     OW29383   2.388   2.255   4.781 -0.1447  0.3360 -0.4549
 5974SOL    HW129384   2.387   2.351   4.776  1.9854  0.4263  0.7440
 5974SOL    HW229385   2.478   2.246   4.814  0.9817  1.1520 -3.3551
 5975SOL     OW29386   4.070   3.450   4.401  0.4090 -0.6255  0.0633
 5975SOL    HW129387   4.034   3.384   4.459 -0.1453  0.5170  1.0241
 5975SOL    HW229388   3.992   3.499   4.373  0.5222 -0.0011  0.8479
 5976SOL     OW29389   2.001   3.712   6.346  0.3792 -0.1953  0.4130
 5976SOL    HW129390   1.911   3.724   6.377  0.9802  0.9736  1.6957
 5976SOL    HW229391   2.053   3.713   6.426 -0.1752 -0.4976  0.7780
 5977SOL     OW29392   3.185   1.197  17.408 -0.0975 -0.5909 -0.0978
 5977SOL    HW129393   3.099   1.211  17.368  0.3271  1.5898 -0.2494
 5977SOL    HW229394   3.187   1.110  17.447  1.1412 -0.1422  0.8400
 5978SOL     OW29395   1.461   0.132   2.449 -0.0700 -0.0933  0.4187
 5978SOL    HW129396   1.384   0.095   2.405 -2.3299  3.0362  1.7491
 5978SOL    HW229397   1.444   0.108   2.540  0.2137  1.0823  0.7832
 5979SOL     OW29398   1.654   2.298   5.468  0.1443 -0.0427  0.0674
 5979SOL    HW129399   1.623   2.384   5.440  2.1164 -0.0586 -2.1487
 5979SOL    HW229400   1.721   2.272   5.405 -0.5864 -0.1653 -0.6595
 5980SOL     OW29401   3.599   0.535  14.826 -0.0805  0.4549 -0.0522
 5980SOL    HW129402   3.519   0.493  14.793  0.1752  1.1214 -1.5111
 5980SOL    HW229403   3.574   0.626  14.840  1.3361  0.8269  0.0697
 5981SOL     OW29404   2.729   4.345   3.583 -0.0425 -0.3805 -0.1823
 5981SOL    HW129405   2.711   4.343   3.677  0.3138  0.1161 -0.1044
 5981SOL    HW229406   2.716   4.438   3.564  1.0550 -0.3538 -0.7806
 5982SOL     OW29407   0.045   1.844   8.203 -0.7381  0.0330 -0.3017
 5982SOL    HW129408   4.716   1.923   8.217 -0.4543  0.0522  0.5967
 5982SOL    HW229409   0.052   1.817   8.294 -2.0096 -1.6079 -0.6863
 5983SOL     OW29410   3.379   2.542   7.919  0.0111  0.0101 -0.7612
 5983SOL    HW129411   3.319   2.609   7.885  0.1715  0.4766 -0.1399
 5983SOL    HW229412   3.459   2.555   7.869  1.0121 -0.6198  0.6845
 5984SOL     OW29413   0.930   2.526   0.156  0.3223 -0.2136  0.0477
 5984SOL    HW129414   1.024   2.538   0.171 -0.3617  3.8505  0.8226
 5984SOL    HW229415   0.896   2.615   0.156 -1.4235 -0.8738  0.8261
 5985SOL     OW29416   1.550   3.103   7.089  0.2057  0.4239  0.3184
 5985SOL    HW129417   1.642   3.121   7.067  0.7366 -1.9523  0.5972
 5985SOL    HW229418   1.523   3.195   7.094 -0.3006  0.2243  1.1188
 5986SOL     OW29419   3.629   4.244   3.657 -0.3556  0.2209 -0.2047
 5986SOL    HW129420   3.548   4.197   3.679 -0.7604 -0.3033 -2.8285
 5986SOL    HW229421   3.609   4.284   3.573 -0.5051 -1.6338 -1.0603
 5987SOL     OW29422   4.378   2.083   7.259  0.3811  0.4386  0.1503
 5987SOL    HW129423   4.295   2.124   7.232 -0.2009 -0.4483  0.5737
 5987SOL    HW229424   4.390   2.020   7.189  0.2474 -0.4730  0.9542
 5988SOL     OW29425   1.786   1.682   1.485  0.4692  0.1973 -0.7396
 5988SOL    HW129426   1.698   1.719   1.492  0.8300  1.1223 -1.0598
 5988SOL    HW229427   1.845   1.753   1.511 -1.7079  1.4703  0.7488
 5989SOL     OW29428   2.961   2.104   5.347  0.3702  0.0558 -0.0479
 5989SOL    HW129429   2.923   2.112   5.435 -0.2664 -2.6469 -0.0997
 5989SOL    HW229430   2.962   2.009   5.340  1.7621  0.1246 -0.6395
 5990SOL     OW29431   4.176   0.768   9.531  0.1745  0.0776 -0.4731
 5990SOL    HW129432   4.095   0.819   9.531  0.3057  0.3026  0.3509
 5990SOL    HW229433   4.215   0.788   9.617 -1.6055  1.4596  0.0237
 5991SOL     OW29434   4.116   3.745   4.687  0.2097 -0.0508 -0.2919
 5991SOL    HW129435   4.103   3.825   4.738 -1.4534 -1.2550  1.1789
 5991SOL    HW229436   4.052   3.753   4.615 -3.5523 -1.5784  2.8693
 5992SOL     OW29437   3.538   3.104   6.180 -0.4612 -0.9002 -0.1227
 5992SOL    HW129438   3.529   3.064   6.094 -0.2162 -0.7682 -0.2110
 5992SOL    HW229439   3.472   3.063   6.235 -0.4544 -1.5087 -0.5699
 5993SOL     OW29440   4.083   4.037  11.354  0.5369 -0.1692 -0.0356
 5993SOL    HW129441   3.999   4.020  11.310 -0.1535 -1.2271  1.6869
 5993SOL    HW229442   4.054   4.085  11.432  2.7036 -0.1180  0.7321
 5994SOL     OW29443   4.396   2.490   5.833 -0.7444  0.2010  0.0812
 5994SOL    HW129444   4.302   2.500   5.814 -0.1706  2.6577 -1.4343
 5994SOL    HW229445   4.399   2.557   5.902 -4.3401  0.4545  0.0053
 5995SOL     OW29446   3.707   4.393   5.343  0.3878  0.3441 -0.5816
 5995SOL    HW129447   3.747   4.455   5.404  2.8236 -1.9850  0.1743
 5995SOL    HW229448   3.786   4.365   5.296  1.0466  0.4913  0.4416
 5996SOL     OW29449   1.495   3.307   7.502  0.5050  0.3719 -0.0125
 5996SOL    HW129450   1.575   3.301   7.451  2.4997  0.7860  3.0360
 5996SOL    HW229451   1.448   3.239   7.454  0.4872 -0.2479  0.8783
 5997SOL     OW29452   2.575   0.704  14.827  0.7599 -0.0623  0.2444
 5997SOL    HW129453   2.663   0.732  14.804  0.9484 -0.6682  0.2216
 5997SOL    HW229454   2.535   0.791  14.831  2.5706  0.8017 -0.7059
 5998SOL     OW29455   3.831   2.869   4.951  0.1113 -0.5640 -0.4210
 5998SOL    HW129456   3.795   2.827   5.030 -1.8229  1.6176 -0.1227
 5998SOL    HW229457   3.925   2.856   4.963  0.0887 -2.9614 -2.8803
 5999SOL     OW29458   2.793   1.380  17.545 -0.3299  0.3052 -0.4664
 5999SOL    HW129459   2.847   1.415  17.474  0.6024 -1.9116 -0.8294
 5999SOL    HW229460   2.708   1.421  17.524 -0.4606 -0.0354 -0.5927
 6000SOL     OW29461   0.206   0.184   8.261 -0.3577 -0.1149 -0.2168
 6000SOL    HW129462   0.297   0.202   8.286 -0.2937  1.3426 -1.5388
 6000SOL    HW229463   0.205   0.195   8.166  2.1082 -1.1666 -0.3756
 6001SOL     OW29464   2.796   0.223   5.812 -0.2029  0.4149 -0.1630
 6001SOL    HW129465   2.802   0.130   5.835 -0.3780  0.6482  0.8316
 6001SOL    HW229466   2.831   0.226   5.723  1.5438  0.3217  0.5030
 6002SOL     OW29467   0.322   2.882   2.179  0.3441 -0.1201 -0.0765
 6002SOL    HW129468   0.339   2.920   2.265 -0.3886 -0.0519  0.0376
 6002SOL    HW229469   0.236   2.843   2.195 -0.1150  2.2201  3.1767
 6003SOL     OW29470   2.003   3.937   7.147 -0.0107  0.1833  0.4571
 6003SOL    HW129471   1.919   3.970   7.116  1.2288  0.5487 -2.4094
 6003SOL    HW229472   2.021   3.996   7.220 -1.8776  0.6743  0.5134
 6004SOL     OW29473   4.555   0.636   9.561 -0.0577  0.2675  0.3542
 6004SOL    HW129474   4.636   0.594   9.592 -0.2787 -0.8731 -0.6149
 6004SOL    HW229475   4.509   0.635   9.645  0.0676 -0.0291  0.4205
 6005SOL     OW29476   4.037   2.144   2.299 -0.1698  0.2422 -0.4968
 6005SOL    HW129477   4.047   2.085   2.224 -0.6355  0.1329 -0.4744
 6005SOL    HW229478   4.126   2.142   2.333 -0.2830  0.5916 -0.1790
 6006SOL     OW29479   1.081   4.404   7.866  0.5249 -0.1489  0.4074
 6006SOL    HW129480   1.025   4.477   7.839 -0.0238 -1.0386 -0.8470
 6006SOL    HW229481   1.117   4.441   7.946 -1.8373  0.1352  1.3262
 6007SOL     OW29482   0.330   1.573   6.549  0.0413  0.8655  0.2548
 6007SOL    HW129483   0.249   1.564   6.499  0.1920 -0.2547  0.2100
 6007SOL    HW229484   0.312   1.530   6.632  0.2476  1.6466  0.7030
 6008SOL     OW29485   2.056   4.164  14.599 -0.7278 -0.4383 -0.0306
 6008SOL    HW129486   2.132   4.218  14.620 -0.7492 -0.4933  0.1862
 6008SOL    HW229487   2.085   4.075  14.620 -2.0087 -1.1811 -1.3931
 6009SOL     OW29488   1.080   3.121   0.909  0.2705 -0.3203  0.8315
 6009SOL    HW129489   1.028   3.201   0.895  0.4467 -0.4732 -0.7090
 6009SOL    HW229490   1.157   3.151   0.957 -0.1846  0.9987  0.7426
 6010SOL     OW29491   1.981   1.915   7.477  0.1619 -0.5749 -0.0952
 6010SOL    HW129492   2.034   1.990   7.503 -3.2863  1.6107  0.6240
 6010SOL    HW229493   1.992   1.916   7.382 -0.9520 -1.1254 -0.2338
 6011SOL     OW29494   2.385   4.060   2.493  0.8797  0.2173  0.2379
 6011SOL    HW129495   2.317   4.039   2.556  1.7121 -3.7149 -0.1896
 6011SOL    HW229496   2.338   4.119   2.434  1.4731 -0.4748 -0.9225
 6012SOL     OW29497   1.795   0.637  17.535  0.4561 -0.6288 -0.0533
 6012SOL    HW129498   1.773   0.719  17.490 -1.4878 -1.2153 -0.1493
 6012SOL    HW229499   1.832   0.661  17.620 -2.2174  0.7609  0.7128
 6013SOL     OW29500   1.274   0.971   2.031 -0.1919 -0.2292 -0.4871
 6013SOL    HW129501   1.284   1.028   1.954 -0.3871  1.1548  0.5218
 6013SOL    HW229502   1.329   0.895   2.014  1.2895  0.7705 -0.2429
 6014SOL     OW29503   0.335   4.673  10.795  0.0678 -0.2156  0.2772
 6014SOL    HW129504   0.415   4.693  10.746 -2.0920 -0.6605 -3.4331
 6014SOL    HW229505   0.277   0.006  10.743  0.6984  0.2502  0.0804
 6015SOL     OW29506   3.791   2.158  13.380 -0.2711 -0.1532 -0.1315
 6015SOL    HW129507   3.710   2.107  13.380 -1.3513  1.5586 -0.5243
 6015SOL    HW229508   3.781   2.216  13.455 -1.5126  0.0683 -0.4781
 6016SOL     OW29509   0.654   3.238   8.812 -0.3539 -0.0974 -0.5322
 6016SOL    HW129510   0.703   3.212   8.734 -1.1290  0.3070 -1.1424
 6016SOL    HW229511   0.695   3.323   8.829 -1.2081 -0.2741  2.4475
 6017SOL     OW29512   0.283   4.312   7.250 -0.1451 -0.4520 -1.0461
 6017SOL    HW129513   0.189   4.298   7.264  0.1640 -1.2656  0.1787
 6017SOL    HW229514   0.294   4.404   7.225  0.1677  0.0053  0.8114
 6018SOL     OW29515   3.610   2.086   5.131  0.0809 -0.3541 -0.1785
 6018SOL    HW129516   3.634   2.135   5.209  1.1107 -1.0746 -0.0566
 6018SOL    HW229517   3.531   2.039   5.158 -0.7932 -0.2372 -2.5077
 6019SOL     OW29518   4.407   1.346   7.851 -0.4924 -0.2440 -0.1964
 6019SOL    HW129519   4.428   1.438   7.834 -0.3348 -0.3184 -0.4098
 6019SOL    HW229520   4.366   1.323   7.767  3.9752 -2.2645 -1.8176
 6020SOL     OW29521   3.942   3.108   9.256 -0.1603  0.6851  0.3016
 6020SOL    HW129522   4.027   3.068   9.233  0.3067  1.6047  0.4448
 6020SOL    HW229523   3.890   3.028   9.259 -1.6264  1.6932  1.3205
 6021SOL     OW29524   2.794   3.207   8.507 -0.1904 -0.1943  0.9628
 6021SOL    HW129525   2.829   3.122   8.534 -0.2001 -0.7996 -0.9656
 6021SOL    HW229526   2.858   3.277   8.518  1.4710 -1.2951 -1.7270
 6022SOL     OW29527   2.487   3.760   6.084  0.0687 -0.7951 -0.2826
 6022SOL    HW129528   2.514   3.852   6.081 -0.0678 -0.6755  1.9551
 6022SOL    HW229529   2.505   3.737   5.993  1.9032  0.7156 -0.2909
 6023SOL     OW29530   1.860   3.235   8.435  0.1183  0.0113 -0.4032
 6023SOL    HW129531   1.773   3.274   8.430 -0.2492 -0.5724  1.5161
 6023SOL    HW229532   1.906   3.298   8.491  0.8984 -0.9821  0.0764
 6024SOL     OW29533   3.394   1.797   8.061  0.5100  0.1910 -0.2482
 6024SOL    HW129534   3.473   1.753   8.029  0.0209 -0.7127 -0.2066
 6024SOL    HW229535   3.384   1.761   8.149 -1.3066  1.0498 -0.1052
 6025SOL     OW29536   1.505   1.633   2.803  0.5072 -0.1264  0.4520
 6025SOL    HW129537   1.565   1.562   2.782 -0.2753  0.0646 -2.3796
 6025SOL    HW229538   1.573   1.699   2.814  0.4568  0.3227 -1.9838
 6026SOL     OW29539   4.371   0.088  17.104  0.1278 -0.7005  0.2536
 6026SOL    HW129540   4.377   0.074  17.010  2.0741 -1.0619  0.4459
 6026SOL    HW229541   4.409   0.015  17.152  3.0865  0.9650  0.4564
 6027SOL     OW29542   2.011   3.632   6.876  0.2570  0.1208  0.0697
 6027SOL    HW129543   2.034   3.557   6.822  1.2387  0.5376 -0.0867
 6027SOL    HW229544   1.997   3.698   6.807  0.1954 -0.0561 -0.0857
 6028SOL     OW29545   1.548   1.077  13.514  0.3806 -0.4961 -0.9421
 6028SOL    HW129546   1.459   1.050  13.494 -0.3684 -0.1342  1.9858
 6028SOL    HW229547   1.531   1.166  13.545  1.2409 -1.2197  1.6063
 6029SOL     OW29548   4.687   1.084   8.726  0.0876  0.2527  0.0472
 6029SOL    HW129549   4.621   1.017   8.740 -0.4415  0.3509 -1.9096
 6029SOL    HW229550   0.006   1.053   8.645  0.5221  3.3247 -0.9273
 6030SOL     OW29551   1.299   1.440   2.462  0.0894 -0.1235  0.2610
 6030SOL    HW129552   1.374   1.421   2.407  0.8587  1.6031  0.7052
 6030SOL    HW229553   1.237   1.428   2.390  1.7554 -1.3723 -0.9680
 6031SOL     OW29554   1.605   2.289   2.065  0.3336  0.1925 -0.9235
 6031SOL    HW129555   1.660   2.265   1.990  2.4361 -0.6782  0.9062
 6031SOL    HW229556   1.644   2.249   2.143  2.7429  1.3606 -1.5032
 6032SOL     OW29557   2.596   3.104  12.154 -0.4797 -0.0369 -0.3824
 6032SOL    HW129558   2.674   3.094  12.208 -0.5895  1.0811 -0.0106
 6032SOL    HW229559   2.577   3.196  12.172  1.5055  0.1924  0.5019
 6033SOL     OW29560   1.096   3.366   6.839  0.2916 -0.0007 -0.1866
 6033SOL    HW129561   1.186   3.365   6.871  0.6321 -1.5068 -1.2077
 6033SOL    HW229562   1.053   3.386   6.923 -1.2503  0.3676 -1.0509
 6034SOL     OW29563   0.280   0.502   1.694  0.5772  0.1322 -0.5289
 6034SOL    HW129564   0.299   0.589   1.729  3.9767 -0.3314 -1.2000
 6034SOL    HW229565   0.189   0.504   1.665  1.0394  0.8891 -1.9447
 6035SOL     OW29566   3.440   1.908   0.451  0.4792  0.0210  0.0713
 6035SOL    HW129567   3.506   1.961   0.406 -0.1146 -1.4379 -2.5761
 6035SOL    HW229568   3.449   1.821   0.413 -1.3240 -0.1101 -0.0657
 6036SOL     OW29569   0.185   0.211   4.833  0.6791  0.2728  0.1439
 6036SOL    HW129570   0.274   0.214   4.870  0.3003  1.3820  0.9980
 6036SOL    HW229571   0.181   0.303   4.807 -0.0367 -0.4313 -2.1727
 6037SOL     OW29572   0.610   3.075   0.661 -0.3255 -0.4057  0.1015
 6037SOL    HW129573   0.653   2.990   0.660  1.3238  0.4257  1.2333
 6037SOL    HW229574   0.678   3.143   0.657 -0.4930 -0.1713  1.1538
 6038SOL     OW29575   4.243   0.902  12.447  0.5226 -0.5726 -0.2778
 6038SOL    HW129576   4.334   0.872  12.454  0.8703  0.4849 -0.3848
 6038SOL    HW229577   4.261   0.995  12.437  0.5573 -0.6051 -0.5184
 6039SOL     OW29578   2.575   0.129   0.616  0.2612  0.0792  0.8065
 6039SOL    HW129579   2.650   0.122   0.557 -0.8769  1.3253 -0.7625
 6039SOL    HW229580   2.550   0.221   0.613 -0.2588 -0.0491  1.1811
 6040SOL     OW29581   0.677   3.807  15.335  0.0875 -0.7692  0.0341
 6040SOL    HW129582   0.762   3.776  15.305  2.2960  3.4548  1.9761
 6040SOL    HW229583   0.644   3.730  15.381 -1.7171 -0.6775 -1.0763
 6041SOL     OW29584   0.712   2.051   0.392  0.5584  0.1304 -0.6467
 6041SOL    HW129585   0.648   2.034   0.461 -0.1220 -6.3247 -2.8833
 6041SOL    HW229586   0.648   2.096   0.336  0.5705  1.2644  0.2464
 6042SOL     OW29587   1.104   1.364  16.593  0.4843 -0.0078 -0.6360
 6042SOL    HW129588   1.070   1.378  16.681 -1.3188  1.2814 -1.5389
 6042SOL    HW229589   1.192   1.399  16.602  0.4037 -0.1341  0.6002
 6043SOL     OW29590   1.305   4.367   5.561  0.3375  0.3981  0.4668
 6043SOL    HW129591   1.353   4.379   5.643 -0.3279  1.7402  0.6715
 6043SOL    HW229592   1.220   4.406   5.583 -0.2266 -0.5063 -0.1293
 6044SOL     OW29593   0.607   0.079   8.184 -0.1605 -0.4089  0.3566
 6044SOL    HW129594   0.655   0.038   8.256  1.0728  0.0575 -0.1884
 6044SOL    HW229595   0.617   0.172   8.205  0.9630 -0.3492 -0.4174
 6045SOL     OW29596   4.063   0.891   6.593  1.0537 -0.1793 -0.5302
 6045SOL    HW129597   3.971   0.919   6.590  0.7263 -1.1351  0.8365
 6045SOL    HW229598   4.078   0.885   6.499  0.4951 -3.1025 -0.4314
 6046SOL     OW29599   3.759   3.863   0.567 -0.0012  0.2436 -0.3846
 6046SOL    HW129600   3.750   3.850   0.473 -1.2453  3.7863 -0.7738
 6046SOL    HW229601   3.836   3.918   0.585 -0.7083  1.5658 -1.3597
 6047SOL     OW29602   2.682   4.136   4.976  0.1162 -0.5468 -0.4228
 6047SOL    HW129603   2.671   4.231   4.974 -3.0264 -0.9253 -1.1367
 6047SOL    HW229604   2.764   4.134   5.025  0.7316  0.9526 -1.4016
 6048SOL     OW29605   3.307   1.692   0.074 -0.0880 -0.6425 -0.3851
 6048SOL    HW129606   3.312   1.786   0.091 -0.0693 -0.6660 -0.2655
 6048SOL    HW229607   3.397   1.661   0.076 -0.0817 -0.4437  2.6424
 6049SOL     OW29608   4.660   0.586   7.466 -0.0830 -0.5181  0.0962
 6049SOL    HW129609   0.004   0.645   7.502  0.5972  0.2589 -2.4081
 6049SOL    HW229610   4.585   0.591   7.525 -0.8157  1.0610 -0.9750
 6050SOL     OW29611   4.116   0.321   0.480 -0.5255 -0.6310 -0.6778
 6050SOL    HW129612   4.034   0.291   0.443  0.2968 -0.9537 -2.2336
 6050SOL    HW229613   4.159   0.236   0.491 -0.0713 -0.5831 -2.0492
 6051SOL     OW29614   0.111   2.908   8.162  0.1588  0.1561 -0.1799
 6051SOL    HW129615   0.143   2.995   8.142 -0.4753  0.5968  0.7253
 6051SOL    HW229616   0.121   2.909   8.257 -0.7420  1.9990 -0.1226
 6052SOL     OW29617   4.656   0.876   3.205  0.2957 -0.2240  0.3697
 6052SOL    HW129618   4.630   0.959   3.244  0.1980 -1.2967  2.5463
 6052SOL    HW229619   0.011   0.865   3.260 -0.0112  0.5880  0.9602
 6053SOL     OW29620   1.096   4.553   1.855 -0.5662 -0.1355 -0.8174
 6053SOL    HW129621   1.021   4.571   1.912  0.2577  0.5491  0.0404
 6053SOL    HW229622   1.046   4.529   1.777 -0.7003 -3.0607  0.1745
 6054SOL     OW29623   3.815   4.653   0.426 -0.2876 -0.0449 -0.3353
 6054SOL    HW129624   3.867   4.665   0.505  1.2949  0.4399 -1.4569
 6054SOL    HW229625   3.889   4.650   0.366 -2.2215 -1.2282 -2.6616
 6055SOL     OW29626   1.948   1.460   6.543 -0.0060 -0.3599 -0.5410
 6055SOL    HW129627   1.902   1.468   6.460 -0.9380 -0.8920 -0.0786
 6055SOL    HW229628   1.991   1.545   6.538 -1.7110  0.4631 -1.0560
 6056SOL     OW29629   0.834   4.006   4.880 -0.2158  0.1277 -0.1547
 6056SOL    HW129630   0.928   3.988   4.886 -0.1374  1.1399  1.5445
 6056SOL    HW229631   0.809   3.921   4.843  1.6968 -0.6671  0.3271
 6057SOL     OW29632   2.020   1.373   1.036 -0.1717  0.1044  0.2105
 6057SOL    HW129633   2.050   1.459   1.065 -1.1863  0.2023  0.9961
 6057SOL    HW229634   1.997   1.335   1.122  0.8174 -1.6177 -0.2891
 6058SOL     OW29635   1.366   1.695   8.304 -0.0406  0.4652  0.6405
 6058SOL    HW129636   1.280   1.732   8.282 -0.1729  0.5557  1.3159
 6058SOL    HW229637   1.353   1.670   8.396  0.6517  1.5136  1.0229
 6059SOL     OW29638   1.852   0.472   2.898 -0.1052 -0.0522 -0.5467
 6059SOL    HW129639   1.829   0.379   2.888 -0.9546  0.4239 -2.8687
 6059SOL    HW229640   1.785   0.517   2.847 -0.7977 -1.0595 -0.5263
 6060SOL     OW29641   3.294   2.242   0.788 -0.2201  0.0423  0.6305
 6060SOL    HW129642   3.267   2.163   0.741 -1.6293  0.4878  0.6816
 6060SOL    HW229643   3.318   2.288   0.708 -2.3243 -1.4124 -0.8387
 6061SOL     OW29644   3.863   2.048   8.224 -0.7476 -0.0303  0.0971
 6061SOL    HW129645   3.781   2.070   8.180  1.0972 -0.1447 -3.3916
 6061SOL    HW229646   3.843   1.959   8.253  0.1689  0.3754  1.9444
 6062SOL     OW29647   4.527   0.862   5.321  0.7771  0.0972 -0.0020
 6062SOL    HW129648   4.603   0.873   5.378  0.4214  0.1369  0.4654
 6062SOL    HW229649   4.497   0.952   5.318  0.0512 -0.0442  3.4736
 6063SOL     OW29650   3.668   3.768   9.823  0.2875 -0.1450 -0.3241
 6063SOL    HW129651   3.638   3.767   9.914 -0.0632 -2.4304 -0.4516
 6063SOL    HW229652   3.671   3.858   9.790 -0.1575  1.3294  3.7379
 6064SOL     OW29653   2.294   2.018   2.267  0.3766  0.2515 -0.0689
 6064SOL    HW129654   2.304   1.923   2.268  1.2676  0.3486  0.2226
 6064SOL    HW229655   2.323   2.042   2.179 -0.9973 -2.0079 -1.1177
 6065SOL     OW29656   3.495   0.368   3.648 -0.5112  0.3558  0.4366
 6065SOL    HW129657   3.534   0.381   3.561  1.3953 -1.7247  0.9994
 6065SOL    HW229658   3.414   0.418   3.637 -2.0702 -2.1146  0.6360
 6066SOL     OW29659   0.155   0.853   5.325  0.4784  0.2978 -0.5793
 6066SOL    HW129660   0.148   0.762   5.295  1.4627  0.0665 -0.0973
 6066SOL    HW229661   0.235   0.884   5.282  1.8131 -0.5394  1.3335
 6067SOL     OW29662   2.116   1.776   2.998 -0.0507 -0.1134  0.2379
 6067SOL    HW129663   2.043   1.715   3.012 -0.5104  0.4745  0.3801
 6067SOL    HW229664   2.167   1.718   2.941  0.1681 -0.3811  0.6988
 6068SOL     OW29665   0.148   3.729   4.361  1.1263  0.1560  0.0419
 6068SOL    HW129666   0.090   3.739   4.437  1.9952 -1.6450  0.9445
 6068SOL    HW229667   0.143   3.811   4.312 -1.0776 -0.6788 -1.1301
 6069SOL     OW29668   2.028   0.984  16.599 -0.0117 -0.0433 -0.0065
 6069SOL    HW129669   1.960   0.999  16.534 -0.5868 -0.1103  0.5813
 6069SOL    HW229670   2.080   0.918  16.553 -0.0692  0.9742 -1.5465
 6070SOL     OW29671   3.434   1.622   6.508  0.1730 -0.2645  0.9075
 6070SOL    HW129672   3.350   1.579   6.523 -0.8848  2.1755  2.0048
 6070SOL    HW229673   3.491   1.577   6.570 -1.4921 -0.5020  2.2520
 6071SOL     OW29674   0.613   1.858   3.194 -0.3043 -0.4447 -0.1902
 6071SOL    HW129675   0.535   1.896   3.154 -0.8878  0.3634  1.7253
 6071SOL    HW229676   0.573   1.840   3.279 -0.4247  0.7411  0.0039
 6072SOL     OW29677   3.783   0.754   2.517  0.2102  0.1476 -0.5577
 6072SOL    HW129678   3.826   0.719   2.439 -0.9206  0.9088 -1.5285
 6072SOL    HW229679   3.823   0.841   2.509 -0.2599  0.4695  0.5510
 6073SOL     OW29680   0.401   3.777  15.724  0.2288 -0.1084  0.1418
 6073SOL    HW129681   0.306   3.786  15.731  0.2141  0.0615 -0.2912
 6073SOL    HW229682   0.424   3.842  15.791 -0.4915 -0.8875  1.1635
 6074SOL     OW29683   0.995   3.312   8.239  0.2573  0.0517  0.2307
 6074SOL    HW129684   1.039   3.244   8.290  1.4029 -0.3812 -1.3480
 6074SOL    HW229685   1.065   3.362   8.196  2.6871 -2.3430  1.4281
 6075SOL     OW29686   0.364   0.377  13.273 -0.0773 -0.1352 -0.0256
 6075SOL    HW129687   0.357   0.292  13.317  0.1698  0.0357  0.3311
 6075SOL    HW229688   0.275   0.395  13.242  0.3808  2.1837  0.0391
 6076SOL     OW29689   1.819   4.034   1.528  0.3803 -0.2188 -0.2154
 6076SOL    HW129690   1.734   4.053   1.489  0.6051  1.5961  0.1924
 6076SOL    HW229691   1.803   3.978   1.604 -0.2783 -2.5770 -2.0912
 6077SOL     OW29692   3.441   4.244   7.616 -0.3775  0.2248  0.2271
 6077SOL    HW129693   3.360   4.248   7.564 -0.1105 -1.7961 -0.3548
 6077SOL    HW229694   3.471   4.160   7.583  2.9786  0.2932  3.1882
 6078SOL     OW29695   2.663   3.923   3.448  0.0873 -0.0671  0.6599
 6078SOL    HW129696   2.605   3.998   3.437  3.4452  2.4446 -0.0145
 6078SOL    HW229697   2.706   3.904   3.364  2.8558 -1.0579  2.2847
 6079SOL     OW29698   0.088   4.570   6.815  0.3147  0.0725 -0.5514
 6079SOL    HW129699   4.715   4.578   6.824  0.3722 -0.1221  0.2678
 6079SOL    HW229700   0.113   4.497   6.872 -0.7728  0.2032  0.0918
 6080SOL     OW29701   0.389   2.036   2.411 -0.1167  0.1959  0.4780
 6080SOL    HW129702   0.378   2.045   2.505 -0.3821 -1.7197  0.6168
 6080SOL    HW229703   0.482   2.034   2.391 -0.5528 -0.4923 -1.5008
 6081SOL     OW29704   1.189   1.366   2.192 -0.0704 -0.3990 -0.5810
 6081SOL    HW129705   1.188   1.412   2.108 -1.8892  1.0113  0.2000
 6081SOL    HW229706   1.257   1.302   2.172 -0.0442 -0.7503  0.6288
 6082SOL     OW29707   4.702   1.078  10.482  0.3869 -0.2406 -0.0186
 6082SOL    HW129708   4.715   1.062  10.576 -0.6396 -2.1100 -0.2042
 6082SOL    HW229709   0.065   1.054  10.446  0.0268 -0.5598 -0.6524
 6083SOL     OW29710   2.145   4.612   5.254 -0.1300  0.1867 -0.2581
 6083SOL    HW129711   2.067   4.575   5.211 -1.3308  1.7778  0.5511
 6083SOL    HW229712   2.131   4.591   5.347 -0.0003  2.2619  0.2188
 6084SOL     OW29713   2.768   2.836   7.443 -0.0857 -0.6873 -0.3815
 6084SOL    HW129714   2.712   2.910   7.417  0.5915 -0.4477 -1.1934
 6084SOL    HW229715   2.742   2.780   7.370 -0.3927  1.3874 -1.8836
 6085SOL     OW29716   2.446   1.594   3.488 -0.1060 -0.4902  0.2594
 6085SOL    HW129717   2.532   1.581   3.530  0.4740 -1.5709 -1.2404
 6085SOL    HW229718   2.459   1.534   3.414  3.7888  2.7637 -1.6831
 6086SOL     OW29719   2.003   3.128  14.234 -0.4331  0.1738  0.3650
 6086SOL    HW129720   1.935   3.119  14.300  0.2058 -0.0623  0.9839
 6086SOL    HW229721   2.013   3.042  14.192 -1.1824  0.6278 -0.7509
 6087SOL     OW29722   4.261   2.267   6.242 -0.3830  0.5747 -0.1233
 6087SOL    HW129723   4.263   2.247   6.336 -1.1836 -0.5992 -0.3649
 6087SOL    HW229724   4.347   2.309   6.233  0.1444 -0.3591  0.5602
 6088SOL     OW29725   1.829   3.524  17.376 -0.1389 -0.3602 -0.5922
 6088SOL    HW129726   1.771   3.450  17.396 -1.3404  1.0398  1.0561
 6088SOL    HW229727   1.833   3.521  17.280 -1.0211 -3.5808 -0.5413
 6089SOL     OW29728   0.199   3.066   5.319  0.2669  0.2996 -0.3764
 6089SOL    HW129729   0.292   3.079   5.304  0.3783 -0.2501 -0.1835
 6089SOL    HW229730   0.187   3.108   5.404  1.1489 -0.1551 -0.0314
 6090SOL     OW29731   3.003   1.073   2.245 -0.1220  0.2710  0.3657
 6090SOL    HW129732   2.991   1.010   2.174 -0.6208  0.9051 -0.1148
 6090SOL    HW229733   2.967   1.017   2.314  0.6595 -0.7559 -0.0619
 6091SOL     OW29734   4.010   1.138  13.443 -0.3069  0.4320  0.3659
 6091SOL    HW129735   4.049   1.149  13.357  0.9583 -0.2589  0.8437
 6091SOL    HW229736   4.029   1.227  13.473 -0.1571  0.8066 -0.8634
 6092SOL     OW29737   3.589   3.423  17.575 -0.2554 -0.2890  0.6726
 6092SOL    HW129738   3.532   3.387  17.643 -0.5810  1.0400  1.1021
 6092SOL    HW229739   3.544   3.383  17.501 -0.3198  2.0094 -0.5260
 6093SOL     OW29740   0.595   0.724   2.733 -0.7792  0.1530  0.1351
 6093SOL    HW129741   0.577   0.690   2.646 -0.2521 -1.2033  0.5452
 6093SOL    HW229742   0.508   0.719   2.772 -0.4235  0.0419  0.9239
 6094SOL     OW29743   2.657   3.504   5.957 -0.0653  0.2100  0.0344
 6094SOL    HW129744   2.726   3.503   6.022 -0.5569  0.3856  0.5599
 6094SOL    HW229745   2.698   3.441   5.897  0.0369 -0.0292  0.3569
 6095SOL     OW29746   0.451   1.540   3.146 -0.1200 -0.1408  0.0915
 6095SOL    HW129747   0.515   1.510   3.080 -0.5113  1.5820 -1.0820
 6095SOL    HW229748   0.407   1.611   3.099  0.2411 -1.4070 -2.1692
 6096SOL     OW29749   1.586   1.952   5.479 -0.6539  0.1122  0.5585
 6096SOL    HW129750   1.610   1.974   5.389  1.5521  0.3137  1.1743
 6096SOL    HW229751   1.521   1.884   5.468 -0.3891 -0.2901  1.4820
 6097SOL     OW29752   0.851   1.752   3.059  0.2379 -0.3144  0.2918
 6097SOL    HW129753   0.915   1.817   3.086 -1.8442  1.1071  1.7968
 6097SOL    HW229754   0.792   1.757   3.133  1.0184  1.7655  0.7520
 6098SOL     OW29755   0.567   1.480   6.051  0.1866 -0.7608 -0.1276
 6098SOL    HW129756   0.503   1.416   6.020  1.2129 -1.9882  0.3188
 6098SOL    HW229757   0.533   1.486   6.141 -1.8667 -0.4017 -0.9210
 6099SOL     OW29758   0.404   1.052  16.911  0.3586 -0.4657  0.0537
 6099SOL    HW129759   0.497   1.073  16.904  0.3584 -0.1082  1.2350
 6099SOL    HW229760   0.386   0.959  16.895 -0.5406 -0.2504 -0.1891
 6100SOL     OW29761   3.458   2.564   4.001 -0.6878  0.4919  0.6406
 6100SOL    HW129762   3.450   2.659   4.007 -1.9728  0.4368 -0.2960
 6100SOL    HW229763   3.492   2.547   3.914  0.6975  0.9191  1.1043
 6101SOL     OW29764   0.344   1.456   5.770 -0.0839 -1.0525  0.0473
 6101SOL    HW129765   0.303   1.506   5.841  4.0006  1.3007  0.7740
 6101SOL    HW229766   0.317   1.497   5.688  2.7130 -0.3523 -0.5357
 6102SOL     OW29767   1.570   2.568   1.432  0.1068 -0.2451 -0.4460
 6102SOL    HW129768   1.601   2.597   1.518  1.6542 -1.0168 -0.7475
 6102SOL    HW229769   1.578   2.474   1.442 -2.2446 -0.5415 -1.3479
 6103SOL     OW29770   1.708   3.761   8.867  1.3611 -0.2268 -0.3307
 6103SOL    HW129771   1.622   3.737   8.901  0.5695  2.0821 -0.6815
 6103SOL    HW229772   1.754   3.775   8.950 -2.0371 -0.2887  1.5847
 6104SOL     OW29773   2.825   1.825   7.674  0.0673 -0.0217  0.2862
 6104SOL    HW129774   2.899   1.797   7.730 -1.0501  1.0915  2.3263
 6104SOL    HW229775   2.759   1.805   7.740 -1.4544 -0.1658 -1.2921
 6105SOL     OW29776   3.886   2.534   5.920  0.0492 -0.7314 -0.0587
 6105SOL    HW129777   3.795   2.507   5.910  0.3979 -1.8180 -0.3282
 6105SOL    HW229778   3.913   2.495   6.003  0.0420 -1.6347 -0.4720
 6106SOL     OW29779   3.236   1.568   4.543  0.2325  0.1829  0.1635
 6106SOL    HW129780   3.282   1.555   4.626 -0.4450 -1.8007  0.2203
 6106SOL    HW229781   3.156   1.521   4.565  1.0856 -1.4024 -0.0594
 6107SOL     OW29782   3.608   3.012   5.921  0.1627  0.4648 -0.5973
 6107SOL    HW129783   3.597   2.921   5.893 -0.8314  0.9565 -1.8202
 6107SOL    HW229784   3.693   3.022   5.878  0.6955  0.0233  0.3626
 6108SOL     OW29785   1.566   1.606  11.302  0.3541  0.3526 -0.1521
 6108SOL    HW129786   1.518   1.524  11.307 -0.1709  0.6515 -0.2824
 6108SOL    HW229787   1.530   1.654  11.377  1.9306 -0.4894  1.1744
 6109SOL     OW29788   2.472   1.984   6.981 -0.6028  0.2956  0.3098
 6109SOL    HW129789   2.535   1.922   7.018 -1.0450 -0.9122 -0.9533
 6109SOL    HW229790   2.516   2.001   6.897  0.8531 -0.4806  0.9137
 6110SOL     OW29791   3.162   4.711   1.351 -0.3363 -0.0652 -0.6148
 6110SOL    HW129792   3.100   4.682   1.283  0.5543 -0.8088 -1.1114
 6110SOL    HW229793   3.100   0.028   1.413 -1.0216 -0.5293 -0.9966
 6111SOL     OW29794   2.104   0.825  15.628 -1.1663  0.1279  0.4699
 6111SOL    HW129795   2.127   0.732  15.633  0.6991  0.4719 -1.6202
 6111SOL    HW229796   2.128   0.854  15.539 -1.7036 -1.0159 -0.0417
 6112SOL     OW29797   0.174   2.027  14.900  0.1740  0.4762 -0.1441
 6112SOL    HW129798   0.184   2.122  14.892 -2.3674  0.8613  1.5076
 6112SOL    HW229799   0.082   2.030  14.875  0.4575  0.8773 -1.1485
 6113SOL     OW29800   4.236   0.529   4.279  0.5385  0.3960  0.4020
 6113SOL    HW129801   4.242   0.594   4.350  0.2360  0.0201  0.7760
 6113SOL    HW229802   4.320   0.484   4.282  0.1343 -0.3988 -0.2146
 6114SOL     OW29803   1.139   3.218   3.599  0.2815  0.5791  0.2982
 6114SOL    HW129804   1.146   3.150   3.666 -0.6477  1.4056  1.2279
 6114SOL    HW229805   1.062   3.183   3.555  2.0469 -0.8292 -1.6443
 6115SOL     OW29806   2.331   2.423  11.513  0.3218  0.1810  0.4892
 6115SOL    HW129807   2.336   2.343  11.460 -0.6514  0.1800  0.3914
 6115SOL    HW229808   2.312   2.484  11.442 -1.2871 -1.6080 -0.6399
 6116SOL     OW29809   3.271   2.272  13.648 -0.0919  0.2398  0.5813
 6116SOL    HW129810   3.249   2.227  13.729 -1.5286  0.9244  0.5541
 6116SOL    HW229811   3.333   2.327  13.696  0.6083  0.1724 -0.2407
 6117SOL     OW29812   2.854   1.075   0.234  0.0855 -0.5629 -0.5300
 6117SOL    HW129813   2.874   1.148   0.176  0.9328  0.1522  0.6610
 6117SOL    HW229814   2.903   1.007   0.188 -0.2276 -2.0065  1.2117
 6118SOL     OW29815   0.077   1.492  14.959 -0.0693 -0.0495 -0.3871
 6118SOL    HW129816   4.708   1.509  14.935 -0.3960 -3.4631 -1.5580
 6118SOL    HW229817   0.053   1.451  15.042 -0.7088  0.4945 -0.3036
 6119SOL     OW29818   2.086   0.481  16.045 -0.2170 -0.1178 -0.3898
 6119SOL    HW129819   2.133   0.559  16.016 -1.0690 -0.2512 -2.1451
 6119SOL    HW229820   2.030   0.465  15.969 -1.0400 -0.8098  0.3605
 6120SOL     OW29821   4.422   0.621   6.422 -0.3959 -0.5990 -0.4804
 6120SOL    HW129822   4.424   0.692   6.358 -0.6949  0.7100  0.9726
 6120SOL    HW229823   4.356   0.570   6.374 -0.1545  1.1335 -2.6428
 6121SOL     OW29824   0.293   1.179   1.123 -0.1599 -0.7043  0.4398
 6121SOL    HW129825   0.229   1.235   1.167  1.5301  1.7869 -0.2679
 6121SOL    HW229826   0.270   1.199   1.032  2.7037 -2.2015 -0.6213
 6122SOL     OW29827   3.479   1.224   5.731 -0.0180 -0.5940 -0.1818
 6122SOL    HW129828   3.529   1.154   5.774  2.2949 -0.7356 -3.1251
 6122SOL    HW229829   3.419   1.250   5.802 -0.5136 -1.0072 -0.4446
 6123SOL     OW29830   1.981   1.634   7.373  0.2055  0.1571  0.3183
 6123SOL    HW129831   1.962   1.726   7.391 -1.3650  0.0538 -0.8494
 6123SOL    HW229832   1.912   1.612   7.311  0.6592 -0.5508  0.0603
 6124SOL     OW29833   2.787   0.611   1.010 -0.2704 -0.0524 -0.4028
 6124SOL    HW129834   2.713   0.563   1.047  1.1166 -1.7575  0.1490
 6124SOL    HW229835   2.841   0.537   0.985  0.2710  0.2179 -0.0274
 6125SOL     OW29836   4.120   1.145  10.405  0.1609  0.5991 -0.6704
 6125SOL    HW129837   4.149   1.056  10.422 -3.7173 -0.1802  1.8368
 6125SOL    HW229838   4.122   1.152  10.310  2.0687 -1.3488 -0.7607
 6126SOL     OW29839   2.516   1.742   9.899  0.0064 -0.6163  0.6862
 6126SOL    HW129840   2.475   1.657   9.910  1.0778 -1.2121  0.0699
 6126SOL    HW229841   2.575   1.748   9.974  0.7106  1.0839  0.0023
 6127SOL     OW29842   3.273   3.407   6.980 -0.3359  0.6229  0.0914
 6127SOL    HW129843   3.239   3.480   6.928  1.6387  0.4652 -1.4252
 6127SOL    HW229844   3.367   3.419   6.966 -0.1207 -1.8582 -0.6605
 6128SOL     OW29845   1.090   4.028   1.825 -0.5675  0.1950 -0.2342
 6128SOL    HW129846   1.160   4.012   1.762 -0.9031 -1.4163 -0.1811
 6128SOL    HW229847   1.039   4.095   1.779  0.5643 -0.5244 -2.5404
 6129SOL     OW29848   0.049   3.371   2.640  0.3236  0.6515 -0.0936
 6129SOL    HW129849   4.682   3.374   2.605  0.6119  0.6389 -0.8448
 6129SOL    HW229850   0.060   3.283   2.677  1.2154  0.8505  0.1318
 6130SOL     OW29851   0.654   2.574  14.719 -0.1131 -0.6233  0.2434
 6130SOL    HW129852   0.733   2.602  14.764  0.7695 -0.3979 -1.4546
 6130SOL    HW229853   0.597   2.623  14.778  2.2829  0.3518  1.7428
 6131SOL     OW29854   1.787   4.099   4.718  0.1039 -0.0289 -0.6047
 6131SOL    HW129855   1.804   4.027   4.779 -1.2860 -0.9145 -1.2729
 6131SOL    HW229856   1.874   4.108   4.678  0.0601  0.7072 -0.5300
 6132SOL     OW29857   4.496   1.876  10.085  0.0057  0.3069  0.4294
 6132SOL    HW129858   4.535   1.847  10.168 -0.4903 -2.5696 -0.3544
 6132SOL    HW229859   4.415   1.825  10.082  2.0624 -3.0186  0.9676
 6133SOL     OW29860   3.435   0.357   6.116  0.1222  0.2375  0.0763
 6133SOL    HW129861   3.503   0.379   6.179  0.7931  1.7994 -1.2102
 6133SOL    HW229862   3.398   0.292   6.176 -0.3542 -1.4260 -2.0050
 6134SOL     OW29863   1.468   4.710   8.664 -0.1892 -0.5700 -0.3719
 6134SOL    HW129864   1.493   4.620   8.686 -2.0427 -0.9100  0.2811
 6134SOL    HW229865   1.484   0.036   8.744 -0.6014  0.4033 -0.8741
 6135SOL     OW29866   0.402   0.221  15.977  0.4525  0.0947  0.1283
 6135SOL    HW129867   0.463   0.285  15.941 -2.6612  2.5532 -0.7529
 6135SOL    HW229868   0.459   0.197  16.050  0.0460  0.6277  0.6199
 6136SOL     OW29869   0.267   3.805   6.048 -0.0737  0.3389 -0.2192
 6136SOL    HW129870   0.256   3.806   5.953 -0.2858 -1.2834 -0.2248
 6136SOL    HW229871   0.335   3.737   6.055 -2.2131 -1.5253  2.1264
 6137SOL     OW29872   4.297   3.105   7.276  0.0445  0.6312 -0.3200
 6137SOL    HW129873   4.376   3.109   7.331 -0.5818 -2.0435  0.7621
 6137SOL    HW229874   4.283   3.011   7.281  1.1547  0.3990 -1.6631
 6138SOL     OW29875   1.343   0.889  10.868  0.6334 -0.0923 -0.1802
 6138SOL    HW129876   1.396   0.825  10.916  0.4148 -0.3114 -0.2290
 6138SOL    HW229877   1.388   0.878  10.784  0.0964 -0.2263 -0.4526
 6139SOL     OW29878   0.902   2.020   7.249  0.6369  0.1324 -0.3366
 6139SOL    HW129879   0.897   1.935   7.295 -0.6421  0.2257 -0.2880
 6139SOL    HW229880   0.891   2.086   7.318 -0.3580  1.1943 -1.5162
 6140SOL     OW29881   4.001   3.404   2.162  0.6642  0.5811  0.1911
 6140SOL    HW129882   3.985   3.323   2.113  1.1736  1.9800 -2.2876
 6140SOL    HW229883   4.086   3.432   2.130  1.1546 -1.7074 -0.5389
 6141SOL     OW29884   0.486   1.390   4.971 -0.0208  0.1821  0.1095
 6141SOL    HW129885   0.454   1.302   4.993  0.6917 -0.4299 -1.3354
 6141SOL    HW229886   0.549   1.405   5.041  1.0507 -0.7851 -0.6518
 6142SOL     OW29887   4.079   1.265   1.363  0.2979 -0.1249  0.2121
 6142SOL    HW129888   4.005   1.249   1.422  0.3946  0.9262  0.6152
 6142SOL    HW229889   4.155   1.261   1.421  0.5779 -1.5777 -0.2529
 6143SOL     OW29890   0.211   2.053   4.413 -0.2201  0.0673  0.2874
 6143SOL    HW129891   0.305   2.067   4.405 -0.3375  0.5669 -0.1887
 6143SOL    HW229892   0.160   2.120   4.367 -0.7050 -0.8704 -0.5455
 6144SOL     OW29893   2.403   3.617   4.879  0.5866  0.2555  0.0298
 6144SOL    HW129894   2.443   3.533   4.857  0.1859 -0.2472  1.2355
 6144SOL    HW229895   2.486   3.656   4.908 -0.1840  1.9106  0.0358
 6145SOL     OW29896   3.810   1.642   5.794  0.0644 -0.1861 -0.0675
 6145SOL    HW129897   3.833   1.641   5.701  1.2871  0.4939  0.2336
 6145SOL    HW229898   3.782   1.552   5.810  0.5908 -0.2545  0.4883
 6146SOL     OW29899   1.375   2.410   7.629 -0.2781  0.0010  0.4071
 6146SOL    HW129900   1.441   2.446   7.569 -3.7940  1.7283 -2.4603
 6146SOL    HW229901   1.340   2.335   7.581  2.4591 -0.5726 -0.6786
 6147SOL     OW29902   4.453   2.499  15.474  0.0030  0.4509  0.3058
 6147SOL    HW129903   4.402   2.569  15.432  0.9110  1.6396  1.2064
 6147SOL    HW229904   4.448   2.425  15.413  0.7163  0.0344  0.7559
 6148SOL     OW29905   0.416   2.427   2.812  0.3774 -0.5138 -0.6595
 6148SOL    HW129906   0.435   2.421   2.905  0.5250  0.1616 -0.6474
 6148SOL    HW229907   0.336   2.375   2.805  0.7315 -1.1291 -0.1327
 6149SOL     OW29908   1.899   4.369   5.756  0.4885  0.0932  0.3859
 6149SOL    HW129909   1.853   4.285   5.756 -0.4780  0.6133  1.3389
 6149SOL    HW229910   1.860   4.409   5.834  0.0902  0.6506 -0.0884
 6150SOL     OW29911   0.729   1.162   2.903  0.2374 -0.3820 -0.3698
 6150SOL    HW129912   0.815   1.186   2.937 -0.8579  2.2198  0.5815
 6150SOL    HW229913   0.683   1.141   2.985 -0.6116 -1.4516 -1.1146
 6151SOL     OW29914   2.901   2.586   8.538 -0.4464 -0.4904 -0.1579
 6151SOL    HW129915   2.871   2.505   8.497 -2.0565  0.3575 -0.6740
 6151SOL    HW229916   2.904   2.648   8.465 -1.5396  0.8236  0.9046
 6152SOL     OW29917   4.599   2.365   9.356  0.3649 -0.0475 -0.7203
 6152SOL    HW129918   4.585   2.365   9.450 -0.1452  1.4242 -0.8075
 6152SOL    HW229919   4.510   2.390   9.330  0.2968  0.7575  0.2834
 6153SOL     OW29920   4.093   0.407   9.837  0.8167 -0.1150 -0.3564
 6153SOL    HW129921   4.165   0.402   9.774  1.4020  0.1967  0.2893
 6153SOL    HW229922   4.076   0.314   9.853  1.3935 -0.2595 -0.5837
 6154SOL     OW29923   0.620   3.706   7.823  0.4106 -0.2712  0.2382
 6154SOL    HW129924   0.667   3.644   7.767  0.8726 -0.1777  0.5137
 6154SOL    HW229925   0.547   3.657   7.862 -0.6068  2.3759  1.6618
 6155SOL     OW29926   2.136   4.297   7.844  0.0594  0.2571 -0.1627
 6155SOL    HW129927   2.055   4.248   7.826 -0.5743  1.2408  0.0394
 6155SOL    HW229928   2.123   4.325   7.935  0.1293 -0.6192  0.1257
 6156SOL     OW29929   4.122   2.662   4.169 -0.2987  0.5835  0.6573
 6156SOL    HW129930   4.121   2.751   4.205 -2.8970  0.4788  0.8640
 6156SOL    HW229931   4.185   2.671   4.098 -1.0326 -0.7673 -0.1635
 6157SOL     OW29932   4.157   1.720   4.710  0.4815 -0.3608  0.0157
 6157SOL    HW129933   4.126   1.648   4.763  0.8379 -0.2757  0.3410
 6157SOL    HW229934   4.108   1.705   4.629 -0.6511 -0.2039  0.6707
 6158SOL     OW29935   4.428   4.092   4.173  0.4401 -0.2242 -0.3264
 6158SOL    HW129936   4.416   4.132   4.259  1.2641  1.6264 -1.0728
 6158SOL    HW229937   4.342   4.054   4.157 -1.7028  3.9492  1.3721
 6159SOL     OW29938   3.470   1.196   3.198 -0.2159  0.4528 -0.2952
 6159SOL    HW129939   3.426   1.216   3.116  1.2447  1.4603 -0.8328
 6159SOL    HW229940   3.559   1.202   3.165  0.7577  0.7643  2.3397
 6160SOL     OW29941   0.997   2.333   6.615 -0.4797  0.3012 -0.0482
 6160SOL    HW129942   0.945   2.296   6.543  0.2372  1.6567 -1.2587
 6160SOL    HW229943   0.964   2.281   6.688 -1.8257  0.5656 -0.4675
 6161SOL     OW29944   4.554   0.355  10.565 -0.0224 -0.0212 -0.6844
 6161SOL    HW129945   4.602   0.272  10.557  0.2392 -0.0377  0.9703
 6161SOL    HW229946   4.519   0.364  10.476  1.7123 -0.2836 -1.4005
 6162SOL     OW29947   3.163   4.028   7.829 -0.4373 -0.9243  0.4140
 6162SOL    HW129948   3.123   3.964   7.888 -0.7839 -0.9796  0.1216
 6162SOL    HW229949   3.108   4.104   7.848  1.0717 -0.0581  1.3534
 6163SOL     OW29950   1.363   2.880   6.390  0.1094 -0.0624  0.3210
 6163SOL    HW129951   1.345   2.786   6.384  0.6200 -0.2800  2.0757
 6163SOL    HW229952   1.379   2.905   6.299 -0.4741  2.6012  0.9367
 6164SOL     OW29953   1.358   1.226   5.118 -0.0051  0.1206 -0.4595
 6164SOL    HW129954   1.346   1.131   5.112 -0.3732  0.2025 -1.0561
 6164SOL    HW229955   1.452   1.239   5.133 -0.2606 -0.7598  1.8285
 6165SOL     OW29956   0.341   0.223  10.601 -0.1969 -0.1701  0.8096
 6165SOL    HW129957   0.262   0.168  10.605  0.8774 -1.7700  0.0080
 6165SOL    HW229958   0.408   0.156  10.591 -0.6624 -0.5031 -0.0569
 6166SOL     OW29959   2.941   4.239   7.224  0.2407 -0.1011 -0.3414
 6166SOL    HW129960   2.972   4.284   7.145  2.8446 -0.6537  0.3624
 6166SOL    HW229961   2.991   4.158   7.219 -0.8317 -0.9289  2.3518
 6167SOL     OW29962   0.169   1.205   0.438 -0.2215  1.0466 -0.2885
 6167SOL    HW129963   0.235   1.225   0.504 -0.6492 -0.3406  0.5260
 6167SOL    HW229964   0.096   1.194   0.498 -0.6643 -0.1660 -1.0632
 6168SOL     OW29965   3.166   4.142   1.037 -0.2630  0.3603 -0.4355
 6168SOL    HW129966   3.215   4.223   1.049  1.4099 -0.3333 -2.7278
 6168SOL    HW229967   3.231   4.086   0.994  1.7134  1.1371  1.5331
 6169SOL     OW29968   3.329   3.090  14.389  0.4350 -0.0300  0.4815
 6169SOL    HW129969   3.310   2.996  14.395  3.0039 -0.5767  0.1968
 6169SOL    HW229970   3.422   3.086  14.412  0.4608  0.9077  0.5534
 6170SOL     OW29971   1.876   2.338   6.455 -0.1217 -0.1352 -0.1632
 6170SOL    HW129972   1.918   2.424   6.451 -1.5715  0.5979  0.2780
 6170SOL    HW229973   1.791   2.376   6.479 -1.1961 -2.4886 -0.2790
 6171SOL     OW29974   0.083   2.415   2.664  0.3810 -0.2818 -0.3592
 6171SOL    HW129975   0.131   2.352   2.717  1.3270 -0.9015 -1.9376
 6171SOL    HW229976   0.123   2.416   2.576 -1.0687  0.7211 -1.0114
 6172SOL     OW29977   1.988   4.094   9.593  0.2907 -0.6994  0.5655
 6172SOL    HW129978   1.956   4.038   9.664 -2.3102  2.3754  1.8062
 6172SOL    HW229979   2.083   4.085   9.598  0.2760  0.7626  3.2715
 6173SOL     OW29980   0.776   0.659   4.293  0.2257 -0.0581  0.2314
 6173SOL    HW129981   0.700   0.609   4.263  1.7181 -0.4721 -2.8698
 6173SOL    HW229982   0.840   0.592   4.317 -1.8281 -1.3043  2.1371
 6174SOL     OW29983   2.001   2.554   9.262  0.2211  0.3591  0.1308
 6174SOL    HW129984   1.992   2.461   9.240 -1.1476  0.1119  1.7980
 6174SOL    HW229985   2.036   2.590   9.180 -2.9242  2.1944 -0.4208
 6175SOL     OW29986   1.792   4.667   0.384 -0.2849 -0.0979  0.7919
 6175SOL    HW129987   1.869   4.648   0.329 -0.1779 -1.6034  1.4650
 6175SOL    HW229988   1.790   0.040   0.377 -1.7483 -0.2564 -0.9862
 6176SOL     OW29989   2.834   3.355   0.358  0.4613 -0.0946  0.6975
 6176SOL    HW129990   2.796   3.427   0.308 -2.4296 -0.6974  1.9726
 6176SOL    HW229991   2.882   3.311   0.288  1.7791  2.9248 -0.2871
 6177SOL     OW29992   4.676   2.703  16.222 -0.1392  0.5700 -0.4096
 6177SOL    HW129993   4.648   2.612  16.213  0.0953  0.5745 -1.2738
 6177SOL    HW229994   4.709   2.716  16.133  0.1772  0.3620 -0.3198
 6178SOL     OW29995   2.804   4.206   4.254  0.3141  0.0313 -0.4845
 6178SOL    HW129996   2.757   4.275   4.302 -0.2071 -0.1285 -0.7619
 6178SOL    HW229997   2.892   4.243   4.254 -0.3767  1.7112  2.1661
 6179SOL     OW29998   1.939   4.309  10.266  0.8381  0.0149  0.2159
 6179SOL    HW129999   1.875   4.250  10.305  0.4802 -1.0634 -1.9567
 6179SOL    HW230000   2.015   4.302  10.323  0.1987 -0.9499  0.9458
 6180SOL     OW30001   0.127   1.897  12.767 -0.2760  0.2263 -0.2188
 6180SOL    HW130002   0.068   1.929  12.835 -0.2921 -2.5137  1.0676
 6180SOL    HW230003   0.071   1.897  12.689  2.3808  0.0040 -2.1496
 6181SOL     OW30004   2.686   3.627   6.834  0.0396 -0.3316  0.3186
 6181SOL    HW130005   2.682   3.621   6.739 -2.7561  0.8320  0.3890
 6181SOL    HW230006   2.599   3.636   6.872  1.4972  0.8248  3.3467
 6182SOL     OW30007   4.608   2.029  15.992 -0.1168  0.4145  0.1283
 6182SOL    HW130008   4.570   1.997  16.074  0.4122 -0.3058  0.0979
 6182SOL    HW230009   4.534   2.068  15.947 -2.1465 -2.5153  0.9472
 6183SOL     OW30010   1.810   1.538   7.172 -0.3503  0.4207 -0.1411
 6183SOL    HW130011   1.748   1.469   7.193  2.8146 -2.6239 -0.9379
 6183SOL    HW230012   1.877   1.482   7.133  1.1759  0.0416  3.0671
 6184SOL     OW30013   0.506   2.374  16.876 -0.3656  0.0727  0.1162
 6184SOL    HW130014   0.464   2.396  16.793  1.8085  1.6582 -0.5664
 6184SOL    HW230015   0.599   2.373  16.852 -0.2888 -1.5519  0.4626
 6185SOL     OW30016   2.175   0.231   4.810  0.2710  0.4159 -0.1119
 6185SOL    HW130017   2.088   0.236   4.848  0.3293  1.4724 -0.1283
 6185SOL    HW230018   2.225   0.311   4.822  2.3381 -0.5842 -1.9276
 6186SOL     OW30019   1.923   4.322   3.704  0.1226 -0.4440 -0.1631
 6186SOL    HW130020   1.876   4.296   3.624  0.6495  0.1942 -0.6710
 6186SOL    HW230021   1.928   4.239   3.752  1.1746 -0.9071 -1.0724
 6187SOL     OW30022   4.225   0.541   9.395 -0.1496  0.4718  0.0927
 6187SOL    HW130023   4.201   0.624   9.437 -3.4708 -1.2453  1.6394
 6187SOL    HW230024   4.139   0.507   9.370  0.1238 -2.2333  2.8704
 6188SOL     OW30025   3.002   2.299   4.993 -0.4640 -0.1159  0.1789
 6188SOL    HW130026   2.945   2.349   4.935  0.7332  0.1671 -0.7349
 6188SOL    HW230027   2.932   2.268   5.052  0.0581  1.0392  1.4066
 6189SOL     OW30028   0.116   4.359   6.977 -0.5350 -0.3656 -0.6185
 6189SOL    HW130029   0.045   4.350   7.040 -1.0068 -2.1675 -1.4060
 6189SOL    HW230030   0.124   4.274   6.934 -1.2162 -0.1287 -1.2250
 6190SOL     OW30031   2.525   3.916   6.609 -0.1352  0.3177  1.3881
 6190SOL    HW130032   2.535   3.977   6.681  1.1880 -0.0350  1.5037
 6190SOL    HW230033   2.431   3.901   6.598 -0.1403  0.2863  1.4716
 6191SOL     OW30034   1.598   2.103   1.193 -0.6120 -0.4817  0.3298
 6191SOL    HW130035   1.671   2.042   1.204  0.6262  1.1912  1.2643
 6191SOL    HW230036   1.638   2.188   1.211  0.6040 -0.9013 -0.4105
 6192SOL     OW30037   4.113   3.316   3.607  0.2068  0.3559 -0.2919
 6192SOL    HW130038   4.155   3.394   3.572 -0.0297  0.0794 -1.1973
 6192SOL    HW230039   4.081   3.348   3.691  0.6185 -1.3241  0.5208
 6193SOL     OW30040   2.378   3.582   3.243  0.6116 -0.7060 -0.5586
 6193SOL    HW130041   2.463   3.624   3.228  0.4496  0.1928  0.9977
 6193SOL    HW230042   2.343   3.642   3.309  3.1712 -0.1067  0.2339
 6194SOL     OW30043   2.584   1.523  16.496  0.1223  0.1012 -0.2827
 6194SOL    HW130044   2.674   1.502  16.521 -0.2987 -0.3677  0.8156
 6194SOL    HW230045   2.579   1.456  16.428 -1.9761  0.0241 -0.0567
 6195SOL     OW30046   3.224   2.326   4.585  0.2475 -0.0267  0.3564
 6195SOL    HW130047   3.250   2.237   4.559 -0.4892  0.0776 -0.7301
 6195SOL    HW230048   3.314   2.353   4.602  0.7056 -0.7143 -0.9542
 6196SOL     OW30049   3.920   2.664   7.088  0.3540  0.0879 -0.2185
 6196SOL    HW130050   3.941   2.661   7.182 -2.7008 -2.2068  0.4129
 6196SOL    HW230051   4.005   2.652   7.046  0.6321 -2.0683  0.9382
 6197SOL     OW30052   2.003   4.103  10.472 -0.2226  0.3220  0.2781
 6197SOL    HW130053   1.925   4.047  10.461  0.6152 -0.1828 -3.1224
 6197SOL    HW230054   2.080   4.046  10.463 -0.1883  0.4348 -0.1574
 6198SOL     OW30055   3.664   0.563   0.495 -0.3209 -0.1737  0.1576
 6198SOL    HW130056   3.632   0.590   0.581 -1.3259 -1.3963  0.1593
 6198SOL    HW230057   3.651   0.647   0.451  0.5301 -0.3703 -0.4772
 6199SOL     OW30058   3.284   1.894  11.351 -0.2641  0.0122  0.0394
 6199SOL    HW130059   3.377   1.910  11.365 -0.4843 -1.8909  3.5068
 6199SOL    HW230060   3.250   1.826  11.409 -0.8829 -1.5464 -2.1486
 6200SOL     OW30061   2.362   0.308   8.569 -0.6709 -0.0323 -0.6998
 6200SOL    HW130062   2.395   0.221   8.545  0.5166  0.4827 -0.9447
 6200SOL    HW230063   2.286   0.281   8.619 -1.9197  1.0913 -1.9605
 6201SOL     OW30064   0.864   2.927   6.297  0.3457 -0.5240 -0.0790
 6201SOL    HW130065   0.876   2.838   6.265 -1.7767 -1.2994  1.2434
 6201SOL    HW230066   0.916   2.987   6.244 -1.3159  0.7863 -0.2455
 6202SOL     OW30067   3.485   0.268   8.728  0.5145  0.3387  0.1976
 6202SOL    HW130068   3.454   0.346   8.775 -0.3136  0.4845 -0.6009
 6202SOL    HW230069   3.523   0.309   8.651  1.5038 -0.8641  0.0462
 6203SOL     OW30070   2.678   1.706   7.337 -0.3707 -0.6620  0.6666
 6203SOL    HW130071   2.676   1.683   7.244  1.5101 -0.1624  0.5047
 6203SOL    HW230072   2.651   1.625   7.381 -0.5123 -0.8416  0.2426
 6204SOL     OW30073   3.201   1.427  16.416  0.6991 -0.1776 -0.0111
 6204SOL    HW130074   3.230   1.349  16.369 -0.9939 -1.0565  0.4149
 6204SOL    HW230075   3.128   1.457  16.361  1.3479  1.8817  0.2551
 6205SOL     OW30076   4.156   3.266  11.595 -0.6288  0.3977  0.2854
 6205SOL    HW130077   4.246   3.266  11.628 -0.3739  0.1638 -0.4029
 6205SOL    HW230078   4.163   3.321  11.517 -0.6132  1.0390  0.7401
 6206SOL     OW30079   0.247   2.691   7.164 -0.3035 -0.6682  0.4670
 6206SOL    HW130080   0.216   2.644   7.087 -2.4716  0.0663  0.9043
 6206SOL    HW230081   0.304   2.754   7.120 -0.9498 -0.7689 -0.5128
 6207SOL     OW30082   1.363   3.018   8.258  0.5152 -0.0666 -0.3382
 6207SOL    HW130083   1.445   3.040   8.303 -0.2041 -2.1849  2.0082
 6207SOL    HW230084   1.301   3.084   8.288 -1.0132 -2.2902  1.4415
 6208SOL     OW30085   1.373   0.961  13.183 -0.6675  0.1427 -0.3046
 6208SOL    HW130086   1.284   0.936  13.207 -1.0725  1.1243 -0.8033
 6208SOL    HW230087   1.368   1.053  13.158  1.0484 -0.0198 -1.2429
 6209SOL     OW30088   3.205   1.833   5.397 -0.1302  0.1325  0.4011
 6209SOL    HW130089   3.210   1.872   5.484  1.1333 -0.6517  0.6720
 6209SOL    HW230090   3.170   1.746   5.414 -0.8177  0.5355  1.0459
 6210SOL     OW30091   2.702   0.899   7.931  0.0330 -0.1120  0.6157
 6210SOL    HW130092   2.652   0.819   7.949  1.4335 -1.4445 -1.3266
 6210SOL    HW230093   2.637   0.946   7.880 -0.0506  0.0294  0.8545
 6211SOL     OW30094   0.031   2.561   2.276  0.2923 -0.0357  0.4175
 6211SOL    HW130095   0.061   2.635   2.329 -0.5465  1.6269 -1.4282
 6211SOL    HW230096   0.010   2.597   2.189  2.7927  2.7461  0.9406
 6212SOL     OW30097   1.737   3.466   9.338 -0.3407 -0.1557 -0.4980
 6212SOL    HW130098   1.811   3.414   9.309  0.1721 -0.8159  2.0181
 6212SOL    HW230099   1.680   3.394   9.365 -1.5177  0.9602  0.0241
 6213SOL     OW30100   0.015   1.190   7.194 -0.6801  0.5811 -0.6400
 6213SOL    HW130101   4.691   1.107   7.207  2.5830 -0.7403  2.3298
 6213SOL    HW230102   4.671   1.259   7.186 -2.8211 -1.3430  0.6768
 6214SOL     OW30103   1.328   1.105   1.624  0.2786  0.4708  0.5569
 6214SOL    HW130104   1.318   1.200   1.621 -1.0896  0.3440  1.1799
 6214SOL    HW230105   1.258   1.084   1.563  1.5721  0.3558 -0.8908
 6215SOL     OW30106   3.781   0.405   7.357 -0.1598  0.0321 -0.0081
 6215SOL    HW130107   3.723   0.336   7.323  1.3380 -1.5853  0.7708
 6215SOL    HW230108   3.834   0.348   7.412 -0.4403 -0.8620 -0.6559
 6216SOL     OW30109   0.151   4.019  15.420 -0.0908  0.2732  0.4347
 6216SOL    HW130110   0.073   4.045  15.372 -1.8514  2.3184  4.3713
 6216SOL    HW230111   0.188   3.956  15.358 -0.4963 -0.6817  1.1428
 6217SOL     OW30112   0.452   3.393   9.632 -0.2480  0.0227 -0.7162
 6217SOL    HW130113   0.493   3.321   9.680  1.6900  1.7945  0.2624
 6217SOL    HW230114   0.377   3.353   9.588 -1.1266 -2.2302  2.7565
 6218SOL     OW30115   4.241   0.030   8.341  0.2934 -0.7608  0.4630
 6218SOL    HW130116   4.195   4.700   8.275 -2.0270  1.9495 -0.0480
 6218SOL    HW230117   4.176   0.097   8.361 -0.8178 -0.6091 -3.7400
 6219SOL     OW30118   1.983   2.384   7.167  0.1993 -0.0214 -0.2929
 6219SOL    HW130119   2.054   2.338   7.121  1.5818  2.6268 -0.8153
 6219SOL    HW230120   2.052   2.425   7.219 -1.1642  0.7992  0.8358
 6220SOL     OW30121   0.484   4.113  17.678 -0.1433  0.6326 -0.5490
 6220SOL    HW130122   0.400   4.093   0.027 -0.5475  2.5991 -0.4303
 6220SOL    HW230123   0.507   4.047  17.612  0.8504 -2.0097  2.4263
 6221SOL     OW30124   2.456   0.130   7.878 -0.1973 -0.0097 -0.5109
 6221SOL    HW130125   2.449   0.097   7.788  0.7719  1.1274 -0.9956
 6221SOL    HW230126   2.478   0.050   7.926  0.6607  0.4534 -0.1372
 6222SOL     OW30127   4.360   1.312   6.016  0.0697  0.9425  0.0447
 6222SOL    HW130128   4.288   1.307   5.953  2.1124 -2.9554 -2.0232
 6222SOL    HW230129   4.387   1.220   6.007 -0.0543  0.5686  3.4967
 6223SOL     OW30130   1.599   3.337   8.657 -0.3026 -0.7254  0.3348
 6223SOL    HW130131   1.626   3.366   8.570  1.5708 -1.0900  0.7910
 6223SOL    HW230132   1.675   3.374   8.702 -0.6974  1.1407 -0.5524
 6224SOL     OW30133   1.658   2.037   7.844 -0.4560  0.0395  0.7866
 6224SOL    HW130134   1.737   2.091   7.837  0.0173 -0.4436  2.3995
 6224SOL    HW230135   1.687   1.976   7.911 -0.5634 -0.8819 -0.0072
 6225SOL     OW30136   1.976   0.180   5.372  0.0260 -0.0621  0.5217
 6225SOL    HW130137   2.037   0.176   5.446  0.3400  1.3540  0.3300
 6225SOL    HW230138   2.035   0.221   5.310 -0.5927  0.4408  0.2676
 6226SOL     OW30139   2.331   1.856   3.399  0.6860 -0.2197 -0.5424
 6226SOL    HW130140   2.296   1.915   3.332  0.1935  1.5236  1.2640
 6226SOL    HW230141   2.385   1.797   3.346  1.0049  0.3574 -0.8682
 6227SOL     OW30142   0.564   0.416   6.004 -0.6376 -0.1684 -0.7455
 6227SOL    HW130143   0.529   0.390   6.089 -1.2652 -0.6196 -1.1369
 6227SOL    HW230144   0.648   0.369   6.006 -0.5524 -0.0536 -1.6421
 6228SOL     OW30145   0.261   3.233   3.976 -0.3332  0.0486 -0.0743
 6228SOL    HW130146   0.188   3.273   3.929  0.5043 -1.1784 -2.4183
 6228SOL    HW230147   0.276   3.158   3.918  0.2440  0.0511  0.0730
 6229SOL     OW30148   4.598   1.608   7.290 -0.7515 -0.5071 -0.0694
 6229SOL    HW130149   4.688   1.578   7.279 -0.3100  2.0172 -3.3113
 6229SOL    HW230150   4.599   1.683   7.349 -0.3306  0.3196 -1.1481
 6230SOL     OW30151   1.766   2.656  15.844  0.2665  0.3978  0.8422
 6230SOL    HW130152   1.720   2.636  15.925 -1.1056  1.8103  0.4241
 6230SOL    HW230153   1.702   2.714  15.804 -0.7634 -0.7347  0.8486
 6231SOL     OW30154   4.026   0.834  13.365  0.2235  0.1090  0.4401
 6231SOL    HW130155   4.122   0.834  13.370  0.2234 -1.6167  0.3395
 6231SOL    HW230156   4.015   0.923  13.399  1.2592  0.4653 -0.1245
 6232SOL     OW30157   3.082   1.067   7.007 -0.3259 -0.3616  0.0062
 6232SOL    HW130158   3.055   1.116   7.084 -2.9376  0.5761 -1.5091
 6232SOL    HW230159   3.177   1.073   7.015 -0.2740 -1.5481  0.2754
 6233SOL     OW30160   3.805   3.498   5.838  0.5509 -1.0114  0.3588
 6233SOL    HW130161   3.796   3.503   5.743  1.6769 -0.1517  0.2984
 6233SOL    HW230162   3.858   3.577   5.847 -1.0776 -0.2088  3.0923
 6234SOL     OW30163   2.933   2.006  13.936  0.3382 -0.3893 -0.0088
 6234SOL    HW130164   2.838   2.007  13.934  0.3648  2.3674  0.3271
 6234SOL    HW230165   2.952   2.098  13.920  0.7499 -0.2438  1.3254
 6235SOL     OW30166   1.515   4.488   4.238  0.0001 -0.3461  0.0732
 6235SOL    HW130167   1.604   4.462   4.261  0.7067  1.2980 -0.8320
 6235SOL    HW230168   1.464   4.421   4.285  1.7843 -2.9600 -1.6866
 6236SOL     OW30169   4.267   3.613  15.778 -0.5282 -0.0823  0.0942
 6236SOL    HW130170   4.252   3.700  15.816 -2.6828 -0.5897  0.4404
 6236SOL    HW230171   4.212   3.563  15.839  1.7148 -1.5015  0.9645
 6237SOL     OW30172   1.209   1.896  11.762 -0.3069 -0.4697 -0.4203
 6237SOL    HW130173   1.203   1.966  11.827 -0.3671 -1.3653  0.5438
 6237SOL    HW230174   1.160   1.935  11.690 -2.1970 -2.5832 -0.2868
 6238SOL     OW30175   0.789   0.683   3.932  0.1220  0.4826 -0.4301
 6238SOL    HW130176   0.729   0.609   3.938 -2.1769  2.6910  4.4064
 6238SOL    HW230177   0.757   0.739   4.003  1.0712  0.9437 -0.3583
 6239SOL     OW30178   3.890   1.695  17.114 -0.2933 -0.1740  0.0819
 6239SOL    HW130179   3.889   1.607  17.152 -0.7167 -1.0348 -1.9172
 6239SOL    HW230180   3.823   1.690  17.046  1.1648 -0.0342 -1.3741
 6240SOL     OW30181   2.834   0.047   6.363 -0.1790  0.8512 -0.4735
 6240SOL    HW130182   2.794   0.011   6.442  1.8447 -0.1390  0.0921
 6240SOL    HW230183   2.897   0.103   6.408  1.1444 -0.4632 -0.6646
 6241SOL     OW30184   3.546   4.199   4.426  0.2725  0.0805  0.3338
 6241SOL    HW130185   3.474   4.244   4.383 -0.7998 -0.3921  1.6345
 6241SOL    HW230186   3.568   4.261   4.495  2.1034 -0.2520  0.0479
 6242SOL     OW30187   2.426   2.228   3.430 -0.1313 -0.1479  0.4577
 6242SOL    HW130188   2.354   2.204   3.489 -1.0536  0.8271 -0.2693
 6242SOL    HW230189   2.400   2.208   3.340  0.5648 -0.4793  0.3280
 6243SOL     OW30190   4.530   0.761   7.680  0.3856  0.4004 -0.3524
 6243SOL    HW130191   4.546   0.760   7.775  0.8974 -0.0810 -0.4473
 6243SOL    HW230192   4.449   0.711   7.681  0.5431  0.1535  1.5379
 6244SOL     OW30193   1.929   4.017   6.738  0.0003 -0.1335 -0.4588
 6244SOL    HW130194   1.876   4.003   6.817 -1.6475 -1.1549 -1.7301
 6244SOL    HW230195   1.877   4.087   6.698  0.0423  1.4121  2.1991
 6245SOL     OW30196   3.731   3.211   3.810 -0.4174 -0.3473  0.4028
 6245SOL    HW130197   3.682   3.252   3.881 -2.6966 -0.1835 -1.2602
 6245SOL    HW230198   3.662   3.156   3.772 -0.3705 -0.5229  0.5735
 6246SOL     OW30199   3.809   4.046   9.844  0.2256 -0.1113  0.4351
 6246SOL    HW130200   3.824   4.138   9.865  1.2592  0.4618 -2.6973
 6246SOL    HW230201   3.818   4.044   9.748 -0.6319  1.2511  0.3367
 6247SOL     OW30202   4.295   0.442   7.855  0.0417  0.4012  0.4479
 6247SOL    HW130203   4.368   0.496   7.884  2.4704 -1.3349 -2.4418
 6247SOL    HW230204   4.282   0.376   7.924  1.4391 -1.4362 -1.0392
 6248SOL     OW30205   2.333   0.869   5.379  0.1988 -0.5139  0.0581
 6248SOL    HW130206   2.348   0.811   5.454  1.8409  1.9007  1.6059
 6248SOL    HW230207   2.413   0.923   5.376 -0.5292  0.4694 -1.6027
 6249SOL     OW30208   0.934   2.412   1.757 -0.3033  0.1902  0.5868
 6249SOL    HW130209   0.986   2.487   1.727 -1.9720  1.7638  1.5973
 6249SOL    HW230210   0.992   2.366   1.818  0.9814  2.3631  1.0400
 6250SOL     OW30211   1.703   3.079   3.458 -0.1963  0.6086 -0.1892
 6250SOL    HW130212   1.775   3.142   3.458 -0.7421  1.2371  0.2585
 6250SOL    HW230213   1.643   3.132   3.405  1.1323  0.8865 -1.4013
 6251SOL     OW30214   3.061   3.528   5.385  0.0391  0.1089 -0.1576
 6251SOL    HW130215   3.076   3.436   5.405  1.5040 -0.0021 -1.7837
 6251SOL    HW230216   3.150   3.563   5.393  0.0544  0.1254 -0.4139
 6252SOL     OW30217   2.357   2.722   2.612  0.1022 -0.4016 -0.4804
 6252SOL    HW130218   2.391   2.671   2.686 -0.6363 -0.5138 -0.2147
 6252SOL    HW230219   2.266   2.692   2.611 -0.3677  1.0351  0.2598
 6253SOL     OW30220   0.891   1.745   5.612 -0.0646  0.0277 -0.2077
 6253SOL    HW130221   0.882   1.838   5.632 -1.7171 -0.9325  3.4417
 6253SOL    HW230222   0.852   1.707   5.691 -1.7212 -0.2395 -1.1416
 6254SOL     OW30223   2.090   2.144   1.537 -0.0722 -0.2747 -0.2486
 6254SOL    HW130224   2.070   2.228   1.579  1.6184  1.3893 -2.7543
 6254SOL    HW230225   2.161   2.128   1.598 -0.2779  1.2808  0.4171
 6255SOL     OW30226   1.618   0.400   6.095  0.1298  0.1584 -0.3859
 6255SOL    HW130227   1.566   0.386   6.016 -2.1880 -3.9376  1.8943
 6255SOL    HW230228   1.590   0.342   6.166  1.1969 -1.2438 -1.1030
 6256SOL     OW30229   1.163   3.956   5.800  0.0407 -0.2105 -0.0891
 6256SOL    HW130230   1.096   3.992   5.858 -2.9301 -3.5484 -1.4532
 6256SOL    HW230231   1.122   3.989   5.720 -2.4902 -0.1378  1.2428
 6257SOL     OW30232   1.653   4.630   2.695 -0.0744 -0.0616  0.1613
 6257SOL    HW130233   1.580   4.569   2.706  0.3316 -0.8261 -1.3731
 6257SOL    HW230234   1.672   4.654   2.786  1.6280  1.8102 -0.6746
 6258SOL     OW30235   0.703   1.718   3.675  0.3950 -0.1192 -0.6724
 6258SOL    HW130236   0.704   1.721   3.770  0.4717  0.6716 -0.6972
 6258SOL    HW230237   0.713   1.624   3.659  1.6529  0.1676 -1.5818
 6259SOL     OW30238   0.283   3.768  10.540  0.3289 -0.6464 -0.0825
 6259SOL    HW130239   0.202   3.808  10.574  1.9644  0.1453  2.8304
 6259SOL    HW230240   0.252   3.682  10.512 -0.9627 -0.9874  2.3890
 6260SOL     OW30241   4.639   3.542   8.753  0.9839  0.1500 -0.5183
 6260SOL    HW130242   4.674   3.486   8.685 -0.8770 -0.6992 -0.7728
 6260SOL    HW230243   4.713   3.586   8.795  0.5862  0.6576 -0.3278
 6261SOL     OW30244   2.767   1.166   9.595 -0.2715  0.2682 -0.2194
 6261SOL    HW130245   2.849   1.200   9.631 -0.4037 -0.6806  0.9701
 6261SOL    HW230246   2.743   1.098   9.658 -1.9099 -0.4617 -1.5885
 6262SOL     OW30247   4.258   2.256  16.717  0.1431 -0.3784  0.0814
 6262SOL    HW130248   4.221   2.190  16.658 -3.0744  1.6327 -0.1080
 6262SOL    HW230249   4.323   2.195  16.752  0.9288 -0.0469 -0.7765
 6263SOL     OW30250   0.794   1.458   2.007 -0.4603  0.1093  0.4118
 6263SOL    HW130251   0.700   1.441   2.013 -0.3198 -0.5471  0.7780
 6263SOL    HW230252   0.831   1.370   1.998 -0.6218  0.3769 -2.7858
 6264SOL     OW30253   3.894   4.338   1.168 -0.3976 -0.6518 -0.3015
 6264SOL    HW130254   3.841   4.417   1.173  0.3692 -0.2806  1.8021
 6264SOL    HW230255   3.946   4.351   1.247 -0.4584  2.9244 -0.8732
 6265SOL     OW30256   2.242   4.694   1.871 -0.4765 -0.4614  0.5237
 6265SOL    HW130257   2.312   0.019   1.827  0.2188 -0.9760  1.0703
 6265SOL    HW230258   2.174   4.689   1.804 -0.9596 -1.3098  1.0736
 6266SOL     OW30259   1.386   1.201   2.964  0.0848 -0.0081  0.3302
 6266SOL    HW130260   1.473   1.189   3.004 -0.4484 -0.0984  1.4869
 6266SOL    HW230261   1.346   1.271   3.015 -0.2571  0.7495 -0.9931
 6267SOL     OW30262   3.032   3.825   7.339 -0.1670 -0.0530  0.0371
 6267SOL    HW130263   2.938   3.824   7.357 -0.4824  0.8717 -1.5833
 6267SOL    HW230264   3.071   3.882   7.404 -0.0587  2.1844 -1.9637
 6268SOL     OW30265   3.622   1.373  13.363  0.4905 -0.3993  0.5224
 6268SOL    HW130266   3.527   1.382  13.361  0.5892  0.3329 -0.9978
 6268SOL    HW230267   3.623   1.284  13.398  0.1433 -0.5318  0.1989
 6269SOL     OW30268   1.937   0.408   9.187  0.3461 -0.3869 -0.0421
 6269SOL    HW130269   1.873   0.349   9.146 -2.1935  0.8875  2.0690
 6269SOL    HW230270   1.875   0.450   9.246  3.3805  2.4426  1.1129
 6270SOL     OW30271   4.182   3.519   5.651 -0.1042 -0.2651 -0.5626
 6270SOL    HW130272   4.163   3.461   5.577  3.3764  2.5972 -3.7509
 6270SOL    HW230273   4.184   3.609   5.618  2.2727 -0.2719 -0.4792
 6271SOL     OW30274   2.118   4.601   8.306  0.4766  0.4597 -0.1442
 6271SOL    HW130275   2.061   4.672   8.336 -2.3610 -1.5745 -0.7255
 6271SOL    HW230276   2.180   4.602   8.379 -0.7759  0.7720  0.9064
 6272SOL     OW30277   0.466   0.497  10.640  0.6297  0.0558  0.1821
 6272SOL    HW130278   0.447   0.502  10.546 -2.5353 -0.1409  0.8019
 6272SOL    HW230279   0.427   0.411  10.658  0.1226  0.4800  1.0638
 6273SOL     OW30280   3.522   0.545   7.156  0.7622 -0.3850 -0.0345
 6273SOL    HW130281   3.517   0.612   7.224 -1.9771  0.2856 -0.9034
 6273SOL    HW230282   3.436   0.505   7.168  0.6632 -0.5645 -1.2972
 6274SOL     OW30283   0.220   2.224   7.221 -0.9157  0.5003  0.1724
 6274SOL    HW130284   0.267   2.305   7.238  0.3657  0.0319 -1.0985
 6274SOL    HW230285   0.192   2.239   7.130 -0.2683  1.5238  0.1417
 6275SOL     OW30286   3.993   1.602   2.594 -0.1844 -0.5183 -0.4468
 6275SOL    HW130287   3.913   1.607   2.541  1.0769 -2.1967 -2.5063
 6275SOL    HW230288   3.962   1.549   2.668  1.9313 -0.8017  0.2175
 6276SOL     OW30289   4.662   0.275   8.267  0.1919  0.3851 -0.0203
 6276SOL    HW130290   4.639   0.250   8.356 -2.8893 -0.6695 -1.1265
 6276SOL    HW230291   0.033   0.258   8.277 -0.1189 -1.6167 -0.6059
 6277SOL     OW30292   1.101   4.319  15.913 -0.6949  0.3977 -0.0876
 6277SOL    HW130293   1.135   4.256  15.977  1.9960  1.8351 -0.1389
 6277SOL    HW230294   1.007   4.322  15.934 -0.9951 -2.1351 -1.0446
 6278SOL     OW30295   2.452   3.872   7.744 -1.4596  0.8751  0.2761
 6278SOL    HW130296   2.519   3.935   7.717  0.0840 -0.9668 -0.2211
 6278SOL    HW230297   2.418   3.911   7.825 -0.1308 -0.0861  1.2986
 6279SOL     OW30298   0.960   3.626  16.600 -0.7756  0.1660  0.2567
 6279SOL    HW130299   1.006   3.557  16.551 -0.1478  1.5101 -1.0490
 6279SOL    HW230300   0.882   3.635  16.544 -0.9591  0.2001  0.5203
 6280SOL     OW30301   0.442   1.504   3.924 -0.5687 -0.4937 -0.3465
 6280SOL    HW130302   0.351   1.530   3.915 -0.4171  0.4092  0.7672
 6280SOL    HW230303   0.450   1.441   3.852  1.7172  1.5785 -1.9212
 6281SOL     OW30304   4.135   4.211  17.655 -0.2508  0.8237 -0.0855
 6281SOL    HW130305   4.086   4.135  17.688 -0.6395  1.2604  0.3540
 6281SOL    HW230306   4.221   4.169  17.652 -0.1753  1.1654 -2.3732
 6282SOL     OW30307   0.793   1.705   4.250  0.0467  0.4153  0.1507
 6282SOL    HW130308   0.798   1.788   4.297  1.8345  1.5842 -2.1266
 6282SOL    HW230309   0.752   1.730   4.167  2.3233  0.7030 -0.8674
 6283SOL     OW30310   0.862   1.867   8.707 -0.5199  0.2886 -0.3193
 6283SOL    HW130311   0.876   1.959   8.731  3.0862  0.2996 -2.6017
 6283SOL    HW230312   0.803   1.830   8.773  0.1323 -0.0991  0.0504
 6284SOL     OW30313   3.205   4.493   9.229  0.4384 -0.1039 -0.3245
 6284SOL    HW130314   3.172   4.448   9.151 -2.1956 -0.6011  1.0703
 6284SOL    HW230315   3.199   4.586   9.207  2.6594  0.3296  0.9317
 6285SOL     OW30316   0.616   4.630   1.032  0.1982 -0.4398 -0.0492
 6285SOL    HW130317   0.551   4.564   1.058 -1.3045  0.9291 -0.3550
 6285SOL    HW230318   0.555   4.695   0.998  0.6611  0.1060  0.1740
 6286SOL     OW30319   3.417   0.138  17.628 -0.9111 -0.0978  0.1075
 6286SOL    HW130320   3.512   0.142  17.625 -0.8046 -3.6848 -1.3142
 6286SOL    HW230321   3.405   0.050  17.663  0.8812 -0.0515  0.8476
 6287SOL     OW30322   1.213   3.419   8.104 -0.2938  0.3504  0.1596
 6287SOL    HW130323   1.191   3.467   8.024  0.8625 -2.4139 -1.7873
 6287SOL    HW230324   1.297   3.375   8.093 -0.8296 -0.6803  0.2268
 6288SOL     OW30325   2.208   3.931   8.892  0.0179 -0.0282 -0.3750
 6288SOL    HW130326   2.192   4.002   8.830  0.2681  1.7539  1.6090
 6288SOL    HW230327   2.205   3.976   8.977  3.9433  2.4247 -1.5523
 6289SOL     OW30328   0.787   3.151   6.516 -0.2190 -0.2963 -0.1039
 6289SOL    HW130329   0.860   3.093   6.496  0.4831  0.9221 -1.1104
 6289SOL    HW230330   0.823   3.169   6.603  0.3112  1.6631 -0.7178
 6290SOL     OW30331   0.575   0.271   9.343  0.1309 -0.1406  0.2230
 6290SOL    HW130332   0.577   0.301   9.252 -1.8563 -0.6102  0.0193
 6290SOL    HW230333   0.577   0.352   9.393 -1.2498  1.2033 -1.8809
 6291SOL     OW30334   4.084   3.773  14.415 -0.4778 -0.1772  0.0874
 6291SOL    HW130335   4.032   3.706  14.371 -2.3969  0.3439  1.5471
 6291SOL    HW230336   4.161   3.763  14.358  0.0480 -0.2324  0.8029
 6292SOL     OW30337   0.384   3.348   4.188  0.6386 -0.2152  0.2196
 6292SOL    HW130338   0.339   3.319   4.109  0.8360 -0.9638  0.3785
 6292SOL    HW230339   0.460   3.290   4.196  2.7618  2.5467 -0.0989
 6293SOL     OW30340   2.610   3.505  14.844 -0.2242  0.1451  0.1453
 6293SOL    HW130341   2.626   3.579  14.902  0.1164 -0.4961  0.8731
 6293SOL    HW230342   2.579   3.559  14.772  2.2728  0.4953 -0.6416
 6294SOL     OW30343   4.384   1.846   2.660  0.2375 -0.2168 -0.0576
 6294SOL    HW130344   4.453   1.901   2.622 -0.1379 -0.8631 -1.6704
 6294SOL    HW230345   4.308   1.854   2.603  0.1025  0.1040  0.1643
 6295SOL     OW30346   3.185   3.549  16.520  0.0187  0.3754  0.0088
 6295SOL    HW130347   3.168   3.545  16.426  2.5694  1.8726 -0.5034
 6295SOL    HW230348   3.103   3.577  16.560 -1.3231 -2.7022 -0.5837
 6296SOL     OW30349   1.701   4.693  16.670  0.5515  0.1097 -0.1959
 6296SOL    HW130350   1.744   0.054  16.693  1.5739 -0.7839  1.0779
 6296SOL    HW230351   1.764   4.626  16.698 -0.0195 -0.2998  0.0920
 6297SOL     OW30352   0.256   3.596   6.942 -0.6833  0.7062  0.1927
 6297SOL    HW130353   0.257   3.617   7.035  0.1617  0.1772  0.2999
 6297SOL    HW230354   0.295   3.673   6.900 -1.8305  1.0871 -0.1796
 6298SOL     OW30355   3.824   3.739   4.660  0.0289 -0.0232 -0.1893
 6298SOL    HW130356   3.762   3.670   4.638  2.1504 -1.5246 -1.5279
 6298SOL    HW230357   3.779   3.818   4.630 -1.0736 -0.4276  0.4191
 6299SOL     OW30358   4.373   2.617   8.329 -0.6952 -0.6814  0.5675
 6299SOL    HW130359   4.392   2.564   8.251  0.7748 -0.4521  0.7848
 6299SOL    HW230360   4.305   2.678   8.299  0.1909 -0.4917 -1.0159
 6300SOL     OW30361   3.910   0.279  14.717  0.1115  0.0828  0.0725
 6300SOL    HW130362   3.851   0.313  14.785 -0.4992 -0.8868  0.0186
 6300SOL    HW230363   3.866   0.196  14.702  0.4466 -0.6263  3.1231
 6301SOL     OW30364   4.536   2.428   7.751 -0.1803  0.2126 -0.5563
 6301SOL    HW130365   4.568   2.477   7.675  1.4367  0.5326  0.3259
 6301SOL    HW230366   4.516   2.341   7.718 -2.0545  0.8979 -1.2354
 6302SOL     OW30367   4.583   1.996  17.343 -0.0371  0.0842  0.2228
 6302SOL    HW130368   4.573   1.901  17.355 -0.6720  0.2020  0.6186
 6302SOL    HW230369   4.497   2.026  17.372  0.4037  0.4018  1.1902
 6303SOL     OW30370   1.968   3.468   8.039  0.5966 -0.3981 -0.4721
 6303SOL    HW130371   1.967   3.390   8.094  1.7334 -0.7142 -0.8951
 6303SOL    HW230372   2.052   3.504   8.068 -0.4730  2.3883 -0.8146
 6304SOL     OW30373   0.030   0.408  15.155  0.4939 -0.2638 -0.7059
 6304SOL    HW130374   4.702   0.366  15.085 -2.0109  1.4009  0.0900
 6304SOL    HW230375   0.030   0.503  15.145 -0.7214 -0.2710 -0.7657
 6305SOL     OW30376   2.345   0.721   5.611  0.9058 -0.2563  0.2635
 6305SOL    HW130377   2.302   0.635   5.608 -2.5347  1.5500 -3.4162
 6305SOL    HW230378   2.332   0.735   5.704 -0.0459  0.8920 -0.0383
 6306SOL     OW30379   2.090   1.081  13.273 -0.3343 -0.0113  0.0968
 6306SOL    HW130380   2.109   1.059  13.182  0.4015 -0.7502  0.4344
 6306SOL    HW230381   2.086   1.001  13.326 -0.4967  0.4923  0.8446
 6307SOL     OW30382   0.625   1.449   2.966  0.6204  0.1291  0.1222
 6307SOL    HW130383   0.668   1.518   2.915  0.0548  0.9052  0.6769
 6307SOL    HW230384   0.652   1.373   2.915 -0.6084 -0.0165 -0.3042
 6308SOL     OW30385   2.245   1.842   3.898 -0.1656 -0.0117  0.1150
 6308SOL    HW130386   2.236   1.784   3.822  2.4199 -0.4770  0.1781
 6308SOL    HW230387   2.327   1.806   3.930 -0.4593  1.0043  2.0039
 6309SOL     OW30388   3.235   1.181  10.657 -0.0241  0.4348 -0.1721
 6309SOL    HW130389   3.277   1.099  10.683 -1.7142  0.2818  2.1271
 6309SOL    HW230390   3.147   1.156  10.685  0.4990 -2.1834 -0.8935
 6310SOL     OW30391   3.362   3.398   8.650  0.1012 -0.4704  0.3521
 6310SOL    HW130392   3.393   3.416   8.561  0.9923  2.8915  1.3532
 6310SOL    HW230393   3.429   3.444   8.699 -0.5047 -0.7219  1.4191
 6311SOL     OW30394   2.691   3.622  11.186  0.6347  0.0992  0.3922
 6311SOL    HW130395   2.667   3.709  11.154  1.2429  0.1132 -0.0230
 6311SOL    HW230396   2.703   3.565  11.111  1.9001 -0.1268  0.7539
 6312SOL     OW30397   1.955   0.046   4.088  0.6944  0.1467  0.0148
 6312SOL    HW130398   1.863   0.049   4.115  1.2401 -0.0197  1.8618
 6312SOL    HW230399   1.985   4.701   4.148 -1.5401  0.5863  1.6159
 6313SOL     OW30400   2.957   2.156   2.477  0.5387  0.4926 -0.3659
 6313SOL    HW130401   2.984   2.086   2.419  1.4093  0.3184  0.2385
 6313SOL    HW230402   3.045   2.194   2.487  0.9511 -0.8634  1.1683
 6314SOL     OW30403   2.944   1.877   8.286  0.0831 -0.2388  0.3677
 6314SOL    HW130404   3.036   1.902   8.279 -0.8340  3.2044  0.9777
 6314SOL    HW230405   2.937   1.882   8.381 -0.7943 -0.5584  0.3204
 6315SOL     OW30406   1.532   4.252  16.671 -0.1825  0.1311 -0.5533
 6315SOL    HW130407   1.527   4.245  16.575  0.5320 -1.4110 -0.4798
 6315SOL    HW230408   1.521   4.345  16.689 -0.6087 -0.1681  0.6910
 6316SOL     OW30409   4.492   3.925   6.791  0.0088 -0.1437 -0.4834
 6316SOL    HW130410   4.556   3.865   6.752  0.1426 -0.1576 -0.2455
 6316SOL    HW230411   4.430   3.864   6.830 -0.2954  1.0841  0.9424
 6317SOL     OW30412   1.281   0.120   5.052  0.6989  0.2079  0.9647
 6317SOL    HW130413   1.372   0.144   5.067  1.6167 -1.6753 -1.5621
 6317SOL    HW230414   1.271   0.140   4.958  0.5708  0.6560  1.0732
 6318SOL     OW30415   2.058   2.908   8.720 -0.3828  0.3376 -0.2922
 6318SOL    HW130416   2.132   2.963   8.746 -1.4015  1.0872  1.0499
 6318SOL    HW230417   2.012   2.901   8.804 -1.2260  2.7655 -0.5619
 6319SOL     OW30418   0.147   0.404   6.813  0.2716 -0.5679  0.7098
 6319SOL    HW130419   0.072   0.381   6.869 -2.0226  0.4291 -1.9438
 6319SOL    HW230420   0.217   0.348   6.846  1.4695  0.7067  0.3396
 6320SOL     OW30421   3.286   1.572  11.253 -0.5257  0.0975 -0.3194
 6320SOL    HW130422   3.334   1.652  11.231  1.1043 -1.0762 -1.0137
 6320SOL    HW230423   3.341   1.506  11.211 -0.4128 -1.3710  2.1200
 6321SOL     OW30424   1.195   3.621   7.363  0.3101 -0.2849  0.6153
 6321SOL    HW130425   1.279   3.595   7.326 -0.6407  0.9406 -2.4381
 6321SOL    HW230426   1.210   3.653   7.452  2.2555  0.3782  0.0428
 6322SOL     OW30427   3.226   1.361   0.078 -0.5397 -0.1606 -0.2684
 6322SOL    HW130428   3.307   1.343   0.028  0.5375 -1.1594  1.8611
 6322SOL    HW230429   3.177   1.397   0.004 -0.0532 -0.4907 -0.7529
 6323SOL     OW30430   3.574   3.851  12.333  0.4267 -0.3904  0.0262
 6323SOL    HW130431   3.528   3.805  12.403  0.8753  1.9832  1.8858
 6323SOL    HW230432   3.646   3.791  12.314  0.6751  0.0106 -0.3158
 6324SOL     OW30433   3.839   1.926  10.824  0.6650  0.3244 -0.3049
 6324SOL    HW130434   3.925   1.933  10.864  1.0748 -0.5656 -1.0180
 6324SOL    HW230435   3.831   2.016  10.792  1.8737  0.0862 -1.2497
 6325SOL     OW30436   0.441   3.023   6.536 -0.1003 -0.5523  0.2774
 6325SOL    HW130437   0.506   3.017   6.466  0.3238  0.7922  0.5590
 6325SOL    HW230438   0.364   3.053   6.487  1.3819  0.0283 -1.7394
 6326SOL     OW30439   4.279   0.611  12.658 -0.4586 -0.2034  0.3180
 6326SOL    HW130440   4.359   0.647  12.697 -0.8003 -2.7087  3.3921
 6326SOL    HW230441   4.224   0.688  12.671  0.8865  0.7673  0.3172
 6327SOL     OW30442   4.460   1.782  15.660  0.5999 -0.5607  0.1762
 6327SOL    HW130443   4.420   1.840  15.595 -1.1753 -1.3858  0.5464
 6327SOL    HW230444   4.418   1.808  15.742  1.8215  0.9616  0.3217
 6328SOL     OW30445   0.175   0.450   8.485 -0.6921  0.1574 -0.7048
 6328SOL    HW130446   0.228   0.528   8.468  0.2153 -0.1209  0.8443
 6328SOL    HW230447   0.246   0.385   8.482 -2.4543 -1.8082  0.9157
 6329SOL     OW30448   0.790   1.075  11.458 -0.1257  0.0554 -0.3399
 6329SOL    HW130449   0.868   1.027  11.484 -0.8554 -0.3296  1.1078
 6329SOL    HW230450   0.722   1.010  11.438  1.5779 -1.1645 -2.1062
 6330SOL     OW30451   3.762   0.712  16.458 -0.1041 -0.3440 -0.3164
 6330SOL    HW130452   3.794   0.794  16.420 -1.0091 -0.3442 -1.0619
 6330SOL    HW230453   3.833   0.650  16.440 -0.4207 -0.2771 -1.7541
 6331SOL     OW30454   2.560   1.890   3.617 -0.0343 -0.9798 -0.3528
 6331SOL    HW130455   2.509   1.872   3.538  0.3703  0.1279 -0.8650
 6331SOL    HW230456   2.510   1.955   3.666  0.8837  2.1445 -3.6081
 6332SOL     OW30457   0.032   2.252   6.989  0.1774  0.4126  0.1879
 6332SOL    HW130458   0.079   2.229   6.909  1.8824 -1.1586  1.6438
 6332SOL    HW230459   4.709   2.168   6.986  1.7817 -0.3942 -1.7166
 6333SOL     OW30460   3.448   3.689   6.278 -0.0206 -0.1777 -0.1051
 6333SOL    HW130461   3.480   3.702   6.367 -1.2468  1.2233  0.1343
 6333SOL    HW230462   3.364   3.649   6.301  0.5405 -1.2519  0.0629
 6334SOL     OW30463   3.146   2.445  13.022 -0.5853 -0.8698 -0.4885
 6334SOL    HW130464   3.051   2.442  13.005 -0.7137  1.0857 -0.0920
 6334SOL    HW230465   3.190   2.440  12.937  1.7863 -0.2634  0.7166
 6335SOL     OW30466   3.642   1.560  13.616 -0.6268 -0.3287  0.0709
 6335SOL    HW130467   3.713   1.509  13.656  0.3519  0.2779 -0.8965
 6335SOL    HW230468   3.628   1.512  13.534  1.0327 -1.8104  0.6440
 6336SOL     OW30469   2.781   4.548   0.527  0.2793 -0.1295 -0.4386
 6336SOL    HW130470   2.763   4.637   0.498  3.9765  0.3207 -1.3337
 6336SOL    HW230471   2.806   4.560   0.618  0.7676 -2.3261 -0.2741
 6337SOL     OW30472   1.732   1.677  10.801  0.5333  0.1412 -0.5020
 6337SOL    HW130473   1.783   1.748  10.762  0.2596  0.1374 -0.8676
 6337SOL    HW230474   1.722   1.714  10.888 -0.0974 -0.3493 -0.3666
 6338SOL     OW30475   4.512   3.751   6.534 -0.6214 -0.3921  0.3716
 6338SOL    HW130476   4.448   3.683   6.510 -1.0632  0.6601 -1.4653
 6338SOL    HW230477   4.482   3.822   6.478  0.6071 -0.9285 -0.9663
 6339SOL     OW30478   1.390   0.022   0.335  0.4479 -0.0621 -0.4340
 6339SOL    HW130479   1.303   4.704   0.338  1.0667 -1.4582 -1.1251
 6339SOL    HW230480   1.437   4.670   0.374 -1.5463 -0.0184  1.9798
 6340SOL     OW30481   4.587   1.953   6.095 -0.2893  0.6494  0.1089
 6340SOL    HW130482   4.547   2.005   6.025  0.9051  0.7556 -0.4880
 6340SOL    HW230483   4.578   2.011   6.171 -0.4359 -0.5376  0.9993
 6341SOL     OW30484   2.015   3.310   7.089 -0.9848 -0.1291 -0.3449
 6341SOL    HW130485   2.085   3.251   7.062 -0.6135 -0.8952  2.2697
 6341SOL    HW230486   2.000   3.284   7.180  1.3081 -3.0612 -0.8136
 6342SOL     OW30487   3.791   1.284  11.030  0.4401  0.0142  0.1917
 6342SOL    HW130488   3.756   1.337  10.959  1.5778 -0.4660 -0.7203
 6342SOL    HW230489   3.796   1.351  11.099  1.9212  1.1649 -1.0170
 6343SOL     OW30490   4.263   0.323   3.870  0.0539  0.1497  0.1132
 6343SOL    HW130491   4.292   0.344   3.782  0.5052 -0.5358  0.1010
 6343SOL    HW230492   4.172   0.355   3.866  0.2247  0.1630 -3.4173
 6344SOL     OW30493   4.629   4.609   3.042  0.2851  0.3943 -0.5240
 6344SOL    HW130494   4.671   4.682   2.996  1.0216  0.6098  0.4975
 6344SOL    HW230495   4.701   4.574   3.093  0.0584 -0.3202 -0.7044
 6345SOL     OW30496   1.201   2.430   3.836 -0.2069  0.5242 -0.4141
 6345SOL    HW130497   1.129   2.492   3.825 -0.3829  0.8871  2.7502
 6345SOL    HW230498   1.240   2.456   3.753 -1.6311  2.9708 -0.3190
 6346SOL     OW30499   1.507   4.407  16.966 -0.0687  0.1012 -0.5440
 6346SOL    HW130500   1.412   4.400  16.959 -0.4079  3.1424  1.0229
 6346SOL    HW230501   1.518   4.484  17.022  2.0659  0.1172 -0.9893
 6347SOL     OW30502   2.143   3.889   8.426  0.2321 -0.7603 -0.3153
 6347SOL    HW130503   2.230   3.887   8.467 -1.2701 -0.6545  2.8828
 6347SOL    HW230504   2.091   3.948   8.481  1.1052 -2.0026  1.8622
 6348SOL     OW30505   1.437   2.987   6.832  0.0279 -0.1895  0.2715
 6348SOL    HW130506   1.393   2.943   6.759 -1.3921  0.4071  0.7863
 6348SOL    HW230507   1.486   3.053   6.782  2.1030  0.4925  3.2438
 6349SOL     OW30508   1.321   2.124   5.991  0.1809  0.2017 -0.0975
 6349SOL    HW130509   1.377   2.151   6.064  1.0928 -2.5719  0.2249
 6349SOL    HW230510   1.386   2.070   5.947 -1.4139 -0.3116 -1.8095
 6350SOL     OW30511   4.239   0.480  17.667  0.6129 -0.7589 -0.0038
 6350SOL    HW130512   4.205   0.456   0.063  0.3231 -0.2581  0.0167
 6350SOL    HW230513   4.296   0.408  17.640 -0.2718 -0.3841 -2.8763
 6351SOL     OW30514   0.298   2.998   6.135 -0.7287 -0.2421 -0.9433
 6351SOL    HW130515   0.335   2.922   6.179  1.4831  0.9106 -0.7851
 6351SOL    HW230516   0.326   3.062   6.200 -0.4475 -0.8563 -0.4552
 6352SOL     OW30517   1.773   2.164  13.061 -0.3035 -0.4917 -0.0950
 6352SOL    HW130518   1.783   2.136  12.971  0.6391 -0.2903 -0.0615
 6352SOL    HW230519   1.726   2.248  13.059  0.9699  0.2269 -0.0157
 6353SOL     OW30520   1.638   3.885   2.716  0.2522  0.3410  0.5167
 6353SOL    HW130521   1.605   3.952   2.777 -0.9095  0.6006 -0.3947
 6353SOL    HW230522   1.705   3.848   2.774 -0.6316  1.6173  2.3677
 6354SOL     OW30523   1.590   3.206   4.770  0.5928 -0.5409 -0.3220
 6354SOL    HW130524   1.555   3.181   4.856  3.9354 -0.9278  0.9188
 6354SOL    HW230525   1.684   3.223   4.781  0.6855 -0.5589 -1.0719
 6355SOL     OW30526   3.685   2.924   3.989  0.3493 -0.2389  0.1828
 6355SOL    HW130527   3.686   3.007   4.037 -1.3462 -2.0015  3.2772
 6355SOL    HW230528   3.778   2.905   4.001  0.5536  0.3248 -0.5651
 6356SOL     OW30529   2.073   2.662   9.039 -0.0314 -0.2320  0.0625
 6356SOL    HW130530   2.091   2.754   9.061 -1.5171  0.5150 -1.8380
 6356SOL    HW230531   2.152   2.641   8.989 -0.4933 -0.7945 -0.4325
 6357SOL     OW30532   3.038   1.982  10.356 -0.1506 -0.4015  0.4087
 6357SOL    HW130533   3.075   1.963  10.443 -2.1645  1.4884  1.6753
 6357SOL    HW230534   3.084   1.916  10.303  0.3217 -0.5624  1.0111
 6358SOL     OW30535   2.493   4.056   3.015  0.2411 -0.2661 -0.5590
 6358SOL    HW130536   2.497   4.089   2.925 -1.1070 -0.4144 -0.6686
 6358SOL    HW230537   2.405   4.063   3.051  0.1263 -4.5081  0.0085
 6359SOL     OW30538   1.991   2.918  14.063 -0.2563 -0.1524 -0.2962
 6359SOL    HW130539   1.962   2.855  13.997 -0.1181 -1.3499  0.8085
 6359SOL    HW230540   2.085   2.929  14.045  0.1299 -0.9104  1.2919
 6360SOL     OW30541   1.788   3.521   8.775 -0.1542 -0.3853  0.0197
 6360SOL    HW130542   1.782   3.508   8.869 -0.2008 -0.2666  0.0332
 6360SOL    HW230543   1.763   3.613   8.784  0.0390 -0.4064  0.7431
 6361SOL     OW30544   1.686   3.942  15.037  0.0179  0.2615  0.0197
 6361SOL    HW130545   1.601   3.981  15.058  0.2421  0.0294  1.3960
 6361SOL    HW230546   1.673   3.933  14.943 -0.8762 -0.2549  0.1901
 6362SOL     OW30547   2.480   2.100   7.581  0.5156 -0.4624 -0.5333
 6362SOL    HW130548   2.401   2.080   7.532  0.1536 -1.5183  0.4888
 6362SOL    HW230549   2.527   2.159   7.522  0.7888  1.4500  1.5706
 6363SOL     OW30550   3.384   3.901   9.133  0.3436  0.0164  0.2323
 6363SOL    HW130551   3.475   3.928   9.132 -0.2349  1.9248 -2.2432
 6363SOL    HW230552   3.356   3.927   9.045  0.3569 -2.0741 -0.4060
 6364SOL     OW30553   4.082   0.107   7.814 -0.1213 -0.2800  0.0653
 6364SOL    HW130554   4.019   0.038   7.794 -0.6255  0.7288 -1.8179
 6364SOL    HW230555   4.029   0.146   7.884 -1.9473  0.8539 -1.9585
 6365SOL     OW30556   2.705   2.170   3.389  0.7608 -0.0005  0.2607
 6365SOL    HW130557   2.700   2.147   3.296 -1.2331 -1.6552  0.7759
 6365SOL    HW230558   2.613   2.172   3.415  1.1668  0.1835  1.6400
 6366SOL     OW30559   0.155   1.089   8.927 -0.1892 -0.3720  0.0013
 6366SOL    HW130560   0.165   0.997   8.902 -0.8952  0.8965 -4.9345
 6366SOL    HW230561   0.085   1.106   8.864  0.2248  2.0350  0.2245
 6367SOL     OW30562   1.263   4.342   3.829 -0.1287  0.3585  0.8097
 6367SOL    HW130563   1.289   4.297   3.909 -2.6934 -2.0389  0.2858
 6367SOL    HW230564   1.177   4.303   3.813  0.1556  0.0645 -0.0202
 6368SOL     OW30565   3.556   1.092   7.436 -0.1739 -0.2445  0.4961
 6368SOL    HW130566   3.506   1.163   7.476 -0.7154 -2.1238  3.1466
 6368SOL    HW230567   3.625   1.144   7.395  1.6877 -2.5959  0.6298
 6369SOL     OW30568   1.606   3.560   5.454 -0.4178 -0.3358 -0.1597
 6369SOL    HW130569   1.594   3.497   5.383 -0.0664 -0.5100 -0.0638
 6369SOL    HW230570   1.610   3.642   5.404 -2.4321 -0.4546 -0.5113
 6370SOL     OW30571   3.189   3.823   3.731  0.1187 -0.1317  0.7229
 6370SOL    HW130572   3.195   3.881   3.656 -1.1335 -0.0993  0.6492
 6370SOL    HW230573   3.275   3.813   3.773  0.3056  0.9453  0.5898
 6371SOL     OW30574   1.874   3.642   7.831 -0.0790  0.1625 -0.0035
 6371SOL    HW130575   1.919   3.571   7.876  0.7851  0.6960 -0.0298
 6371SOL    HW230576   1.933   3.718   7.830 -0.2998  0.3011 -2.5876
 6372SOL     OW30577   3.932   0.381  11.971  0.3260  0.4731  0.5708
 6372SOL    HW130578   4.013   0.387  11.921 -0.0332 -0.3834 -0.0924
 6372SOL    HW230579   3.969   0.386  12.059 -2.8435 -0.5735  1.9732
 6373SOL     OW30580   1.613   3.642   1.174 -0.5365 -0.0826 -0.0145
 6373SOL    HW130581   1.532   3.600   1.204 -0.8060  0.8418  0.5475
 6373SOL    HW230582   1.631   3.601   1.089 -0.8149  1.4477 -0.8095
 6374SOL     OW30583   1.216   2.167   0.844 -0.5854  0.2083  0.0623
 6374SOL    HW130584   1.156   2.226   0.890 -0.6687 -2.0080  2.8260
 6374SOL    HW230585   1.243   2.218   0.768 -0.6791  0.3080  0.0954
 6375SOL     OW30586   0.787   0.807   7.162 -0.2312 -0.6289 -0.0622
 6375SOL    HW130587   0.728   0.744   7.203 -0.6396  0.2467  0.7122
 6375SOL    HW230588   0.778   0.881   7.222  0.8077  0.0970 -0.8103
 6376SOL     OW30589   2.460   1.864   2.965 -0.6231 -0.3715  0.2466
 6376SOL    HW130590   2.400   1.891   2.896  2.4388  3.6900 -0.8076
 6376SOL    HW230591   2.522   1.936   2.959  0.3451 -1.0977  1.4208
 6377SOL     OW30592   4.354   2.057  12.069 -0.0541  0.0988  0.0498
 6377SOL    HW130593   4.350   2.092  12.158 -1.1645  0.4374 -0.1333
 6377SOL    HW230594   4.310   2.125  12.018  1.6441  0.2489 -1.2088
 6378SOL     OW30595   4.272   3.522   9.350  0.3799 -0.6885  0.2471
 6378SOL    HW130596   4.251   3.610   9.381  3.2665  0.6753 -1.6305
 6378SOL    HW230597   4.368   3.522   9.347  0.3275  0.7758 -1.5706
 6379SOL     OW30598   3.705   1.077  13.188  0.1050 -0.1146 -0.5203
 6379SOL    HW130599   3.757   1.126  13.126  1.2279 -0.3569  0.2310
 6379SOL    HW230600   3.702   0.985  13.160 -2.7553  0.6396 -2.7245
 6380SOL     OW30601   1.708   3.480   7.979 -0.4926  0.0979 -0.7139
 6380SOL    HW130602   1.740   3.569   7.962 -0.7347 -0.1719 -2.6626
 6380SOL    HW230603   1.780   3.438   8.024  0.6785  2.8002 -0.0501
 6381SOL     OW30604   1.352   0.327   1.227  0.4978  0.0510 -0.2027
 6381SOL    HW130605   1.308   0.408   1.200  0.6821  0.0201 -0.5920
 6381SOL    HW230606   1.351   0.322   1.323 -0.4745  1.0307 -0.1607
 6382SOL     OW30607   4.441   0.575   8.627  0.3039 -0.8023 -0.0260
 6382SOL    HW130608   4.452   0.564   8.721 -0.0328 -3.3992 -0.2720
 6382SOL    HW230609   4.518   0.629   8.616 -0.5925 -0.2056 -3.3041
 6383SOL     OW30610   3.987   4.247   2.304  0.7308  0.6951  0.2545
 6383SOL    HW130611   3.981   4.305   2.380  0.2954 -0.8613  1.4066
 6383SOL    HW230612   4.080   4.222   2.307  1.1277  2.0915 -0.2422
 6384SOL     OW30613   0.922   3.036   3.042  0.2925  0.1301 -0.7227
 6384SOL    HW130614   0.908   3.129   3.023 -2.0770  0.8400  4.6632
 6384SOL    HW230615   1.018   3.039   3.040  0.2707 -0.3865 -2.3531
 6385SOL     OW30616   2.443   0.904   4.519  0.8934 -0.9048 -0.8171
 6385SOL    HW130617   2.389   0.917   4.441 -1.4411  0.1679  0.9629
 6385SOL    HW230618   2.530   0.927   4.488 -0.3754  0.8411 -3.0841
 6386SOL     OW30619   1.335   1.368   1.572  0.4976 -0.6732  1.0522
 6386SOL    HW130620   1.403   1.429   1.603 -1.8211  2.3199  0.2159
 6386SOL    HW230621   1.293   1.428   1.511 -2.2872 -0.5377  3.1438
 6387SOL     OW30622   4.264   2.678   6.315  0.1764  0.1537  0.6122
 6387SOL    HW130623   4.336   2.725   6.357  0.0281 -0.2633  1.3288
 6387SOL    HW230624   4.210   2.755   6.293  0.2556  0.0636  0.0999
 6388SOL     OW30625   4.045   1.241  10.897 -0.2255  0.2648 -0.6669
 6388SOL    HW130626   4.102   1.273  10.967  1.9662 -2.9851 -0.9583
 6388SOL    HW230627   3.965   1.230  10.949 -0.7685  1.5485 -1.2420
 6389SOL     OW30628   0.574   2.735   7.483 -0.4283 -0.0517 -0.9405
 6389SOL    HW130629   0.484   2.708   7.462 -0.5550  1.6921 -2.6760
 6389SOL    HW230630   0.584   2.818   7.436 -0.2176 -0.1642 -1.0933
 6390SOL     OW30631   0.797   4.599   4.822  0.0583 -0.3025  0.0959
 6390SOL    HW130632   0.767   4.649   4.897  0.9923  1.9009 -0.9624
 6390SOL    HW230633   0.823   4.672   4.765  0.9180 -1.4623 -1.0215
 6391SOL     OW30634   4.136   4.460   3.363 -0.0821 -0.4106 -0.1657
 6391SOL    HW130635   4.203   4.423   3.306 -1.8997 -0.2461 -2.3828
 6391SOL    HW230636   4.070   4.484   3.298 -2.0435 -1.3321  1.4985
 6392SOL     OW30637   3.343   3.742   2.192  0.8710 -0.7826 -0.3799
 6392SOL    HW130638   3.379   3.663   2.232  3.2559 -1.2205 -3.3726
 6392SOL    HW230639   3.295   3.699   2.121 -0.0394 -1.0553  0.4059
 6393SOL     OW30640   4.513   0.189   8.522 -0.0302  0.4630  0.3920
 6393SOL    HW130641   4.553   0.133   8.589  0.5983  0.9778  0.4477
 6393SOL    HW230642   4.509   0.135   8.444  1.0151 -0.2954  0.8609
 6394SOL     OW30643   3.785   2.011  17.206  0.0294 -0.0481  0.1415
 6394SOL    HW130644   3.724   2.058  17.263 -0.6344 -1.3877  0.5439
 6394SOL    HW230645   3.727   1.960  17.150 -0.8208  2.4244 -1.2123
 6395SOL     OW30646   1.556   1.179   1.984 -0.0665 -0.1052  0.6409
 6395SOL    HW130647   1.548   1.090   1.949  0.8847  0.0465  0.0420
 6395SOL    HW230648   1.646   1.183   2.015  0.9100 -0.6141 -2.0579
 6396SOL     OW30649   3.672   3.536  12.109  0.1185 -0.7007  0.2857
 6396SOL    HW130650   3.719   3.545  12.192  0.5353 -2.8643  0.2718
 6396SOL    HW230651   3.750   3.560  12.058 -1.2156 -0.9979 -1.8592
 6397SOL     OW30652   1.510   0.770   8.777 -0.4345 -0.5236  0.8081
 6397SOL    HW130653   1.588   0.826   8.779  1.4821 -3.1615 -0.2768
 6397SOL    HW230654   1.463   0.802   8.854 -1.1503  1.2676 -0.3699
 6398SOL     OW30655   0.503   2.075  16.878  0.7666  0.0837  0.3475
 6398SOL    HW130656   0.505   2.169  16.860  2.3517 -0.1327 -0.6033
 6398SOL    HW230657   0.574   2.064  16.942  0.3392  0.9419  0.9689
 6399SOL     OW30658   3.767   3.607   7.949  0.4084 -0.3700  0.2561
 6399SOL    HW130659   3.772   3.702   7.934 -2.0255 -0.0985  1.1248
 6399SOL    HW230660   3.718   3.606   8.032 -0.3288 -2.5739 -0.1974
 6400SOL     OW30661   3.621   3.326   3.065 -0.4367 -0.0702  0.1338
 6400SOL    HW130662   3.551   3.378   3.025  0.0973  0.5742  0.0363
 6400SOL    HW230663   3.682   3.392   3.098 -1.9551  0.1381  2.5324
 6401SOL     OW30664   2.581   3.643   8.689  0.1855 -0.0225  0.1418
 6401SOL    HW130665   2.642   3.676   8.623 -0.0652  0.4097  0.1296
 6401SOL    HW230666   2.603   3.550   8.688  0.0524 -0.0489 -0.7912
 6402SOL     OW30667   2.752   2.793   1.267  0.2648 -0.0565  0.3113
 6402SOL    HW130668   2.787   2.774   1.354  0.0359  0.0139  0.4170
 6402SOL    HW230669   2.783   2.883   1.254  0.2489 -0.2603 -1.1088
 6403SOL     OW30670   1.002   4.582   3.899 -0.0386 -0.1985  0.7308
 6403SOL    HW130671   1.007   4.504   3.955  0.1774 -1.5286 -1.1671
 6403SOL    HW230672   0.912   4.609   3.920  0.1487  0.0724  1.1920
 6404SOL     OW30673   2.223   0.402   8.377  0.8056 -0.4957  0.1532
 6404SOL    HW130674   2.252   0.328   8.323  0.6524 -1.7452  1.7786
 6404SOL    HW230675   2.278   0.378   8.451  0.3289 -0.4123  0.5317
 6405SOL     OW30676   2.997   3.392  14.870  0.0131 -0.2820 -0.1166
 6405SOL    HW130677   3.087   3.387  14.838 -0.6676  0.6623 -2.2236
 6405SOL    HW230678   3.006   3.357  14.958  1.5631  1.1608  0.3005
 6406SOL     OW30679   1.086   2.370   1.989 -0.1396  0.3601 -0.3129
 6406SOL    HW130680   1.091   2.461   2.017 -0.3405  0.1626  0.3731
 6406SOL    HW230681   1.022   2.337   2.053  0.1838  2.2803  1.0147
 6407SOL     OW30682   0.614   3.635   1.876 -0.0193  0.2524  0.0596
 6407SOL    HW130683   0.651   3.577   1.809 -0.1793  0.8623 -0.5610
 6407SOL    HW230684   0.694   3.665   1.919  0.9104 -1.3634 -0.5253
 6408SOL     OW30685   1.899   3.810   9.072 -0.2391 -0.3367 -0.0869
 6408SOL    HW130686   1.906   3.756   9.151  3.5046  0.3996  0.0746
 6408SOL    HW230687   1.961   3.772   9.009  0.2929  0.6427 -0.1503
 6409SOL     OW30688   1.158   2.166  17.540  0.5318  0.2371 -0.0898
 6409SOL    HW130689   1.077   2.118  17.556  0.1055  1.4405  1.4867
 6409SOL    HW230690   1.130   2.257  17.555  0.3032 -0.0367  1.1829
 6410SOL     OW30691   3.777   2.704  12.382 -0.0800  0.2184 -0.4377
 6410SOL    HW130692   3.723   2.754  12.321  0.5920  2.5601  0.9046
 6410SOL    HW230693   3.737   2.727  12.466 -2.6058 -1.3328 -1.2052
 6411SOL     OW30694   0.711   3.692   9.104  0.2927 -0.4342 -0.6549
 6411SOL    HW130695   0.638   3.683   9.042  0.3937 -0.7837 -0.7250
 6411SOL    HW230696   0.678   3.635   9.174 -0.8186  1.4849  0.3874
 6412SOL     OW30697   0.664   4.680   6.685  0.2611 -0.2410 -0.1821
 6412SOL    HW130698   0.665   4.694   6.779  0.5368  1.8150 -0.5018
 6412SOL    HW230699   0.603   4.606   6.685  1.5826 -1.3425 -0.8898
 6413SOL     OW30700   2.130   1.227   7.215 -0.4991  0.1529  0.1449
 6413SOL    HW130701   2.059   1.196   7.271  0.9876 -2.4932  0.5734
 6413SOL    HW230702   2.173   1.146   7.190 -1.0463 -0.1979  0.3491
 6414SOL     OW30703   4.474   3.578  14.018 -0.0763  0.2378 -0.4045
 6414SOL    HW130704   4.446   3.664  14.050 -0.1926 -0.2293  0.7459
 6414SOL    HW230705   4.554   3.600  13.970 -1.4601 -0.6800 -3.1242
 6415SOL     OW30706   1.686   1.321   7.296  0.7725 -0.1547  0.6050
 6415SOL    HW130707   1.721   1.232   7.294  1.1951  0.0531 -1.4655
 6415SOL    HW230708   1.740   1.357   7.366  0.5781  1.3093  0.0103
 6416SOL     OW30709   3.657   1.976   4.644 -0.2147 -0.3935 -0.5204
 6416SOL    HW130710   3.733   2.024   4.610  1.0906 -2.6320 -0.7434
 6416SOL    HW230711   3.682   1.969   4.736  1.2907  3.0725 -0.6790
 6417SOL     OW30712   2.709   1.852   6.984  0.5273 -0.3733 -0.5925
 6417SOL    HW130713   2.770   1.889   7.047 -0.1933  1.0101 -0.6933
 6417SOL    HW230714   2.750   1.885   6.904 -0.0519 -0.1495 -0.7962
 6418SOL     OW30715   0.477   2.696   6.510 -0.1932 -0.7337  0.8059
 6418SOL    HW130716   0.558   2.650   6.532 -1.1870 -1.6421  2.5803
 6418SOL    HW230717   0.461   2.745   6.591  0.4619  0.2273  0.3522
 6419SOL     OW30718   1.645   1.705   3.710 -0.0884  0.4297 -0.5144
 6419SOL    HW130719   1.639   1.647   3.635  0.1312  0.6490 -0.7002
 6419SOL    HW230720   1.629   1.789   3.666  1.3010  1.0872  0.2204
 6420SOL     OW30721   0.657   0.971   7.370  0.1988  0.1905  0.2532
 6420SOL    HW130722   0.627   1.027   7.299  0.5928 -0.6355 -0.5730
 6420SOL    HW230723   0.574   0.934   7.400 -0.1193 -0.5466 -1.4897
 6421SOL     OW30724   2.045   2.924   9.069  0.1289 -0.2597 -0.2515
 6421SOL    HW130725   2.016   3.015   9.054  0.7699 -0.1608 -0.8695
 6421SOL    HW230726   2.119   2.937   9.128 -0.7662 -0.8792  1.0212
 6422SOL     OW30727   0.824   1.048   7.590 -0.3961 -0.3796 -0.4798
 6422SOL    HW130728   0.761   1.047   7.518 -2.9299 -0.1987  1.7206
 6422SOL    HW230729   0.788   0.980   7.648 -1.7946 -0.4405 -1.4268
 6423SOL     OW30730   2.037   3.216   9.052 -0.0467 -0.6596 -0.7315
 6423SOL    HW130731   2.119   3.212   9.101  0.0994 -1.4354 -1.0273
 6423SOL    HW230732   2.069   3.265   8.976 -0.6082  1.3107  0.3022
 6424SOL     OW30733   4.011   1.371   7.684 -0.1992 -0.6362  1.1391
 6424SOL    HW130734   3.983   1.281   7.672  2.4578 -1.3304  0.1593
 6424SOL    HW230735   4.103   1.358   7.660  0.0984 -0.1977  2.0208
 6425SOL     OW30736   1.919   2.728   2.118  0.1459 -0.2300 -0.1410
 6425SOL    HW130737   1.932   2.793   2.186 -1.9787  0.1750 -0.1079
 6425SOL    HW230738   1.837   2.691   2.150  1.0101 -0.8120  1.3561
 6426SOL     OW30739   3.499   2.390   4.613 -0.2629  0.4779  0.1730
 6426SOL    HW130740   3.558   2.351   4.548 -3.2292  2.0285 -3.4991
 6426SOL    HW230741   3.543   2.474   4.627 -1.0343  0.6013  1.8245
 6427SOL     OW30742   1.211   3.540   8.457  0.2585 -0.4061 -0.3511
 6427SOL    HW130743   1.239   3.599   8.527  1.8979  0.4703 -1.7406
 6427SOL    HW230744   1.198   3.456   8.500 -3.1231  0.1249 -0.3616
 6428SOL     OW30745   2.366   3.236   0.995 -0.1309 -0.2335  0.0811
 6428SOL    HW130746   2.336   3.244   0.904  1.4226 -0.7636 -0.4902
 6428SOL    HW230747   2.380   3.141   0.999 -3.4878 -0.7251 -0.0387
 6429SOL     OW30748   0.931   3.952   8.484  0.0177  0.2328 -0.0045
 6429SOL    HW130749   0.912   3.949   8.577  0.7559  1.4441  0.1865
 6429SOL    HW230750   0.929   3.858   8.470  3.6868  0.1846 -0.1434
 6430SOL     OW30751   3.947   1.332   3.504 -0.8178  0.2527  0.0752
 6430SOL    HW130752   4.038   1.320   3.531 -1.5813 -0.2201  2.4705
 6430SOL    HW230753   3.938   1.255   3.447 -1.3283  1.3345 -1.3186
 6431SOL     OW30754   0.615   0.150   2.817 -0.3657  0.2509 -0.1965
 6431SOL    HW130755   0.699   0.195   2.826 -0.2401 -0.0330  0.0551
 6431SOL    HW230756   0.578   0.185   2.898  1.1193 -0.3027  0.7149
 6432SOL     OW30757   2.644   2.057   0.918 -0.5977  0.0221  0.1403
 6432SOL    HW130758   2.567   2.080   0.866 -1.4381  1.6478  2.1092
 6432SOL    HW230759   2.606   2.082   1.003  3.1417 -1.8812  2.4088
 6433SOL     OW30760   2.813   4.190   7.751  0.0415 -0.3383  0.2148
 6433SOL    HW130761   2.869   4.200   7.827  0.2970  1.2401 -0.1777
 6433SOL    HW230762   2.871   4.149   7.687  1.1850  0.1074  0.9613
 6434SOL     OW30763   3.610   4.092  16.572  0.6508 -0.0131 -0.0127
 6434SOL    HW130764   3.608   3.998  16.553 -0.3470 -0.2522  1.2519
 6434SOL    HW230765   3.537   4.112  16.631  1.3323  1.1748  0.4418
 6435SOL     OW30766   3.377   3.216   9.525 -0.7069  0.2299  0.0941
 6435SOL    HW130767   3.312   3.250   9.463  2.4411  0.3224 -3.1909
 6435SOL    HW230768   3.449   3.200   9.464 -1.7104  0.2614 -1.1136
 6436SOL     OW30769   3.008   2.483   3.254 -0.4146 -0.7733  0.1446
 6436SOL    HW130770   2.976   2.435   3.178 -0.0852 -0.0996 -0.4103
 6436SOL    HW230771   2.923   2.517   3.284 -0.2689 -0.6669  0.4378
 6437SOL     OW30772   3.160   1.103   0.199 -0.0085  0.5960 -0.2219
 6437SOL    HW130773   3.143   1.159   0.275  2.9973  0.9230  0.2039
 6437SOL    HW230774   3.166   1.172   0.133 -0.3873  1.7573  0.9378
 6438SOL     OW30775   0.346   1.650  10.946 -0.5935 -0.3863  0.1262
 6438SOL    HW130776   0.434   1.615  10.957 -0.6244 -0.2411  0.8393
 6438SOL    HW230777   0.297   1.570  10.966 -0.8796 -0.3023 -0.2369
 6439SOL     OW30778   1.911   0.515   6.599 -0.0808 -0.1128 -0.2928
 6439SOL    HW130779   1.940   0.467   6.676  0.2903 -0.0800 -0.4111
 6439SOL    HW230780   1.832   0.467   6.573  0.7081 -1.9561  0.7963
 6440SOL     OW30781   4.443   3.950   7.501 -1.0102  0.5133 -0.0822
 6440SOL    HW130782   4.490   3.983   7.424 -0.9338 -2.8928 -1.4616
 6440SOL    HW230783   4.460   4.013   7.572  0.9792  1.2371 -1.2003
 6441SOL     OW30784   0.216   1.248   0.180  0.1378  0.0372  1.1299
 6441SOL    HW130785   0.216   1.238   0.275  1.0782 -0.3391  1.0869
 6441SOL    HW230786   0.135   1.298   0.171  0.6369 -0.0510 -3.8156
 6442SOL     OW30787   0.687   4.071  15.414  0.1918 -0.5973 -0.0855
 6442SOL    HW130788   0.769   4.076  15.463 -0.1410 -0.5062  0.4651
 6442SOL    HW230789   0.655   3.982  15.431 -2.9441  0.5764  0.1495
 6443SOL     OW30790   2.317   0.289   2.007 -0.0339 -0.0153 -0.1889
 6443SOL    HW130791   2.311   0.373   1.962  1.1907  0.9671  1.4925
 6443SOL    HW230792   2.343   0.231   1.935  2.2488 -1.7637  2.0628
 6444SOL     OW30793   1.230   0.727  15.047  0.3986  0.2587  0.1023
 6444SOL    HW130794   1.159   0.663  15.052  1.3837 -0.5702  3.6645
 6444SOL    HW230795   1.222   0.754  14.956  0.3600  2.2735  0.7091
 6445SOL     OW30796   2.964   4.562   3.683 -0.0334  0.7700 -0.1824
 6445SOL    HW130797   2.994   4.482   3.641 -0.2930  1.4384 -1.6608
 6445SOL    HW230798   2.981   4.625   3.612 -1.2855  1.2388 -0.0691
 6446SOL     OW30799   4.275   1.850   9.423  0.1557  0.0327  0.0287
 6446SOL    HW130800   4.351   1.826   9.371  0.0263 -1.4450  0.5301
 6446SOL    HW230801   4.208   1.785   9.403 -0.9098  1.5021 -1.2217
 6447SOL     OW30802   3.647   4.037   2.528 -0.5711  0.0113 -0.8188
 6447SOL    HW130803   3.632   4.103   2.461 -0.9973 -0.1100 -0.8444
 6447SOL    HW230804   3.589   4.070   2.596  0.3642  2.8532 -1.4069
 6448SOL     OW30805   2.293   1.256  10.320  0.3625 -0.2091 -0.3055
 6448SOL    HW130806   2.275   1.223  10.232 -1.4513  2.1553 -0.8118
 6448SOL    HW230807   2.245   1.189  10.369  1.6910 -0.3874  0.7283
 6449SOL     OW30808   1.787   0.864  15.869 -0.0233 -0.0015 -0.1956
 6449SOL    HW130809   1.712   0.919  15.892 -1.4246 -1.4069 -1.4182
 6449SOL    HW230810   1.808   0.825  15.954  1.9758  0.0007 -0.6867
 6450SOL     OW30811   1.363   2.531   1.259  0.2659 -0.4177 -0.1724
 6450SOL    HW130812   1.440   2.551   1.312  1.2150 -1.5127 -1.1408
 6450SOL    HW230813   1.319   2.616   1.255  1.5020  0.1714 -1.1431
 6451SOL     OW30814   1.939   4.581   3.390  0.1649  0.1011 -0.2426
 6451SOL    HW130815   1.957   4.487   3.395 -1.2602 -0.1781 -0.4112
 6451SOL    HW230816   1.974   4.611   3.306  2.3449  1.2124  1.0414
 6452SOL     OW30817   0.608   1.453  15.341 -0.5299  0.5349  0.0975
 6452SOL    HW130818   0.576   1.499  15.418 -0.2679  0.7839  0.0579
 6452SOL    HW230819   0.531   1.443  15.286  1.7385 -0.9848 -2.7918
 6453SOL     OW30820   0.085   3.270  12.482  0.7002  0.1383  0.1101
 6453SOL    HW130821   0.021   3.217  12.435  0.9927 -0.9883  0.9746
 6453SOL    HW230822   0.168   3.226  12.464 -0.3863 -2.5163  1.5107
 6454SOL     OW30823   1.282   4.426   4.508 -0.7170  0.6155 -0.2458
 6454SOL    HW130824   1.225   4.502   4.499 -1.1377  0.5255  1.5894
 6454SOL    HW230825   1.337   4.450   4.583 -1.7043  1.2817  0.2693
 6455SOL     OW30826   0.156   2.455   3.813 -0.0062 -0.2671 -0.2636
 6455SOL    HW130827   0.084   2.403   3.777  1.4462 -0.9705 -2.1509
 6455SOL    HW230828   0.146   2.468   3.907  0.5048  0.5855 -0.3293
 6456SOL     OW30829   1.654   2.487  17.604 -0.0095  0.3225 -0.4674
 6456SOL    HW130830   1.631   2.394  17.595  1.7739 -0.1979  0.1466
 6456SOL    HW230831   1.729   2.494  17.545 -0.3969 -1.6621 -1.2033
 6457SOL     OW30832   1.944   3.480   1.319 -0.0416  0.0399  0.3214
 6457SOL    HW130833   1.849   3.483   1.326 -0.1814  0.4044 -1.8121
 6457SOL    HW230834   1.953   3.567   1.359  0.9383  0.6243 -1.1925
 6458SOL     OW30835   0.902   4.697   0.187  0.6038 -0.1364  0.6788
 6458SOL    HW130836   0.836   0.018   0.132  0.5961 -2.3885 -1.0586
 6458SOL    HW230837   0.884   4.611   0.150 -0.8981  0.4574  0.0240
 6459SOL     OW30838   2.178   0.247  14.320 -0.1297  0.3160  0.6155
 6459SOL    HW130839   2.150   0.261  14.229  0.2696 -1.9125  0.1515
 6459SOL    HW230840   2.134   0.319  14.366 -0.1036  0.8797 -0.2402
 6460SOL     OW30841   1.317   0.385   2.353  0.0774  0.1620 -0.2219
 6460SOL    HW130842   1.362   0.312   2.396 -0.8120 -0.4688 -0.3601
 6460SOL    HW230843   1.230   0.345   2.353  0.6777 -1.1320 -1.5011
 6461SOL     OW30844   4.580   3.102   4.297 -0.0294  0.3819  0.1488
 6461SOL    HW130845   4.566   3.196   4.304  0.1182  0.3223  1.2979
 6461SOL    HW230846   4.519   3.081   4.226  2.0017  0.9777 -1.7275
 6462SOL     OW30847   0.161   3.130   9.807  0.0234 -0.1918 -0.0230
 6462SOL    HW130848   0.076   3.125   9.764 -0.3721 -0.8185  0.8140
 6462SOL    HW230849   0.216   3.178   9.746  0.0902  1.3659  1.2810
 6463SOL     OW30850   3.183   3.352  16.026  0.4916  0.0173  0.2612
 6463SOL    HW130851   3.155   3.292  16.095  2.3825 -0.0029  1.0113
 6463SOL    HW230852   3.244   3.297  15.977  0.3185 -2.0454  2.3498
 6464SOL     OW30853   3.254   0.716   3.018 -0.4279 -0.4387 -0.1349
 6464SOL    HW130854   3.278   0.808   3.008 -2.6484  0.1808  0.1554
 6464SOL    HW230855   3.258   0.706   3.113 -0.0285  0.0148 -0.1000
 6465SOL     OW30856   1.681   2.993   0.062  0.3986  0.4143  0.5071
 6465SOL    HW130857   1.753   3.021   0.006  1.5176 -2.4213  0.5265
 6465SOL    HW230858   1.702   2.900   0.061  0.1669  0.3753 -0.8675
 6466SOL     OW30859   2.969   0.328   9.112 -0.5575 -0.1550  0.3716
 6466SOL    HW130860   2.963   0.237   9.142  1.5603 -0.5109 -0.2908
 6466SOL    HW230861   3.009   0.361   9.192  0.9828  0.4218 -0.6436
 6467SOL     OW30862   2.608   3.246  12.444 -0.5577 -0.0249 -0.0266
 6467SOL    HW130863   2.659   3.254  12.524  0.7827 -0.7698 -0.8014
 6467SOL    HW230864   2.666   3.197  12.386 -0.3364  1.7772 -1.3071
 6468SOL     OW30865   1.678   4.201   6.063 -0.3039  0.1061  0.2685
 6468SOL    HW130866   1.593   4.204   6.108  0.8205  1.1678  2.3038
 6468SOL    HW230867   1.643   4.177   5.977  2.3296  0.2970 -0.8357
 6469SOL     OW30868   3.607   1.628   3.830 -0.1487  0.3671 -0.0073
 6469SOL    HW130869   3.562   1.690   3.888 -0.7228 -2.5656  2.6630
 6469SOL    HW230870   3.533   1.590   3.782 -0.6514  0.3355  0.7832
 6470SOL     OW30871   0.067   1.045  12.362  0.2389 -0.4594 -0.2903
 6470SOL    HW130872   0.092   0.955  12.343 -0.0058 -0.8409  1.1819
 6470SOL    HW230873   0.031   1.037  12.450 -1.0165  0.0774 -0.7607
 6471SOL     OW30874   4.269   3.459   2.307 -0.0371  0.3186 -0.1112
 6471SOL    HW130875   4.263   3.553   2.295 -0.2457  0.4849  1.3014
 6471SOL    HW230876   4.194   3.446   2.365  0.8153 -0.2955  0.8541
 6472SOL     OW30877   3.177   2.490   2.834 -0.6720  1.3514  0.0611
 6472SOL    HW130878   3.164   2.496   2.740  0.2581  0.8890 -0.1045
 6472SOL    HW230879   3.134   2.573   2.854 -0.1946  1.7129 -0.4020
 6473SOL     OW30880   1.482   2.665   4.358  0.0723  0.7251  0.0727
 6473SOL    HW130881   1.466   2.725   4.286 -0.5072 -2.4875 -2.4492
 6473SOL    HW230882   1.521   2.593   4.308  0.7663  1.0442  0.1520
 6474SOL     OW30883   4.155   2.788  12.427  0.3193  0.2267 -0.6430
 6474SOL    HW130884   4.168   2.709  12.480  0.0081 -0.7238 -2.0005
 6474SOL    HW230885   4.062   2.805  12.445  0.5285  1.3489 -0.6194
 6475SOL     OW30886   0.215   2.491   6.964  0.1304  0.1071 -0.1589
 6475SOL    HW130887   0.170   2.424   6.913 -0.8216 -0.9209  2.0351
 6475SOL    HW230888   0.303   2.491   6.927  0.2214 -2.3942  0.0524
 6476SOL     OW30889   0.683   4.650   3.770  0.5806 -0.7971 -0.3452
 6476SOL    HW130890   0.687   4.672   3.677 -1.5498  0.5975 -0.1002
 6476SOL    HW230891   0.599   4.688   3.796  2.0463  1.9298  0.3292
 6477SOL     OW30892   3.937   0.798   4.583 -0.5745  0.5531 -0.4488
 6477SOL    HW130893   4.024   0.777   4.615 -0.6572  0.1992 -0.4618
 6477SOL    HW230894   3.934   0.744   4.504  0.3474  0.2918 -0.3017
 6478SOL     OW30895   1.697   0.644   4.027 -0.1584  0.8195  0.1087
 6478SOL    HW130896   1.636   0.590   3.977 -0.0254  1.2092 -0.4721
 6478SOL    HW230897   1.779   0.594   4.020 -1.0085 -0.5995  0.2425
 6479SOL     OW30898   3.201   1.955   6.053 -0.5681 -0.0346  0.1607
 6479SOL    HW130899   3.149   1.946   5.973 -0.2355  0.6301 -0.1274
 6479SOL    HW230900   3.196   1.864   6.082  0.3741 -0.6120 -1.4961
 6480SOL     OW30901   3.040   4.411  10.921  0.3675 -0.1415  0.1400
 6480SOL    HW130902   2.946   4.420  10.905  0.2345 -3.0441 -0.7214
 6480SOL    HW230903   3.056   4.468  10.996  2.0098 -1.2657  0.6508
 6481SOL     OW30904   0.144   2.699   1.690  0.2136 -0.2522  0.3433
 6481SOL    HW130905   0.200   2.622   1.690 -1.6772 -1.6230  1.8915
 6481SOL    HW230906   0.075   2.654   1.641 -1.1769  1.1750  0.9859
 6482SOL     OW30907   4.679   0.846   1.830 -0.3229  0.3322 -0.0961
 6482SOL    HW130908   0.031   0.830   1.887 -0.9534 -0.6748  0.4389
 6482SOL    HW230909   4.640   0.759   1.824 -1.0591  0.7660 -1.8095
 6483SOL     OW30910   2.655   4.698   3.194 -0.5498  0.3157 -0.2706
 6483SOL    HW130911   2.605   0.057   3.184 -1.1910 -0.2424 -1.6316
 6483SOL    HW230912   2.700   4.720   3.276  1.7622  0.4767 -1.6055
 6484SOL     OW30913   3.300   3.434  10.868  0.1171  0.2119  0.2698
 6484SOL    HW130914   3.299   3.379  10.947  1.2815 -1.7424 -1.0614
 6484SOL    HW230915   3.386   3.411  10.831  0.3790 -1.1254  1.6957
 6485SOL     OW30916   0.316   4.143  11.750  0.0939  0.2567  0.0472
 6485SOL    HW130917   0.273   4.067  11.789  0.4817  1.7547  3.4106
 6485SOL    HW230918   0.263   4.136  11.670 -1.4193  2.2592  0.8847
 6486SOL     OW30919   2.978   0.662   4.328 -0.7699 -0.4020  0.5418
 6486SOL    HW130920   2.923   0.667   4.406 -1.0230  0.6095  0.2894
 6486SOL    HW230921   3.063   0.638   4.366  0.2579 -0.4432 -1.7980
 6487SOL     OW30922   2.132   2.093   8.741 -0.5183  0.6653 -0.5343
 6487SOL    HW130923   2.047   2.134   8.758 -0.3970 -0.3745  2.5343
 6487SOL    HW230924   2.095   2.016   8.697  0.7342  0.1804 -0.7307
 6488SOL     OW30925   2.670   3.151  13.007 -0.3162  0.7691  0.1616
 6488SOL    HW130926   2.661   3.245  13.020  2.1008  1.2695 -1.6902
 6488SOL    HW230927   2.597   3.128  12.949 -0.5390  0.5139  0.5469
 6489SOL     OW30928   3.443   0.358   3.097 -0.0916  0.2787 -0.1689
 6489SOL    HW130929   3.363   0.389   3.139  0.0171 -3.7035  2.9771
 6489SOL    HW230930   3.458   0.442   3.055 -1.2772  1.2340  1.3301
 6490SOL     OW30931   1.196   3.964   4.335  0.3927 -0.1205 -0.6280
 6490SOL    HW130932   1.156   3.988   4.251  3.1081  1.8476 -1.3759
 6490SOL    HW230933   1.164   4.029   4.398  1.8448  0.2642 -0.2840
 6491SOL     OW30934   4.704   3.384   9.498  0.2568 -0.2208  0.5273
 6491SOL    HW130935   4.618   3.361   9.533 -0.5270  1.4685 -0.3267
 6491SOL    HW230936   0.038   3.402   9.574  3.8020  0.2628 -2.2060
 6492SOL     OW30937   2.843   1.293   2.332 -0.0377  0.3145 -0.6965
 6492SOL    HW130938   2.883   1.228   2.275  2.8453  1.4603  0.0174
 6492SOL    HW230939   2.826   1.262   2.421 -0.7955  2.4779 -0.0837
 6493SOL     OW30940   2.686   1.688   8.787  0.2449  0.3024 -0.0103
 6493SOL    HW130941   2.705   1.720   8.875  0.3397  1.1980 -0.3636
 6493SOL    HW230942   2.624   1.616   8.802 -1.3277  1.5015 -0.7971
 6494SOL     OW30943   0.919   0.818   8.406 -0.1208 -0.1867 -0.6185
 6494SOL    HW130944   0.840   0.839   8.456 -1.7313 -0.8286 -2.8415
 6494SOL    HW230945   0.977   0.890   8.431 -2.5747  2.3684 -2.1513
 6495SOL     OW30946   3.205   2.505   5.229 -0.7369  0.2301 -0.2811
 6495SOL    HW130947   3.158   2.535   5.151  0.9386 -2.2394 -2.2640
 6495SOL    HW230948   3.134   2.524   5.289 -1.6413  0.1512 -1.3298
 6496SOL     OW30949   1.721   0.291   7.112 -0.3243  0.2458 -0.0030
 6496SOL    HW130950   1.725   0.224   7.181  0.5539 -0.9933 -1.2757
 6496SOL    HW230951   1.686   0.358   7.172 -1.3944 -0.4931  0.2131
 6497SOL     OW30952   3.193   2.829   0.969  0.2859 -0.0520  0.2906
 6497SOL    HW130953   3.276   2.793   0.938 -1.4163 -1.5416 -2.4935
 6497SOL    HW230954   3.138   2.832   0.891  1.9771 -1.3588 -0.9328
 6498SOL     OW30955   2.056   1.638   8.091  0.4256  0.8772 -0.3552
 6498SOL    HW130956   2.111   1.703   8.048 -0.0495  1.6392  0.1862
 6498SOL    HW230957   2.109   1.620   8.168 -1.3244  1.4406  0.9816
 6499SOL     OW30958   0.118   0.064   2.994  0.5038  0.1690  0.2384
 6499SOL    HW130959   0.144   4.721   2.929 -0.8021  1.1668 -1.2788
 6499SOL    HW230960   0.130   0.142   2.940 -0.8747  0.5812  0.5335
 6500SOL     OW30961   4.118   2.342  12.231  0.2258  0.1475  0.7401
 6500SOL    HW130962   4.062   2.413  12.263  0.5558  0.5808  0.3532
 6500SOL    HW230963   4.128   2.283  12.306 -1.0554 -0.8234  0.1335
 6501SOL     OW30964   3.895   0.227   4.984 -0.2032  0.6604 -0.7018
 6501SOL    HW130965   3.937   0.149   5.021 -0.4264  0.2997 -1.2008
 6501SOL    HW230966   3.927   0.296   5.043  1.8662 -0.2131 -0.8044
 6502SOL     OW30967   2.243   1.063   9.166  0.2733 -0.8770 -0.3118
 6502SOL    HW130968   2.216   0.977   9.135  0.7281 -1.7192  1.6339
 6502SOL    HW230969   2.308   1.041   9.233  0.8592  0.4501 -0.4528
 6503SOL     OW30970   2.050   0.380   8.841  0.3143 -0.2687  0.2530
 6503SOL    HW130971   2.078   0.299   8.799 -0.8857  0.5418 -2.0936
 6503SOL    HW230972   2.106   0.389   8.919  2.3816 -0.4904 -1.2010
 6504SOL     OW30973   3.056   4.069  11.695 -0.0372 -0.3211  0.1328
 6504SOL    HW130974   3.117   4.116  11.751  0.8257 -1.9582  0.5510
 6504SOL    HW230975   3.034   4.000  11.758  0.3303  0.0296  0.6424
 6505SOL     OW30976   2.636   3.352  14.035  0.2260 -0.4948  0.3949
 6505SOL    HW130977   2.674   3.393  14.113 -2.8788 -1.7044  2.5515
 6505SOL    HW230978   2.550   3.393  14.028 -0.2450 -1.7421 -1.0100
 6506SOL     OW30979   1.529   4.404   3.454  0.0925  0.2546  0.3150
 6506SOL    HW130980   1.489   4.403   3.367  2.3958  0.8641 -0.7414
 6506SOL    HW230981   1.544   4.497   3.469 -0.0986  0.4008 -0.4046
 6507SOL     OW30982   4.663   3.016   5.684  0.2669  0.3629  0.0106
 6507SOL    HW130983   4.683   2.971   5.766  0.5301  0.2311 -0.1268
 6507SOL    HW230984   4.604   2.951   5.647 -2.4620  2.0088  1.4360
 6508SOL     OW30985   2.629   0.686   7.496  0.5654  0.0438  0.0964
 6508SOL    HW130986   2.709   0.682   7.548  0.1752  0.1309  0.6971
 6508SOL    HW230987   2.596   0.758   7.549  4.0183  1.1498  0.7751
 6509SOL     OW30988   3.157   4.100   4.432  0.3485 -0.0134  0.8016
 6509SOL    HW130989   3.201   4.109   4.517  3.7724 -3.1309 -0.6993
 6509SOL    HW230990   3.132   4.191   4.420  1.2934  0.3295  1.4352
 6510SOL     OW30991   3.178   2.950   7.406 -0.5595  0.2259  0.3853
 6510SOL    HW130992   3.272   2.943   7.423 -0.5037 -0.5140 -0.2416
 6510SOL    HW230993   3.151   3.008   7.478 -1.1140 -0.7302  0.9428
 6511SOL     OW30994   1.918   3.596   5.249  0.1044  0.8655  0.8215
 6511SOL    HW130995   1.840   3.545   5.271 -1.2224  2.4712 -0.0650
 6511SOL    HW230996   1.879   3.680   5.222 -0.0079  0.1887 -1.1057
 6512SOL     OW30997   2.708   0.191   8.065 -0.6575  0.7817  0.5905
 6512SOL    HW130998   2.722   0.266   8.006 -0.5912  0.2150 -0.1159
 6512SOL    HW230999   2.735   0.115   8.014 -1.5164 -0.5519  2.1183
 6513SOL     OW31000   2.388   2.238  14.427 -0.6147 -0.3804 -0.3913
 6513SOL    HW131001   2.429   2.176  14.486  0.0136 -0.0050 -0.4409
 6513SOL    HW231002   2.296   2.244  14.455 -0.6381 -0.2562 -0.4920
 6514SOL     OW31003   1.294   1.898  11.334 -0.0995 -0.4617  0.2216
 6514SOL    HW131004   1.263   1.956  11.403  1.5265  0.8481 -0.1623
 6514SOL    HW231005   1.386   1.894  11.356  0.6911 -1.3240 -3.1349
 6515SOL     OW31006   3.886   1.970  12.438 -0.1337 -0.4856  1.0416
 6515SOL    HW131007   3.885   2.056  12.480  1.4097  0.2591 -0.4484
 6515SOL    HW231008   3.804   1.965  12.388  1.7808 -2.1681 -1.9802
 6516SOL     OW31009   0.351   1.738   4.378 -0.2123 -0.2899  0.0421
 6516SOL    HW131010   0.348   1.788   4.297 -1.3904  1.4110  1.1355
 6516SOL    HW231011   0.263   1.700   4.381  0.2113 -1.0520  2.7795
 6517SOL     OW31012   3.377   4.182   9.056 -0.2823  0.5405 -0.4665
 6517SOL    HW131013   3.372   4.098   9.010  1.4577  0.2367 -0.1263
 6517SOL    HW231014   3.463   4.173   9.099 -0.9938 -2.7221  0.2608
 6518SOL     OW31015   0.122   0.836   9.215  0.3310 -0.4844 -0.2625
 6518SOL    HW131016   0.047   0.820   9.272 -0.4950 -0.6679 -1.3983
 6518SOL    HW231017   0.150   0.919   9.255 -1.0589  1.6088 -3.6049
 6519SOL     OW31018   2.856   2.782   5.864  0.6825 -0.1941 -0.1913
 6519SOL    HW131019   2.849   2.787   5.960 -0.2945 -0.6490 -0.2416
 6519SOL    HW231020   2.762   2.769   5.851  0.7798  0.2568 -1.3111
 6520SOL     OW31021   1.202   4.634   6.927 -0.6096  0.0716  0.2364
 6520SOL    HW131022   1.222   4.575   6.854 -1.6526 -2.0284  1.6482
 6520SOL    HW231023   1.262   4.616   6.999  0.4248 -0.6965 -0.8108
 6521SOL     OW31024   2.238   1.222   3.519 -0.2118  0.5541 -0.5205
 6521SOL    HW131025   2.296   1.182   3.454  0.3045 -0.8415  0.7821
 6521SOL    HW231026   2.154   1.193   3.484 -0.5308  1.9498 -0.9387
 6522SOL     OW31027   0.459   2.527   8.307 -0.4699 -0.1427 -0.1484
 6522SOL    HW131028   0.459   2.471   8.385  1.3834 -1.6347 -1.2133
 6522SOL    HW231029   0.550   2.524   8.279 -0.0251  0.8268  1.2291
 6523SOL     OW31030   4.187   4.003  14.470 -0.2235  0.4249 -0.8120
 6523SOL    HW131031   4.158   3.912  14.462 -0.1209  0.3420 -0.1865
 6523SOL    HW231032   4.198   4.017  14.375  0.8510  1.4569 -0.5402
 6524SOL     OW31033   3.327   2.934   6.317  0.5585  0.2309  0.7112
 6524SOL    HW131034   3.268   2.900   6.250  2.0527 -2.4409  0.7748
 6524SOL    HW231035   3.280   2.919   6.398 -0.1975 -0.3020  0.1737
 6525SOL     OW31036   3.994   2.218   1.837 -0.5767  0.3415 -0.2920
 6525SOL    HW131037   3.934   2.269   1.893 -1.2241 -0.3146 -0.3865
 6525SOL    HW231038   3.966   2.261   1.756 -0.9314 -0.6446 -0.6954
 6526SOL     OW31039   2.041   3.117   7.829  0.3380 -0.0069 -0.2210
 6526SOL    HW131040   1.963   3.172   7.826 -0.2619 -0.7707  1.2543
 6526SOL    HW231041   2.009   3.030   7.804 -0.8564  0.3488  0.0749
 6527SOL     OW31042   4.481   1.378  13.553  0.4288 -0.0228 -0.0611
 6527SOL    HW131043   4.502   1.422  13.470  1.8558  2.2324  1.5072
 6527SOL    HW231044   4.413   1.435  13.588  1.9503  1.7013  0.0856
 6528SOL     OW31045   3.946   2.411  14.036 -0.3540 -0.2179 -0.3016
 6528SOL    HW131046   3.853   2.435  14.034 -0.1884  0.5718  1.5056
 6528SOL    HW231047   3.987   2.483  14.084 -2.8758  0.9223  0.1424
 6529SOL     OW31048   4.585   1.706   6.349  0.4140 -0.2041  0.9183
 6529SOL    HW131049   4.490   1.698   6.345  0.4528 -0.3295  0.2921
 6529SOL    HW231050   4.594   1.799   6.328  1.3089 -1.0700 -2.5299
 6530SOL     OW31051   4.012   0.085  12.861  0.5401  0.2364  0.0213
 6530SOL    HW131052   4.042   0.082  12.770  0.5556  0.9831 -0.0005
 6530SOL    HW231053   3.980   4.719  12.879 -4.3214  2.1158  0.7386
 6531SOL     OW31054   1.623   2.775   7.847 -0.0692  0.1913  0.2861
 6531SOL    HW131055   1.597   2.784   7.939  2.7974 -3.9600  1.4831
 6531SOL    HW231056   1.599   2.683   7.836  0.8276 -0.0467  0.3637
 6532SOL     OW31057   1.554   0.866   9.834  0.3720 -0.4196 -0.3033
 6532SOL    HW131058   1.485   0.853   9.900 -0.0073  0.4561 -0.5192
 6532SOL    HW231059   1.559   0.777   9.800 -1.3354 -0.1540 -1.2530
 6533SOL     OW31060   1.611   1.494   5.674 -0.1244  0.0086  0.3859
 6533SOL    HW131061   1.677   1.546   5.629  0.9038 -0.5211  1.2971
 6533SOL    HW231062   1.548   1.477   5.603 -0.7925  2.3760  0.4174
 6534SOL     OW31063   1.189   3.342   2.330  0.2328  0.3911 -0.2288
 6534SOL    HW131064   1.154   3.377   2.412 -1.5215 -1.3567 -0.2186
 6534SOL    HW231065   1.157   3.252   2.335  1.6538 -0.0299  1.2046
 6535SOL     OW31066   1.602   4.041   8.527  0.2615 -0.5294  0.8354
 6535SOL    HW131067   1.614   3.980   8.453 -1.7032  0.5400 -0.3917
 6535SOL    HW231068   1.667   4.033   8.596 -1.3774 -1.5842  2.2708
 6536SOL     OW31069   3.336   3.900   2.717 -0.4646  0.2264  0.4473
 6536SOL    HW131070   3.397   3.851   2.661 -0.7700  1.2187 -0.7455
 6536SOL    HW231071   3.395   3.970   2.747 -0.2281  0.7588 -1.2837
 6537SOL     OW31072   0.602   2.607   2.764 -0.3334  0.3678 -1.2192
 6537SOL    HW131073   0.554   2.686   2.792 -1.5183 -0.1847 -1.7048
 6537SOL    HW231074   0.542   2.537   2.792  1.9346 -0.7810  0.7379
 6538SOL     OW31075   1.661   0.498  16.841 -0.5506 -0.0198  0.5226
 6538SOL    HW131076   1.654   0.526  16.750 -0.2736 -0.8546  0.2493
 6538SOL    HW231077   1.752   0.469  16.850 -0.8083 -1.1757 -0.6732
 6539SOL     OW31078   0.972   1.349   0.050 -0.3043  0.1596 -0.1819
 6539SOL    HW131079   0.983   1.418  17.675  0.4407 -1.6151 -1.9294
 6539SOL    HW231080   0.885   1.364   0.087  0.6130  1.9293  1.2413
 6540SOL     OW31081   2.410   1.475   5.066 -0.2688 -0.0406 -0.0735
 6540SOL    HW131082   2.412   1.569   5.050  1.0342 -0.2592 -1.1934
 6540SOL    HW231083   2.333   1.479   5.122  0.1714  0.1355  0.5164
 6541SOL     OW31084   0.562   2.639   4.267  0.2379 -0.0635 -0.0910
 6541SOL    HW131085   0.520   2.593   4.340  0.2948 -2.7739 -1.7940
 6541SOL    HW231086   0.644   2.590   4.274  1.5256  2.0072 -0.7097
 6542SOL     OW31087   4.375   2.717  12.923  0.3498 -0.6527  0.3191
 6542SOL    HW131088   4.466   2.745  12.935 -0.3408  1.0983  1.5308
 6542SOL    HW231089   4.366   2.673  13.008  0.6845 -1.9893 -0.3386
 6543SOL     OW31090   0.697   4.452  11.482 -0.2248 -0.1758 -0.1257
 6543SOL    HW131091   0.644   4.373  11.473 -1.7433  0.8077  0.2500
 6543SOL    HW231092   0.650   4.515  11.428  0.1348 -0.9517 -1.3480
 6544SOL     OW31093   4.031   4.510   2.374  0.0282  0.0557  0.0814
 6544SOL    HW131094   4.010   4.603   2.381  0.4758  0.0206  1.7035
 6544SOL    HW231095   4.111   4.510   2.426 -1.5930  1.4931  2.5683
 6545SOL     OW31096   0.084   4.275   3.049  0.1935 -0.0272 -0.5767
 6545SOL    HW131097   0.145   4.203   3.063  0.1483  0.1501  0.5093
 6545SOL    HW231098   0.078   4.270   2.953 -0.1450  1.3624 -0.6227
 6546SOL     OW31099   0.769   2.822  14.255  0.2131  0.3941  0.8624
 6546SOL    HW131100   0.800   2.770  14.328  0.4533  0.1975  0.6207
 6546SOL    HW231101   0.674   2.815  14.256  0.1861  0.4130 -0.9429
 6547SOL     OW31102   0.340   0.794  16.798  0.0949 -0.2767  0.6951
 6547SOL    HW131103   0.252   0.817  16.828 -0.0528  0.6087 -0.4404
 6547SOL    HW231104   0.339   0.814  16.705 -0.5480 -0.2871  0.7052
 6548SOL     OW31105   0.419   0.964   2.480 -0.4931 -0.0824 -0.0692
 6548SOL    HW131106   0.438   0.989   2.389 -0.8704  0.1870 -0.0757
 6548SOL    HW231107   0.463   0.880   2.491  0.0676  0.2474  0.2284
 6549SOL     OW31108   3.302   1.569   2.271 -1.0484  0.1533  0.9426
 6549SOL    HW131109   3.375   1.573   2.333 -1.9913  1.1965  1.9800
 6549SOL    HW231110   3.269   1.481   2.293 -0.9143 -0.5910 -1.7767
 6550SOL     OW31111   0.829   1.345   2.332 -0.2612  0.2124 -0.3109
 6550SOL    HW131112   0.903   1.297   2.296 -0.8496 -2.0994  1.5693
 6550SOL    HW231113   0.837   1.310   2.420  0.7609 -1.9121 -1.2454
 6551SOL     OW31114   3.594   2.998  14.391 -0.2504  0.2584 -0.1774
 6551SOL    HW131115   3.574   2.908  14.417 -0.2242  0.0748 -0.7755
 6551SOL    HW231116   3.553   2.983  14.306  0.6628  1.7114 -0.8658
 6552SOL     OW31117   1.379   0.926  15.244  0.2279  0.0257  0.4150
 6552SOL    HW131118   1.474   0.927  15.233  0.4280  0.4559  2.1628
 6552SOL    HW231119   1.358   0.837  15.214 -2.1937  0.1927  1.6199
 6553SOL     OW31120   1.047   3.262  17.081 -0.2868 -0.1062  0.3891
 6553SOL    HW131121   1.053   3.213  17.163 -2.4922  0.0546  0.6352
 6553SOL    HW231122   0.968   3.227  17.040 -0.1722 -0.6445  0.6397
 6554SOL     OW31123   0.190   2.722   8.930 -0.1043  0.1419 -0.8499
 6554SOL    HW131124   0.243   2.798   8.954 -0.1679  0.0624 -0.4620
 6554SOL    HW231125   0.238   2.647   8.965  1.5834  1.0042 -1.3423
 6555SOL     OW31126   3.095   4.582  11.475  0.2924 -0.0547  1.0445
 6555SOL    HW131127   3.135   4.495  11.479 -2.7238 -1.3944  2.2045
 6555SOL    HW231128   3.005   4.555  11.455  0.4831 -0.4765  0.7547
 6556SOL     OW31129   1.452   3.490   9.171 -0.5672  0.0991 -0.2113
 6556SOL    HW131130   1.463   3.410   9.221  0.9461  0.1910 -0.4011
 6556SOL    HW231131   1.356   3.493   9.163 -0.6937  1.0364  1.7770
 6557SOL     OW31132   4.264   4.035   7.109  0.3230  0.6880 -0.1449
 6557SOL    HW131133   4.279   3.995   7.195 -2.0401  0.2698  0.0794
 6557SOL    HW231134   4.196   4.094   7.141 -0.4782 -0.5594  0.4872
 6558SOL     OW31135   3.110   1.307   4.644 -0.3050 -0.6037  0.0582
 6558SOL    HW131136   3.104   1.256   4.563 -0.0098  1.5081 -1.2982
 6558SOL    HW231137   3.203   1.323   4.664 -0.7975  2.2348  0.0080
 6559SOL     OW31138   1.572   0.280   3.468 -0.4673 -0.3840  1.1399
 6559SOL    HW131139   1.643   0.217   3.477  0.2919  0.4076  0.6509
 6559SOL    HW231140   1.545   0.260   3.379  2.3375 -1.9932  0.6564
 6560SOL     OW31141   2.172   1.319   5.454  0.4199 -0.4586 -0.2464
 6560SOL    HW131142   2.153   1.226   5.448 -0.6620 -0.2212 -0.5439
 6560SOL    HW231143   2.141   1.343   5.542 -1.8219 -0.4945 -1.0243
 6561SOL     OW31144   4.020   4.707   8.705  0.7298  0.1508 -0.3428
 6561SOL    HW131145   3.977   4.718   8.620  1.0625 -0.0518 -0.5367
 6561SOL    HW231146   4.012   4.612   8.717  1.7491  0.0776 -0.2524
 6562SOL     OW31147   4.129   3.524  15.967  0.6101  0.1089  0.1468
 6562SOL    HW131148   4.062   3.456  15.954  0.5434  0.2821 -0.4443
 6562SOL    HW231149   4.146   3.524  16.061 -1.2734 -0.5525  0.4864
 6563SOL     OW31150   0.493   0.999   0.215  0.2107  0.5913  0.1914
 6563SOL    HW131151   0.490   0.955   0.300 -0.4559  2.2420  1.0204
 6563SOL    HW231152   0.518   1.089   0.239 -0.9477  0.7614  0.7594
 6564SOL     OW31153   0.399   2.427   1.294 -0.3174  0.1185  0.1454
 6564SOL    HW131154   0.303   2.425   1.298 -0.3753  0.9952 -0.8548
 6564SOL    HW231155   0.428   2.446   1.383 -2.2283  0.3737  0.7253
 6565SOL     OW31156   3.113   3.009   7.785  0.0736 -0.0689 -0.0348
 6565SOL    HW131157   3.192   3.030   7.835 -0.7676  0.8803  0.8763
 6565SOL    HW231158   3.110   3.068   7.710 -1.8498  2.7197  2.2476
 6566SOL     OW31159   0.900   1.269   4.601  0.8033  0.1686  0.3107
 6566SOL    HW131160   0.985   1.297   4.633  0.0389  0.2283  2.3094
 6566SOL    HW231161   0.875   1.336   4.538  0.4946  0.6388  0.9295
 6567SOL     OW31162   1.609   3.412   7.182  0.4116 -0.0767 -0.1186
 6567SOL    HW131163   1.535   3.469   7.162 -0.8621 -1.4283  0.8176
 6567SOL    HW231164   1.682   3.456   7.137  0.6954  0.7520  1.1568
 6568SOL     OW31165   3.991   1.876   7.043  0.7122 -0.6832 -0.0200
 6568SOL    HW131166   4.021   1.842   6.958  0.2095  0.5096 -0.6739
 6568SOL    HW231167   3.896   1.877   7.031  0.8351  1.6097 -0.8198
 6569SOL     OW31168   4.304   1.334   1.503 -0.7165  0.1209 -0.0197
 6569SOL    HW131169   4.287   1.404   1.566  1.4052 -0.6670  1.4573
 6569SOL    HW231170   4.373   1.372   1.449 -1.0555 -0.0748 -0.5907
 6570SOL     OW31171   3.114   2.792   4.094  0.6040 -0.0311  0.3685
 6570SOL    HW131172   3.048   2.831   4.151 -0.2953  0.2898 -0.8850
 6570SOL    HW231173   3.166   2.860   4.052 -3.4258  2.7204 -0.0965
 6571SOL     OW31174   1.279   1.896  14.375 -0.3514 -0.0423 -0.0891
 6571SOL    HW131175   1.293   1.916  14.468  2.1059  0.3635 -0.5392
 6571SOL    HW231176   1.326   1.960  14.321 -2.3896  1.8525  0.3742
 6572SOL     OW31177   2.898   3.332  17.606 -0.8806  0.3649 -0.1200
 6572SOL    HW131178   2.835   3.404  17.604  0.9838  1.8817 -3.4113
 6572SOL    HW231179   2.903   3.317  17.512 -2.0364  1.0966 -0.3054
 6573SOL     OW31180   1.973   1.070   8.610 -0.1927  0.5847 -0.3049
 6573SOL    HW131181   2.019   1.144   8.650 -0.3084  0.0158  0.8804
 6573SOL    HW231182   1.882   1.094   8.630  0.0942  1.2127  0.2554
 6574SOL     OW31183   0.757   3.843   6.318  0.2139 -0.0482 -0.3889
 6574SOL    HW131184   0.797   3.853   6.404  1.3772 -1.8463 -0.7223
 6574SOL    HW231185   0.708   3.761   6.319  0.7702 -0.3785  0.0070
 6575SOL     OW31186   3.474   3.281   7.985 -0.0787  0.0339  0.3935
 6575SOL    HW131187   3.489   3.329   8.066  0.9039  2.5844 -1.2768
 6575SOL    HW231188   3.541   3.320   7.928 -0.3824 -0.0283 -0.0053
 6576SOL     OW31189   2.148   3.234  17.309 -0.3534 -0.1133  0.0407
 6576SOL    HW131190   2.115   3.164  17.365 -1.0067  0.0067 -0.1966
 6576SOL    HW231191   2.127   3.202  17.221 -1.4793 -1.7867  0.9049
 6577SOL     OW31192   2.027   2.742   5.057  0.6288  0.0157  0.6633
 6577SOL    HW131193   2.064   2.706   4.976 -0.0202  0.9937 -0.0693
 6577SOL    HW231194   2.026   2.663   5.111  2.0079  0.2908  1.1080
 6578SOL     OW31195   0.708   0.567  10.748 -0.1769  0.1360 -0.2359
 6578SOL    HW131196   0.623   0.535  10.718  0.5653 -0.4540 -1.7312
 6578SOL    HW231197   0.759   0.544  10.670 -0.6098 -2.6816  0.3164
 6579SOL     OW31198   3.536   1.615   7.437  0.3497 -0.5161  0.3054
 6579SOL    HW131199   3.503   1.702   7.463  0.3100 -0.6034  0.5434
 6579SOL    HW231200   3.629   1.635   7.427  0.7593 -1.3848  2.4055
 6580SOL     OW31201   0.132   4.597   3.730  0.5984 -0.8012  0.3690
 6580SOL    HW131202   0.101   4.602   3.821  0.4094  1.0826  0.1923
 6580SOL    HW231203   0.111   4.684   3.698  0.9578 -0.2055  1.7566
 6581SOL     OW31204   4.381   1.044  15.325  0.3897  0.1059 -0.3943
 6581SOL    HW131205   4.395   0.966  15.272  0.9940 -0.1652  0.1627
 6581SOL    HW231206   4.286   1.049  15.314  0.4950  0.5728 -1.0637
 6582SOL     OW31207   4.309   2.552   7.880  0.0312 -0.4210  0.6062
 6582SOL    HW131208   4.349   2.553   7.967  0.0991  0.1784  0.5660
 6582SOL    HW231209   4.379   2.531   7.818  2.2317 -1.4281  3.4438
 6583SOL     OW31210   1.834   2.351  12.122  0.2058  0.1612 -0.0489
 6583SOL    HW131211   1.830   2.439  12.160  2.0021 -0.3909  1.4014
 6583SOL    HW231212   1.753   2.346  12.071  1.2035  0.9049 -1.6896
 6584SOL     OW31213   1.080   2.645   1.750 -0.5137 -0.0257  0.3505
 6584SOL    HW131214   1.042   2.682   1.829  0.3794  0.5198  0.5236
 6584SOL    HW231215   1.165   2.626   1.790  0.0628 -0.4595 -1.0731
 6585SOL     OW31216   0.790   2.554   3.079 -0.2836 -0.2125  0.3540
 6585SOL    HW131217   0.790   2.463   3.106 -0.2812 -0.2564  0.2059
 6585SOL    HW231218   0.724   2.590   3.139 -0.3106 -1.0668  0.8278
 6586SOL     OW31219   0.231   3.547  13.856  0.3719 -0.0345  0.4423
 6586SOL    HW131220   0.299   3.612  13.872 -0.7673  0.7871  1.9997
 6586SOL    HW231221   0.256   3.508  13.773  0.0143 -1.0693  0.8197
 6587SOL     OW31222   3.556   2.438   8.307 -0.0867 -0.1255 -0.2027
 6587SOL    HW131223   3.652   2.441   8.310 -0.0927  0.8837 -0.7910
 6587SOL    HW231224   3.544   2.397   8.392 -1.1809 -3.2498 -1.8872
 6588SOL     OW31225   3.961   2.915  16.996 -1.0755 -0.1482 -0.1208
 6588SOL    HW131226   4.038   2.884  16.949  0.6225  1.6481  1.4190
 6588SOL    HW231227   3.891   2.899  16.933 -0.0587 -1.9068 -0.8110
 6589SOL     OW31228   4.226   4.441   7.911  0.5021  0.6678 -0.2714
 6589SOL    HW131229   4.242   4.382   7.837 -1.0252 -0.9675  0.7125
 6589SOL    HW231230   4.308   4.490   7.914  2.2591 -2.3825  0.5435
 6590SOL     OW31231   4.678   1.375   5.155 -0.4076  0.2897 -1.0307
 6590SOL    HW131232   4.630   1.382   5.237  1.0868  0.8287 -0.2036
 6590SOL    HW231233   0.014   1.301   5.169 -0.4399 -0.0243 -2.5923
 6591SOL     OW31234   0.399   4.706   5.419 -0.0079 -0.3552 -0.1015
 6591SOL    HW131235   0.452   4.653   5.359 -0.8851  0.3544 -1.4996
 6591SOL    HW231236   0.335   0.012   5.353  0.0420  1.1064  0.4836
 6592SOL     OW31237   2.411   1.917   6.536  0.0302  0.2629  0.2028
 6592SOL    HW131238   2.472   1.867   6.483 -0.6990 -0.4617  0.0540
 6592SOL    HW231239   2.385   1.986   6.475  2.4531 -0.7766 -1.9863
 6593SOL     OW31240   3.795   0.868  10.035 -0.5843  0.0625  0.2128
 6593SOL    HW131241   3.705   0.836  10.027 -0.0297 -1.3419 -0.5683
 6593SOL    HW231242   3.804   0.905   9.947 -2.5800 -3.0806 -1.3294
 6594SOL     OW31243   1.450   3.586   0.835  0.7463 -0.3868 -0.1263
 6594SOL    HW131244   1.363   3.548   0.832  0.3342  0.7211 -2.5491
 6594SOL    HW231245   1.428   3.679   0.821  1.8872 -0.0169  0.5101
 6595SOL     OW31246   0.486   1.091  17.511 -0.3347 -0.8431  0.0922
 6595SOL    HW131247   0.461   1.146  17.584  1.4613  0.3044 -0.1423
 6595SOL    HW231248   0.561   1.036  17.536  2.1365  2.4685  0.0733
 6596SOL     OW31249   1.742   2.374   4.359  0.3161  0.2777 -0.6239
 6596SOL    HW131250   1.687   2.305   4.396  2.3200 -0.9757  0.0012
 6596SOL    HW231251   1.771   2.435   4.427 -0.0175 -0.9422  0.6193
 6597SOL     OW31252   1.982   0.063   5.651  0.1312  0.4910 -0.2913
 6597SOL    HW131253   2.003   0.033   5.740 -0.3847  0.9496 -0.0117
 6597SOL    HW231254   2.027   4.717   5.601 -1.2143  0.4592 -1.4605
 6598SOL     OW31255   0.374   4.432   2.566 -0.0151 -0.8951 -0.4993
 6598SOL    HW131256   0.417   4.373   2.504 -0.3511 -2.9668  1.2058
 6598SOL    HW231257   0.289   4.387   2.573 -0.3707 -0.0584  0.5240
 6599SOL     OW31258   3.036   1.843   4.598  0.0367 -0.2722 -0.4023
 6599SOL    HW131259   3.052   1.929   4.637 -0.2217  0.5367 -2.0697
 6599SOL    HW231260   3.125   1.809   4.592 -0.3556 -0.9901 -2.3168
 6600SOL     OW31261   1.207   3.999   6.477  0.0591 -0.3209  0.1725
 6600SOL    HW131262   1.184   3.920   6.527 -1.7390 -0.8976 -1.5358
 6600SOL    HW231263   1.286   3.973   6.431  2.5847  0.1559  4.2289
 6601SOL     OW31264   3.848   1.201   6.860 -0.5941 -0.2235  0.0903
 6601SOL    HW131265   3.940   1.186   6.882 -0.5609  2.6689  1.9934
 6601SOL    HW231266   3.841   1.288   6.821  0.6519 -1.2635 -2.4301
 6602SOL     OW31267   3.108   3.085   5.759  0.4346 -0.3088  0.1163
 6602SOL    HW131268   3.097   3.171   5.799  2.0336 -0.4660  0.9342
 6602SOL    HW231269   3.185   3.050   5.805  0.3127  1.8977  2.0366
 6603SOL     OW31270   2.962   2.382   3.014 -0.1373  0.0950  0.3455
 6603SOL    HW131271   3.049   2.418   2.998  0.0297 -0.6323 -0.4277
 6603SOL    HW231272   2.963   2.330   2.933 -2.6395  1.0529 -0.2825
 6604SOL     OW31273   0.347   3.023   2.395  0.6682  0.4692 -0.6247
 6604SOL    HW131274   0.419   3.023   2.459  0.0246 -1.3016  0.1035
 6604SOL    HW231275   0.307   3.106   2.419  2.6982  1.7425 -1.5771
 6605SOL     OW31276   0.359   1.912  11.043  0.2573  0.0650 -0.3370
 6605SOL    HW131277   0.278   1.944  11.003  1.0501  1.9820 -0.4549
 6605SOL    HW231278   0.352   1.819  11.021 -0.6097 -0.4718  2.3454
 6606SOL     OW31279   3.925   0.024  13.909 -0.3183  0.1470  0.3660
 6606SOL    HW131280   3.845   0.023  13.962 -0.3844 -0.6693  0.2584
 6606SOL    HW231281   3.905   4.698  13.829  0.1079 -2.0861  1.6018
 6607SOL     OW31282   0.869   4.312   5.218  0.0927 -0.2104 -0.0704
 6607SOL    HW131283   0.963   4.329   5.227 -0.0099 -0.9681  2.5042
 6607SOL    HW231284   0.831   4.398   5.240 -1.5283 -0.4456 -2.0234
 6608SOL     OW31285   0.197   2.188   8.942 -0.2554  0.1897  0.1387
 6608SOL    HW131286   0.199   2.129   9.017  1.0691  0.3175  0.2020
 6608SOL    HW231287   0.111   2.225   8.964 -0.3867  0.3101 -0.5633
 6609SOL     OW31288   4.377   2.923   4.163 -0.3320 -0.3333  0.4952
 6609SOL    HW131289   4.298   2.912   4.216  0.3557 -1.7883  1.2232
 6609SOL    HW231290   4.396   2.832   4.142 -2.9490 -0.8523  0.3724
 6610SOL     OW31291   2.082   3.782   8.173  0.1460  0.1250  0.3281
 6610SOL    HW131292   2.157   3.738   8.134 -0.9473 -0.5907 -0.9954
 6610SOL    HW231293   2.121   3.821   8.251 -2.2199  2.7107  0.2392
 6611SOL     OW31294   0.431   4.387  17.635 -0.1696 -0.0722  0.0530
 6611SOL    HW131295   0.477   4.385   0.028 -1.0977 -3.1512  0.4628
 6611SOL    HW231296   0.420   4.292  17.633 -0.2223 -0.0122 -3.6073
 6612SOL     OW31297   2.802   3.962   5.226 -0.1478  0.0980 -0.3753
 6612SOL    HW131298   2.825   3.919   5.143 -0.5910 -0.0985 -0.3987
 6612SOL    HW231299   2.811   3.879   5.273 -0.6173  1.2984  1.7883
 6613SOL     OW31300   0.467   2.010   3.827 -0.2003 -0.3311 -0.5867
 6613SOL    HW131301   0.454   2.027   3.921 -0.3897 -0.7778 -0.5297
 6613SOL    HW231302   0.560   2.030   3.825 -0.2959 -0.1106 -2.1969
 6614SOL     OW31303   3.814   0.787   1.930  0.0787  0.1217 -0.3336
 6614SOL    HW131304   3.734   0.835   1.906 -0.0870  0.8682  1.7038
 6614SOL    HW231305   3.774   0.705   1.959 -0.9877  1.1324  1.0267
 6615SOL     OW31306   1.989   4.517   4.767 -0.9757  0.2902  0.1839
 6615SOL    HW131307   2.043   4.459   4.820 -0.6821 -0.2179 -0.6959
 6615SOL    HW231308   1.955   4.572   4.838 -2.2578 -0.3837  0.1017
 6616SOL     OW31309   4.032   0.031  16.720  0.2617  0.1622  0.0949
 6616SOL    HW131310   4.060   4.672  16.678 -2.8213 -0.2998 -1.0214
 6616SOL    HW231311   4.111   0.082  16.702 -0.2979  1.2907  0.8340
 6617SOL     OW31312   1.884   0.160   1.271  0.6376  0.3178 -0.2394
 6617SOL    HW131313   1.855   0.079   1.313  0.5076  0.5551  0.1194
 6617SOL    HW231314   1.831   0.220   1.322  1.2525 -0.8244  1.7416
 6618SOL     OW31315   1.923   3.209   5.241 -0.2990 -0.1913 -0.4910
 6618SOL    HW131316   1.910   3.142   5.173 -2.2566 -0.2519 -0.0488
 6618SOL    HW231317   2.017   3.227   5.250 -0.7451  0.3024  2.8784
 6619SOL     OW31318   2.963   0.407   4.297  0.0010 -0.6554  0.3048
 6619SOL    HW131319   2.960   0.503   4.297 -4.5286 -0.8370 -1.4787
 6619SOL    HW231320   2.873   0.379   4.286  0.5737 -1.8101 -1.3800
 6620SOL     OW31321   1.007   3.006   0.499  0.1305  0.8345  0.1149
 6620SOL    HW131322   0.945   2.978   0.566 -0.8566 -0.3695 -1.3191
 6620SOL    HW231323   1.027   2.921   0.461  0.4674  0.6993  0.5929
 6621SOL     OW31324   3.550   3.651   8.395  0.7783  0.2694  0.3401
 6621SOL    HW131325   3.544   3.556   8.384  0.0224  0.2509  0.9380
 6621SOL    HW231326   3.525   3.655   8.487  0.9341 -2.3848  0.4943
 6622SOL     OW31327   0.098   2.465   5.288  0.6374 -0.2845  0.2332
 6622SOL    HW131328   0.078   2.541   5.343 -0.6029 -1.1846  1.0422
 6622SOL    HW231329   0.100   2.396   5.355  1.5256  1.7055  2.2467
 6623SOL     OW31330   4.379   2.333   5.044 -0.4152 -0.4121  0.1431
 6623SOL    HW131331   4.359   2.424   5.023 -2.7923 -0.7218  0.9886
 6623SOL    HW231332   4.418   2.319   5.131 -0.9191  1.6556  0.7120
 6624SOL     OW31333   3.028   0.395   7.451 -0.0154  0.0587  0.0337
 6624SOL    HW131334   3.053   0.309   7.418 -1.7016 -0.2746 -0.3202
 6624SOL    HW231335   3.004   0.435   7.367  1.4896  2.5480  0.7852
 6625SOL     OW31336   2.391   1.219   4.538 -0.5367  0.7014  0.1736
 6625SOL    HW131337   2.451   1.198   4.609  1.2837 -3.0407 -2.4670
 6625SOL    HW231338   2.351   1.134   4.519  0.3097 -0.0999  2.0413
 6626SOL     OW31339   3.623   4.068  15.233  0.0029 -0.2865  0.2350
 6626SOL    HW131340   3.534   4.056  15.267 -0.4173 -1.2051 -1.1687
 6626SOL    HW231341   3.618   4.160  15.209  0.3578 -0.3670 -0.1380
 6627SOL     OW31342   3.243   3.291   1.390  0.3978  0.4081  0.2179
 6627SOL    HW131343   3.197   3.361   1.435 -0.8044  1.7452 -3.1448
 6627SOL    HW231344   3.195   3.216   1.426  2.0712 -0.2715  1.0502
 6628SOL     OW31345   1.808   1.036  13.425  0.8137 -0.0204 -0.6532
 6628SOL    HW131346   1.725   1.055  13.469  1.4403 -3.6197  2.1080
 6628SOL    HW231347   1.838   0.963  13.479  0.7248  0.1818 -0.3326
 6629SOL     OW31348   3.353   1.393   1.496 -0.0977 -0.0989  0.1995
 6629SOL    HW131349   3.337   1.317   1.440  0.2378  0.2703 -0.4045
 6629SOL    HW231350   3.389   1.335   1.562  1.9839 -2.2583 -2.8057
 6630SOL     OW31351   2.031   3.088  11.493  0.5759  0.4651 -0.1240
 6630SOL    HW131352   2.003   3.029  11.562  1.0269 -0.0662 -0.3997
 6630SOL    HW231353   2.088   3.145  11.545  1.9453  0.7359 -1.9185
 6631SOL     OW31354   1.498   0.787   2.851  0.5135 -0.9225  0.1630
 6631SOL    HW131355   1.426   0.724   2.844  1.7991 -2.0586 -2.9863
 6631SOL    HW231356   1.463   0.837   2.925  1.2964  2.1752 -1.5612
 6632SOL     OW31357   3.429   2.364   9.204 -0.3379  0.4091  0.4414
 6632SOL    HW131358   3.523   2.367   9.187 -0.2833  0.4590  0.7614
 6632SOL    HW231359   3.431   2.409   9.288 -1.2390  0.7027  0.3088
 6633SOL     OW31360   1.962   1.213   3.461  0.1163  0.4463 -0.2566
 6633SOL    HW131361   1.910   1.165   3.396 -0.8602  1.5631 -0.3014
 6633SOL    HW231362   1.885   1.264   3.486 -0.3892 -1.4219  2.0218
 6634SOL     OW31363   4.671   0.386   7.227  0.2423 -0.4266 -0.0630
 6634SOL    HW131364   0.041   0.386   7.254  0.9303 -0.1446 -2.3609
 6634SOL    HW231365   4.647   0.459   7.285  0.2115 -1.6370  1.4412
 6635SOL     OW31366   1.513   3.244   5.156 -0.1449  0.0315 -0.0719
 6635SOL    HW131367   1.435   3.277   5.201  0.7175  2.6323 -0.5124
 6635SOL    HW231368   1.459   3.187   5.101 -0.7953 -1.0516  1.6771
 6636SOL     OW31369   3.380   2.155   3.924  0.5421 -0.1845 -0.3494
 6636SOL    HW131370   3.297   2.109   3.939  0.9986 -0.5573  1.0180
 6636SOL    HW231371   3.396   2.192   4.011  3.7609  0.5286 -1.2369
 6637SOL     OW31372   1.639   3.664   3.644 -0.5757  0.4496  0.1449
 6637SOL    HW131373   1.727   3.641   3.675 -0.5674 -0.1321 -0.3014
 6637SOL    HW231374   1.598   3.696   3.724 -0.0252 -3.1619  1.8528
 6638SOL     OW31375   3.279   1.125   0.606 -0.2147  0.1801 -0.2067
 6638SOL    HW131376   3.363   1.083   0.625 -0.7738  0.5883  3.1373
 6638SOL    HW231377   3.315   1.205   0.567  0.5841  0.7900  1.7853
 6639SOL     OW31378   3.832   1.785   4.310 -0.4602 -0.2559  0.2976
 6639SOL    HW131379   3.813   1.779   4.216 -0.3904  2.3857  0.1253
 6639SOL    HW231380   3.748   1.760   4.347 -1.0701  2.0866  0.4973
 6640SOL     OW31381   0.304   2.946   9.016  0.0390  0.0760 -1.0383
 6640SOL    HW131382   0.361   3.023   9.025 -0.6803  0.7121 -1.9798
 6640SOL    HW231383   0.221   2.977   9.051  1.0917  1.9565 -0.1945
 6641SOL     OW31384   3.678   1.600  11.159 -0.1146  0.6320 -0.5255
 6641SOL    HW131385   3.615   1.540  11.199 -1.7902  0.9864 -2.6410
 6641SOL    HW231386   3.760   1.553  11.169 -0.2562  0.3890 -0.5043
 6642SOL     OW31387   3.672   1.666   4.730 -0.1388  0.2929  0.5100
 6642SOL    HW131388   3.692   1.577   4.756  0.5353  0.4911  0.6761
 6642SOL    HW231389   3.718   1.719   4.796 -1.1491  1.8382 -0.0211
 6643SOL     OW31390   0.815   1.243   7.208  0.0804 -0.5251  0.1846
 6643SOL    HW131391   0.764   1.248   7.127  2.4867  0.7210 -1.2390
 6643SOL    HW231392   0.868   1.166   7.189  1.0969  0.3455 -0.5300
 6644SOL     OW31393   3.244   4.233  11.855 -0.1377 -0.0990 -0.2467
 6644SOL    HW131394   3.205   4.272  11.933  1.0411  1.6370 -0.5041
 6644SOL    HW231395   3.273   4.316  11.817  2.3182 -0.2102  1.4470
 6645SOL     OW31396   0.732   3.619  13.542 -0.0318  0.4306  0.4079
 6645SOL    HW131397   0.747   3.696  13.598 -0.9698  1.6614 -1.0446
 6645SOL    HW231398   0.814   3.570  13.542  0.5973  1.4964  0.5884
 6646SOL     OW31399   1.605   0.151   0.886  0.5258  0.5713  0.0599
 6646SOL    HW131400   1.564   0.132   0.802  1.5508  0.4194 -0.3985
 6646SOL    HW231401   1.534   0.145   0.951  0.6934 -0.4238  0.1510
 6647SOL     OW31402   0.111   0.378  13.201 -0.4953  0.0247  0.1976
 6647SOL    HW131403   0.083   0.436  13.130  0.8208  1.6865  1.0337
 6647SOL    HW231404   0.026   0.361  13.241  0.0604  3.1237  2.7011
 6648SOL     OW31405   2.707   1.691  10.069  0.0549  0.0717  0.0329
 6648SOL    HW131406   2.774   1.751  10.101 -1.0016  1.2074  0.1489
 6648SOL    HW231407   2.753   1.610  10.048  2.1304  0.5002  3.0032
 6649SOL     OW31408   0.212   2.255  15.362 -0.1638 -0.9691  0.1071
 6649SOL    HW131409   0.246   2.226  15.278  0.3306 -1.5157  0.4887
 6649SOL    HW231410   0.191   2.348  15.355  1.7365 -0.5541 -0.0458
 6650SOL     OW31411   2.089   2.873   7.643  0.3131  0.0851  0.3679
 6650SOL    HW131412   2.111   2.782   7.622 -0.3915 -0.2386  1.0402
 6650SOL    HW231413   2.029   2.866   7.717  0.1794 -1.2701  0.1355
 6651SOL     OW31414   3.975   0.745   8.559  0.3628 -0.3395 -0.4931
 6651SOL    HW131415   4.039   0.717   8.623  0.2508  0.8307  0.1378
 6651SOL    HW231416   4.026   0.771   8.482 -0.7816 -1.4178 -1.6308
 6652SOL     OW31417   1.053   1.263   0.568 -0.2055  0.4091 -0.1440
 6652SOL    HW131418   0.961   1.247   0.590 -0.7042  3.1714 -0.1879
 6652SOL    HW231419   1.045   1.303   0.481  1.0834  2.6006  0.7683
 6653SOL     OW31420   0.197   2.232   6.164 -0.0507 -0.5069 -0.0839
 6653SOL    HW131421   0.254   2.295   6.121  0.8551  0.5981  2.7360
 6653SOL    HW231422   0.250   2.153   6.157  0.5332 -0.2286  1.0845
 6654SOL     OW31423   3.401   2.230   4.206 -0.2561  0.1589 -0.1113
 6654SOL    HW131424   3.495   2.212   4.208 -0.3249  0.1475  2.7102
 6654SOL    HW231425   3.357   2.147   4.224  0.5351  0.1357  1.7344
 6655SOL     OW31426   1.489   1.880   2.333  0.1566  0.4234  0.3770
 6655SOL    HW131427   1.545   1.870   2.410 -0.1994  0.8198  0.6920
 6655SOL    HW231428   1.539   1.835   2.265  0.4438 -0.0515  0.9010
 6656SOL     OW31429   1.580   3.088   9.035  0.3275 -0.4618  0.3358
 6656SOL    HW131430   1.603   3.005   9.077  1.1975 -0.6280 -0.5048
 6656SOL    HW231431   1.664   3.110   8.995 -0.9392 -0.1413 -2.1160
 6657SOL     OW31432   2.914   1.335  13.517 -0.5439  0.1577  0.6448
 6657SOL    HW131433   2.929   1.241  13.503 -2.2706  0.3070 -2.3213
 6657SOL    HW231434   2.898   1.345  13.610 -0.4142  0.3604  0.6463
 6658SOL     OW31435   3.179   1.314   2.254 -0.0436  0.2915  0.0036
 6658SOL    HW131436   3.119   1.241   2.240  0.1755  0.3694 -1.3260
 6658SOL    HW231437   3.226   1.309   2.171  0.9064 -1.0441  0.6231
 6659SOL     OW31438   3.708   4.053   9.093  0.1531 -0.0726  0.0539
 6659SOL    HW131439   3.687   4.013   9.178  2.7233 -0.5178  0.4710
 6659SOL    HW231440   3.788   4.103   9.108 -0.9834  1.1716  1.8664
 6660SOL     OW31441   3.179   0.350   0.462 -0.3644  0.0201  0.4560
 6660SOL    HW131442   3.208   0.305   0.541 -0.5421 -0.1904  0.3986
 6660SOL    HW231443   3.264   0.367   0.420 -0.1756 -2.1447 -0.0464
 6661SOL     OW31444   3.872   3.547   8.588 -0.2649 -0.5799  0.0964
 6661SOL    HW131445   3.952   3.516   8.545  0.6104  0.2365  1.1200
 6661SOL    HW231446   3.823   3.465   8.589 -2.6692  0.8546 -1.6001
 6662SOL     OW31447   0.428   0.581   3.351 -0.6631  0.0073  0.3339
 6662SOL    HW131448   0.520   0.558   3.338  0.0161  3.3972 -0.9497
 6662SOL    HW231449   0.393   0.500   3.388 -0.4454 -1.5089 -2.8011
 6663SOL     OW31450   1.470   4.513   0.441  0.7877 -0.2759 -0.3794
 6663SOL    HW131451   1.434   4.464   0.366  0.1445 -0.9617  0.3814
 6663SOL    HW231452   1.401   4.505   0.507  1.3311  2.5881  0.5393
 6664SOL     OW31453   3.408   1.633   4.342 -0.4788 -0.6899  0.0464
 6664SOL    HW131454   3.352   1.615   4.418 -0.1325  1.3913  0.8034
 6664SOL    HW231455   3.478   1.683   4.385 -1.6080  0.0716  1.0328
 6665SOL     OW31456   2.865   3.426  10.996  0.1698  0.4269  0.3770
 6665SOL    HW131457   2.924   3.487  11.040  1.2032 -0.7006  0.5667
 6665SOL    HW231458   2.902   3.342  11.024 -1.9657 -0.4022  0.7326
 6666SOL     OW31459   0.551   0.442   2.349 -0.1033 -0.7765 -0.1124
 6666SOL    HW131460   0.536   0.351   2.373 -0.8850 -0.4206  0.6959
 6666SOL    HW231461   0.489   0.463   2.279 -0.2468  0.8360  0.4949
 6667SOL     OW31462   3.156   2.713  13.150  0.2498  0.1364 -0.4834
 6667SOL    HW131463   3.110   2.641  13.193  2.1139  0.3402  1.8303
 6667SOL    HW231464   3.081   2.768  13.130 -0.4480 -0.0461  1.6814
 6668SOL     OW31465   3.304   2.061   7.548 -0.1047 -0.0383 -0.6852
 6668SOL    HW131466   3.221   2.104   7.570  1.0079  2.0235 -0.5924
 6668SOL    HW231467   3.313   1.998   7.620 -2.6214  2.4639  1.8341
 6669SOL     OW31468   0.513   4.340   5.391 -0.4245 -0.6142 -0.2163
 6669SOL    HW131469   0.458   4.265   5.369 -0.1893 -0.4676 -1.2941
 6669SOL    HW231470   0.499   4.349   5.486  0.8242 -1.9604  0.0944
 6670SOL     OW31471   0.506   1.591  13.456 -0.3447  0.2780  0.2928
 6670SOL    HW131472   0.583   1.536  13.442 -0.4298  0.1888  0.1763
 6670SOL    HW231473   0.551   1.670  13.486 -1.7203  0.0521  2.9682
 6671SOL     OW31474   3.331   2.765  11.188  0.0709 -0.5442 -0.4319
 6671SOL    HW131475   3.328   2.744  11.095  2.5605 -1.8168 -0.2355
 6671SOL    HW231476   3.237   2.751  11.202  0.7422  0.3092  5.1347
 6672SOL     OW31477   2.951   3.020  12.842 -0.0148 -0.3695 -0.3951
 6672SOL    HW131478   2.976   2.938  12.884  0.4562  0.3187  0.6783
 6672SOL    HW231479   2.890   3.053  12.908 -0.9542 -0.9387 -0.9821
 6673SOL     OW31480   1.032   4.701  16.794  0.1718 -0.0283 -0.2016
 6673SOL    HW131481   1.079   4.665  16.718  1.1166 -1.5960  1.1166
 6673SOL    HW231482   1.089   0.054  16.813  1.3014 -1.0439  0.4073
 6674SOL     OW31483   0.737   1.289   4.172 -1.1958  0.6143 -0.4720
 6674SOL    HW131484   0.672   1.358   4.180  1.3909  2.8273  1.8394
 6674SOL    HW231485   0.695   1.212   4.211 -0.6007  1.4758  1.9104
 6675SOL     OW31486   1.675   0.581  16.595  1.3351 -0.3004  0.6081
 6675SOL    HW131487   1.756   0.621  16.626  0.8625  0.1640  1.2499
 6675SOL    HW231488   1.678   0.619  16.507  1.6244  0.1913  0.8311
 6676SOL     OW31489   4.300   2.096   9.291  0.1172 -0.4122  0.1934
 6676SOL    HW131490   4.269   2.011   9.324 -0.3525  0.2600  1.4602
 6676SOL    HW231491   4.299   2.074   9.198 -1.8885  3.0653 -0.6042
 6677SOL     OW31492   3.497   4.451   6.594 -0.4251 -0.3654  0.3168
 6677SOL    HW131493   3.403   4.454   6.576 -0.8984  0.4889  3.0043
 6677SOL    HW231494   3.519   4.537   6.628  0.2414 -0.8135  1.0235
 6678SOL     OW31495   3.046   1.450   7.040  0.2850  0.8768  0.0946
 6678SOL    HW131496   2.995   1.372   7.061  2.2580  0.5169  3.5159
 6678SOL    HW231497   3.132   1.426   7.076  0.4089 -0.4649 -1.0632
 6679SOL     OW31498   2.881   4.400   0.814  0.4251  0.0019  0.2299
 6679SOL    HW131499   2.885   4.408   0.909 -2.1883 -1.5850  0.4846
 6679SOL    HW231500   2.958   4.452   0.792 -1.2626  2.1600 -0.5075
 6680SOL     OW31501   0.559   3.396  10.375 -0.1237  0.1737 -0.4772
 6680SOL    HW131502   0.610   3.472  10.404  0.3049 -0.9785  1.7281
 6680SOL    HW231503   0.578   3.390  10.281  2.9274 -0.3972  0.1893
 6681SOL     OW31504   1.787   3.217   8.942 -0.1286 -0.4229  0.0554
 6681SOL    HW131505   1.873   3.225   8.983  0.1009 -0.3649 -0.4412
 6681SOL    HW231506   1.758   3.307   8.958  0.2563 -0.3185  0.1507
 6682SOL     OW31507   2.870   0.512   8.038  0.3391 -0.5797 -0.2956
 6682SOL    HW131508   2.778   0.508   8.012  0.0588 -0.7228  0.7181
 6682SOL    HW231509   2.867   0.507   8.134  0.4191  1.6547 -0.1840
 6683SOL     OW31510   0.484   4.276  13.978 -0.3545 -0.1021 -0.0979
 6683SOL    HW131511   0.483   4.289  14.073 -0.3432 -0.1119 -0.0964
 6683SOL    HW231512   0.394   4.245  13.966  0.0387 -1.5794  0.8441
 6684SOL     OW31513   0.164   1.460   3.613 -0.3631 -0.3522 -0.1752
 6684SOL    HW131514   0.128   1.541   3.575  0.0891  0.0135  0.1801
 6684SOL    HW231515   0.143   1.403   3.539  2.4482 -1.8444  0.1975
 6685SOL     OW31516   0.101   0.836  17.017 -0.4265  0.2231 -0.1983
 6685SOL    HW131517   0.098   0.752  17.064 -0.7676  0.3120 -0.0622
 6685SOL    HW231518   0.009   0.860  17.016 -0.7560 -1.0272 -0.0236
 6686SOL     OW31519   3.488   3.598   3.569 -0.7094  0.5280  0.4273
 6686SOL    HW131520   3.496   3.626   3.478 -1.1822 -0.6837  0.0149
 6686SOL    HW231521   3.406   3.549   3.564 -1.3748  1.7846 -0.8073
 6687SOL     OW31522   2.053   0.066  10.079  0.0345  0.2848 -0.3428
 6687SOL    HW131523   2.142   0.072  10.114 -0.6020  0.1932  1.3068
 6687SOL    HW231524   1.988   0.078  10.148  0.3573  0.4964 -0.0710
 6688SOL     OW31525   4.416   0.229  15.934 -0.3166  0.1251 -0.7739
 6688SOL    HW131526   4.478   0.248  15.863 -1.8785  1.8644 -1.6668
 6688SOL    HW231527   4.330   0.236  15.894 -1.2059  1.5532  1.4114
 6689SOL     OW31528   0.970   2.202   9.128 -0.1934  0.0123  0.3552
 6689SOL    HW131529   0.875   2.187   9.133  0.3384 -3.2567  0.5043
 6689SOL    HW231530   0.987   2.253   9.208 -0.6149  1.8728 -0.7285
 6690SOL     OW31531   2.088   0.878  15.911 -0.0500 -0.1512  0.1832
 6690SOL    HW131532   2.103   0.915  15.824 -0.6320  0.3142  0.2801
 6690SOL    HW231533   1.992   0.884  15.913 -0.0269  0.7950 -1.4234
 6691SOL     OW31534   0.404   3.834   8.852 -0.2511 -0.1136 -0.6820
 6691SOL    HW131535   0.383   3.840   8.759 -0.2343 -1.1118 -0.7545
 6691SOL    HW231536   0.496   3.807   8.851 -0.3276 -0.3920 -0.2417
 6692SOL     OW31537   1.107   0.080  13.270  0.0097 -0.5281 -0.0279
 6692SOL    HW131538   1.182   0.072  13.211 -0.8517  0.3277 -1.2345
 6692SOL    HW231539   1.058   4.722  13.254 -1.6742  0.6354 -0.7172
 6693SOL     OW31540   3.083   1.602   5.367  0.0236  0.0712  0.0177
 6693SOL    HW131541   3.013   1.564   5.419 -0.4031  1.7549  0.6611
 6693SOL    HW231542   3.076   1.548   5.288 -1.1968 -0.4375  0.4696
 6694SOL     OW31543   3.230   4.322   5.948  0.2776  0.0015  0.2233
 6694SOL    HW131544   3.172   4.371   6.007 -0.1844  0.8757 -0.9659
 6694SOL    HW231545   3.317   4.339   5.985  0.3900 -0.5835  0.2228
 6695SOL     OW31546   4.436   0.451   3.054 -0.2586 -0.3125  0.0897
 6695SOL    HW131547   4.486   0.522   3.094 -1.1715 -0.0347  0.7478
 6695SOL    HW231548   4.508   0.390   3.043 -0.3782 -0.6267  1.0161
 6696SOL     OW31549   4.512   3.387   2.898 -0.3545  0.1704  0.0818
 6696SOL    HW131550   4.425   3.383   2.936 -0.6141  1.8576 -0.3623
 6696SOL    HW231551   4.525   3.480   2.880  1.3033 -0.3006 -1.2113
 6697SOL     OW31552   1.422   3.480   7.688  0.0513 -0.5695  0.2505
 6697SOL    HW131553   1.493   3.544   7.681  1.1757 -2.1144 -2.2682
 6697SOL    HW231554   1.433   3.422   7.612 -0.2922  0.2106 -0.3946
 6698SOL     OW31555   2.519   1.566   2.581 -0.7421 -0.2474 -0.3384
 6698SOL    HW131556   2.517   1.470   2.579 -1.8621 -0.2440  0.2363
 6698SOL    HW231557   2.585   1.575   2.513  0.8278  0.5870  1.3030
 6699SOL     OW31558   2.046   1.195  10.969 -0.0720  0.0154  0.0346
 6699SOL    HW131559   2.032   1.188  11.063 -1.4389 -0.1827 -0.1727
 6699SOL    HW231560   1.968   1.155  10.929 -0.1603  0.9468 -0.7320
 6700SOL     OW31561   2.760   2.079   6.529 -0.5321  0.0948 -0.2625
 6700SOL    HW131562   2.696   2.145   6.503 -1.3681  0.2311  2.1812
 6700SOL    HW231563   2.832   2.088   6.465  0.7363  2.4677  1.5033
 6701SOL     OW31564   1.694   4.113  10.247  0.3780 -0.1037 -0.0891
 6701SOL    HW131565   1.637   4.185  10.275  0.6297 -0.4104  1.2000
 6701SOL    HW231566   1.709   4.137  10.156 -1.6008 -0.2148 -0.4404
 6702SOL     OW31567   2.350   1.931   2.720 -0.0277 -0.1496  1.0040
 6702SOL    HW131568   2.380   2.013   2.679  2.4737  0.0259  3.1837
 6702SOL    HW231569   2.374   1.872   2.649 -3.3147 -0.3885  0.0734
 6703SOL     OW31570   2.892   0.793   3.577 -0.1450  0.3445  0.0407
 6703SOL    HW131571   2.913   0.863   3.516 -2.1401  0.4661 -0.4835
 6703SOL    HW231572   2.802   0.777   3.550  0.7522 -1.9283 -1.6124
 6704SOL     OW31573   4.459   2.175  10.855 -0.2463 -0.0219 -0.1861
 6704SOL    HW131574   4.488   2.166  10.764  1.4035 -0.3746  0.3837
 6704SOL    HW231575   4.469   2.086  10.888 -2.0126 -0.3104 -0.4230
 6705SOL     OW31576   4.493   0.127   1.309 -0.1429 -0.5111 -0.2823
 6705SOL    HW131577   4.460   0.183   1.239 -2.7237 -0.3455  1.0530
 6705SOL    HW231578   4.409   0.084   1.325 -0.4187  0.7965  1.8090
 6706SOL     OW31579   1.353   3.297   6.912 -0.3993  0.7570 -0.3224
 6706SOL    HW131580   1.321   3.214   6.949 -0.4209  1.0394  0.2962
 6706SOL    HW231581   1.426   3.265   6.860 -2.0685 -4.2194  0.3894
 6707SOL     OW31582   4.399   2.163  15.844 -0.3056  0.3333 -0.3992
 6707SOL    HW131583   4.420   2.151  15.751 -1.4439  1.1166 -0.7469
 6707SOL    HW231584   4.333   2.231  15.829  0.8854  1.0385 -2.5473
 6708SOL     OW31585   0.128   2.160   6.749  0.2375 -0.0811 -0.0678
 6708SOL    HW131586   0.143   2.197   6.662  3.3979  0.2295  0.6273
 6708SOL    HW231587   0.213   2.128   6.779 -0.1741 -2.2638 -1.2088
 6709SOL     OW31588   0.458   3.230  15.805 -0.1259 -0.1294 -0.7004
 6709SOL    HW131589   0.489   3.238  15.715 -1.5026  2.6924 -0.9279
 6709SOL    HW231590   0.373   3.270  15.786  0.4317  2.1503  1.5167
 6710SOL     OW31591   1.896   0.725   2.320  0.2714  0.0151  0.2703
 6710SOL    HW131592   1.882   0.769   2.403 -0.3368 -0.9810  0.7043
 6710SOL    HW231593   1.849   0.786   2.263  1.2199  1.2032  0.7870
 6711SOL     OW31594   0.554   2.105   7.937 -0.0610 -0.2503  0.1647
 6711SOL    HW131595   0.647   2.129   7.936 -0.3054  0.7512  2.1360
 6711SOL    HW231596   0.519   2.184   7.979 -1.2764 -1.6323  1.7186
 6712SOL     OW31597   4.574   4.244   4.625 -0.2237 -0.3190  1.5819
 6712SOL    HW131598   4.482   4.225   4.645 -0.7931 -1.6152 -2.3448
 6712SOL    HW231599   4.616   4.231   4.710  3.6441  0.6699 -0.1878
 6713SOL     OW31600   0.941   0.706   7.977 -0.3898 -0.1849  0.2502
 6713SOL    HW131601   0.905   0.676   8.061  0.4554  1.7157  1.2890
 6713SOL    HW231602   0.864   0.705   7.920 -1.2249  0.1953  1.3674
 6714SOL     OW31603   2.068   0.794   0.030 -0.2185  0.2250  0.0575
 6714SOL    HW131604   2.022   0.761   0.107 -0.1159  0.2434  0.1255
 6714SOL    HW231605   2.155   0.799   0.068 -0.0221  0.0295 -0.3600
 6715SOL     OW31606   2.440   0.572   4.199  0.0001  0.3628 -0.0803
 6715SOL    HW131607   2.356   0.614   4.217 -0.0068  0.0068  0.6962
 6715SOL    HW231608   2.457   0.539   4.287 -0.0574  1.6492  0.4088
 6716SOL     OW31609   4.063   3.502   0.766 -0.2694  0.5474  0.0744
 6716SOL    HW131610   3.999   3.433   0.747  0.9595 -0.6423  0.2761
 6716SOL    HW231611   4.063   3.500   0.862 -0.7467  2.4938  0.1198
 6717SOL     OW31612   2.858   0.683  17.521  0.4707  0.0560  0.3472
 6717SOL    HW131613   2.846   0.691  17.615 -2.6342  1.6331 -0.2046
 6717SOL    HW231614   2.824   0.767  17.489  1.0242  1.1865  2.7340
 6718SOL     OW31615   0.498   2.886  12.666 -0.2192  0.2127 -0.2650
 6718SOL    HW131616   0.569   2.834  12.702 -1.4935 -0.1539  1.7430
 6718SOL    HW231617   0.424   2.825  12.661 -0.5812  0.4842  1.7346
 6719SOL     OW31618   3.098   1.223   0.427 -0.5191  0.4133 -0.5740
 6719SOL    HW131619   3.009   1.215   0.463 -0.8439  1.3540 -1.1649
 6719SOL    HW231620   3.147   1.178   0.495 -0.8012  1.1685  0.1265
 6720SOL     OW31621   0.778   4.307   1.007 -0.2618 -0.0464  0.8521
 6720SOL    HW131622   0.815   4.368   0.943 -0.0156 -1.5125 -0.3937
 6720SOL    HW231623   0.860   4.285   1.050  0.0458 -2.4822 -1.0135
 6721SOL     OW31624   2.187   4.701  17.525 -0.1813  0.1180 -0.2948
 6721SOL    HW131625   2.244   0.033  17.580  2.0633 -0.3227 -2.2104
 6721SOL    HW231626   2.141   0.053  17.486  1.2422  0.7301 -0.7659
 6722SOL     OW31627   0.301   4.087   5.606 -0.2870  0.1714  0.1493
 6722SOL    HW131628   0.322   4.081   5.513 -0.7433 -1.4463  0.1555
 6722SOL    HW231629   0.315   4.001   5.645 -0.2780  0.1497  0.0965
 6723SOL     OW31630   2.292   1.661   8.852  0.6145  0.3058 -0.2101
 6723SOL    HW131631   2.280   1.715   8.931 -1.5283 -0.0795 -0.2819
 6723SOL    HW231632   2.205   1.622   8.839  0.3048  1.1271 -0.5837
 6724SOL     OW31633   0.076   3.878   8.856 -0.2722  0.4247 -0.1945
 6724SOL    HW131634   0.012   3.869   8.927 -0.3993  1.0551 -0.2312
 6724SOL    HW231635   0.099   3.785   8.852  1.0897  0.8406 -2.0158
 6725SOL     OW31636   0.655   1.274  11.078 -0.2763 -0.1142  0.0979
 6725SOL    HW131637   0.669   1.260  10.985  1.8396  1.4873  0.1825
 6725SOL    HW231638   0.736   1.261  11.127  0.2188  3.3613  0.2220
 6726SOL     OW31639   4.701   2.605   6.425 -0.0681 -0.8307 -0.3134
 6726SOL    HW131640   0.034   2.589   6.501  1.0889  0.7531 -0.8110
 6726SOL    HW231641   0.042   2.571   6.361  1.5173  0.5438  0.5100
 6727SOL     OW31642   3.938   1.379   4.716  0.5944 -0.0938 -0.3921
 6727SOL    HW131643   3.994   1.303   4.726  1.4451  0.6248  0.3509
 6727SOL    HW231644   3.951   1.395   4.623  1.4208  1.3470 -0.0378
 6728SOL     OW31645   2.461   3.481   1.104 -0.0466 -0.0480  0.3204
 6728SOL    HW131646   2.422   3.400   1.070  1.1165 -0.9535  1.1567
 6728SOL    HW231647   2.493   3.514   1.020  0.1837 -0.5677  0.2015
 6729SOL     OW31648   1.951   4.227   3.088  0.1715 -0.8004 -0.0278
 6729SOL    HW131649   1.964   4.194   3.177  1.1100  2.2832  0.9799
 6729SOL    HW231650   1.920   4.151   3.038 -1.3765 -0.0837 -0.1311
 6730SOL     OW31651   1.465   2.681   2.757  0.2930  0.2062 -0.7081
 6730SOL    HW131652   1.539   2.621   2.749  2.7210  3.3196 -1.8916
 6730SOL    HW231653   1.516   2.756   2.788 -3.7594  2.0557  1.5682
 6731SOL     OW31654   1.632   0.981   2.689 -0.3426 -0.2686 -0.5379
 6731SOL    HW131655   1.632   0.908   2.626  0.2591 -0.6918 -0.0409
 6731SOL    HW231656   1.599   0.934   2.765  1.3558 -1.3668 -0.4840
 6732SOL     OW31657   3.071   1.515  11.492  0.2396  0.2728 -0.1108
 6732SOL    HW131658   3.081   1.466  11.410  1.1564  0.5247 -0.1378
 6732SOL    HW231659   3.027   1.448  11.544 -0.3496  1.2725  0.6767
 6733SOL     OW31660   4.533   1.391   5.400 -0.0081 -0.0755  0.1696
 6733SOL    HW131661   4.442   1.391   5.429 -0.3464 -1.2630 -0.8660
 6733SOL    HW231662   4.575   1.464   5.447  0.2108 -0.9984  1.4170
 6734SOL     OW31663   0.846   2.562   6.794 -0.7212  0.2133 -0.0138
 6734SOL    HW131664   0.872   2.490   6.851 -1.9176 -0.6481 -0.5517
 6734SOL    HW231665   0.932   2.593   6.765 -1.3986  1.9591 -0.1859
 6735SOL     OW31666   4.082   0.569   1.588  0.3252  0.0622 -0.1751
 6735SOL    HW131667   4.149   0.638   1.584  0.6459 -0.4037 -2.6605
 6735SOL    HW231668   4.054   0.558   1.497 -0.1119  3.1505 -0.4318
 6736SOL     OW31669   2.862   4.404   5.900  0.5336 -0.3913 -0.3543
 6736SOL    HW131670   2.883   4.324   5.853  2.3040  0.3151 -0.7614
 6736SOL    HW231671   2.921   4.397   5.975  0.2321  2.0266  0.1261
 6737SOL     OW31672   1.391   4.097   3.085 -0.3819  0.3935 -0.8530
 6737SOL    HW131673   1.303   4.134   3.077  0.1368  1.7270 -0.4824
 6737SOL    HW231674   1.400   4.100   3.180  1.9194 -0.6878 -1.0409
 6738SOL     OW31675   2.619   0.097   3.691 -0.8292  0.5660 -0.4280
 6738SOL    HW131676   2.660   0.148   3.762  1.1850  0.0290 -1.2041
 6738SOL    HW231677   2.601   0.011   3.728  0.2739  0.0321 -1.1193
 6739SOL     OW31678   3.677   3.760  11.762 -0.2388 -0.2774  0.0703
 6739SOL    HW131679   3.717   3.788  11.679 -2.2750 -2.1191 -1.5145
 6739SOL    HW231680   3.755   3.719  11.799 -2.3996 -1.8349  2.8748
 6740SOL     OW31681   0.916   0.638  11.690  0.0028  0.2800  0.3049
 6740SOL    HW131682   0.965   0.706  11.643 -0.6524  0.1345 -0.5810
 6740SOL    HW231683   0.975   0.564  11.677 -1.5811 -1.2140  1.6561
 6741SOL     OW31684   1.460   3.251  11.872  0.1755 -0.6232 -0.3571
 6741SOL    HW131685   1.521   3.197  11.923  1.6273  2.7919  1.5397
 6741SOL    HW231686   1.500   3.336  11.890  0.1679 -0.8655  0.8491
 6742SOL     OW31687   3.074   3.753   1.175  0.9639  0.4570 -0.2767
 6742SOL    HW131688   3.059   3.825   1.114 -0.6385  0.1266 -0.2491
 6742SOL    HW231689   2.986   3.716   1.179  1.4265 -0.5610  0.5961
 6743SOL     OW31690   0.868   1.681   8.250  0.0562 -0.0007 -0.3352
 6743SOL    HW131691   0.827   1.700   8.334  1.5258 -2.6599  0.9963
 6743SOL    HW231692   0.818   1.736   8.190 -0.4305  1.7688  1.6966
 6744SOL     OW31693   2.073   3.949   2.309  0.3744  0.2150  0.0774
 6744SOL    HW131694   2.154   3.924   2.355 -0.1485  0.0355  0.8977
 6744SOL    HW231695   2.063   3.880   2.244 -0.1022 -0.4284  0.8289
 6745SOL     OW31696   1.648   1.459   7.715  0.2283  0.0435  0.0061
 6745SOL    HW131697   1.666   1.491   7.803  0.9205 -1.0876  0.2782
 6745SOL    HW231698   1.561   1.420   7.722  0.2591 -0.1894 -0.8946
 6746SOL     OW31699   2.594   1.294  10.808 -0.0318  0.3647  0.2454
 6746SOL    HW131700   2.652   1.339  10.745  0.5662 -1.0466 -0.2209
 6746SOL    HW231701   2.640   1.220  10.849 -0.0870  0.0045 -0.3390
 6747SOL     OW31702   1.933   0.737   7.793  0.4973 -0.1998  0.2917
 6747SOL    HW131703   1.914   0.667   7.731 -1.4661  1.5151 -1.0439
 6747SOL    HW231704   1.856   0.721   7.848 -0.9746  0.7234 -1.5062
 6748SOL     OW31705   4.097   4.718   6.340 -0.6987 -0.3057  0.2000
 6748SOL    HW131706   4.084   0.088   6.317 -1.0511  0.5105  3.6765
 6748SOL    HW231707   4.094   4.673   6.256  1.6252  1.5560 -0.8843
 6749SOL     OW31708   0.779   4.003  10.326 -0.2050  0.5495  0.3330
 6749SOL    HW131709   0.793   3.950  10.248 -0.6803 -1.4091  1.5804
 6749SOL    HW231710   0.773   3.934  10.392 -1.5590 -0.5656 -0.9689
 6750SOL     OW31711   1.498   0.180  14.018 -0.1456 -0.4239 -0.1330
 6750SOL    HW131712   1.503   0.240  13.943  1.4119  0.6285  0.8039
 6750SOL    HW231713   1.463   0.239  14.085  2.7689  1.2854 -0.0800
 6751SOL     OW31714   2.693   1.323   4.206  0.1799  0.2860  0.9602
 6751SOL    HW131715   2.681   1.332   4.300 -0.4979  4.7908  0.4178
 6751SOL    HW231716   2.778   1.363   4.186 -1.6476  1.8957 -3.5389
 6752SOL     OW31717   3.647   0.750   2.226 -0.4371  0.0524  0.7879
 6752SOL    HW131718   3.710   0.681   2.204 -0.7221  0.0716 -0.1153
 6752SOL    HW231719   3.606   0.714   2.304  0.6610  0.1672  1.4228
 6753SOL     OW31720   2.716   4.482   5.669  0.2275 -0.2828 -0.4467
 6753SOL    HW131721   2.785   4.461   5.733  1.3082  1.8185 -0.9335
 6753SOL    HW231722   2.682   4.397   5.642 -1.2769  0.3077 -0.3995
 6754SOL     OW31723   2.590   4.509   2.912 -0.4256  0.2205  0.5363
 6754SOL    HW131724   2.670   4.502   2.963 -0.2646  1.8897  0.4857
 6754SOL    HW231725   2.551   4.422   2.923  0.1375  0.1009  1.6337
 6755SOL     OW31726   1.035   0.110   6.023  0.2662 -0.2555 -0.3377
 6755SOL    HW131727   1.021   0.133   5.931 -0.7850  0.5485  0.0252
 6755SOL    HW231728   0.944   0.100   6.050  0.4799 -0.0087  0.4602
 6756SOL     OW31729   2.481   2.799   4.488  0.6123 -0.6709  0.1241
 6756SOL    HW131730   2.480   2.785   4.394  1.4459 -2.9473  0.4377
 6756SOL    HW231731   2.405   2.743   4.504  0.3108  0.0424  1.1798
 6757SOL     OW31732   2.232   3.345   6.441  0.6099  0.1762 -0.1632
 6757SOL    HW131733   2.322   3.316   6.458  0.5222 -1.1713 -2.0129
 6757SOL    HW231734   2.250   3.436   6.417 -0.6238  0.5885  0.4903
 6758SOL     OW31735   4.696   2.726  14.625 -0.3178 -0.2713  0.6005
 6758SOL    HW131736   4.645   2.769  14.557 -1.0659 -1.3945  0.4584
 6758SOL    HW231737   0.004   2.802  14.674  1.4077 -0.9717  0.6437
 6759SOL     OW31738   2.522   0.161  13.044 -0.2398  0.6898  0.6645
 6759SOL    HW131739   2.574   0.153  13.124  1.2086 -1.3603 -0.4868
 6759SOL    HW231740   2.522   0.067  13.024 -2.3435  1.1271 -1.3632
 6760SOL     OW31741   1.744   4.652   0.988 -0.2985 -0.3589 -0.1871
 6760SOL    HW131742   1.677   4.622   1.049  0.0967  2.2336  1.5391
 6760SOL    HW231743   1.723   0.022   0.976  0.0135 -0.0097  1.9767
 6761SOL     OW31744   0.733   0.390  12.944 -0.5058  0.4349  0.1737
 6761SOL    HW131745   0.812   0.432  12.979 -1.1932 -0.7017  3.1274
 6761SOL    HW231746   0.764   0.389  12.854  0.9672  0.0386  0.6810
 6762SOL     OW31747   0.901   1.012   8.828  0.0340 -0.5861  0.0727
 6762SOL    HW131748   0.914   0.917   8.824  0.4919 -0.4221 -2.6784
 6762SOL    HW231749   0.807   1.015   8.848 -0.3550 -1.3697 -1.5941
 6763SOL     OW31750   3.041   4.690   7.194  0.4447  0.2947 -0.7278
 6763SOL    HW131751   2.980   4.700   7.267  2.0218 -1.4347  0.8125
 6763SOL    HW231752   2.975   4.696   7.124 -1.2022  2.5227  1.0070
 6764SOL     OW31753   3.788   0.660   7.979 -0.1624  0.8618 -0.1485
 6764SOL    HW131754   3.762   0.616   7.898  1.0645 -0.0848 -0.0201
 6764SOL    HW231755   3.761   0.751   7.964 -1.2224  0.8692  1.7875
 6765SOL     OW31756   4.320   0.130  12.892 -0.3166  0.1151 -0.2195
 6765SOL    HW131757   4.282   0.066  12.832  0.5249  2.1819 -2.9650
 6765SOL    HW231758   4.311   0.215  12.848 -3.5626  0.2583  0.7528
 6766SOL     OW31759   2.670   2.282  16.138 -0.1880  0.0550 -0.4423
 6766SOL    HW131760   2.679   2.268  16.232  1.5534 -0.3956 -0.6776
 6766SOL    HW231761   2.695   2.374  16.130 -1.5903  0.2312 -2.7340
 6767SOL     OW31762   0.077   4.187   2.088  0.2548 -0.1243 -0.0863
 6767SOL    HW131763   0.035   4.267   2.056  0.1395  0.1386  0.7299
 6767SOL    HW231764   0.041   4.119   2.030  0.1785 -1.5059  1.5870
 6768SOL     OW31765   0.896   0.701   5.701 -0.4660  0.1566 -0.1666
 6768SOL    HW131766   0.978   0.747   5.684 -1.4529  1.6358 -0.9383
 6768SOL    HW231767   0.849   0.774   5.741 -1.4836 -1.2079  1.1598
 6769SOL     OW31768   2.086   4.163   1.515 -0.2745 -0.0997 -0.0707
 6769SOL    HW131769   1.998   4.129   1.532 -0.1981 -0.6851 -0.7916
 6769SOL    HW231770   2.122   4.097   1.455  3.1385  0.5959  1.2594
 6770SOL     OW31771   0.445   3.125   1.332  0.0247 -0.5886 -0.0913
 6770SOL    HW131772   0.437   3.037   1.296  3.5252 -1.0583  0.2090
 6770SOL    HW231773   0.476   3.110   1.421  0.7795  0.7584 -0.1183
 6771SOL     OW31774   2.587   2.463   1.091 -0.3706  0.3213 -0.2266
 6771SOL    HW131775   2.614   2.461   0.999  0.8818 -2.4479  0.1982
 6771SOL    HW231776   2.521   2.533   1.089 -2.2030 -1.4343 -1.1291
 6772SOL     OW31777   3.822   0.578  13.061 -0.6019  0.4235 -0.1975
 6772SOL    HW131778   3.862   0.512  13.006  0.7904  1.1868 -0.0987
 6772SOL    HW231779   3.875   0.652  13.032 -1.0253  1.2365  1.0638
 6773SOL     OW31780   3.831   2.584  10.669  0.0352 -0.4074  0.3430
 6773SOL    HW131781   3.872   2.667  10.645  0.1700 -0.8739 -1.0226
 6773SOL    HW231782   3.900   2.532  10.629 -0.7197 -1.6099  0.5900
 6774SOL     OW31783   4.257   2.295  11.966 -0.1814  0.0727 -0.2890
 6774SOL    HW131784   4.179   2.284  12.021  0.2818  1.6948  0.6791
 6774SOL    HW231785   4.266   2.390  11.963 -2.1354  0.3486  2.0051
 6775SOL     OW31786   4.452   2.416   1.995 -0.2977  0.0766 -0.1561
 6775SOL    HW131787   4.377   2.357   1.985 -0.0505 -0.3909  0.7706
 6775SOL    HW231788   4.430   2.489   1.937 -2.4329 -0.3408  0.0938
 6776SOL     OW31789   0.279   0.859   8.671  0.0584  0.3228 -0.1025
 6776SOL    HW131790   0.235   0.832   8.752  0.1285 -0.0887 -0.2025
 6776SOL    HW231791   0.367   0.832   8.696 -0.4423  1.3028  2.7230
 6777SOL     OW31792   0.668   3.794   5.451  0.2845  0.1128  0.3061
 6777SOL    HW131793   0.634   3.746   5.376 -0.8883  1.0874  0.1956
 6777SOL    HW231794   0.751   3.835   5.429  0.6738 -0.8658 -0.0382
 6778SOL     OW31795   3.227   0.315   4.550  0.4651 -0.2342 -0.0651
 6778SOL    HW131796   3.321   0.312   4.533  0.0359 -0.9971 -2.3482
 6778SOL    HW231797   3.211   0.393   4.497  0.5789  0.8476  1.4942
 6779SOL     OW31798   1.553   2.585   5.048 -0.6221 -0.0326 -0.1751
 6779SOL    HW131799   1.578   2.646   4.979  1.0651  1.2689  1.6230
 6779SOL    HW231800   1.493   2.533   4.994 -1.2649  0.6069 -0.0672
 6780SOL     OW31801   4.180   4.423   7.347  0.2650 -0.0414 -0.4331
 6780SOL    HW131802   4.189   4.510   7.385 -0.5182 -0.1892  0.1005
 6780SOL    HW231803   4.254   4.427   7.286  0.3071  2.8459 -0.1788
 6781SOL     OW31804   1.870   4.291   4.053  0.0639 -0.3677  0.4391
 6781SOL    HW131805   1.859   4.386   4.061 -0.6334 -0.6915  3.0502
 6781SOL    HW231806   1.777   4.269   4.065 -0.3739  1.4684  0.4507
 6782SOL     OW31807   3.052   1.357   2.528 -0.2531  0.1436  0.7135
 6782SOL    HW131808   3.025   1.268   2.552  2.8714 -1.0379 -0.1053
 6782SOL    HW231809   3.064   1.346   2.433 -1.7901  0.8657  0.4510
 6783SOL     OW31810   0.420   4.174   2.834 -0.2385 -0.0629  0.0090
 6783SOL    HW131811   0.400   4.087   2.867 -0.5214 -1.0603 -2.7720
 6783SOL    HW231812   0.334   4.197   2.800 -0.0436 -0.1181 -0.5297
 6784SOL     OW31813   2.850   0.244  16.036  0.0522  0.5899 -0.2573
 6784SOL    HW131814   2.869   0.326  16.081 -1.9914  1.4097 -0.9001
 6784SOL    HW231815   2.773   0.271  15.987  0.6757 -1.6065 -2.4687
 6785SOL     OW31816   1.918   0.367  14.832 -0.3882  0.7082  0.3104
 6785SOL    HW131817   2.013   0.362  14.827 -0.3603  1.7208 -0.1363
 6785SOL    HW231818   1.902   0.290  14.887 -0.3760  0.1020 -0.5227
 6786SOL     OW31819   2.435   1.084   3.384 -0.3998  0.0177 -0.5353
 6786SOL    HW131820   2.418   0.993   3.358  1.4370 -0.9894  1.7312
 6786SOL    HW231821   2.527   1.093   3.358 -0.8094  1.9245 -1.2795
 6787SOL     OW31822   2.454   3.921   5.571  0.2402  0.4108  0.4242
 6787SOL    HW131823   2.440   4.009   5.607 -0.0508  0.4008  0.3420
 6787SOL    HW231824   2.523   3.882   5.623 -2.5464 -4.0669  0.7373
 6788SOL     OW31825   0.014   1.640   5.111 -0.2370  0.0876  0.0983
 6788SOL    HW131826   0.026   1.546   5.118 -0.9656 -0.1205 -1.3622
 6788SOL    HW231827   0.104   1.669   5.094  0.6472 -1.9211  1.4267
 6789SOL     OW31828   4.290   1.003  14.905 -0.3745 -0.3170 -0.3756
 6789SOL    HW131829   4.336   1.017  14.822  0.2398 -0.9393 -0.1410
 6789SOL    HW231830   4.218   0.948  14.875 -1.5752  0.3077  1.3660
 6790SOL     OW31831   3.738   4.106  15.564 -0.0581  0.0299  0.4085
 6790SOL    HW131832   3.751   4.122  15.658 -1.3121  2.3054  0.1698
 6790SOL    HW231833   3.709   4.192  15.534 -0.9265 -1.5929 -3.3487
 6791SOL     OW31834   2.459   4.351   7.776  0.1705  0.7482  0.1119
 6791SOL    HW131835   2.431   4.410   7.705  0.9743  2.0522  0.8793
 6791SOL    HW231836   2.391   4.364   7.842  0.0315  1.6794 -0.2123
 6792SOL     OW31837   4.100   2.601  13.159 -0.6117  0.1931  0.2344
 6792SOL    HW131838   4.192   2.626  13.166 -0.4242 -0.1628 -0.9153
 6792SOL    HW231839   4.081   2.563  13.245 -2.0702  1.1754  0.3521
 6793SOL     OW31840   0.289   1.530   9.175  0.0477  0.2969  0.0111
 6793SOL    HW131841   0.383   1.519   9.192  0.2093  0.9643 -0.4195
 6793SOL    HW231842   0.268   1.453   9.121 -0.3924 -0.3186  1.0771
 6794SOL     OW31843   2.533   4.102  11.672  0.3541  0.2570 -0.0189
 6794SOL    HW131844   2.475   4.168  11.634 -2.3719 -4.2677 -3.7969
 6794SOL    HW231845   2.504   4.112  11.763  1.2618  2.2296  0.0387
 6795SOL     OW31846   0.440   1.609   8.075  0.4512 -0.0038  0.2033
 6795SOL    HW131847   0.467   1.524   8.108  1.1712 -0.1428 -0.7528
 6795SOL    HW231848   0.435   1.663   8.154  3.5041  0.9704 -0.2911
 6796SOL     OW31849   2.114   3.459   3.551 -0.6894  0.3410  0.1336
 6796SOL    HW131850   2.158   3.447   3.467  0.2263  0.6322  0.5744
 6796SOL    HW231851   2.192   3.480   3.603  0.6811 -0.2687 -1.6675
 6797SOL     OW31852   0.576   3.805   7.111  0.4181 -0.0723 -0.1846
 6797SOL    HW131853   0.549   3.869   7.177 -0.2831  0.0024 -0.5374
 6797SOL    HW231854   0.622   3.734   7.155  0.4080 -0.8443 -1.4386
 6798SOL     OW31855   2.465   2.299   2.773 -0.2194 -0.3012  0.5771
 6798SOL    HW131856   2.420   2.252   2.703  1.7534  0.3105 -1.0990
 6798SOL    HW231857   2.550   2.263   2.749  0.0474  0.4690  0.3734
 6799SOL     OW31858   0.373   3.095   4.491 -0.0246 -0.4872  0.2031
 6799SOL    HW131859   0.412   3.165   4.439  0.1299  0.6749  1.8974
 6799SOL    HW231860   0.444   3.048   4.535 -0.4175  0.0634  1.4029
 6800SOL     OW31861   4.144   0.570   5.587  0.0390 -0.6368 -0.1519
 6800SOL    HW131862   4.049   0.580   5.592  0.2812  0.2894  2.5531
 6800SOL    HW231863   4.156   0.488   5.635  0.2876 -1.0890 -0.9869
 6801SOL     OW31864   4.150   2.182   5.727  0.2734 -0.0024  0.5435
 6801SOL    HW131865   4.088   2.113   5.704 -1.6714  1.7109  0.5960
 6801SOL    HW231866   4.134   2.206   5.818 -2.4996 -1.0988  0.3683
 6802SOL     OW31867   2.373   3.074   0.683 -0.7788 -0.1901 -0.3471
 6802SOL    HW131868   2.405   3.164   0.671  2.3384 -1.1906  0.4512
 6802SOL    HW231869   2.456   3.027   0.671 -0.4855  0.6910 -1.7706
 6803SOL     OW31870   2.813   3.948  15.433  0.0303 -0.4962  0.5036
 6803SOL    HW131871   2.879   3.986  15.491  1.4565 -1.5477 -0.4102
 6803SOL    HW231872   2.825   4.009  15.360  0.6681  1.0312  1.9016
 6804SOL     OW31873   1.391   0.213   4.412 -0.3094 -0.8734 -0.0316
 6804SOL    HW131874   1.342   0.136   4.383 -0.8569 -0.6489  0.3060
 6804SOL    HW231875   1.328   0.251   4.473  0.6161  0.8158 -0.1081
 6805SOL     OW31876   1.426   3.941   2.208  0.2304 -0.7358 -0.5093
 6805SOL    HW131877   1.471   3.870   2.255  1.5384 -0.0105 -0.6785
 6805SOL    HW231878   1.356   3.965   2.268  1.5576  1.1719  0.2605
 6806SOL     OW31879   2.365   4.676   6.042  0.1734 -0.0652 -0.3133
 6806SOL    HW131880   2.357   0.014   6.117  0.6172  1.9419 -1.8559
 6806SOL    HW231881   2.442   0.001   6.011  0.3530 -0.5150 -0.5479
 6807SOL     OW31882   2.899   0.641   7.573  0.1638  0.4460 -0.8028
 6807SOL    HW131883   2.915   0.587   7.496 -1.1473 -2.3027  0.8315
 6807SOL    HW231884   2.985   0.681   7.585  1.0359 -1.6254 -0.0193
 6808SOL     OW31885   1.418   2.083  14.225  0.2714 -0.4518 -0.1225
 6808SOL    HW131886   1.500   2.045  14.257 -0.4658 -1.9617 -0.0258
 6808SOL    HW231887   1.453   2.161  14.183  2.1119 -1.6438 -0.8189
 6809SOL     OW31888   2.134   3.344  14.956  0.2005  1.0911 -0.3969
 6809SOL    HW131889   2.219   3.306  14.977  0.1768  1.8478  1.0629
 6809SOL    HW231890   2.146   3.432  14.991  2.7186 -0.4805  2.6911
 6810SOL     OW31891   0.355   0.280   4.517 -0.4404 -0.2862 -0.6755
 6810SOL    HW131892   0.364   0.239   4.603 -0.9512  0.0502 -0.4649
 6810SOL    HW231893   0.447   0.265   4.494 -0.4604 -2.1645  0.4468
 6811SOL     OW31894   0.442   2.075   4.091  0.0123 -0.1875  0.1489
 6811SOL    HW131895   0.376   2.144   4.101  0.2117  0.0262 -0.0252
 6811SOL    HW231896   0.523   2.125   4.090 -0.6801  0.9351 -0.0218
 6812SOL     OW31897   0.700   4.612  11.998  0.0131 -0.4792 -0.2321
 6812SOL    HW131898   0.750   4.678  11.949  0.0132 -1.1668 -1.1668
 6812SOL    HW231899   0.657   4.565  11.927  2.3588  2.0359 -3.3496
 6813SOL     OW31900   1.386   2.199   4.423  0.6421 -0.2858  0.0526
 6813SOL    HW131901   1.336   2.188   4.343 -0.2844  0.6819  0.4928
 6813SOL    HW231902   1.313   2.168   4.475  1.9581 -3.8167 -0.2105
 6814SOL     OW31903   4.719   4.641  14.717  0.6177  0.2622  0.5294
 6814SOL    HW131904   0.026   0.000  14.759 -1.3014  1.7125 -0.9613
 6814SOL    HW231905   0.015   4.662  14.625  1.6859  0.8380  0.8623
 6815SOL     OW31906   0.350   2.392   5.112  0.1178 -0.5513 -0.0655
 6815SOL    HW131907   0.276   2.392   5.173  0.8400 -0.4349  0.8069
 6815SOL    HW231908   0.310   2.339   5.043 -1.3084  0.7203 -0.2192
 6816SOL     OW31909   1.895   4.249   5.443  0.5568  0.0454  0.2318
 6816SOL    HW131910   1.938   4.178   5.489  0.1886  0.7658  1.6774
 6816SOL    HW231911   1.890   4.224   5.350  1.3420 -1.5900  0.6408
 6817SOL     OW31912   3.476   0.773   4.071  0.2863  0.9082  0.0309
 6817SOL    HW131913   3.393   0.820   4.068  0.5814  1.4505  0.3760
 6817SOL    HW231914   3.440   0.699   4.023  0.3389  1.6662 -1.1798
 6818SOL     OW31915   3.945   2.871   2.242  0.0306 -0.1865 -0.1581
 6818SOL    HW131916   3.882   2.868   2.314  0.2977 -3.0062 -0.0623
 6818SOL    HW231917   3.937   2.785   2.200  0.8028 -0.6945  0.7342
 6819SOL     OW31918   3.865   2.340   2.082 -0.1328 -0.6580 -0.4267
 6819SOL    HW131919   3.906   2.271   2.134  1.3298 -0.2250 -0.9894
 6819SOL    HW231920   3.777   2.343   2.120 -0.2118 -2.0846 -0.4896
 6820SOL     OW31921   1.066   4.498   3.251 -0.1886 -0.2157  0.1141
 6820SOL    HW131922   1.080   4.419   3.303 -2.4676 -0.6108  0.1248
 6820SOL    HW231923   1.018   4.547   3.318 -0.8417  0.4382 -0.8381
 6821SOL     OW31924   3.111   3.332   4.798  0.1550 -0.1384 -0.4639
 6821SOL    HW131925   3.094   3.252   4.849  0.4501 -0.7854 -1.3818
 6821SOL    HW231926   3.048   3.335   4.726 -1.5599 -3.8867  0.8863
 6822SOL     OW31927   0.735   2.415   5.743  0.6246  0.0796  0.3251
 6822SOL    HW131928   0.827   2.391   5.732  0.3542 -1.6962  1.9134
 6822SOL    HW231929   0.714   2.344   5.804  1.8177 -0.8623 -0.3614
 6823SOL     OW31930   1.312   2.218   4.943 -0.4579 -0.0744 -0.1931
 6823SOL    HW131931   1.244   2.228   4.876 -0.4674 -1.0884 -0.3347
 6823SOL    HW231932   1.372   2.289   4.920  1.2864 -1.4736  0.0451
 6824SOL     OW31933   2.330   4.411   4.548 -0.1051  0.4095  0.2161
 6824SOL    HW131934   2.360   4.390   4.460 -2.8104 -0.0824 -0.5709
 6824SOL    HW231935   2.321   4.325   4.589 -2.1317  0.8282  0.6402
 6825SOL     OW31936   1.125   0.523   5.415 -0.2986  0.0046 -0.3548
 6825SOL    HW131937   1.130   0.441   5.367  1.9282 -0.2633  0.3128
 6825SOL    HW231938   1.058   0.520   5.484 -0.8553  0.4441 -0.8770
 6826SOL     OW31939   2.762   3.877   1.798  0.7955  0.0899  0.0936
 6826SOL    HW131940   2.670   3.902   1.807  0.9927  0.7839  0.2405
 6826SOL    HW231941   2.787   3.927   1.720  0.7377 -1.5262 -0.9445
 6827SOL     OW31942   1.847   1.843  14.615 -0.0484 -0.2752 -0.1933
 6827SOL    HW131943   1.811   1.759  14.642 -1.4459  0.8136  1.3255
 6827SOL    HW231944   1.933   1.813  14.587 -0.5465 -1.7866 -0.1070
 6828SOL     OW31945   2.127   2.515   3.124 -0.2133 -0.0428 -0.5115
 6828SOL    HW131946   2.130   2.431   3.078  0.8193 -0.6524  0.6542
 6828SOL    HW231947   2.055   2.553   3.074  1.3628  0.8975 -2.0290
 6829SOL     OW31948   1.551   2.261   6.076 -0.0284  0.0600  0.0600
 6829SOL    HW131949   1.585   2.310   6.150 -1.8573 -1.4873  1.9139
 6829SOL    HW231950   1.620   2.219   6.025  0.1247  0.5303 -0.1195
 6830SOL     OW31951   2.286   4.060   3.398  0.3141 -0.2228  0.2550
 6830SOL    HW131952   2.237   4.079   3.478 -0.4632  0.5681 -0.4050
 6830SOL    HW231953   2.357   4.118   3.427 -0.7120  1.3135 -0.2612
 6831SOL     OW31954   4.568   0.547  10.865 -0.6605 -0.4554  0.3534
 6831SOL    HW131955   4.487   0.497  10.864  0.2489 -1.9041 -0.2375
 6831SOL    HW231956   4.620   0.467  10.868  2.3887  1.4165 -2.0865
 6832SOL     OW31957   0.442   0.084   0.938 -0.1596 -0.1560 -0.0819
 6832SOL    HW131958   0.439   0.083   0.842 -1.0511 -0.1714 -0.0504
 6832SOL    HW231959   0.379   0.151   0.961 -1.4624 -1.1029 -0.8669
 6833SOL     OW31960   0.013   4.484   5.061 -0.1658 -0.1195 -0.2868
 6833SOL    HW131961   4.674   4.500   5.133 -0.1606  0.4864 -0.4205
 6833SOL    HW231962   0.037   4.575   5.044  1.0066 -0.3150  0.3590
 6834SOL     OW31963   4.602   3.157   0.311  0.4557  0.5363 -0.1639
 6834SOL    HW131964   4.603   3.245   0.349  0.9177  1.4422 -2.2330
 6834SOL    HW231965   4.696   3.149   0.293  0.6697 -0.8719  1.6382
 6835SOL     OW31966   2.191   4.060  15.110 -0.2082  0.0336 -0.3935
 6835SOL    HW131967   2.135   3.982  15.106  0.7968 -0.6520 -1.1780
 6835SOL    HW231968   2.256   4.026  15.171 -0.2569  0.3936 -0.1461
 6836SOL     OW31969   0.995   0.734   3.349 -0.0900  0.0535  0.1394
 6836SOL    HW131970   1.084   0.769   3.351 -0.1518  0.1880  0.6418
 6836SOL    HW231971   0.989   0.734   3.254  1.2486 -3.8703  0.0172
 6837SOL     OW31972   4.544   4.196  13.276 -0.0034 -0.2286 -0.1042
 6837SOL    HW131973   4.536   4.114  13.227 -3.3681 -0.2388  0.4639
 6837SOL    HW231974   4.483   4.256  13.232 -2.0447 -1.1864  1.3933
 6838SOL     OW31975   1.417   0.903   5.772  0.2597 -0.2079 -0.3152
 6838SOL    HW131976   1.471   0.846   5.716  1.5915 -0.5410  1.3015
 6838SOL    HW231977   1.477   0.924   5.844 -0.1582 -0.1940  0.0268
 6839SOL     OW31978   0.149   1.004  17.210 -0.0057 -0.4605 -0.0747
 6839SOL    HW131979   0.141   0.946  17.134 -1.0785  0.4728 -0.6802
 6839SOL    HW231980   0.063   1.048  17.214  0.4613  0.3120  1.4220
 6840SOL     OW31981   2.263   1.108   5.039  0.2413 -0.1264  0.8480
 6840SOL    HW131982   2.232   1.064   4.960 -0.2155  1.6902  0.0092
 6840SOL    HW231983   2.239   1.200   5.025 -1.1938 -0.3433  1.8092
 6841SOL     OW31984   2.087   2.446   7.849  0.0698  0.0833 -0.3238
 6841SOL    HW131985   2.057   2.442   7.940 -0.1484  0.7440 -0.3725
 6841SOL    HW231986   2.183   2.450   7.854  0.0153  1.9310 -1.1239
 6842SOL     OW31987   4.068   1.069   3.909 -0.3450 -0.3845  0.0981
 6842SOL    HW131988   4.048   0.976   3.921  2.3298 -1.2575 -2.2085
 6842SOL    HW231989   4.162   1.052   3.902 -0.2319  0.6115 -0.8185
 6843SOL     OW31990   1.500   0.129   8.445  0.5801 -0.0604 -0.0005
 6843SOL    HW131991   1.500   0.098   8.535  2.1319  0.2723  0.1220
 6843SOL    HW231992   1.414   0.172   8.442 -0.0059 -1.1236  1.9454
 6844SOL     OW31993   1.854   3.529   7.096 -1.0163 -0.0533  0.1358
 6844SOL    HW131994   1.907   3.450   7.103  1.0716  1.3043 -0.1354
 6844SOL    HW231995   1.900   3.576   7.026  1.3103 -0.4576  1.3635
 6845SOL     OW31996   1.911   0.802   2.595 -0.0525 -0.4374 -0.1168
 6845SOL    HW131997   1.982   0.742   2.620  0.1738  0.4266  1.3518
 6845SOL    HW231998   1.839   0.762   2.645  1.2068  0.3721  2.3653
 6846SOL     OW31999   1.322   2.217  16.176  0.1398  0.4623  0.0553
 6846SOL    HW132000   1.295   2.239  16.087  1.2594 -3.0808 -1.1824
 6846SOL    HW232001   1.249   2.158  16.195  1.3222 -0.8606  0.5237
 6847SOL     OW32002   3.160   1.975  13.672 -0.7008 -0.5377  0.3349
 6847SOL    HW132003   3.180   1.906  13.736 -0.1010  0.5009  1.2654
 6847SOL    HW232004   3.154   2.057  13.721 -0.9597  0.1491 -0.8440
 6848SOL     OW32005   2.882   0.789   9.319  0.1051 -0.0983  0.0541
 6848SOL    HW132006   2.835   0.736   9.384  2.0187 -0.4990  1.1339
 6848SOL    HW232007   2.835   0.871   9.331  0.0891 -0.0386 -0.3985
 6849SOL     OW32008   4.103   4.134   3.359 -0.6103 -0.1496 -0.2855
 6849SOL    HW132009   4.048   4.109   3.284  0.7494  0.9311 -1.6360
 6849SOL    HW232010   4.038   4.120   3.428  0.1234 -0.0389  0.4270
 6850SOL     OW32011   3.342   1.234   6.066 -0.4501 -0.0073 -0.1420
 6850SOL    HW132012   3.407   1.302   6.052 -0.9707  0.6023  0.3792
 6850SOL    HW232013   3.397   1.171   6.112  0.2475  0.9752  0.3426
 6851SOL     OW32014   0.714   0.307   8.340 -0.1707  0.3341  0.3184
 6851SOL    HW132015   0.715   0.362   8.418 -3.6490  0.6546  0.1393
 6851SOL    HW232016   0.807   0.288   8.331  0.4831  3.9195 -0.1548
 6852SOL     OW32017   2.272   1.118  15.219  0.4681 -0.2843 -0.0419
 6852SOL    HW132018   2.277   1.213  15.213 -1.8576 -0.2373 -1.3656
 6852SOL    HW232019   2.258   1.091  15.128 -1.1968 -2.5001  0.8651
 6853SOL     OW32020   2.014   3.896   3.159 -0.7634  0.1112 -0.2594
 6853SOL    HW132021   2.059   3.822   3.118  0.7429 -0.4743  2.4194
 6853SOL    HW232022   2.062   3.960   3.108  0.4028 -0.8964 -0.4188
 6854SOL     OW32023   1.627   3.578   9.777  0.1309  0.4433  0.6237
 6854SOL    HW132024   1.535   3.606   9.782  0.1452  0.5922  0.0865
 6854SOL    HW232025   1.638   3.614   9.689 -1.1251  0.8859  0.6492
 6855SOL     OW32026   0.378   0.187  10.176 -0.4114 -0.0450  0.1375
 6855SOL    HW132027   0.311   0.127  10.208 -0.3874  1.1782  2.4782
 6855SOL    HW232028   0.456   0.135  10.159 -0.0626  0.5144  0.0092
 6856SOL     OW32029   4.616   2.767  17.523  0.2947 -0.0272  0.3181
 6856SOL    HW132030   4.673   2.834  17.562  0.0456 -0.9278  2.2302
 6856SOL    HW232031   4.624   2.797  17.432 -0.9850  1.2284  0.6098
 6857SOL     OW32032   4.054   2.923   8.543 -0.3193 -0.3929  0.6546
 6857SOL    HW132033   4.106   2.958   8.615  0.1524 -0.8467  0.5283
 6857SOL    HW232034   4.061   2.829   8.555  2.3099 -0.3249 -0.5226
 6858SOL     OW32035   1.175   0.636   4.708  0.1050 -0.4170  0.4932
 6858SOL    HW132036   1.264   0.668   4.693  1.4082 -3.5049  1.5388
 6858SOL    HW232037   1.126   0.717   4.721 -0.5262 -0.5595 -1.0348
 6859SOL     OW32038   2.491   3.489   7.140  0.5668  0.5338 -0.3729
 6859SOL    HW132039   2.534   3.418   7.093 -0.4492  0.1052 -0.6413
 6859SOL    HW232040   2.475   3.548   7.067 -1.8218  0.1848 -0.1237
 6860SOL     OW32041   0.495   1.459   8.482 -0.0485  0.2273  0.2264
 6860SOL    HW132042   0.439   1.507   8.542  0.5217 -0.6021  1.4288
 6860SOL    HW232043   0.488   1.369   8.513 -0.7470  0.9515  2.1736
 6861SOL     OW32044   2.718   4.046   5.945  0.0838  0.2178 -1.1053
 6861SOL    HW132045   2.681   4.134   5.946 -2.7355 -1.0210  2.8740
 6861SOL    HW232046   2.765   4.048   6.028  0.0627  0.7600 -1.1050
 6862SOL     OW32047   3.042   1.726  15.561 -0.0970  0.4325  0.0722
 6862SOL    HW132048   3.055   1.632  15.554 -1.9820  0.2019 -0.1421
 6862SOL    HW232049   2.974   1.733  15.495  0.8912  0.2626 -0.9645
 6863SOL     OW32050   3.648   0.115   2.026  0.1835  0.3281 -0.4433
 6863SOL    HW132051   3.724   0.074   2.068 -0.8866 -1.2592 -0.1045
 6863SOL    HW232052   3.697   0.159   1.956  0.0381  0.4426 -0.4735
 6864SOL     OW32053   3.526   4.321   4.693  0.1422  0.2076  0.3989
 6864SOL    HW132054   3.568   4.332   4.778 -0.8071 -1.2582  1.0575
 6864SOL    HW232055   3.470   4.399   4.700  0.6041  0.6565 -1.0205
 6865SOL     OW32056   3.042   2.738   8.081  0.1242 -0.6800 -0.1815
 6865SOL    HW132057   3.091   2.676   8.026  0.9174 -1.6035  1.5670
 6865SOL    HW232058   2.989   2.781   8.014 -0.7458 -0.2145  0.8151
 6866SOL     OW32059   3.420   2.153   6.512 -0.6249 -0.0537  0.3032
 6866SOL    HW132060   3.341   2.134   6.461 -1.8182  3.1240  0.9662
 6866SOL    HW232061   3.432   2.072   6.562 -1.3339 -1.4985 -1.8445
 6867SOL     OW32062   2.223   3.047   6.552  0.0873 -0.3419  0.7949
 6867SOL    HW132063   2.134   3.044   6.518 -0.2306  1.8802  1.4318
 6867SOL    HW232064   2.206   3.091   6.635 -0.4465  0.3128  0.3362
 6868SOL     OW32065   3.062   2.135  15.175 -0.0985  0.2891  0.0041
 6868SOL    HW132066   3.001   2.208  15.168  0.6718  1.0313  0.9402
 6868SOL    HW232067   3.017   2.062  15.134  0.1778 -0.7289  1.5538
 6869SOL     OW32068   1.705   2.185  13.749  0.1153  0.0844 -0.5542
 6869SOL    HW132069   1.699   2.172  13.844 -0.3296  2.8537 -0.1856
 6869SOL    HW232070   1.611   2.190  13.728 -0.4300 -0.9557  1.5898
 6870SOL     OW32071   3.810   0.398   4.012  0.1563  0.1265  0.2266
 6870SOL    HW132072   3.776   0.407   4.101  0.4419 -0.6906  0.4168
 6870SOL    HW232073   3.899   0.433   4.019 -0.5270  2.1831 -1.3026
 6871SOL     OW32074   4.075   3.402   8.989  0.2895 -0.1551  0.0707
 6871SOL    HW132075   3.991   3.445   8.968  1.1544  0.0159 -3.0282
 6871SOL    HW232076   4.043   3.313   8.980 -2.2747  0.6984  0.5412
 6872SOL     OW32077   3.132   3.981   6.829  0.0772 -0.0199 -0.9531
 6872SOL    HW132078   3.175   3.931   6.759 -0.6750  1.2136 -2.2770
 6872SOL    HW232079   3.193   4.055   6.830  1.5052 -1.1853 -1.7023
 6873SOL     OW32080   4.330   2.249  16.142  0.3548  0.1185  0.0849
 6873SOL    HW132081   4.417   2.270  16.108  0.0418 -0.3791 -1.0193
 6873SOL    HW232082   4.277   2.291  16.074 -0.1731 -2.0414 -0.8413
 6874SOL     OW32083   1.799   2.860  14.263 -0.1844 -0.1186  0.6037
 6874SOL    HW132084   1.787   2.939  14.316  1.4316  0.8163 -0.4244
 6874SOL    HW232085   1.834   2.893  14.180 -0.1326  0.9923  1.0659
 6875SOL     OW32086   2.376   1.089   2.257 -0.0218  0.1482  0.1133
 6875SOL    HW132087   2.459   1.136   2.247 -0.2634  0.7287  0.8305
 6875SOL    HW232088   2.352   1.079   2.165 -1.1271 -1.2653  0.5617
 6876SOL     OW32089   3.547   0.552  13.021 -0.0418 -0.1890 -0.0599
 6876SOL    HW132090   3.523   0.472  13.069 -0.0562 -0.1239  0.0401
 6876SOL    HW232091   3.643   0.548  13.024  0.0202 -0.0783 -1.5972
 6877SOL     OW32092   3.568   2.256  16.491 -0.3534  0.4029 -0.5104
 6877SOL    HW132093   3.625   2.332  16.480  0.3038 -0.0625 -0.3055
 6877SOL    HW232094   3.625   2.180  16.479 -1.5887 -0.3739 -1.4719
 6878SOL     OW32095   2.187   3.654   1.323  0.4987  0.1523  0.4909
 6878SOL    HW132096   2.227   3.567   1.319 -0.1412 -0.1061 -0.1387
 6878SOL    HW232097   2.212   3.689   1.238  0.6861 -1.7884 -0.2421
 6879SOL     OW32098   3.577   3.027   3.707 -0.1999  0.1648 -0.1389
 6879SOL    HW132099   3.513   2.956   3.707  0.9232 -0.8426 -1.9899
 6879SOL    HW232100   3.618   3.014   3.621 -0.7699 -1.7524 -0.1232
 6880SOL     OW32101   0.816   3.373   5.744 -0.3176  0.0322 -0.0070
 6880SOL    HW132102   0.824   3.420   5.827 -0.9263 -0.0065  0.0770
 6880SOL    HW232103   0.754   3.307   5.777  1.1046 -1.2176  0.1751
 6881SOL     OW32104   1.277   0.266   8.428 -0.3417  0.3139  0.2443
 6881SOL    HW132105   1.229   0.343   8.396 -0.7892 -0.7763 -1.6928
 6881SOL    HW232106   1.276   0.289   8.521 -0.4245 -1.8223  0.7738
 6882SOL     OW32107   2.856   2.609  13.660  0.2873  0.4829  0.1792
 6882SOL    HW132108   2.909   2.537  13.625 -0.8746 -0.3982  0.2349
 6882SOL    HW232109   2.912   2.634  13.733 -1.8228  3.5688  0.7375
 6883SOL     OW32110   1.058   2.424   7.252  0.5699 -0.3190 -0.0647
 6883SOL    HW132111   1.016   2.350   7.296 -0.3586 -0.6236 -1.4751
 6883SOL    HW232112   1.069   2.483   7.327  0.3524 -0.7152  0.2814
 6884SOL     OW32113   4.375   4.224  13.646 -0.4849  0.5778  0.0570
 6884SOL    HW132114   4.355   4.272  13.726  1.9274  1.2759  0.2492
 6884SOL    HW232115   4.471   4.230  13.653 -0.4690  0.8094 -0.3880
 6885SOL     OW32116   2.093   4.514   4.523  0.3616 -0.3777 -0.3839
 6885SOL    HW132117   2.185   4.491   4.537 -0.4006 -1.9317  2.0767
 6885SOL    HW232118   2.056   4.513   4.611  2.9168 -0.4381  0.6932
 6886SOL     OW32119   0.095   1.212   3.752 -0.0732 -0.0799 -0.2351
 6886SOL    HW132120   0.013   1.228   3.706 -1.9674 -2.9982  2.1218
 6886SOL    HW232121   0.145   1.282   3.709 -0.1309  0.9536  1.4196
 6887SOL     OW32122   0.667   1.732  15.101 -0.2652 -0.1539  0.1652
 6887SOL    HW132123   0.662   1.823  15.130 -1.3561 -0.4483  0.9102
 6887SOL    HW232124   0.606   1.737  15.027 -1.3448  0.9055  1.1239
 6888SOL     OW32125   4.424   0.714   2.270  0.0004  0.1781 -0.5495
 6888SOL    HW132126   4.501   0.765   2.295 -1.0984  1.4688  0.2520
 6888SOL    HW232127   4.400   0.756   2.188  0.8855 -0.5614 -1.1871
 6889SOL     OW32128   0.078   1.134   5.185  0.0685 -0.7639  0.0534
 6889SOL    HW132129   0.006   1.071   5.191 -0.1978 -0.2387  2.2437
 6889SOL    HW232130   0.148   1.070   5.173  0.3834 -0.5250  0.6632
 6890SOL     OW32131   3.713   3.925   2.854  0.2253  0.8109  0.2064
 6890SOL    HW132132   3.779   3.994   2.849  2.7353 -1.5620  0.4439
 6890SOL    HW232133   3.639   3.977   2.885 -0.1918  0.5916 -0.4247
 6891SOL     OW32134   1.909   4.015  16.863 -0.0107 -0.0412  0.3885
 6891SOL    HW132135   1.822   4.037  16.897 -0.1173 -0.4684  0.3878
 6891SOL    HW232136   1.949   4.086  16.913 -2.3615  1.5076  0.0762
 6892SOL     OW32137   1.436   3.254   5.466  0.1024 -0.3752  0.3655
 6892SOL    HW132138   1.411   3.284   5.553 -0.7168  0.4840 -0.1635
 6892SOL    HW232139   1.531   3.239   5.470 -0.0833 -1.0970  1.9938
 6893SOL     OW32140   2.590   2.326   6.465  0.3964 -0.1423  0.0760
 6893SOL    HW132141   2.607   2.340   6.372 -2.9086  0.3811 -0.4564
 6893SOL    HW232142   2.564   2.417   6.480  2.0484  0.2021  0.8195
 6894SOL     OW32143   0.722   3.739   4.790 -0.2497 -0.3758 -0.4211
 6894SOL    HW132144   0.656   3.685   4.747 -0.5142 -2.3056  2.3584
 6894SOL    HW232145   0.784   3.672   4.821  1.4548  1.1836 -0.4450
 6895SOL     OW32146   2.174   4.198   2.341  0.3547 -0.0815  0.0431
 6895SOL    HW132147   2.098   4.256   2.339  0.6759  0.3787  1.2254
 6895SOL    HW232148   2.137   4.114   2.313 -0.1095  0.2894 -0.4640
 6896SOL     OW32149   2.224   2.312  12.292  0.3134 -0.1334  0.7341
 6896SOL    HW132150   2.293   2.287  12.354 -1.2825 -0.0609  2.5102
 6896SOL    HW232151   2.246   2.271  12.208  0.7213  0.5192  0.5212
 6897SOL     OW32152   1.546   4.233   2.493 -0.3914 -0.3007 -0.0128
 6897SOL    HW132153   1.608   4.305   2.478 -1.5767  1.2180  2.3545
 6897SOL    HW232154   1.578   4.166   2.432  1.1274  1.8121 -1.5579
 6898SOL     OW32155   2.205   2.035   7.731 -0.1322 -0.4267 -0.2229
 6898SOL    HW132156   2.288   2.026   7.777 -1.0579  1.2022  1.7719
 6898SOL    HW232157   2.213   1.968   7.663 -0.5475  0.7615 -1.4437
 6899SOL     OW32158   2.034   2.955  13.256  0.3983  0.0498  0.6331
 6899SOL    HW132159   2.062   2.900  13.183  2.4011  1.4319  0.3887
 6899SOL    HW232160   2.065   2.906  13.333 -0.0548  0.6769  1.2158
 6900SOL     OW32161   3.907   1.887   7.818  0.4758  0.1373 -0.2891
 6900SOL    HW132162   4.001   1.896   7.799  0.3685 -4.1733 -2.8376
 6900SOL    HW232163   3.887   1.802   7.779  0.2408 -0.6201  1.4979
 6901SOL     OW32164   3.541   2.371   2.658 -0.0081  0.0611 -0.3562
 6901SOL    HW132165   3.481   2.345   2.589 -1.1072 -1.7148  1.2517
 6901SOL    HW232166   3.565   2.459   2.630  1.8765 -0.0568  0.8624
 6902SOL     OW32167   1.154   4.228   3.336  0.1063 -0.0926  0.5609
 6902SOL    HW132168   1.196   4.266   3.413 -0.9994 -2.1645  2.1491
 6902SOL    HW232169   1.125   4.143   3.367  1.9064 -0.8842  0.0579
 6903SOL     OW32170   0.288   2.942   5.693 -0.6405 -0.0928  0.1755
 6903SOL    HW132171   0.322   2.868   5.643 -3.1997  0.9816 -3.1375
 6903SOL    HW232172   0.226   2.901   5.754 -2.8153 -0.5353 -2.3724
 6904SOL     OW32173   3.214   1.659  10.630  0.5997  0.4996  0.4558
 6904SOL    HW132174   3.233   1.566  10.622 -1.9708  0.0431 -0.3398
 6904SOL    HW232175   3.186   1.675  10.539 -1.2514 -1.4681  0.6765
 6905SOL     OW32176   2.562   1.453   9.040  0.4219  0.5120 -0.2775
 6905SOL    HW132177   2.531   1.540   9.065  3.6273  1.4807  0.3886
 6905SOL    HW232178   2.494   1.389   9.058  0.7829  0.3772  0.6128
 6906SOL     OW32179   0.582   3.152  15.552 -0.4822 -0.7292 -0.2069
 6906SOL    HW132180   0.509   3.099  15.521 -0.2816 -0.5177 -1.0527
 6906SOL    HW232181   0.648   3.096  15.510  1.2801  0.4847  0.9620
 6907SOL     OW32182   0.195   0.695   6.472 -0.1084  0.2034 -0.3381
 6907SOL    HW132183   0.264   0.758   6.493  0.6127 -1.0130  0.9002
 6907SOL    HW232184   0.236   0.615   6.438  1.2024  0.7563 -0.0608
 6908SOL     OW32185   0.075   3.093   2.760  0.4752  0.2290 -0.2499
 6908SOL    HW132186   0.079   3.006   2.719 -0.3088  0.7112 -1.3763
 6908SOL    HW232187   0.144   3.089   2.825  1.4206 -0.5640 -1.3046
 6909SOL     OW32188   1.591   3.701  12.650 -0.6219 -0.2394  0.4937
 6909SOL    HW132189   1.546   3.760  12.710  2.8103  1.1099  1.7784
 6909SOL    HW232190   1.673   3.694  12.700  0.4892  0.2678 -1.2347
 6910SOL     OW32191   0.728   3.428   9.584  0.2637  0.1714  0.0595
 6910SOL    HW132192   0.639   3.394   9.597  0.2866  0.2688  0.4937
 6910SOL    HW232193   0.752   3.347   9.539 -0.0021  1.0019 -1.5450
 6911SOL     OW32194   0.333   1.785   4.101  0.1794 -0.1090  0.0097
 6911SOL    HW132195   0.395   1.854   4.076 -0.1848  0.1213 -0.2709
 6911SOL    HW232196   0.299   1.778   4.011  1.1615 -0.2490 -0.3493
 6912SOL     OW32197   0.252   1.049   3.932  0.0273  0.1806 -0.4817
 6912SOL    HW132198   0.189   1.106   3.887  0.9776  1.8516  0.3154
 6912SOL    HW232199   0.210   0.964   3.915  2.9743 -1.3951  0.0964
 6913SOL     OW32200   4.541   0.684   4.423 -0.2986 -0.2208 -0.2452
 6913SOL    HW132201   4.566   0.749   4.489 -3.8780  0.9716 -0.0774
 6913SOL    HW232202   4.503   0.746   4.360  0.8238  0.2650 -0.4511
 6914SOL     OW32203   0.689   3.025   5.604  0.2592  0.4615  0.4876
 6914SOL    HW132204   0.639   2.986   5.532  1.8336 -0.9814  0.1925
 6914SOL    HW232205   0.767   2.969   5.601 -0.5447 -0.7262  1.6863
 6915SOL     OW32206   1.822   1.565   2.539 -0.0589  0.1420  0.1109
 6915SOL    HW132207   1.822   1.521   2.454  1.2131  1.6658 -0.6786
 6915SOL    HW232208   1.787   1.497   2.597 -0.5168  1.2558  1.1507
 6916SOL     OW32209   4.530   0.812  12.533  0.1825  0.3157  0.3510
 6916SOL    HW132210   4.565   0.733  12.574  1.4902 -0.5759 -2.4950
 6916SOL    HW232211   4.602   0.874  12.536 -0.3672  1.1485 -4.1771
 6917SOL     OW32212   0.481   4.288  15.138  0.1260 -0.6606 -0.3559
 6917SOL    HW132213   0.428   4.361  15.104  1.7296  0.3223 -0.7742
 6917SOL    HW232214   0.442   4.268  15.223 -0.3503 -0.1252 -0.4496
 6918SOL     OW32215   3.688   0.825  16.070  0.0958  0.3228 -0.0159
 6918SOL    HW132216   3.711   0.788  15.985 -1.3075 -2.1597  0.6643
 6918SOL    HW232217   3.768   0.849  16.117  1.3817 -3.4772 -0.2164
 6919SOL     OW32218   3.291   4.148   4.672 -0.0201 -0.0908  0.3903
 6919SOL    HW132219   3.343   4.075   4.705  1.0407  0.1993 -0.6692
 6919SOL    HW232220   3.362   4.211   4.661 -0.6911  0.4637 -0.7886
 6920SOL     OW32221   1.417   4.266   9.615  0.0561 -0.8325 -0.3840
 6920SOL    HW132222   1.346   4.213   9.652 -0.2839  0.3565  0.6570
 6920SOL    HW232223   1.449   4.212   9.543 -1.3852 -0.7446 -1.0701
 6921SOL     OW32224   2.132   4.491   0.628  0.0576  0.5835 -0.3884
 6921SOL    HW132225   2.221   4.504   0.663  0.2690 -2.6843  0.2429
 6921SOL    HW232226   2.095   4.572   0.663 -0.2093  0.3394 -0.1169
 6922SOL     OW32227   4.022   3.123   8.898 -0.2672 -0.1360  0.1798
 6922SOL    HW132228   3.957   3.057   8.874  1.7118 -2.1659  0.4605
 6922SOL    HW232229   4.098   3.074   8.867 -0.0679 -0.3499  1.0213
 6923SOL     OW32230   1.235   0.208   6.181  0.2591  0.4664  0.2543
 6923SOL    HW132231   1.151   0.186   6.142 -0.7353  2.0879  1.4510
 6923SOL    HW232232   1.295   0.208   6.107  0.6204  0.7416  0.5469
 6924SOL     OW32233   0.559   0.791   2.207 -0.0788  0.1426  1.1357
 6924SOL    HW132234   0.525   0.876   2.178 -0.0120 -0.1706  0.1530
 6924SOL    HW232235   0.652   0.801   2.190 -0.4729  1.8047 -0.0807
 6925SOL     OW32236   3.185   0.612  14.239  0.2424 -0.5056  0.3184
 6925SOL    HW132237   3.233   0.690  14.265 -1.7575  0.8793 -0.0730
 6925SOL    HW232238   3.247   0.565  14.184 -0.0328 -0.9919  0.4285
 6926SOL     OW32239   1.933   2.391   6.870 -0.4553 -0.4904  0.3149
 6926SOL    HW132240   1.914   2.317   6.812  0.1607  0.9279 -1.6828
 6926SOL    HW232241   1.939   2.352   6.957  1.7226  1.0371  0.8320
 6927SOL     OW32242   0.993   1.946  12.788 -0.4123 -0.4426 -0.0851
 6927SOL    HW132243   0.966   2.023  12.737 -1.9238 -0.9999 -0.1224
 6927SOL    HW232244   0.943   1.964  12.868 -0.1698 -0.5792  0.0961
 6928SOL     OW32245   0.926   2.166   6.806  0.2945 -0.7695  0.1161
 6928SOL    HW132246   0.881   2.127   6.881  1.6400  0.7184  1.6726
 6928SOL    HW232247   1.000   2.107   6.799 -1.4661 -3.1385  1.5119
 6929SOL     OW32248   3.093   3.096   1.074  0.4032  0.6665  0.1623
 6929SOL    HW132249   3.002   3.087   1.101  0.7644  0.2505  1.2562
 6929SOL    HW232250   3.122   3.008   1.052  1.4987  1.0813 -0.0976
 6930SOL     OW32251   3.260   1.112  14.599 -0.1528 -0.5375 -0.2593
 6930SOL    HW132252   3.282   1.040  14.540 -0.3988  0.3545 -1.4334
 6930SOL    HW232253   3.248   1.184  14.536 -0.1960 -0.6731 -0.4049
 6931SOL     OW32254   0.817   3.418   0.416  0.2813  0.0679  0.1669
 6931SOL    HW132255   0.855   3.486   0.472  1.2934 -0.7335  0.4494
 6931SOL    HW232256   0.723   3.419   0.434  0.4415 -0.5389  1.0356
 6932SOL     OW32257   1.722   2.091  14.504  0.3329 -0.1150 -0.0665
 6932SOL    HW132258   1.771   2.018  14.540 -0.0806  0.0428  0.8167
 6932SOL    HW232259   1.657   2.047  14.450 -0.9556  0.3408  1.0907
 6933SOL     OW32260   1.271   1.558   3.555  0.5202  0.5092 -0.3875
 6933SOL    HW132261   1.326   1.483   3.578  0.3691  0.0173 -1.5934
 6933SOL    HW232262   1.191   1.514   3.583  0.5451  0.4473 -0.4132
 6934SOL     OW32263   1.204   4.172  16.097 -0.1918  0.0566  0.7703
 6934SOL    HW132264   1.140   4.102  16.085 -2.1359  2.0077 -0.1902
 6934SOL    HW232265   1.267   4.132  16.037 -1.8216 -0.6454 -0.4827
 6935SOL     OW32266   2.181   0.662  13.014  0.4701 -0.1525 -0.6185
 6935SOL    HW132267   2.265   0.671  13.058 -0.2033 -2.4928  1.1574
 6935SOL    HW232268   2.198   0.684  12.922 -0.8506 -2.6069 -1.4466
 6936SOL     OW32269   0.876   3.298  17.637  0.3257 -0.3225  0.0265
 6936SOL    HW132270   0.901   3.211  17.605 -0.5202 -0.0599 -1.3653
 6936SOL    HW232271   0.847   3.343  17.558  0.0014  0.8096  0.7896
 6937SOL     OW32272   1.394   1.258   2.686  0.0966  0.4697  0.3383
 6937SOL    HW132273   1.393   1.226   2.777  0.1133  0.0284  0.1843
 6937SOL    HW232274   1.329   1.328   2.687 -2.0872 -1.5356 -1.4024
 6938SOL     OW32275   4.684   2.373   6.121 -0.0700 -0.0441 -0.1946
 6938SOL    HW132276   4.662   2.367   6.028 -0.2954 -0.5049 -0.1093
 6938SOL    HW232277   0.045   2.325   6.128  0.8964  1.7751  0.8892
 6939SOL     OW32278   0.091   3.316   9.267  1.1704 -0.1122  0.6759
 6939SOL    HW132279   0.064   3.341   9.355 -1.3980 -1.5433  0.2994
 6939SOL    HW232280   0.005   3.300   9.227  1.0520 -0.1697  0.9592
 6940SOL     OW32281   2.942   1.321  11.614 -0.1570 -0.2154  0.3594
 6940SOL    HW132282   2.900   1.317  11.700  2.7370  0.1758  1.7842
 6940SOL    HW232283   2.975   1.231  11.614  0.7293  0.1123 -0.0088
 6941SOL     OW32284   1.760   2.109   3.906  0.1975 -0.6533  0.4096
 6941SOL    HW132285   1.829   2.051   3.874 -0.6269 -0.2691 -2.0499
 6941SOL    HW232286   1.785   2.199   3.889 -0.4831 -0.6597 -0.5983
 6942SOL     OW32287   2.754   3.460   2.424  0.0496  0.5998  0.0060
 6942SOL    HW132288   2.792   3.495   2.343 -1.7594  1.5206 -0.4598
 6942SOL    HW232289   2.664   3.491   2.412  0.3729  1.3037 -0.6132
 6943SOL     OW32290   1.547   2.865   8.155  0.3845  0.2695  0.2752
 6943SOL    HW132291   1.625   2.921   8.158  1.7653 -1.8157  3.4244
 6943SOL    HW232292   1.480   2.932   8.166  2.7684  2.3879  2.1630
 6944SOL     OW32293   2.892   3.270  17.255  0.9137 -0.7551  0.8152
 6944SOL    HW132294   2.814   3.287  17.203  1.8461  0.5249 -0.1571
 6944SOL    HW232295   2.938   3.354  17.259  3.3745 -2.0144 -1.0853
 6945SOL     OW32296   1.533   0.357  17.671  0.2000  0.6178 -0.0332
 6945SOL    HW132297   1.544   0.312   0.064 -1.6578 -0.5207 -0.4039
 6945SOL    HW232298   1.471   0.294  17.635  2.3167 -0.8904 -1.0271
 6946SOL     OW32299   4.019   1.406   2.133  0.3660  0.9068 -0.3804
 6946SOL    HW132300   3.953   1.397   2.064  0.5923  0.4316 -0.5343
 6946SOL    HW232301   3.990   1.486   2.177 -0.2677  1.3839 -1.6719
 6947SOL     OW32302   1.513   0.768   2.173  0.1247  0.0466  0.0226
 6947SOL    HW132303   1.427   0.727   2.186  0.0653 -0.1806 -1.1203
 6947SOL    HW232304   1.571   0.697   2.201 -2.2159 -1.9462 -0.1278
 6948SOL     OW32305   0.647   2.277   3.656 -0.2306 -0.2127  0.3161
 6948SOL    HW132306   0.561   2.283   3.699 -0.7739  0.8716 -0.9053
 6948SOL    HW232307   0.690   2.213   3.712 -0.2281 -0.0672  0.4818
 6949SOL     OW32308   1.652   0.496  17.168 -0.2664  0.1192 -0.0786
 6949SOL    HW132309   1.635   0.506  17.262  0.9337  1.7030 -0.0293
 6949SOL    HW232310   1.715   0.564  17.143 -0.5493 -0.0413 -1.2194
 6950SOL     OW32311   2.364   2.462   7.857  0.1736  0.4957 -0.1965
 6950SOL    HW132312   2.415   2.381   7.861  1.1781  1.1436  0.0342
 6950SOL    HW232313   2.385   2.497   7.771  0.2682 -0.9186 -0.7503
 6951SOL     OW32314   0.740   2.452  14.232  0.6751 -0.1383  0.3708
 6951SOL    HW132315   0.760   2.518  14.299 -0.3055  1.0555 -0.4985
 6951SOL    HW232316   0.820   2.400  14.237  0.1294 -1.0426 -0.5312
 6952SOL     OW32317   1.964   0.729   3.725  0.4274  0.0284  0.2580
 6952SOL    HW132318   1.968   0.784   3.803 -0.8749  1.0362 -0.3733
 6952SOL    HW232319   1.992   0.791   3.657 -0.4836  0.6268  0.4295
 6953SOL     OW32320   4.174   4.600  15.341 -0.7183  0.5243  0.3638
 6953SOL    HW132321   4.176   4.588  15.246 -1.0251 -2.1218  0.6776
 6953SOL    HW232322   4.262   4.581  15.375 -0.2645  0.8762 -0.6233
 6954SOL     OW32323   1.709   1.187   8.602  0.4794  0.2087  1.0226
 6954SOL    HW132324   1.691   1.217   8.513 -0.8197 -1.9224  0.5624
 6954SOL    HW232325   1.721   1.262   8.660  1.6176 -0.2923  1.4354
 6955SOL     OW32326   3.520   0.797  10.029  0.1159  0.0288  0.5483
 6955SOL    HW132327   3.474   0.879  10.047 -1.8113 -1.1681  1.0232
 6955SOL    HW232328   3.525   0.765  10.119  3.6906 -0.9603  0.0027
 6956SOL     OW32329   2.264   2.223  11.327 -0.3077 -0.1226  0.4880
 6956SOL    HW132330   2.287   2.281  11.254 -0.5472 -0.0115  0.5008
 6956SOL    HW232331   2.286   2.137  11.290  0.2361 -0.3030  1.2346
 6957SOL     OW32332   2.351   0.996   3.949 -0.2160 -0.7437  0.3380
 6957SOL    HW132333   2.442   1.024   3.947 -0.0193 -1.2318  1.9939
 6957SOL    HW232334   2.333   0.976   3.858  1.2973  2.2171 -0.6059
 6958SOL     OW32335   0.247   0.977   0.066 -0.0778  0.5550  0.5906
 6958SOL    HW132336   0.214   1.062   0.096 -2.4389 -0.5254  1.0616
 6958SOL    HW232337   0.336   0.983   0.103  0.3327 -0.3030 -0.2781
 6959SOL     OW32338   2.302   1.308   3.804 -0.1578 -0.5202  0.5948
 6959SOL    HW132339   2.388   1.324   3.844  1.1021 -0.9505 -1.9688
 6959SOL    HW232340   2.312   1.288   3.711  0.7848  3.3521 -0.1140
 6960SOL     OW32341   2.560   0.401   0.566  0.4721  0.4957 -0.4252
 6960SOL    HW132342   2.631   0.447   0.611 -0.8621  2.3746 -0.2577
 6960SOL    HW232343   2.488   0.464   0.563  0.6349  0.6411 -1.1742
 6961SOL     OW32344   0.546   0.425   7.042  0.2814 -0.1330  0.2503
 6961SOL    HW132345   0.512   0.356   6.986  0.4312 -0.5705  0.7053
 6961SOL    HW232346   0.575   0.491   6.979  1.3153 -1.8149 -1.0178
 6962SOL     OW32347   2.216   0.245   7.598  0.1589  0.0447  0.2662
 6962SOL    HW132348   2.171   0.256   7.682 -1.7364 -0.9280 -0.6284
 6962SOL    HW232349   2.273   0.169   7.611 -0.8625 -0.8517 -0.5753
 6963SOL     OW32350   4.658   3.071   9.655  0.2630 -0.0907 -0.1916
 6963SOL    HW132351   4.619   2.988   9.631  1.3054 -0.4686 -0.5481
 6963SOL    HW232352   4.583   3.129   9.636  1.1631  0.6451 -1.4877
 6964SOL     OW32353   0.340   1.598   1.289  0.0823  0.0753 -0.3105
 6964SOL    HW132354   0.367   1.689   1.301 -1.1781  0.5694 -1.2670
 6964SOL    HW232355   0.331   1.561   1.376 -0.0593  0.2850 -0.2375
 6965SOL     OW32356   4.559   1.513   4.291 -0.3757 -0.0392 -0.2551
 6965SOL    HW132357   4.473   1.524   4.251 -0.0883  0.1440 -0.8261
 6965SOL    HW232358   4.573   1.595   4.338  1.3457  0.6582 -1.9650
 6966SOL     OW32359   3.864   1.116   7.305  0.4799  0.0261 -0.2533
 6966SOL    HW132360   3.840   1.024   7.295 -0.8863  0.1313  1.9947
 6966SOL    HW232361   3.940   1.108   7.362  1.9600  1.8883 -1.9701
 6967SOL     OW32362   0.623   4.483   2.999 -0.1252 -0.5170 -0.0122
 6967SOL    HW132363   0.612   4.393   3.030 -0.9340 -0.9504 -1.5081
 6967SOL    HW232364   0.718   4.492   2.990 -0.2624  0.0229 -0.9663
 6968SOL     OW32365   3.828   0.209   1.846 -0.1501 -0.3011  0.0078
 6968SOL    HW132366   3.812   0.196   1.752  3.6261 -0.7776 -0.5686
 6968SOL    HW232367   3.917   0.242   1.855  0.0049 -0.5640 -0.5387
 6969SOL     OW32368   0.516   1.969   2.112  0.1131 -0.0627  0.5299
 6969SOL    HW132369   0.555   1.892   2.154 -0.7571 -0.4768  0.5944
 6969SOL    HW232370   0.565   2.036   2.159 -1.6559  1.1722  0.6264
 6970SOL     OW32371   1.188   4.153   2.042  0.1803  0.2629 -0.0860
 6970SOL    HW132372   1.153   4.106   1.966  1.0458  0.0395 -0.3375
 6970SOL    HW232373   1.248   4.089   2.079  0.3064  0.3437 -0.1498
 6971SOL     OW32374   3.348   0.282  16.219  0.5836  0.2049 -0.2864
 6971SOL    HW132375   3.423   0.301  16.163  0.6458 -0.6934 -0.5146
 6971SOL    HW232376   3.408   0.243  16.282 -0.2385  1.1763  1.0919
 6972SOL     OW32377   4.175   1.186  15.595 -0.4526  0.0288 -0.1981
 6972SOL    HW132378   4.170   1.195  15.500 -0.9478  0.9475 -0.0863
 6972SOL    HW232379   4.234   1.253  15.630  1.3983 -1.3305 -0.6965
 6973SOL     OW32380   1.905   0.511   8.608  0.0982  0.0603 -0.0014
 6973SOL    HW132381   1.893   0.596   8.650 -0.0408 -0.0833  0.2476
 6973SOL    HW232382   1.924   0.448   8.677 -1.8890 -0.6142 -0.0474
 6974SOL     OW32383   0.666   2.496   2.066  0.2188 -0.2534  0.7036
 6974SOL    HW132384   0.718   2.554   2.122  0.7248  0.1260 -0.1683
 6974SOL    HW232385   0.734   2.435   2.039 -0.9356 -0.3051 -2.0190
 6975SOL     OW32386   0.494   3.243   6.966  0.0602 -0.5621 -0.4165
 6975SOL    HW132387   0.400   3.229   6.952 -0.0942  0.3878 -0.3460
 6975SOL    HW232388   0.535   3.159   6.946 -0.2429 -1.3587  2.3437
 6976SOL     OW32389   4.071   2.171   8.079  0.1645  0.0751  0.9703
 6976SOL    HW132390   3.999   2.140   8.135 -1.2749  1.4607 -0.0947
 6976SOL    HW232391   4.032   2.225   8.010  1.1651 -0.4649 -0.0267
 6977SOL     OW32392   1.637   2.166   6.524  0.3469 -0.4147  0.3773
 6977SOL    HW132393   1.653   2.074   6.548 -0.4272 -1.7637 -4.2685
 6977SOL    HW232394   1.653   2.150   6.431  2.1115 -0.7162  0.7291
 6978SOL     OW32395   2.664   2.859  14.632 -0.0974  0.6308  0.0828
 6978SOL    HW132396   2.756   2.886  14.638  0.5734 -1.8960  0.8682
 6978SOL    HW232397   2.651   2.856  14.537  0.8105 -2.2179  0.0395
 6979SOL     OW32398   1.371   1.947   1.225  0.0939  0.0538 -0.0029
 6979SOL    HW132399   1.412   1.909   1.303  0.6048  0.4476 -0.0785
 6979SOL    HW232400   1.444   2.006   1.204  0.5472 -0.8800 -1.0386
 6980SOL     OW32401   1.784   4.593   9.129 -0.1402  0.2448  0.0010
 6980SOL    HW132402   1.807   4.557   9.215  0.7181  0.4121 -0.1538
 6980SOL    HW232403   1.825   4.680   9.131 -1.8791  1.0615  0.5819
 6981SOL     OW32404   1.086   3.682  12.490 -0.0190  0.3117 -0.4136
 6981SOL    HW132405   1.019   3.747  12.511 -0.7301 -0.4784 -0.2419
 6981SOL    HW232406   1.137   3.670  12.570  1.7420  2.3370 -1.2550
 6982SOL     OW32407   0.217   0.189   7.448 -0.6928 -0.6418  0.2682
 6982SOL    HW132408   0.190   0.254   7.383  1.9744 -0.0504 -0.2572
 6982SOL    HW232409   0.152   0.119   7.443 -0.2141 -0.9769 -1.0539
 6983SOL     OW32410   4.407   2.512   5.548  0.3025  0.3331 -0.0779
 6983SOL    HW132411   4.327   2.459   5.549  0.6379 -0.1825 -0.5926
 6983SOL    HW232412   4.414   2.517   5.643 -0.6560 -0.6188  0.0457
 6984SOL     OW32413   4.325   3.376   8.128 -0.2980  0.0984 -0.1286
 6984SOL    HW132414   4.381   3.454   8.119 -0.2745  0.2035  0.9311
 6984SOL    HW232415   4.279   3.358   8.046 -1.0359 -3.4787  1.0828
 6985SOL     OW32416   0.111   4.409   8.001  0.1883  0.5187  0.4770
 6985SOL    HW132417   0.173   4.481   8.007  0.6365  0.1017  0.7980
 6985SOL    HW232418   0.156   4.354   8.065  1.2642  0.4732 -0.3071
 6986SOL     OW32419   1.914   3.040   1.869  0.7815 -0.2459  0.1540
 6986SOL    HW132420   1.987   3.085   1.827  1.4967 -0.4023  1.2596
 6986SOL    HW232421   1.898   3.078   1.955 -0.2054 -3.8013  1.5529
 6987SOL     OW32422   2.257   4.067   3.132  0.1843 -0.2526  0.3803
 6987SOL    HW132423   2.274   4.044   3.223  0.5171  0.7969  0.5881
 6987SOL    HW232424   2.224   4.156   3.142 -1.2607 -0.9315  1.5781
 6988SOL     OW32425   3.099   3.972  14.033  0.0030 -0.6083  0.2226
 6988SOL    HW132426   3.162   3.904  14.007  0.5552  0.1056 -0.2926
 6988SOL    HW232427   3.146   4.051  14.008 -0.0540 -0.0722  1.7945
 6989SOL     OW32428   4.654   0.883   6.457  0.1146 -1.0036  0.1755
 6989SOL    HW132429   4.642   0.916   6.546  1.7524  2.2917 -0.8443
 6989SOL    HW232430   0.019   0.846   6.444  0.7930  0.0560  1.7389
 6990SOL     OW32431   4.040   1.062   7.508  0.6772  0.0419 -0.6773
 6990SOL    HW132432   3.970   1.073   7.573  0.6421 -1.4845 -0.4474
 6990SOL    HW232433   4.095   0.986   7.524  1.7606  0.8558 -0.5616
 6991SOL     OW32434   0.128   1.237   8.162  0.5715 -0.0919  0.3950
 6991SOL    HW132435   0.150   1.238   8.255  1.7514  0.2925  0.1178
 6991SOL    HW232436   0.036   1.262   8.159  0.5692 -0.1098  0.3232
 6992SOL     OW32437   0.768   4.093   8.334  0.3503  0.6001  0.5566
 6992SOL    HW132438   0.826   4.048   8.395  0.1928 -2.2391 -1.3732
 6992SOL    HW232439   0.678   4.065   8.350  0.7102 -0.8255  0.1404
 6993SOL     OW32440   3.305   3.995   8.847  0.0063  0.0313 -0.7324
 6993SOL    HW132441   3.284   3.920   8.791  0.8119 -1.0343  0.3914
 6993SOL    HW232442   3.308   4.055   8.772 -1.0643  0.8510 -0.1222
 6994SOL     OW32443   4.142   1.806  14.868 -0.3118 -0.3491 -0.5795
 6994SOL    HW132444   4.146   1.763  14.953  0.0781  0.8162 -0.0042
 6994SOL    HW232445   4.193   1.886  14.880 -0.3704 -0.3604 -0.2618
 6995SOL     OW32446   3.830   0.758  14.914  0.7906  0.1284  0.8646
 6995SOL    HW132447   3.774   0.776  14.839  2.7715 -0.7315 -0.8160
 6995SOL    HW232448   3.867   0.673  14.890 -0.5367 -0.5540  1.1979
 6996SOL     OW32449   1.764   3.837   5.269 -0.8298  0.0772 -0.4320
 6996SOL    HW132450   1.840   3.895   5.260  1.4351 -2.7155  0.6408
 6996SOL    HW232451   1.734   3.860   5.356 -1.1245 -1.2881 -0.1686
 6997SOL     OW32452   1.605   3.446   4.440 -0.3324  0.3535 -0.2289
 6997SOL    HW132453   1.652   3.488   4.368  1.8819  2.5719  2.4944
 6997SOL    HW232454   1.647   3.473   4.522 -1.6213 -1.5718  1.0527
 6998SOL     OW32455   0.131   3.480   0.252 -0.3125 -0.0826 -0.0464
 6998SOL    HW132456   0.058   3.431   0.289 -1.0303 -0.1800 -1.6122
 6998SOL    HW232457   0.185   3.484   0.331 -1.4206 -0.7869  0.7437
 6999SOL     OW32458   2.861   4.344   8.144 -0.3151 -0.0934 -0.1087
 6999SOL    HW132459   2.792   4.401   8.178  0.6711  0.5232  0.8778
 6999SOL    HW232460   2.800   4.283   8.102  0.2402  0.9702 -2.4128
 7000SOL     OW32461   0.474   0.507   7.730 -0.5969 -0.6023  0.2989
 7000SOL    HW132462   0.407   0.572   7.708 -1.6682 -1.0954  2.1192
 7000SOL    HW232463   0.418   0.430   7.719 -1.5442  0.4788 -2.6165
 7001SOL     OW32464   0.454   0.036   5.691 -0.2112  0.0746  0.7335
 7001SOL    HW132465   0.397   0.113   5.693 -1.5128 -0.9052  1.5261
 7001SOL    HW232466   0.432   4.710   5.611  0.2511  1.7267 -0.3840
 7002SOL     OW32467   4.259   3.367   2.690  0.0498 -0.3254  0.1861
 7002SOL    HW132468   4.243   3.316   2.770  2.6803  1.9927  2.1523
 7002SOL    HW232469   4.184   3.347   2.633 -1.2282 -0.5308  1.9389
 7003SOL     OW32470   0.992   0.737   8.864 -0.0229 -0.0915 -0.2565
 7003SOL    HW132471   1.054   0.807   8.886  3.8739 -3.5691 -0.0963
 7003SOL    HW232472   1.036   0.657   8.890 -1.6148 -1.1221 -0.7521
 7004SOL     OW32473   1.370   0.977   3.823  0.0070 -0.2001  0.2570
 7004SOL    HW132474   1.278   0.963   3.798  0.5510 -2.9635 -0.2022
 7004SOL    HW232475   1.422   0.903   3.792 -0.6596 -0.0789 -1.1811
 7005SOL     OW32476   1.723   4.106  12.134 -0.1239  0.2117  0.3615
 7005SOL    HW132477   1.664   4.128  12.207  0.0868  1.4357  0.1680
 7005SOL    HW232478   1.756   4.193  12.112  2.1240 -1.1168 -1.5310
 7006SOL     OW32479   1.844   0.489   4.617 -0.4422  0.7048  0.0393
 7006SOL    HW132480   1.772   0.446   4.570  0.5704 -0.4997 -0.3907
 7006SOL    HW232481   1.907   0.421   4.640 -1.1790 -0.9367 -2.8272
 7007SOL     OW32482   0.745   0.261   4.749  0.2346 -0.2562 -0.2400
 7007SOL    HW132483   0.810   0.206   4.703  1.3501  0.4779  0.4641
 7007SOL    HW232484   0.797   0.295   4.821  0.8384 -1.6759  0.0026
 7008SOL     OW32485   0.474   4.364   7.906 -0.5135 -0.1874  0.5320
 7008SOL    HW132486   0.410   4.324   7.847  1.6778  0.5894 -2.3974
 7008SOL    HW232487   0.454   4.315   7.986 -0.9476  0.8031  1.0325
 7009SOL     OW32488   2.347   2.534   4.966  0.4454 -0.1807  0.7916
 7009SOL    HW132489   2.257   2.509   4.988  0.6286  0.4528  2.2138
 7009SOL    HW232490   2.394   2.476   5.026  2.6346  0.8133  0.0185
 7010SOL     OW32491   0.409   1.360  11.835 -0.3540 -0.0253 -0.2957
 7010SOL    HW132492   0.378   1.300  11.767 -1.4730  1.2006 -0.8654
 7010SOL    HW232493   0.337   1.424  11.834 -0.1112  0.2428 -1.9836
 7011SOL     OW32494   0.910   0.885  16.095  0.3404  0.2588  0.1718
 7011SOL    HW132495   0.827   0.872  16.050  0.0462 -1.8381  1.3228
 7011SOL    HW232496   0.915   0.805  16.147  2.5379  1.2291  1.4281
 7012SOL     OW32497   0.259   3.547   0.521 -0.1119 -0.6209  0.2047
 7012SOL    HW132498   0.253   3.507   0.607  1.5568 -0.7871  0.2510
 7012SOL    HW232499   0.207   3.625   0.541  1.1774  0.5673 -1.0037
 7013SOL     OW32500   1.702   1.156   2.417  0.1197 -0.1866  0.7896
 7013SOL    HW132501   1.621   1.183   2.374  0.6218 -1.9193 -1.2631
 7013SOL    HW232502   1.663   1.118   2.495 -1.8841 -0.0062 -0.1390
 7014SOL     OW32503   1.658   4.686  16.956 -0.4262  0.2757 -0.2314
 7014SOL    HW132504   1.640   4.651  16.868 -1.9767  1.4739 -0.3812
 7014SOL    HW232505   1.745   4.647  16.963 -1.2461 -0.7110  4.2821
 7015SOL     OW32506   0.500   0.721  12.109 -0.1511 -0.1823 -0.1909
 7015SOL    HW132507   0.583   0.751  12.144  0.9609 -2.5670 -0.8069
 7015SOL    HW232508   0.531   0.647  12.056 -1.2598 -1.9894  1.7028
 7016SOL     OW32509   0.505   4.265   2.384  0.0811  0.5791  0.4310
 7016SOL    HW132510   0.568   4.331   2.357 -0.0706  1.1840  1.5556
 7016SOL    HW232511   0.473   4.233   2.300  4.0139  0.7690 -1.1323
 7017SOL     OW32512   4.507   2.081  14.066 -0.4189 -0.3188  0.0263
 7017SOL    HW132513   4.587   2.118  14.030  0.6150 -0.8322  1.7812
 7017SOL    HW232514   4.463   2.063  13.983  1.2028  0.5114 -1.0202
 7018SOL     OW32515   4.346   4.171   9.147  0.1162 -0.6230 -0.0099
 7018SOL    HW132516   4.329   4.105   9.215  2.3641 -0.5380  0.6193
 7018SOL    HW232517   4.440   4.158   9.135 -0.0279 -1.2419 -0.4598
 7019SOL     OW32518   0.726   4.668  12.345  0.0511  0.3441 -0.3093
 7019SOL    HW132519   0.769   0.025  12.312  0.3393  1.1554  2.0628
 7019SOL    HW232520   0.666   4.660  12.271  0.0890  0.1577 -0.3189
 7020SOL     OW32521   0.387   2.555   2.094 -0.1592  0.2422 -0.1434
 7020SOL    HW132522   0.483   2.552   2.095 -0.1440  0.9742  0.5810
 7020SOL    HW232523   0.371   2.522   2.183  1.2505 -2.5236 -0.8943
 7021SOL     OW32524   0.720   1.930  17.480  0.6195 -0.7101  0.2876
 7021SOL    HW132525   0.669   1.995  17.433 -1.2095 -0.8741  2.0339
 7021SOL    HW232526   0.691   1.845  17.445 -1.3237  1.1734 -2.7062
 7022SOL     OW32527   0.722   0.925   2.381 -0.6485 -0.0280  0.0059
 7022SOL    HW132528   0.727   0.932   2.476  0.3305 -0.0237 -0.0428
 7022SOL    HW232529   0.663   0.997   2.357 -1.1837 -0.7729 -0.9141
 7023SOL     OW32530   2.907   1.993   7.109  0.2185  0.3832 -0.1518
 7023SOL    HW132531   2.988   1.942   7.101  1.6838  2.7390 -0.2765
 7023SOL    HW232532   2.924   2.087   7.101  0.1279  0.2502 -1.9095
 7024SOL     OW32533   3.160   3.378   4.461 -0.2759 -0.3018  0.3500
 7024SOL    HW132534   3.149   3.461   4.414 -0.3053 -1.1292 -1.1083
 7024SOL    HW232535   3.068   3.363   4.479 -0.5149  0.5320 -0.1783
 7025SOL     OW32536   2.183   1.461   5.227  0.3600 -0.2187 -0.0322
 7025SOL    HW132537   2.123   1.532   5.251  2.4222  1.0613  1.3062
 7025SOL    HW232538   2.178   1.407   5.306 -1.3055  0.9052  0.6418
 7026SOL     OW32539   3.367   2.580   8.185 -0.5579  0.3431  0.5493
 7026SOL    HW132540   3.419   2.525   8.244  0.2234  0.9509  0.4266
 7026SOL    HW232541   3.377   2.529   8.105  1.1907 -1.3787  1.8883
 7027SOL     OW32542   3.404   2.443   6.659  0.3358  0.5411  0.3266
 7027SOL    HW132543   3.425   2.354   6.633 -1.0721  0.7202 -1.4118
 7027SOL    HW232544   3.436   2.495   6.585 -0.2067  0.3827 -0.0170
 7028SOL     OW32545   3.211   2.013  10.851 -0.2803  0.0124  0.7751
 7028SOL    HW132546   3.212   2.032  10.945  0.7319  0.8496  0.5937
 7028SOL    HW232547   3.304   2.003  10.828 -0.1850 -1.6413  1.9139
 7029SOL     OW32548   1.614   4.449   1.389  0.1163 -0.1870  0.4806
 7029SOL    HW132549   1.624   4.394   1.311 -1.7946  1.5824 -1.0047
 7029SOL    HW232550   1.534   4.414   1.427 -0.4886  0.6913  0.0231
 7030SOL     OW32551   3.447   3.004   7.485 -0.2242 -0.4766  0.8709
 7030SOL    HW132552   3.536   3.026   7.459 -0.6563  1.5340  1.1128
 7030SOL    HW232553   3.468   2.959   7.567  0.0629  1.6502  1.9842
 7031SOL     OW32554   4.279   1.584   3.629  0.5236  0.3594  0.1823
 7031SOL    HW132555   4.306   1.615   3.716 -2.1474  1.1544  0.7087
 7031SOL    HW232556   4.304   1.657   3.573 -2.7469  1.0006 -0.4136
 7032SOL     OW32557   3.118   0.338   1.597 -0.4110  0.0071  0.2001
 7032SOL    HW132558   3.205   0.313   1.567  0.6157  0.8098  2.4770
 7032SOL    HW232559   3.083   0.250   1.607  2.4147 -1.1389 -0.3464
 7033SOL     OW32560   3.865   4.373   9.815  0.5009 -0.1372  0.2537
 7033SOL    HW132561   3.882   4.467   9.823  0.0867  0.0335 -0.7903
 7033SOL    HW232562   3.776   4.386   9.782  0.4548  0.4953  0.6358
 7034SOL     OW32563   1.739   4.388   3.003  0.0257 -0.2140  0.2555
 7034SOL    HW132564   1.739   4.356   2.912  1.4386 -1.0885  0.5719
 7034SOL    HW232565   1.797   4.317   3.031  1.0610  0.8959  0.8934
 7035SOL     OW32566   4.072   1.728   5.278  0.6567 -0.0374  0.3156
 7035SOL    HW132567   4.137   1.751   5.211  0.3789 -1.5064 -0.4614
 7035SOL    HW232568   4.102   1.801   5.333 -0.2662  1.1698 -0.7681
 7036SOL     OW32569   3.406   4.615   6.965 -0.6420  0.3731 -0.2524
 7036SOL    HW132570   3.380   4.524   6.979  2.4526 -0.6746 -1.3364
 7036SOL    HW232571   3.415   4.645   7.056 -0.4421 -0.2292 -0.0755
 7037SOL     OW32572   2.431   0.917   4.219  0.3872 -0.2960 -0.2230
 7037SOL    HW132573   2.355   0.860   4.218  1.2942 -1.5948  2.6065
 7037SOL    HW232574   2.415   0.991   4.161  0.7561  0.2706  0.3927
 7038SOL     OW32575   4.715   2.117   4.047  0.2871 -0.2899  0.0224
 7038SOL    HW132576   0.064   2.176   4.021  0.1375  0.5568  1.5274
 7038SOL    HW232577   0.006   2.114   4.142  3.6945 -0.5726 -0.4372
 7039SOL     OW32578   2.195   0.283   6.628 -0.1125 -0.3005 -0.1669
 7039SOL    HW132579   2.249   0.350   6.670 -1.0093 -0.7012  1.5945
 7039SOL    HW232580   2.253   0.207   6.616 -0.5923 -0.1613 -3.3677
 7040SOL     OW32581   3.964   1.706  10.934 -0.5270 -0.1760  0.9032
 7040SOL    HW132582   3.869   1.716  10.936 -0.6314 -0.7380 -1.5195
 7040SOL    HW232583   4.002   1.794  10.936  0.3827 -0.5989  2.9069
 7041SOL     OW32584   2.020   2.432   8.103  0.3647 -0.5256 -0.2295
 7041SOL    HW132585   1.924   2.431   8.107  0.4130 -0.7885  0.9597
 7041SOL    HW232586   2.041   2.482   8.182  2.9063  1.3245 -2.0654
 7042SOL     OW32587   1.793   2.520  11.818  0.0475  0.0758 -0.1780
 7042SOL    HW132588   1.722   2.495  11.876 -1.7165  2.1113 -1.4659
 7042SOL    HW232589   1.810   2.609  11.848  0.1722 -0.8143  2.3756
 7043SOL     OW32590   3.339   0.342   7.260 -0.2929 -0.4678  0.2621
 7043SOL    HW132591   3.425   0.303   7.279  0.6873  0.9294 -1.2747
 7043SOL    HW232592   3.275   0.279   7.292 -2.0020  0.1955 -1.8557
 7044SOL     OW32593   0.995   3.629   3.705  0.1612 -0.1260 -0.3770
 7044SOL    HW132594   0.988   3.558   3.770  1.1772 -0.7728 -0.9728
 7044SOL    HW232595   1.091   3.631   3.707  0.1978  0.3643 -2.9169
 7045SOL     OW32596   2.741   2.812   6.515 -0.0468  0.3374  0.4304
 7045SOL    HW132597   2.669   2.751   6.501  0.4242 -0.1878  0.2803
 7045SOL    HW232598   2.819   2.758   6.500  0.3314  1.2194 -0.7293
 7046SOL     OW32599   3.062   4.410   8.746 -0.6559 -0.2336  0.4768
 7046SOL    HW132600   3.016   4.416   8.829 -0.4877 -0.8895  0.6136
 7046SOL    HW232601   3.152   4.419   8.776  0.0177 -2.1189 -0.9804
 7047SOL     OW32602   1.665   0.775   3.096 -0.0358  0.5140  0.5498
 7047SOL    HW132603   1.577   0.759   3.129 -0.2440 -1.9088 -1.1820
 7047SOL    HW232604   1.639   0.777   3.004 -1.1218 -0.6808  0.8292
 7048SOL     OW32605   2.186   0.816  16.439  0.1726  0.0057  0.4774
 7048SOL    HW132606   2.280   0.818  16.423 -0.2608  1.0695 -2.0137
 7048SOL    HW232607   2.146   0.843  16.356  0.7326  0.8201  0.4718
 7049SOL     OW32608   3.534   4.500   7.793 -0.0708  0.0761  0.5449
 7049SOL    HW132609   3.452   4.458   7.817 -0.0581 -0.7577 -0.8717
 7049SOL    HW232610   3.590   4.426   7.770  0.1298  0.7062 -1.0502
 7050SOL     OW32611   4.699   1.774   5.715  0.0623 -0.1424  0.6647
 7050SOL    HW132612   4.700   1.755   5.809 -1.3372 -0.8654  0.5241
 7050SOL    HW232613   0.005   1.866   5.723 -0.4229  0.1153 -0.5399
 7051SOL     OW32614   1.749   2.368   3.839  0.2106  0.1327  0.2454
 7051SOL    HW132615   1.689   2.360   3.765  0.1510  2.3696  0.0591
 7051SOL    HW232616   1.711   2.430   3.901  0.1606  1.0714 -0.7246
 7052SOL     OW32617   1.516   4.694   3.517 -0.0592 -0.0499 -0.0747
 7052SOL    HW132618   1.584   0.007   3.575  0.4138  2.9347 -2.4536
 7052SOL    HW232619   1.444   4.685   3.579 -0.2200  1.2518 -0.0800
 7053SOL     OW32620   0.909   2.810  11.974  0.5118  0.0942 -0.4077
 7053SOL    HW132621   0.984   2.869  11.983 -0.2572  1.1941 -1.1219
 7053SOL    HW232622   0.936   2.738  12.031 -1.9849 -0.8446 -0.4251
 7054SOL     OW32623   4.289   2.829   7.309 -0.0162  0.0849  0.0514
 7054SOL    HW132624   4.349   2.790   7.373 -0.7252 -0.5239  0.3555
 7054SOL    HW232625   4.210   2.831   7.363  0.9030  1.9196  1.2792
 7055SOL     OW32626   4.343   4.107   6.658  0.5983  0.4321 -0.4519
 7055SOL    HW132627   4.404   4.042   6.694  0.8629  0.0950 -1.5003
 7055SOL    HW232628   4.280   4.064   6.600  1.5981  0.9688 -1.9389
 7056SOL     OW32629   3.081   3.632   8.938 -0.2587 -0.5997  0.3600
 7056SOL    HW132630   2.997   3.601   8.903 -0.4847  1.8465 -1.3403
 7056SOL    HW232631   3.048   3.708   8.986 -1.2041 -1.2019  0.6476
 7057SOL     OW32632   3.646   1.090  13.446  0.3401 -0.0143 -0.2115
 7057SOL    HW132633   3.583   1.018  13.442  1.4330 -0.9709 -0.1167
 7057SOL    HW232634   3.664   1.095  13.353 -2.0302  0.8621 -0.6258
 7058SOL     OW32635   0.704   2.155   4.580  0.0689 -0.7454 -0.0210
 7058SOL    HW132636   0.648   2.128   4.653 -1.9862 -0.2811 -1.4091
 7058SOL    HW232637   0.746   2.231   4.621 -3.1840  0.4080  1.1676
 7059SOL     OW32638   4.004   2.314   3.315 -0.6245 -0.1090 -0.1661
 7059SOL    HW132639   3.935   2.380   3.310  0.2133  0.7570 -0.3134
 7059SOL    HW232640   3.947   2.238   3.308  2.5489 -2.4609 -0.4786
 7060SOL     OW32641   1.009   2.718   9.725 -0.6408 -0.2421  0.0280
 7060SOL    HW132642   1.076   2.700   9.791  1.2916 -1.5922 -2.2946
 7060SOL    HW232643   1.049   2.779   9.663 -1.0342 -1.2580 -1.2209
 7061SOL     OW32644   0.740   1.578   5.805 -0.2701 -0.6028 -0.2850
 7061SOL    HW132645   0.718   1.592   5.897 -0.6013  0.8247 -0.5768
 7061SOL    HW232646   0.708   1.492   5.780 -1.8604 -1.2463  3.9722
 7062SOL     OW32647   1.454   4.399   1.683  0.5572 -0.0442  0.2430
 7062SOL    HW132648   1.383   4.385   1.745 -1.0130 -0.4662 -1.6364
 7062SOL    HW232649   1.406   4.386   1.601  1.6171 -0.8331 -0.2342
 7063SOL     OW32650   4.136   3.126   3.914 -0.3834  0.0217  0.5555
 7063SOL    HW132651   4.112   3.149   4.004  2.6684 -0.8977  1.6293
 7063SOL    HW232652   4.231   3.140   3.910 -0.7015  2.5099  1.6352
 7064SOL     OW32653   3.051   1.260   3.702  0.5220  0.5539  0.2845
 7064SOL    HW132654   3.133   1.309   3.707 -0.3186  1.9682  0.3375
 7064SOL    HW232655   3.074   1.174   3.736 -0.8109 -0.3078 -0.9946
 7065SOL     OW32656   1.639   0.975   3.464  0.5308 -0.0377  0.2156
 7065SOL    HW132657   1.656   1.011   3.551  0.8181  0.8131 -0.2005
 7065SOL    HW232658   1.718   0.996   3.414  1.9699 -1.9608  1.6196
 7066SOL     OW32659   1.709   4.271   2.737 -0.2777 -0.2529 -0.2935
 7066SOL    HW132660   1.619   4.296   2.716 -0.2846  0.0943  0.1491
 7066SOL    HW232661   1.686   4.191   2.784 -0.3688  0.9664  1.7489
 7067SOL     OW32662   2.882   0.869   6.978  0.4817 -0.5322 -0.3833
 7067SOL    HW132663   2.952   0.932   6.965 -0.8854  1.3000  1.2960
 7067SOL    HW232664   2.829   0.917   7.042  1.9656  1.1087 -0.4101
 7068SOL     OW32665   0.323   2.808   3.134 -0.4918  0.3726  0.5205
 7068SOL    HW132666   0.373   2.727   3.147  1.3559  1.1675 -1.5360
 7068SOL    HW232667   0.241   2.781   3.175  0.3375 -0.4907  1.6362
 7069SOL     OW32668   1.293   4.204   6.033 -0.3778 -0.4616 -0.1484
 7069SOL    HW132669   1.209   4.240   6.002 -0.4864  0.3770  1.1282
 7069SOL    HW232670   1.296   4.125   5.979 -0.0585 -1.6859  1.6731
 7070SOL     OW32671   0.147   4.497   3.197 -0.3763 -0.1049  0.2374
 7070SOL    HW132672   0.117   4.412   3.164 -0.2893  0.7970 -2.2083
 7070SOL    HW232673   0.166   4.481   3.289 -0.3311 -0.8562  0.1017
 7071SOL     OW32674   2.302   0.775   5.864  0.1854  0.1885  0.0406
 7071SOL    HW132675   2.245   0.712   5.908  1.0919 -0.6329  0.0187
 7071SOL    HW232676   2.309   0.839   5.935  0.2720  1.8672 -1.4908
 7072SOL     OW32677   1.284   0.717   8.199  0.2871  0.6705 -0.1262
 7072SOL    HW132678   1.317   0.723   8.109  0.2495 -1.6436 -0.2981
 7072SOL    HW232679   1.364   0.721   8.251  1.2927  0.1483 -1.6087
 7073SOL     OW32680   0.046   3.029  15.173  0.3037 -0.1316  0.1557
 7073SOL    HW132681   0.034   3.056  15.082 -1.3073 -1.4426 -0.0229
 7073SOL    HW232682   0.082   3.109  15.210 -0.7355  0.3864  0.0573
 7074SOL     OW32683   4.446   0.793   7.168 -0.7175  0.7012 -0.2865
 7074SOL    HW132684   4.502   0.723   7.135  0.8650  2.2314 -0.8547
 7074SOL    HW232685   4.496   0.820   7.245 -0.8211  1.1831 -0.3862
 7075SOL     OW32686   4.190   0.668   8.145 -0.1164  0.1670 -0.4432
 7075SOL    HW132687   4.271   0.641   8.187  0.7819  0.8435 -1.7314
 7075SOL    HW232688   4.226   0.744   8.099  0.4298 -0.5649 -1.2305
 7076SOL     OW32689   3.671   2.247   7.004 -0.2907 -0.1263  0.1807
 7076SOL    HW132690   3.696   2.301   7.078  2.7612 -2.0895  0.6187
 7076SOL    HW232691   3.688   2.293   6.921  2.1766  1.0107  1.3079
 7077SOL     OW32692   0.641   0.612  11.758 -0.0616  0.2758 -0.1812
 7077SOL    HW132693   0.679   0.566  11.833  0.4023  0.2381 -0.4353
 7077SOL    HW232694   0.724   0.619  11.712 -0.5424 -0.5161 -1.1574
 7078SOL     OW32695   3.245   2.421   4.067  0.1602 -0.4155 -0.5418
 7078SOL    HW132696   3.313   2.484   4.041 -1.1080  0.6649 -1.2241
 7078SOL    HW232697   3.281   2.365   4.135 -0.4104  1.8811  1.6478
 7079SOL     OW32698   1.063   0.861  16.438 -0.0442  0.0408 -0.3604
 7079SOL    HW132699   0.987   0.817  16.399 -1.3184  0.9438  1.1281
 7079SOL    HW232700   1.099   0.801  16.504  0.7990  0.6542 -0.2688
 7080SOL     OW32701   4.207   3.880   6.893  0.0396  0.3287 -0.1700
 7080SOL    HW132702   4.135   3.942   6.880  0.0574  0.9226  2.4592
 7080SOL    HW232703   4.246   3.906   6.977 -0.8727 -0.9941  0.6586
 7081SOL     OW32704   0.131   4.066   8.006 -0.4864 -0.2300  0.1467
 7081SOL    HW132705   0.090   4.006   8.067 -3.1087  0.6381 -0.7662
 7081SOL    HW232706   0.168   4.133   8.063  0.4909 -0.1639 -0.5408
 7082SOL     OW32707   3.892   2.344   5.425  0.1833 -0.4807  0.2574
 7082SOL    HW132708   3.906   2.328   5.332 -1.6831 -0.0489 -0.0859
 7082SOL    HW232709   3.839   2.269   5.452 -0.0748 -0.1405  0.6997
 7083SOL     OW32710   3.028   0.929  17.635 -0.3277  0.5899 -0.2213
 7083SOL    HW132711   3.034   1.020  17.663  1.4382  0.7530 -1.2093
 7083SOL    HW232712   2.968   0.903   0.015  1.4436 -3.2236 -0.1153
 7084SOL     OW32713   1.117   3.167   9.218  0.0254  0.3706 -0.0763
 7084SOL    HW132714   1.111   3.171   9.313  0.3410  1.8829 -0.1235
 7084SOL    HW232715   1.114   3.260   9.196  2.4795  0.4905  0.0647
 7085SOL     OW32716   1.242   4.050   8.971  0.4985 -0.6299  0.1843
 7085SOL    HW132717   1.330   4.017   8.990 -0.4015 -1.8288  2.3924
 7085SOL    HW232718   1.257   4.125   8.913 -0.0338  0.4598  1.4570
 7086SOL     OW32719   3.524   0.058  14.886  0.1582 -0.0728 -0.0960
 7086SOL    HW132720   3.593   4.714  14.891  2.4006  2.2296 -0.9561
 7086SOL    HW232721   3.563   0.110  14.816  0.7493 -2.0638 -1.2608
 7087SOL     OW32722   4.239   1.433   6.584  0.3540 -0.9632  0.1672
 7087SOL    HW132723   4.166   1.371   6.591  0.6389 -1.2928  0.2686
 7087SOL    HW232724   4.231   1.479   6.667 -0.6745 -0.0068 -0.4764
 7088SOL     OW32725   4.119   2.822   2.835  0.3382 -0.1794 -0.2150
 7088SOL    HW132726   4.199   2.875   2.834  0.5333 -0.4884 -0.8134
 7088SOL    HW232727   4.120   2.799   2.928 -0.4125  1.5465  0.2322
 7089SOL     OW32728   0.187   3.571   8.182 -0.7592  0.5517 -0.4009
 7089SOL    HW132729   0.201   3.602   8.271  0.3219 -0.4909 -0.2013
 7089SOL    HW232730   0.116   3.507   8.189  0.6770 -0.6204  2.9710
 7090SOL     OW32731   3.738   4.633  14.874  0.0316  0.1755  0.2299
 7090SOL    HW132732   3.813   4.613  14.928 -1.3309 -3.2009  0.8299
 7090SOL    HW232733   3.776   4.621  14.787  2.6953 -2.6442  1.8169
 7091SOL     OW32734   1.258   2.344  11.388  0.3842 -0.8255  0.6002
 7091SOL    HW132735   1.194   2.411  11.365  0.9279 -1.2872 -2.2361
 7091SOL    HW232736   1.332   2.403  11.397  0.0859 -0.2252 -0.9402
 7092SOL     OW32737   1.376   1.192   6.186 -0.0855 -0.2922 -0.2777
 7092SOL    HW132738   1.377   1.211   6.280  1.9347 -0.0851 -0.3403
 7092SOL    HW232739   1.389   1.283   6.158 -1.0047 -0.6115 -1.7563
 7093SOL     OW32740   3.156   2.284   8.845  0.2249  0.5386  0.0406
 7093SOL    HW132741   3.160   2.200   8.800 -0.5252  1.3161 -1.5096
 7093SOL    HW232742   3.105   2.342   8.788 -1.0064 -1.5385 -0.9611
 7094SOL     OW32743   2.763   1.445   7.784  0.1830 -0.1601  1.0363
 7094SOL    HW132744   2.721   1.387   7.848 -0.2328 -0.2895  0.6465
 7094SOL    HW232745   2.819   1.493   7.846  1.2643 -0.5251  0.3540
 7095SOL     OW32746   0.410   1.349   3.681  0.2983 -0.2393  0.3879
 7095SOL    HW132747   0.318   1.359   3.655  0.6382 -0.9992 -1.1549
 7095SOL    HW232748   0.448   1.335   3.594 -1.2041 -3.2151  0.1755
 7096SOL     OW32749   4.333   3.738  14.322  0.3249 -0.0624 -0.5457
 7096SOL    HW132750   4.366   3.655  14.287 -1.4559 -0.8180 -0.4329
 7096SOL    HW232751   4.413   3.790  14.324 -0.0740  0.6520 -2.5102
 7097SOL     OW32752   2.356   4.509  16.782  0.0280  0.4088  0.1786
 7097SOL    HW132753   2.318   4.530  16.697 -1.2515  1.3804  0.9680
 7097SOL    HW232754   2.297   4.440  16.812 -0.0136 -0.0389 -0.9415
 7098SOL     OW32755   2.863   0.090  10.481  0.0211 -0.4724  0.1063
 7098SOL    HW132756   2.927   0.019  10.470 -1.2635 -1.6925  0.4809
 7098SOL    HW232757   2.785   0.035  10.481 -0.8209  0.7180  1.2588
 7099SOL     OW32758   1.378   3.411   4.668  0.0900 -0.0415 -0.3512
 7099SOL    HW132759   1.456   3.458   4.698 -0.2175 -1.5466  2.8917
 7099SOL    HW232760   1.418   3.331   4.634 -0.0320 -0.2609  0.0165
 7100SOL     OW32761   1.420   1.974   2.813 -0.3533  0.6215  0.1480
 7100SOL    HW132762   1.503   1.999   2.771 -2.1165  1.3094 -2.9189
 7100SOL    HW232763   1.458   1.927   2.887  0.8685 -0.4720 -1.1647
 7101SOL     OW32764   0.384   0.117   2.641 -0.1426  0.2872 -0.7687
 7101SOL    HW132765   0.449   0.114   2.712 -1.2127  0.2332  0.2200
 7101SOL    HW232766   0.315   0.061   2.676  0.5605  1.3060  2.3373
 7102SOL     OW32767   3.863   3.568   2.479 -0.0780 -0.1978 -0.3902
 7102SOL    HW132768   3.785   3.623   2.472 -0.2382 -0.2590  1.0201
 7102SOL    HW232769   3.916   3.612   2.413  2.3452  1.3934  2.6241
 7103SOL     OW32770   2.265   2.018  17.659 -0.2590  0.4948 -0.1431
 7103SOL    HW132771   2.205   1.979   0.032  0.9619 -1.8567 -0.4336
 7103SOL    HW232772   2.283   1.943  17.603  0.3209 -0.2185  1.0013
 7104SOL     OW32773   3.003   0.451   0.872  0.7022 -0.0679  0.6607
 7104SOL    HW132774   3.056   0.381   0.911  0.8242 -0.1785  0.2887
 7104SOL    HW232775   3.061   0.525   0.853 -0.2341  0.9910  1.8632
 7105SOL     OW32776   0.239   2.542   6.365 -0.8815  0.2739  0.0122
 7105SOL    HW132777   0.305   2.479   6.392  0.2021  1.0673 -0.7897
 7105SOL    HW232778   0.288   2.621   6.387 -0.2368  0.2849 -1.4486
 7106SOL     OW32779   3.884   4.072   4.465  0.1663  0.0326  0.0908
 7106SOL    HW132780   3.836   4.052   4.545 -0.0861  3.6358  0.8705
 7106SOL    HW232781   3.812   4.078   4.403  1.3627  1.8479 -1.1352
 7107SOL     OW32782   3.652   1.115  12.389  0.2699 -0.0730 -0.2198
 7107SOL    HW132783   3.585   1.149  12.330  0.0330  0.6061  0.4370
 7107SOL    HW232784   3.663   1.020  12.380 -1.8275 -0.2419 -1.1359
 7108SOL     OW32785   0.280   0.687   7.689 -0.2020  0.7807 -0.4598
 7108SOL    HW132786   0.251   0.758   7.746  0.5453  1.8135 -1.3881
 7108SOL    HW232787   0.198   0.638   7.678 -0.3009  1.0752 -1.0310
 7109SOL     OW32788   3.051   1.677   3.484  0.4465  0.5421  0.1289
 7109SOL    HW132789   3.093   1.592   3.471 -0.7844  0.2396 -1.9519
 7109SOL    HW232790   3.059   1.688   3.579 -2.0777 -2.0142  0.6308
 7110SOL     OW32791   0.883   3.089  11.332  0.3276  0.7247  0.2757
 7110SOL    HW132792   0.923   3.010  11.294 -0.9874  0.1538  0.0728
 7110SOL    HW232793   0.934   3.147  11.277 -1.1903  1.8471  0.0593
 7111SOL     OW32794   2.625   2.324  10.353 -0.2252  0.0792  0.1861
 7111SOL    HW132795   2.679   2.384  10.300 -1.4782  1.1854  0.1721
 7111SOL    HW232796   2.609   2.374  10.432  2.4525 -0.7635  1.2711
 7112SOL     OW32797   2.762   1.218   9.908 -0.4612  0.0118  0.4497
 7112SOL    HW132798   2.842   1.256   9.873  1.0248 -0.8751  2.9082
 7112SOL    HW232799   2.762   1.131   9.869 -1.5114 -0.5846  1.7798
 7113SOL     OW32800   2.396   0.043   6.631 -0.3207  0.1071  0.2544
 7113SOL    HW132801   2.348   4.698   6.582 -0.0822  1.9104 -2.4649
 7113SOL    HW232802   2.484   0.050   6.593 -1.6183  0.5167 -2.6745
 7114SOL     OW32803   0.959   3.357   0.867 -0.2971  0.1415 -0.2396
 7114SOL    HW132804   0.866   3.361   0.889 -0.2421  0.1071  0.0031
 7114SOL    HW232805   0.977   3.363   0.774 -1.1814 -3.0136 -0.6379
 7115SOL     OW32806   2.359   3.936   2.120 -0.0095 -0.0397  0.2515
 7115SOL    HW132807   2.275   3.944   2.074 -1.1936 -2.4383  2.0152
 7115SOL    HW232808   2.362   4.025   2.154 -2.5425 -0.0739  0.5606
 7116SOL     OW32809   2.608   0.657   6.440  0.0344 -0.0882  0.0314
 7116SOL    HW132810   2.554   0.612   6.376 -0.0372 -1.0685  0.7967
 7116SOL    HW232811   2.601   0.588   6.505  0.1600  0.8597  1.0484
 7117SOL     OW32812   2.096   3.984  17.319  0.2179 -0.4177 -0.1568
 7117SOL    HW132813   2.149   3.907  17.339 -0.0194 -0.5232  0.0677
 7117SOL    HW232814   2.083   4.014  17.408  1.7829 -0.2332  0.0015
 7118SOL     OW32815   2.303   3.791   2.837  0.7688  0.3150 -0.4495
 7118SOL    HW132816   2.275   3.804   2.746  0.8320 -0.9703 -0.6427
 7118SOL    HW232817   2.391   3.759   2.820  0.6304  1.1568 -2.7311
 7119SOL     OW32818   3.862   4.606   1.602 -0.1593  0.2436  0.2729
 7119SOL    HW132819   3.794   4.621   1.667 -0.5866 -0.0016 -0.1169
 7119SOL    HW232820   3.935   4.616   1.662 -0.3669 -2.7061  1.0311
 7120SOL     OW32821   1.278   4.340  17.198 -0.0521  0.4999  0.3562
 7120SOL    HW132822   1.289   4.275  17.128 -0.6676 -1.0234  1.6843
 7120SOL    HW232823   1.366   4.376  17.209 -0.2577  0.2238  2.8239
 7121SOL     OW32824   0.715   2.191  11.706  0.5812 -0.6301 -0.1721
 7121SOL    HW132825   0.709   2.196  11.611  0.2163  0.6097 -0.0896
 7121SOL    HW232826   0.709   2.283  11.733 -0.6008 -1.0497  1.0256
 7122SOL     OW32827   3.374   0.217   2.277 -0.5108 -0.2318  0.2795
 7122SOL    HW132828   3.284   0.218   2.246 -1.1028  0.7206  2.0326
 7122SOL    HW232829   3.370   0.287   2.341 -0.4447 -1.3609  1.5113
 7123SOL     OW32830   1.395   2.734  14.009 -0.5157  0.0572  0.1041
 7123SOL    HW132831   1.403   2.653  14.059 -0.1184  1.1263  1.7520
 7123SOL    HW232832   1.405   2.807  14.070 -2.0632  0.5187 -0.1979
 7124SOL     OW32833   0.676   4.382   3.854  0.6851 -0.0277 -0.0137
 7124SOL    HW132834   0.584   4.385   3.880  0.0809 -2.0025 -1.9144
 7124SOL    HW232835   0.679   4.471   3.820  1.1307  0.3638  1.0417
 7125SOL     OW32836   1.291   2.909   2.840  0.1830  0.0241  0.0486
 7125SOL    HW132837   1.321   2.822   2.816 -0.4380  0.1020 -1.0429
 7125SOL    HW232838   1.290   2.903   2.936  2.5851 -1.4400 -0.0261
 7126SOL     OW32839   4.231   2.329   7.598  0.1164  0.0027 -0.3057
 7126SOL    HW132840   4.256   2.403   7.543 -1.0439  1.3280  0.9683
 7126SOL    HW232841   4.136   2.333   7.590 -0.0616  1.5372  2.8165
 7127SOL     OW32842   4.336   4.438  10.275  0.0550 -0.0059  0.3901
 7127SOL    HW132843   4.270   4.449  10.206 -2.9412 -3.8206  2.7329
 7127SOL    HW232844   4.310   4.352  10.305  0.0735 -0.4477 -0.8439
 7128SOL     OW32845   0.303   2.960   0.591  0.3189 -0.0599  0.0137
 7128SOL    HW132846   0.373   2.946   0.655  1.0293  0.0944 -0.7446
 7128SOL    HW232847   0.278   3.051   0.606 -0.5059 -0.4122  0.8266
 7129SOL     OW32848   2.415   3.743  10.602  0.8602 -0.8062 -0.1648
 7129SOL    HW132849   2.496   3.693  10.607  2.6623  2.2947  1.5921
 7129SOL    HW232850   2.421   3.782  10.689 -0.7779 -0.2813 -0.2782
 7130SOL     OW32851   3.706   3.017   2.802 -0.1263  0.2329  0.5565
 7130SOL    HW132852   3.782   2.963   2.779 -0.4840  0.6428 -1.5783
 7130SOL    HW232853   3.744   3.049   2.884 -1.1844  0.0885  1.1023
 7131SOL     OW32854   3.672   3.994   7.263 -0.8536 -0.5269  0.0728
 7131SOL    HW132855   3.656   4.086   7.245 -1.2355 -0.5759  0.1511
 7131SOL    HW232856   3.623   3.975   7.343  0.9473 -1.3045  1.0028
 7132SOL     OW32857   2.509   3.207   7.666  0.2409 -0.2448  0.0596
 7132SOL    HW132858   2.473   3.247   7.587 -2.1585  1.5863  2.1100
 7132SOL    HW232859   2.592   3.176   7.630  0.0613 -0.1354 -0.4459
 7133SOL     OW32860   2.025   3.497   1.039  0.0597 -0.7065  0.2748
 7133SOL    HW132861   1.973   3.524   1.115  1.5886  4.3501 -0.5200
 7133SOL    HW232862   2.095   3.451   1.085  0.3640 -1.0600 -0.5389
 7134SOL     OW32863   0.468   0.102   8.968 -0.4211 -0.5157 -0.4809
 7134SOL    HW132864   0.400   0.044   8.933 -0.5125 -1.4876  1.2848
 7134SOL    HW232865   0.529   0.084   8.897  0.6293 -0.1567  0.3338
 7135SOL     OW32866   3.833   2.502   2.942  0.0803 -0.4388 -0.2017
 7135SOL    HW132867   3.810   2.473   3.031  0.6093  0.1712  0.1398
 7135SOL    HW232868   3.759   2.558   2.921  0.1589 -0.2472  0.0236
 7136SOL     OW32869   4.491   1.855   0.439  0.4867 -0.2366 -0.2917
 7136SOL    HW132870   4.503   1.784   0.502  2.5692  0.0405 -0.3986
 7136SOL    HW232871   4.579   1.891   0.431  1.1822 -1.8134  0.2672
 7137SOL     OW32872   2.560   3.115   5.384 -0.0806 -0.3561 -0.1264
 7137SOL    HW132873   2.611   3.109   5.304  1.2340 -1.4632  0.7970
 7137SOL    HW232874   2.481   3.072   5.350  1.3372 -0.8218 -2.7660
 7138SOL     OW32875   1.671   0.714   7.939 -0.4539  0.3065  0.0730
 7138SOL    HW132876   1.661   0.670   8.024 -5.6630  0.7527 -0.3162
 7138SOL    HW232877   1.580   0.711   7.911  0.1639  0.8764 -1.9531
 7139SOL     OW32878   2.206   1.414   4.534  0.5028  0.2634  1.2054
 7139SOL    HW132879   2.200   1.434   4.627 -2.1588 -2.1645  1.5238
 7139SOL    HW232880   2.276   1.349   4.540  0.4792  0.2546  1.3645
 7140SOL     OW32881   4.707   1.956   0.310  0.1207  0.2329  0.1704
 7140SOL    HW132882   0.046   1.975   0.380 -1.0732  0.4186  1.1608
 7140SOL    HW232883   4.716   2.031   0.252  1.4203  0.3272  0.5123
 7141SOL     OW32884   4.099   4.707   6.632  0.1361  0.2781 -0.0371
 7141SOL    HW132885   4.022   4.651   6.630  1.9146 -2.2476  2.5797
 7141SOL    HW232886   4.103   0.001   6.538 -0.5570 -0.2646 -0.1593
 7142SOL     OW32887   3.097   1.166   6.382  0.0825 -0.0413  0.0479
 7142SOL    HW132888   3.038   1.144   6.310  0.9991 -0.7136 -0.4977
 7142SOL    HW232889   3.096   1.088   6.438 -0.4433  0.1512  0.3023
 7143SOL     OW32890   0.187   0.808   8.957  0.1855  0.3102 -0.6609
 7143SOL    HW132891   0.155   0.825   9.046 -1.8426 -0.4845 -1.2584
 7143SOL    HW232892   0.189   0.712   8.960 -1.6011  0.1810 -4.1493
 7144SOL     OW32893   2.510   1.649  11.457  0.2246  0.2478  0.1084
 7144SOL    HW132894   2.539   1.730  11.416  0.9334 -1.2036 -2.2771
 7144SOL    HW232895   2.477   1.687  11.539  2.8401  2.8203 -0.0428
 7145SOL     OW32896   1.512   2.942  14.178  0.7377  0.0267  0.0250
 7145SOL    HW132897   1.460   3.007  14.224  0.6947  1.4078 -1.9715
 7145SOL    HW232898   1.539   3.001  14.107  0.0434  0.4102  0.0790
 7146SOL     OW32899   4.297   2.773  10.847  0.3246 -0.2377 -0.3745
 7146SOL    HW132900   4.375   2.827  10.861  0.4109 -1.3342  3.3286
 7146SOL    HW232901   4.239   2.843  10.817  1.3030  1.0527  0.7607
 7147SOL     OW32902   3.048   3.604   3.178 -0.4206  0.4195 -0.0962
 7147SOL    HW132903   3.053   3.602   3.273  1.2353  0.5373 -0.1789
 7147SOL    HW232904   3.046   3.695   3.149  2.5706  0.3143 -0.6999
 7148SOL     OW32905   1.819   4.453  10.068 -0.3458  0.4092  0.2688
 7148SOL    HW132906   1.779   4.515  10.129 -0.6025  0.4062  0.1065
 7148SOL    HW232907   1.857   4.406  10.142  0.4459  0.1392 -0.3136
 7149SOL     OW32908   0.698   1.923   3.988  0.3935  0.0985  0.6243
 7149SOL    HW132909   0.681   1.918   4.082  0.6628  0.2692  0.6811
 7149SOL    HW232910   0.706   1.832   3.962 -2.4436  0.1747 -0.4665
 7150SOL     OW32911   2.301   3.076   5.317 -0.0515 -0.1476  0.1724
 7150SOL    HW132912   2.246   3.089   5.394 -0.5648 -1.1472 -0.0287
 7150SOL    HW232913   2.286   3.160   5.273  2.2308 -0.6571 -1.6306
 7151SOL     OW32914   2.612   2.330   6.207  0.1086  0.2130 -0.3988
 7151SOL    HW132915   2.595   2.388   6.132  0.9226  1.3751  0.3274
 7151SOL    HW232916   2.700   2.298   6.187  0.3170  1.0161 -0.7788
 7152SOL     OW32917   1.305   3.904  15.414 -0.2016  0.1548 -0.5225
 7152SOL    HW132918   1.287   3.980  15.470  0.2198  0.5232 -0.8923
 7152SOL    HW232919   1.214   3.877  15.404  0.2768 -1.6495  0.0528
 7153SOL     OW32920   2.816   3.516   7.640 -0.1474 -0.0709 -0.0528
 7153SOL    HW132921   2.816   3.425   7.610  1.6131 -0.1482  0.1470
 7153SOL    HW232922   2.725   3.539   7.659 -0.5801 -1.3210 -0.6381
 7154SOL     OW32923   0.635   2.986   9.705 -0.3988 -0.1155 -0.3263
 7154SOL    HW132924   0.542   2.992   9.682 -0.1381  2.9393 -0.5545
 7154SOL    HW232925   0.643   2.893   9.726  1.9721 -0.7562 -4.0938
 7155SOL     OW32926   2.689   4.624   2.651  0.8115 -0.0040  0.1952
 7155SOL    HW132927   2.669   4.639   2.744 -1.9530  1.7119 -0.6522
 7155SOL    HW232928   2.627   4.559   2.619  0.4661  0.5015 -0.1632
 7156SOL     OW32929   1.735   0.838   6.174  0.2544  0.2213  0.1568
 7156SOL    HW132930   1.649   0.827   6.214  0.3048  2.9385  1.0131
 7156SOL    HW232931   1.744   0.746   6.148 -0.0784 -0.1164  1.2530
 7157SOL     OW32932   0.481   2.318   3.077 -0.0730  0.2356 -0.1124
 7157SOL    HW132933   0.490   2.244   3.137  0.3773 -1.6666 -2.5499
 7157SOL    HW232934   0.571   2.345   3.096 -0.4627  0.6017  1.2025
 7158SOL     OW32935   2.523   4.212   3.753 -0.0890  1.1313 -0.5886
 7158SOL    HW132936   2.514   4.205   3.848  1.9987 -1.0029 -0.5405
 7158SOL    HW232937   2.444   4.252   3.716 -2.0855 -1.5513  0.8355
 7159SOL     OW32938   1.873   1.863  16.515 -0.6219  0.0762  0.1768
 7159SOL    HW132939   1.888   1.936  16.454  0.0877  1.2146  1.7238
 7159SOL    HW232940   1.828   1.910  16.585  0.3934 -1.0440  1.5664
 7160SOL     OW32941   2.952   1.579   0.442 -0.2021 -0.4877 -0.0077
 7160SOL    HW132942   2.983   1.515   0.506  1.6170 -0.0302 -0.4449
 7160SOL    HW232943   2.932   1.652   0.502  0.5846 -1.4886  1.4645
 7161SOL     OW32944   4.331   1.581   5.795 -0.0855 -0.6179  0.0530
 7161SOL    HW132945   4.237   1.597   5.800  0.7653  3.6305  1.6585
 7161SOL    HW232946   4.329   1.527   5.715  1.6292 -0.1225 -0.3318
 7162SOL     OW32947   3.359   3.174  10.682  0.4730 -0.3653  0.6662
 7162SOL    HW132948   3.406   3.241  10.731 -0.5325  0.9097 -0.1116
 7162SOL    HW232949   3.419   3.135  10.618 -0.5913 -2.9134  1.2426
 7163SOL     OW32950   4.113   0.272  12.617  0.8047  0.5824 -0.5753
 7163SOL    HW132951   4.129   0.364  12.596  1.7649  0.7612  1.0024
 7163SOL    HW232952   4.189   0.223  12.585 -1.1992 -1.5682 -2.0964
 7164SOL     OW32953   1.599   0.507   7.612 -0.2945  0.1837  0.8364
 7164SOL    HW132954   1.509   0.524   7.639 -0.8479 -2.1957  0.4773
 7164SOL    HW232955   1.649   0.459   7.677  1.1348  1.0892  0.3953
 7165SOL     OW32956   2.070   2.812   1.073 -0.1505 -0.1173  0.6797
 7165SOL    HW132957   1.993   2.768   1.038 -1.7478  2.1609  1.3771
 7165SOL    HW232958   2.087   2.750   1.144 -1.7981 -0.7048  0.5512
 7166SOL     OW32959   2.420   4.237   2.188 -0.1401 -0.4790 -0.3804
 7166SOL    HW132960   2.347   4.246   2.249 -2.2564  1.9638 -3.3117
 7166SOL    HW232961   2.437   4.329   2.168 -1.1383 -0.4801 -1.2433
 7167SOL     OW32962   4.249   1.003   2.321  0.3043 -0.0916  0.3895
 7167SOL    HW132963   4.311   1.076   2.324  1.5575 -1.1669  0.6148
 7167SOL    HW232964   4.202   1.031   2.243  2.4679  2.4012 -0.0300
 7168SOL     OW32965   3.525   4.523  16.882 -0.3418  0.0903  0.2775
 7168SOL    HW132966   3.489   4.592  16.938  0.1441  0.0975  0.5837
 7168SOL    HW232967   3.450   4.489  16.832 -0.0783 -0.1892  0.0704
 7169SOL     OW32968   4.652   0.724   7.934  0.4739  0.2406  0.2784
 7169SOL    HW132969   4.575   0.725   7.991  2.1351  1.6045  2.4887
 7169SOL    HW232970   4.713   0.737   8.006  0.1174 -2.0815  0.9819
 7170SOL     OW32971   2.438   1.039   9.799  0.8251 -0.2025  0.0474
 7170SOL    HW132972   2.491   1.009   9.725 -0.3457  2.0067 -1.6708
 7170SOL    HW232973   2.400   0.954   9.822  1.9364 -0.8067 -0.3324
 7171SOL     OW32974   0.725   2.785   3.753  0.2378  0.1820  0.5365
 7171SOL    HW132975   0.642   2.743   3.729  0.6920 -1.3236  1.6357
 7171SOL    HW232976   0.763   2.777   3.665 -0.8986 -0.6096  0.1265
 7172SOL     OW32977   3.976   0.681   4.339  0.2589  0.2102  0.5790
 7172SOL    HW132978   3.998   0.594   4.307 -2.7408 -0.2106 -0.3594
 7172SOL    HW232979   3.906   0.706   4.279  0.6094  1.0964  0.5406
 7173SOL     OW32980   2.066   0.523   2.436 -0.0140  0.1659  0.0229
 7173SOL    HW132981   2.092   0.483   2.353 -0.5217 -1.7073  0.7590
 7173SOL    HW232982   1.989   0.575   2.411  0.3121  1.0649  0.8893
 7174SOL     OW32983   4.629   0.249   3.023  0.0776 -0.2908 -0.1225
 7174SOL    HW132984   4.584   0.228   2.941 -1.1691  0.4901  0.3579
 7174SOL    HW232985   4.692   0.177   3.033  0.8170  0.1595 -1.5238
 7175SOL     OW32986   1.896   0.303  10.588 -0.2627 -0.2092  0.1767
 7175SOL    HW132987   1.860   0.353  10.514 -0.7590 -2.1966 -0.9239
 7175SOL    HW232988   1.904   0.214  10.555  1.2473 -0.5078  1.3631
 7176SOL     OW32989   0.996   0.877  11.493  0.2441  0.3472 -0.4652
 7176SOL    HW132990   1.051   0.802  11.474  0.5026  1.5279 -4.3107
 7176SOL    HW232991   1.020   0.932  11.418  2.0353  2.7736  1.8885
 7177SOL     OW32992   2.666   2.219  14.778 -0.5596 -0.1722 -0.0996
 7177SOL    HW132993   2.657   2.311  14.803 -0.3333  0.2241 -1.4793
 7177SOL    HW232994   2.760   2.202  14.776  0.1058  3.5460 -0.2816
 7178SOL     OW32995   0.214   2.287  14.907  0.6424  0.1049 -0.3984
 7178SOL    HW132996   0.262   2.287  14.825  1.5204 -0.3721  0.1269
 7178SOL    HW232997   0.166   2.370  14.906  1.1841  0.4019 -1.9791
 7179SOL     OW32998   2.248   2.930  17.192  0.5624 -0.0168  0.1153
 7179SOL    HW132999   2.169   2.883  17.218  0.9478 -1.2674 -0.9877
 7179SOL    HW233000   2.197   3.001  17.152 -1.2372 -1.8790 -0.8460
 7180SOL     OW33001   4.647   0.017   3.466 -0.3355  0.1253  1.2818
 7180SOL    HW133002   4.703   0.013   3.388 -1.7187 -1.9337  0.4146
 7180SOL    HW233003   4.694   0.081   3.520  0.5152  0.8594 -0.3303
 7181SOL     OW33004   2.773   4.208  12.682 -0.2376 -0.4528 -0.8368
 7181SOL    HW133005   2.777   4.268  12.608 -0.0169  2.2618  1.3418
 7181SOL    HW233006   2.851   4.228  12.735 -0.5074 -3.0865  0.5288
 7182SOL     OW33007   4.143   2.910   6.300 -0.5967 -0.5913  0.2168
 7182SOL    HW133008   4.113   2.908   6.391 -0.3156 -1.3971  0.2958
 7182SOL    HW233009   4.173   2.997   6.276 -2.5096 -0.1186 -0.4856
 7183SOL     OW33010   3.681   3.855   1.699  0.3362 -0.3719  0.1202
 7183SOL    HW133011   3.743   3.788   1.670  0.5871  0.0187 -0.2604
 7183SOL    HW233012   3.736   3.900   1.762  1.7007  0.5696 -1.7326
 7184SOL     OW33013   0.140   2.682   9.548 -0.1195  0.4100 -0.7872
 7184SOL    HW133014   0.205   2.651   9.611 -0.7345 -0.1356 -0.4155
 7184SOL    HW233015   0.191   2.666   9.469 -0.5945 -0.3028 -0.9583
 7185SOL     OW33016   2.519   2.781   3.095  0.1665  0.0965 -0.4553
 7185SOL    HW133017   2.586   2.734   3.046 -0.1033 -0.2912 -0.4517
 7185SOL    HW233018   2.563   2.863   3.115 -0.6052  0.5643 -0.6780
 7186SOL     OW33019   4.689   2.185  16.992  0.7476  0.1349 -0.0088
 7186SOL    HW133020   4.645   2.254  17.042  0.6102  1.7737 -2.3997
 7186SOL    HW233021   0.056   2.211  17.015  0.3437 -0.2017  1.9051
 7187SOL     OW33022   3.209   2.532   1.558 -0.6190  0.1373 -0.5020
 7187SOL    HW133023   3.122   2.521   1.520 -0.4479 -1.7930 -0.3378
 7187SOL    HW233024   3.188   2.601   1.620 -0.7061  0.8028 -1.2834
 7188SOL     OW33025   3.132   1.218   2.905  0.7221 -0.4521 -0.1334
 7188SOL    HW133026   3.224   1.232   2.880  0.3146 -0.8209 -1.8340
 7188SOL    HW233027   3.099   1.277   2.837 -2.6393 -2.5174 -0.2882
 7189SOL     OW33028   0.849   1.376   8.809  0.1127  0.5321 -0.3030
 7189SOL    HW133029   0.765   1.374   8.855  1.8400  0.2206  2.8253
 7189SOL    HW233030   0.917   1.372   8.877 -1.4944 -0.0726  1.2566
 7190SOL     OW33031   1.486   0.839   2.481 -0.1621 -0.4245  0.8573
 7190SOL    HW133032   1.489   0.820   2.387  0.3908 -0.9409  0.9816
 7190SOL    HW233033   1.451   0.928   2.485  2.1216  0.4070  1.8864
 7191SOL     OW33034   1.213   0.070   1.836  0.6435  0.9149  0.0529
 7191SOL    HW133035   1.155   0.000   1.865  1.4539  0.6776  1.0892
 7191SOL    HW233036   1.299   0.028   1.834  0.1106 -0.1965  0.4906
 7192SOL     OW33037   3.423   1.775   1.365 -0.3347  0.1412  0.0125
 7192SOL    HW133038   3.385   1.792   1.452  0.0856  0.4418  0.1344
 7192SOL    HW233039   3.517   1.768   1.381 -0.2888  0.2697 -0.2009
 7193SOL     OW33040   4.179   1.828   4.280  0.5699  0.0020  0.0273
 7193SOL    HW133041   4.090   1.824   4.316  0.1626 -0.3803 -1.0234
 7193SOL    HW233042   4.164   1.789   4.194  0.0215  0.1499  0.0562
 7194SOL     OW33043   0.180   0.788   8.427 -0.7151  0.5631 -0.0590
 7194SOL    HW133044   0.238   0.826   8.361  0.6426 -0.2072  0.6991
 7194SOL    HW233045   0.230   0.787   8.508 -0.8581  2.3552  0.0622
 7195SOL     OW33046   2.758   3.507   2.954 -0.1151 -0.4963 -0.2624
 7195SOL    HW133047   2.778   3.442   2.887 -0.2406  0.2572 -1.0296
 7195SOL    HW233048   2.819   3.575   2.927 -1.6754  0.8136 -0.5073
 7196SOL     OW33049   3.516   0.939   7.958  1.1731 -0.1131 -0.1973
 7196SOL    HW133050   3.475   1.012   8.004  1.8159 -1.2171  2.0864
 7196SOL    HW233051   3.463   0.866   7.990  0.4095  0.8786  0.7993
 7197SOL     OW33052   4.464   1.885  17.025 -0.5916  0.4632 -0.6856
 7197SOL    HW133053   4.529   1.817  17.010  2.1076  2.1867  3.3890
 7197SOL    HW233054   4.516   1.945  17.078 -0.3085  0.0193 -0.4703
 7198SOL     OW33055   4.469   1.739  17.348 -0.0142  0.0335  0.4009
 7198SOL    HW133056   4.491   1.713  17.437  0.2321  1.5012  0.7670
 7198SOL    HW233057   4.374   1.735  17.360  0.2778 -2.5426  1.9596
 7199SOL     OW33058   2.799   4.043   6.204 -0.0720 -0.2136  0.0835
 7199SOL    HW133059   2.740   4.027   6.276  0.1189  1.6106  0.6470
 7199SOL    HW233060   2.835   3.956   6.185  2.1846  1.2009 -2.3247
 7200SOL     OW33061   1.483   4.342   7.955 -0.5271  0.4251 -0.4170
 7200SOL    HW133062   1.424   4.304   7.890  0.1259  0.0150 -0.7574
 7200SOL    HW233063   1.434   4.419   7.984 -1.2630 -0.7619  1.4873
 7201SOL     OW33064   3.325   1.746  15.352  0.4100  1.0047  0.1554
 7201SOL    HW133065   3.356   1.669  15.399  3.2327  2.0943  0.0916
 7201SOL    HW233066   3.244   1.714  15.312  1.9064 -1.6248 -0.7312
 7202SOL     OW33067   2.722   3.268  14.791  0.2624 -0.0388 -0.5297
 7202SOL    HW133068   2.811   3.278  14.824 -0.0862  0.4782  0.2594
 7202SOL    HW233069   2.692   3.357  14.812 -0.3353  0.1722 -2.2987
 7203SOL     OW33070   3.462   0.635   5.206 -0.2399 -0.3686  0.9718
 7203SOL    HW133071   3.367   0.621   5.213 -0.4316  1.5459  1.9911
 7203SOL    HW233072   3.478   0.567   5.140 -0.3785  1.2244 -0.7162
 7204SOL     OW33073   0.644   3.434  15.670 -0.1378  0.5316 -0.1740
 7204SOL    HW133074   0.669   3.377  15.597 -1.4629  0.4906 -0.5908
 7204SOL    HW233075   0.631   3.518  15.625  0.2458  0.7252  0.0809
 7205SOL     OW33076   2.214   2.021   4.088 -0.5734 -0.3835  0.4970
 7205SOL    HW133077   2.213   1.957   4.158 -1.2591 -1.1531 -0.2197
 7205SOL    HW233078   2.252   1.974   4.014 -1.5778 -1.5086  0.7010
 7206SOL     OW33079   1.444   3.145   1.742 -0.1876  0.2865 -0.8258
 7206SOL    HW133080   1.418   3.235   1.724 -0.1197  0.6199  0.7599
 7206SOL    HW233081   1.413   3.103   1.662  0.3833 -0.7841 -0.4864
 7207SOL     OW33082   3.197   4.649   6.797 -0.1842 -0.4231 -0.2733
 7207SOL    HW133083   3.282   4.655   6.842 -0.2376  0.6293 -0.2917
 7207SOL    HW233084   3.142   4.713   6.843  1.0958 -0.3208  1.1429
 7208SOL     OW33085   2.945   3.671   2.842 -0.1749  0.5421  0.2040
 7208SOL    HW133086   3.034   3.661   2.877 -0.6215  0.1689  1.2226
 7208SOL    HW233087   2.972   3.682   2.751  0.5484 -0.7199  0.2621
 7209SOL     OW33088   0.094   1.071   2.037 -0.5501 -0.6658  0.4268
 7209SOL    HW133089   0.054   1.097   1.954  0.5099  1.5706  0.6289
 7209SOL    HW233090   0.155   0.999   2.018  0.9703  0.9262 -0.6973
 7210SOL     OW33091   3.129   2.788   5.433 -0.1774  0.5103 -0.3154
 7210SOL    HW133092   3.099   2.794   5.523  0.2435 -1.4207 -0.0598
 7210SOL    HW233093   3.210   2.836   5.451 -0.3417  0.2207  1.1479
 7211SOL     OW33094   3.334   0.455   2.842  1.0321  0.0429  0.0662
 7211SOL    HW133095   3.269   0.437   2.774  1.6342 -0.0736 -0.4838
 7211SOL    HW233096   3.284   0.528   2.879  2.2854  0.3642  1.1162
 7212SOL     OW33097   1.221   1.781   2.252 -0.6620  0.1222  0.4958
 7212SOL    HW133098   1.302   1.802   2.298 -0.3277  1.3237 -0.6447
 7212SOL    HW233099   1.256   1.788   2.163 -0.9028 -1.2274  0.2905
 7213SOL     OW33100   4.157   2.988   3.668  0.5023 -0.8428  0.0325
 7213SOL    HW133101   4.141   3.020   3.757  3.0255 -1.1445  0.6040
 7213SOL    HW233102   4.150   2.895   3.690  0.9352 -0.9239 -0.1725
 7214SOL     OW33103   1.943   2.456   4.195 -0.2554 -0.4924  0.5830
 7214SOL    HW133104   1.873   2.407   4.238 -0.8287  0.8508  1.2069
 7214SOL    HW233105   1.992   2.377   4.171  0.9076  0.3026  0.3314
 7215SOL     OW33106   4.672   2.569   1.557  0.0080  0.3314  0.3377
 7215SOL    HW133107   4.596   2.587   1.501  0.9495 -0.3539 -1.1598
 7215SOL    HW233108   4.630   2.510   1.620  0.0447 -0.5090 -0.4137
 7216SOL     OW33109   1.899   0.851   0.465  0.2751  0.2752  0.2761
 7216SOL    HW133110   1.989   0.871   0.442  0.7481  0.2944  2.1000
 7216SOL    HW233111   1.891   0.918   0.533 -0.5646 -1.1425  1.5674
 7217SOL     OW33112   3.464   3.348  14.620  0.3518 -0.0441 -0.1323
 7217SOL    HW133113   3.506   3.319  14.702  1.6115  2.5676  0.1347
 7217SOL    HW233114   3.512   3.429  14.606  1.4734 -1.0037 -1.8375
 7218SOL     OW33115   1.133   0.917   2.252  0.2874  0.6316  0.1857
 7218SOL    HW133116   1.189   0.959   2.186 -0.3600 -0.5422 -1.0931
 7218SOL    HW233117   1.186   0.838   2.264 -3.7064 -2.2121 -1.2200
 7219SOL     OW33118   2.497   2.085   8.622  0.0792 -0.3842  0.2900
 7219SOL    HW133119   2.434   2.156   8.638 -0.2327  0.1917 -3.3859
 7219SOL    HW233120   2.455   2.005   8.653  1.4248 -1.0676  0.3308
 7220SOL     OW33121   4.545   4.510   6.851 -0.1508  0.5121  0.3255
 7220SOL    HW133122   4.458   4.542   6.829 -0.1970 -0.7911 -1.3635
 7220SOL    HW233123   4.539   4.416   6.837  0.1399  0.3846  1.0728
 7221SOL     OW33124   1.157   2.396   6.414  0.4710  0.1053 -0.3668
 7221SOL    HW133125   1.088   2.396   6.479 -0.5216 -2.5781 -1.4252
 7221SOL    HW233126   1.234   2.392   6.472  0.0223  0.6272  0.2564
 7222SOL     OW33127   4.051   1.136   4.709 -0.3125  0.5680 -0.1488
 7222SOL    HW133128   4.101   1.056   4.693 -2.3680 -0.4699 -1.4180
 7222SOL    HW233129   3.964   1.102   4.729 -0.8427 -0.0426 -3.4562
 7223SOL     OW33130   4.461   1.240   8.777 -0.2033 -0.3389  0.2717
 7223SOL    HW133131   4.553   1.223   8.795 -0.1054 -2.2121 -2.0158
 7223SOL    HW233132   4.440   1.329   8.804  3.2641  1.1781 -2.0437
 7224SOL     OW33133   3.773   1.831   2.412  0.4649 -0.7310  0.0620
 7224SOL    HW133134   3.767   1.889   2.337  1.5328  0.5190  0.9314
 7224SOL    HW233135   3.690   1.858   2.450  1.3109  0.1762  1.3017
 7225SOL     OW33136   4.602   1.683   0.239  0.4302  0.4470 -0.4602
 7225SOL    HW133137   4.668   1.752   0.233  3.0724 -2.3333 -3.4852
 7225SOL    HW233138   4.523   1.736   0.249  0.3588  0.2797 -0.1299
 7226SOL     OW33139   1.952   1.922   1.836 -0.2111 -0.0692 -0.4463
 7226SOL    HW133140   1.983   2.010   1.856 -0.1982 -0.3165  0.5986
 7226SOL    HW233141   2.006   1.859   1.883 -1.0993 -0.8697 -0.5006
 7227SOL     OW33142   3.829   3.090   6.208  0.3500 -0.1122  0.2559
 7227SOL    HW133143   3.741   3.093   6.172  0.9920 -0.1267 -1.3038
 7227SOL    HW233144   3.809   3.053   6.295  0.1731 -0.2033  0.1770
 7228SOL     OW33145   0.815   2.584  12.652  0.3192  0.1265 -0.0424
 7228SOL    HW133146   0.830   2.561  12.743 -0.8966 -1.1974 -0.1894
 7228SOL    HW233147   0.745   2.648  12.665  0.5403  0.4272 -0.3047
 7229SOL     OW33148   4.513   3.178   7.413 -0.4313  0.0067  0.5113
 7229SOL    HW133149   4.543   3.208   7.499 -2.9397  2.4290  0.5651
 7229SOL    HW233150   4.578   3.120   7.375 -1.1209  0.1036 -0.8255
 7230SOL     OW33151   3.360   3.045   7.921 -0.4622 -0.2309  0.1917
 7230SOL    HW133152   3.365   2.990   7.999 -1.2511 -0.0718  0.3470
 7230SOL    HW233153   3.402   3.123   7.955 -0.3412  0.3452 -1.2595
 7231SOL     OW33154   0.646   2.495  13.037 -0.5590 -0.3268 -0.4319
 7231SOL    HW133155   0.576   2.479  13.101  0.4723  0.2352  0.8338
 7231SOL    HW233156   0.720   2.502  13.096  0.6461  1.4907 -2.1322
 7232SOL     OW33157   0.973   2.923   8.460  0.4331 -0.8066 -0.3526
 7232SOL    HW133158   1.043   2.863   8.487 -0.9161 -1.8496  0.8298
 7232SOL    HW233159   0.942   2.901   8.372 -3.5778 -1.3375  1.2107
 7233SOL     OW33160   4.639   0.609   6.964  0.1778  0.8007 -0.1957
 7233SOL    HW133161   4.661   0.613   6.871 -1.5346 -0.2025 -0.6552
 7233SOL    HW233162   4.584   0.530   6.959  0.2907  0.7351 -0.3963
 7234SOL     OW33163   4.503   3.992   2.173 -0.1875 -0.6348  0.3894
 7234SOL    HW133164   4.476   4.083   2.181  0.0180 -0.3322 -2.2814
 7234SOL    HW233165   4.563   4.000   2.099 -0.7740  2.4491  0.2637
 7235SOL     OW33166   2.416   1.412   8.408  0.3410  0.2696 -0.4184
 7235SOL    HW133167   2.387   1.427   8.499  0.8420 -1.4907  0.0306
 7235SOL    HW233168   2.485   1.346   8.412  1.5189  1.4035 -2.1798
 7236SOL     OW33169   3.881   0.948   4.918  0.2415 -0.0888  0.1787
 7236SOL    HW133170   3.870   0.866   4.967 -0.5699 -1.1669 -1.8351
 7236SOL    HW233171   3.839   1.006   4.982  0.2960 -0.0999  0.2252
 7237SOL     OW33172   0.836   0.293   6.350 -0.5122  0.0271  0.5560
 7237SOL    HW133173   0.834   0.309   6.255  1.3484  0.6789  0.6163
 7237SOL    HW233174   0.928   0.315   6.364 -0.1671  1.2824 -3.7630
 7238SOL     OW33175   4.583   3.514   4.273 -0.5939 -0.3342  0.4769
 7238SOL    HW133176   4.594   3.509   4.178  3.0579 -0.9736  0.9453
 7238SOL    HW233177   4.532   3.595   4.282  0.3354  0.1200  1.5635
 7239SOL     OW33178   1.340   4.085   7.166 -0.3172  0.4862  0.2333
 7239SOL    HW133179   1.424   4.042   7.151  0.1104  1.9088 -1.4437
 7239SOL    HW233180   1.347   4.112   7.258 -1.1483 -2.2201  1.0970
 7240SOL     OW33181   3.570   4.012  14.955  0.3290 -0.1620 -0.6421
 7240SOL    HW133182   3.599   4.102  14.940  1.4862 -0.0038  2.5361
 7240SOL    HW233183   3.595   4.009  15.047  0.9853  0.5975 -0.7940
 7241SOL     OW33184   4.354   1.553   8.134  0.2069 -0.6934 -0.0154
 7241SOL    HW133185   4.377   1.645   8.132  0.7906 -0.8374  0.0431
 7241SOL    HW233186   4.300   1.544   8.056 -0.9204  1.9175  0.4716
 7242SOL     OW33187   4.412   1.088   5.013 -0.3094 -0.6642  0.1874
 7242SOL    HW133188   4.442   1.118   5.099  0.1810  0.1415 -0.2674
 7242SOL    HW233189   4.424   1.157   4.948 -0.7445  0.2990  1.1243
 7243SOL     OW33190   3.073   0.209   8.324  0.4294  0.1758 -0.0154
 7243SOL    HW133191   3.150   0.210   8.380  1.7510 -2.0939 -1.7912
 7243SOL    HW233192   3.104   0.179   8.239 -0.7465  0.8730 -0.6885
 7244SOL     OW33193   1.781   4.218   8.375 -0.0194 -0.3985  0.2249
 7244SOL    HW133194   1.742   4.180   8.296 -1.7325 -0.6045  1.1762
 7244SOL    HW233195   1.764   4.310   8.356  0.2991 -0.0679  1.5552
 7245SOL     OW33196   1.107   0.636  16.619  0.1976  0.2724 -0.0933
 7245SOL    HW133197   1.198   0.612  16.636 -0.1056 -0.1134  0.9545
 7245SOL    HW233198   1.069   0.649  16.706 -2.0140 -1.2351 -0.8295
 7246SOL     OW33199   3.178   2.164  13.881 -0.3624 -0.1957 -0.2442
 7246SOL    HW133200   3.246   2.133  13.941 -0.5363  1.2434  0.6951
 7246SOL    HW233201   3.148   2.242  13.927 -1.9971 -1.8395  1.4673
 7247SOL     OW33202   3.446   1.018   8.395  0.2544 -0.1782 -0.1954
 7247SOL    HW133203   3.407   0.931   8.388 -2.3553  1.0467 -0.9748
 7247SOL    HW233204   3.377   1.052   8.452  0.1739 -2.2687  0.9502
 7248SOL     OW33205   4.534   4.010   5.934 -0.1095 -0.3351 -0.1124
 7248SOL    HW133206   4.531   4.040   6.025  2.2046 -1.4111  0.3267
 7248SOL    HW233207   4.442   4.020   5.913  0.1145 -0.1238 -0.9794
 7249SOL     OW33208   0.238   0.335  12.921 -0.2396 -0.2154  0.2409
 7249SOL    HW133209   0.323   0.314  12.958 -0.6580 -0.1792  1.2115
 7249SOL    HW233210   0.260   0.338  12.828 -1.6841 -0.7106 -0.1157
 7250SOL     OW33211   1.857   2.814   3.253 -0.4628 -0.1646 -0.1311
 7250SOL    HW133212   1.858   2.737   3.309  2.2390  1.7368  2.4759
 7250SOL    HW233213   1.875   2.764   3.173  1.9492  2.4013 -1.2124
 7251SOL     OW33214   1.512   1.344  14.531  0.4545 -0.5464  0.8445
 7251SOL    HW133215   1.420   1.363  14.547  0.4247  0.3653 -0.4361
 7251SOL    HW233216   1.561   1.376  14.607  2.2945 -0.6053 -0.3007
 7252SOL     OW33217   1.688   4.435  13.400  0.4356  0.1386  0.1737
 7252SOL    HW133218   1.652   4.488  13.329  0.1250 -0.2011  0.0750
 7252SOL    HW233219   1.768   4.403  13.357 -0.0176  0.5493 -0.9784
 7253SOL     OW33220   4.575   4.430   9.475 -0.1599 -0.6521  0.0585
 7253SOL    HW133221   4.599   4.372   9.404 -1.2115 -1.2203  0.1744
 7253SOL    HW233222   4.649   4.420   9.534 -0.7196 -0.2759  0.8336
 7254SOL     OW33223   1.863   0.410   3.969 -0.0306 -0.1048 -0.8624
 7254SOL    HW133224   1.777   0.368   3.962  0.9866 -2.3412  0.2924
 7254SOL    HW233225   1.881   0.383   4.059  1.7448 -0.9842 -1.4843
 7255SOL     OW33226   1.205   1.154   0.988  0.2529  0.3545 -0.9125
 7255SOL    HW133227   1.210   1.210   0.910  0.3499  2.1789  0.4177
 7255SOL    HW233228   1.288   1.108   0.976 -0.2954 -0.5227 -1.3803
 7256SOL     OW33229   1.506   4.211   6.314  1.1366  0.0302  0.8663
 7256SOL    HW133230   1.580   4.162   6.350  1.5922 -0.6761 -1.0020
 7256SOL    HW233231   1.436   4.148   6.328  2.0493 -0.7600  1.8632
 7257SOL     OW33232   1.348   1.032   6.464  0.0656  1.1324 -0.5215
 7257SOL    HW133233   1.282   1.072   6.521  1.5179  1.6560  0.8100
 7257SOL    HW233234   1.409   1.000   6.531  0.6103  0.1985 -1.4596
 7258SOL     OW33235   0.417   2.435   2.525 -0.0892 -0.3416 -0.5782
 7258SOL    HW133236   0.413   2.440   2.621 -0.2034 -0.7086 -0.5623
 7258SOL    HW233237   0.415   2.528   2.507 -0.2444 -0.3876 -0.7944
 7259SOL     OW33238   1.636   4.625   5.674  0.4014  0.3267 -0.2820
 7259SOL    HW133239   1.581   4.626   5.595 -0.3772 -0.0427  0.2626
 7259SOL    HW233240   1.654   4.718   5.680 -1.8542  0.7951 -0.8005
 7260SOL     OW33241   4.009   3.490   7.969  0.1223 -0.2163  0.8431
 7260SOL    HW133242   3.928   3.534   7.941 -0.1512 -1.3063 -0.1029
 7260SOL    HW233243   4.058   3.475   7.888 -2.6746 -2.0045 -0.5349
 7261SOL     OW33244   1.719   3.399   5.233 -0.0057  0.6757  0.1482
 7261SOL    HW133245   1.787   3.332   5.225 -1.1706 -0.6979  1.5385
 7261SOL    HW233246   1.651   3.330   5.234 -0.9475  1.6242  1.1356
 7262SOL     OW33247   0.625   0.850   4.070 -0.5576 -0.2070 -0.1908
 7262SOL    HW133248   0.536   0.828   4.043 -0.1932 -1.7611 -0.1333
 7262SOL    HW233249   0.607   0.906   4.146 -0.5664 -1.3965  0.6777
 7263SOL     OW33250   0.548   4.526  12.188 -0.2764 -0.0440  0.5608
 7263SOL    HW133251   0.538   4.432  12.174  2.5548 -0.1773 -0.6920
 7263SOL    HW233252   0.601   4.546  12.110  1.3334 -1.1053  1.3840
 7264SOL     OW33253   2.567   3.521  12.392 -0.1171  0.5302  0.0423
 7264SOL    HW133254   2.489   3.556  12.436  0.7296 -0.1866  2.1447
 7264SOL    HW233255   2.558   3.427  12.401  1.1406  0.3577 -0.5129
 7265SOL     OW33256   3.113   1.742  17.322  0.2494  0.4698 -0.0470
 7265SOL    HW133257   3.203   1.719  17.345 -0.3218 -1.8392 -0.1278
 7265SOL    HW233258   3.122   1.805  17.251  2.8411 -0.7237 -0.7626
 7266SOL     OW33259   4.049   4.068   5.110  0.0247  0.1753  0.3144
 7266SOL    HW133260   4.128   4.017   5.126  0.2073  0.2639 -0.2845
 7266SOL    HW233261   4.003   4.046   5.190  0.1304 -1.9785 -0.2226
 7267SOL     OW33262   2.356   2.104   7.181  0.6171  0.2169 -0.0755
 7267SOL    HW133263   2.387   2.054   7.106  0.5037  0.2900 -0.1717
 7267SOL    HW233264   2.434   2.156   7.201 -0.6692  1.4875  1.7497
 7268SOL     OW33265   4.506   0.933   4.685 -0.3034 -0.4078 -0.1619
 7268SOL    HW133266   4.499   0.865   4.751 -1.0011 -0.5394 -0.3702
 7268SOL    HW233267   4.433   0.991   4.709  0.3489  0.4340 -0.2104
 7269SOL     OW33268   3.408   2.222   2.420  0.0674 -0.0553  0.2344
 7269SOL    HW133269   3.498   2.205   2.393  0.0204  0.3550 -0.1814
 7269SOL    HW233270   3.363   2.140   2.398  3.2499 -1.6798 -0.2129
 7270SOL     OW33271   1.378   0.148   1.040 -0.6799 -0.3578 -0.0963
 7270SOL    HW133272   1.304   0.089   1.054 -0.0497 -1.6774 -2.2644
 7270SOL    HW233273   1.359   0.218   1.103 -0.4970  0.0462 -0.4867
 7271SOL     OW33274   4.194   3.221  14.546  0.6026  0.2008 -0.3715
 7271SOL    HW133275   4.099   3.227  14.541  0.5898  1.3234  1.2991
 7271SOL    HW233276   4.218   3.312  14.531  0.1807  0.2330 -0.8636
 7272SOL     OW33277   1.796   2.225   7.077 -0.0408  0.1809 -0.4717
 7272SOL    HW133278   1.859   2.155   7.061 -2.8774 -2.0239 -1.9708
 7272SOL    HW233279   1.843   2.297   7.119 -1.0971 -0.3995  1.7235
 7273SOL     OW33280   1.779   2.710   6.840 -0.5549  0.4010  0.0746
 7273SOL    HW133281   1.756   2.770   6.910  2.6190 -1.4043  2.6120
 7273SOL    HW233282   1.730   2.747   6.766  0.8126  0.3345 -0.8594
 7274SOL     OW33283   4.178   4.665   3.662 -0.0061 -0.0088  0.6144
 7274SOL    HW133284   4.249   4.602   3.674 -0.9180 -1.1754 -0.1080
 7274SOL    HW233285   4.175   4.709   3.747 -0.6884  0.0249  0.5764
 7275SOL     OW33286   4.653   0.293   5.999  0.1168  0.0506 -0.0822
 7275SOL    HW133287   4.627   0.232   6.068 -0.1997  0.0925 -0.1617
 7275SOL    HW233288   4.587   0.361   6.015 -0.4515 -0.6222  0.4473
 7276SOL     OW33289   2.149   4.139   3.613 -0.9563  0.1429 -0.4343
 7276SOL    HW133290   2.080   4.131   3.679 -0.4067  0.9480  0.2340
 7276SOL    HW233291   2.209   4.207   3.644 -2.1213  0.7480  0.4687
 7277SOL     OW33292   4.295   2.556   9.055 -0.3699 -0.7299 -0.2514
 7277SOL    HW133293   4.247   2.616   9.113  0.5630  1.5852 -1.8891
 7277SOL    HW233294   4.295   2.474   9.105  1.3535 -0.4157  0.2667
 7278SOL     OW33295   3.389   4.140   8.192  0.0457 -0.2066  0.2454
 7278SOL    HW133296   3.463   4.148   8.252  0.4109 -1.5629 -0.0038
 7278SOL    HW233297   3.422   4.159   8.105  1.0065  0.8916  0.8553
 7279SOL     OW33298   0.487   4.621   2.275  0.5270  0.5995 -0.1405
 7279SOL    HW133299   0.503   4.696   2.332 -0.1863  0.5512  0.1288
 7279SOL    HW233300   0.392   4.606   2.281  0.7967 -1.2676 -0.5330
 7280SOL     OW33301   0.957   3.342   5.489 -0.6892 -0.2067 -0.0547
 7280SOL    HW133302   0.905   3.414   5.453 -1.2915 -1.8269 -2.4421
 7280SOL    HW233303   0.908   3.332   5.571  0.2891 -0.4424  0.5064
 7281SOL     OW33304   2.190   4.067   9.119  0.4195  0.0762 -0.0415
 7281SOL    HW133305   2.160   4.002   9.183 -1.5411 -0.7340 -1.7705
 7281SOL    HW233306   2.266   4.104   9.162  1.4093 -1.8398 -0.1417
 7282SOL     OW33307   1.844   2.863   4.630 -0.7473 -0.7609  0.3885
 7282SOL    HW133308   1.801   2.847   4.546  0.8245  2.0604 -0.9545
 7282SOL    HW233309   1.847   2.778   4.673 -2.1778 -1.1287 -0.2537
 7283SOL     OW33310   0.445   4.526   3.928 -0.5567 -0.1036  0.7150
 7283SOL    HW133311   0.449   4.617   3.899 -1.5179 -0.7187 -1.3375
 7283SOL    HW233312   0.478   4.537   4.017  0.6334  0.9482  0.1357
 7284SOL     OW33313   4.453   0.415   0.946  0.0335 -0.2013  0.3512
 7284SOL    HW133314   4.430   0.332   0.987 -2.2707  0.1217 -0.2897
 7284SOL    HW233315   4.548   0.400   0.943  0.0460  0.1410 -1.1925
 7285SOL     OW33316   2.600   1.764   6.416  0.0621 -0.3983  0.1391
 7285SOL    HW133317   2.641   1.694   6.366  0.1411  0.0692 -0.4458
 7285SOL    HW233318   2.673   1.786   6.475 -0.9426 -0.5240  1.4482
 7286SOL     OW33319   3.591   1.801   5.076  0.4359 -0.1014 -0.6434
 7286SOL    HW133320   3.671   1.768   5.034  0.4047  0.1099 -0.8690
 7286SOL    HW233321   3.606   1.895   5.074 -0.5267  0.0660  0.1559
 7287SOL     OW33322   3.256   1.140   3.390  0.3211 -0.1523 -0.0335
 7287SOL    HW133323   3.330   1.112   3.444  0.3288  0.3572  0.2135
 7287SOL    HW233324   3.301   1.166   3.309  0.3094 -0.3125 -0.0914
 7288SOL     OW33325   1.830   1.306   8.019  0.1806 -0.1241 -0.2677
 7288SOL    HW133326   1.856   1.371   7.954  0.0667 -0.2498 -0.4376
 7288SOL    HW233327   1.741   1.331   8.043 -0.2153 -0.9640 -0.8655
 7289SOL     OW33328   1.502   0.101   0.629 -0.6523 -0.0055  0.3889
 7289SOL    HW133329   1.551   0.120   0.549 -0.7490  0.2142  0.3817
 7289SOL    HW233330   1.486   0.008   0.616  2.6461 -0.7495  1.5453
 7290SOL     OW33331   0.750   0.937   2.659 -0.0663  0.1915  0.9848
 7290SOL    HW133332   0.835   0.916   2.698  0.6238 -0.7571 -1.0533
 7290SOL    HW233333   0.697   0.872   2.707  0.1495 -0.6728  0.0351
 7291SOL     OW33334   2.192   0.343   9.074 -0.3061  0.0853  0.1939
 7291SOL    HW133335   2.109   0.364   9.117  0.3170 -0.9007  1.8690
 7291SOL    HW233336   2.250   0.395   9.131 -0.3807  2.0489 -1.5192
 7292SOL     OW33337   3.837   2.884   8.849 -0.0556  0.6038 -0.4431
 7292SOL    HW133338   3.808   2.929   8.770  0.9446  1.2406 -0.4513
 7292SOL    HW233339   3.865   2.800   8.812  2.0420  0.4258  1.5054
 7293SOL     OW33340   2.083   0.128   2.862  0.4447  0.9821  0.2117
 7293SOL    HW133341   2.032   0.080   2.797 -0.3536 -0.2779  1.7615
 7293SOL    HW233342   2.074   0.218   2.832 -0.3688  1.0466  0.6680
 7294SOL     OW33343   4.406   4.408  13.136 -0.0662  0.0395 -0.2375
 7294SOL    HW133344   4.455   4.482  13.100  0.6300 -0.0626  0.4981
 7294SOL    HW233345   4.326   4.413  13.084  0.5397 -1.0685 -1.2944
 7295SOL     OW33346   3.705   0.643   2.759  0.0065 -0.2047  0.1953
 7295SOL    HW133347   3.731   0.684   2.676  0.4244 -0.7950  0.0316
 7295SOL    HW233348   3.784   0.665   2.809 -0.7204  1.5129  0.5855
 7296SOL     OW33349   0.774   3.936   3.704  0.3443 -0.0400  0.1514
 7296SOL    HW133350   0.692   3.979   3.731  0.7011  0.9497 -0.3586
 7296SOL    HW233351   0.809   4.004   3.647  1.7833 -0.5288  0.4554
 7297SOL     OW33352   0.449   0.078   4.658 -0.4452  0.6657  0.1162
 7297SOL    HW133353   0.402   4.718   4.665  0.3867  0.0638 -1.2735
 7297SOL    HW233354   0.476   0.104   4.746 -1.2479  0.9964  0.2631
 7298SOL     OW33355   1.084   0.177   9.425  0.0065 -0.2917 -0.6586
 7298SOL    HW133356   1.116   0.087   9.416 -0.0688 -0.2232 -1.6146
 7298SOL    HW233357   0.989   0.176   9.413  0.1021  1.5020 -1.5207
 7299SOL     OW33358   0.795   3.037  15.437 -0.9792 -0.2727  0.5854
 7299SOL    HW133359   0.872   2.982  15.450  0.9476  2.0905 -0.8841
 7299SOL    HW233360   0.777   3.017  15.346  2.3515 -0.7892  0.0590
 7300SOL     OW33361   1.707   2.906  11.999  0.8498 -0.2513  0.4687
 7300SOL    HW133362   1.764   2.863  11.935  0.4238  0.7958 -0.6119
 7300SOL    HW233363   1.732   2.996  11.978  0.6898 -0.5454 -0.9662
 7301SOL     OW33364   3.535   1.919  17.472  0.2930  0.3928 -0.9439
 7301SOL    HW133365   3.592   1.844  17.456 -0.3339 -0.2548 -0.1007
 7301SOL    HW233366   3.584   2.000  17.462  2.1234 -0.6919 -0.7501
 7302SOL     OW33367   1.288   2.552   5.298 -0.1695  0.0427 -0.5785
 7302SOL    HW133368   1.262   2.615   5.231 -1.7542  0.2540  0.2471
 7302SOL    HW233369   1.241   2.473   5.270  0.6653 -0.1540 -1.4713
 7303SOL     OW33370   4.414   1.013   1.895  0.2394  0.1387  0.1256
 7303SOL    HW133371   4.497   0.969   1.916  0.9142  1.0692 -0.5578
 7303SOL    HW233372   4.360   0.938   1.872 -1.5967  0.5686  3.0407
 7304SOL     OW33373   3.825   1.757   3.756 -0.7274 -0.7417 -0.2876
 7304SOL    HW133374   3.876   1.677   3.765  0.1550 -0.5586 -3.8208
 7304SOL    HW233375   3.741   1.730   3.794 -0.4487  0.3307  1.0926
 7305SOL     OW33376   3.713   2.337  11.588 -0.2992 -0.0694  0.1548
 7305SOL    HW133377   3.784   2.401  11.576 -0.3319  0.0238  0.4439
 7305SOL    HW233378   3.763   2.257  11.601 -0.0290 -0.0709 -0.9107
 7306SOL     OW33379   3.426   2.155   6.914 -0.1993 -0.2691  0.2019
 7306SOL    HW133380   3.358   2.222   6.918 -1.1162 -1.1788 -0.1519
 7306SOL    HW233381   3.485   2.190   6.980  0.2935 -0.9399  0.1140
 7307SOL     OW33382   2.056   2.144   6.469 -0.3169  0.2297 -0.4012
 7307SOL    HW133383   2.048   2.133   6.564  0.3879  0.7132 -0.2780
 7307SOL    HW233384   2.002   2.222   6.457 -1.3076 -0.3993  0.0187
 7308SOL     OW33385   0.220   3.328   7.115  0.1606 -0.7125 -0.3527
 7308SOL    HW133386   0.219   3.397   7.049 -0.1915  0.6527  1.0888
 7308SOL    HW233387   0.189   3.251   7.066  0.2027 -1.5309  0.9177
 7309SOL     OW33388   4.449   3.120  14.653 -0.3888  0.1385 -0.7837
 7309SOL    HW133389   4.465   3.041  14.601  0.3744  0.6561 -1.3401
 7309SOL    HW233390   4.360   3.145  14.630 -1.4249 -3.1250 -0.3008
 7310SOL     OW33391   4.488   0.648   4.775  0.2916  0.4710  0.1184
 7310SOL    HW133392   4.544   0.598   4.716 -3.1462 -0.8749 -1.9700
 7310SOL    HW233393   4.552   0.678   4.840  1.8961 -1.4093 -0.5788
 7311SOL     OW33394   4.239   4.173   2.279 -0.2675 -0.3711  0.0033
 7311SOL    HW133395   4.310   4.193   2.218 -1.6383  0.6057 -1.2747
 7311SOL    HW233396   4.259   4.083   2.302 -0.6121  0.1189  2.2063
 7312SOL     OW33397   0.932   1.961   2.408 -0.4839 -0.4051 -0.7455
 7312SOL    HW133398   0.895   1.897   2.468 -0.4757  1.3825  1.1783
 7312SOL    HW233399   1.021   1.968   2.440 -1.7332 -1.5137  2.9619
 7313SOL     OW33400   2.521   4.196  15.197 -0.2955 -0.3447  0.0447
 7313SOL    HW133401   2.452   4.251  15.234 -0.5391 -0.2460 -0.5558
 7313SOL    HW233402   2.475   4.116  15.172 -1.6397  0.1821  0.8139
 7314SOL     OW33403   1.915   3.471   4.307 -0.2436 -0.1682 -0.5574
 7314SOL    HW133404   1.913   3.414   4.385  2.9947 -0.2849 -0.5673
 7314SOL    HW233405   1.976   3.539   4.333  0.1138 -0.1920 -1.3376
 7315SOL     OW33406   4.704   4.015   2.553  0.4897 -0.3180 -0.1741
 7315SOL    HW133407   0.029   4.020   2.470  1.9990  1.6423  0.7794
 7315SOL    HW233408   4.666   3.929   2.536 -0.1963  0.1158 -0.8609
 7316SOL     OW33409   1.692   3.152   5.467  0.0203  0.1715  0.0906
 7316SOL    HW133410   1.715   3.101   5.390  0.3857 -0.6807  0.7717
 7316SOL    HW233411   1.744   3.096   5.524 -1.2533 -0.6017  0.4946
 7317SOL     OW33412   0.968   3.734   7.728 -0.5151 -0.4044 -1.3078
 7317SOL    HW133413   1.046   3.722   7.675  1.8712  2.5107  1.5915
 7317SOL    HW233414   0.892   3.719   7.671 -0.3581 -0.0647 -1.6020
 7318SOL     OW33415   3.614   0.934   1.730 -0.3517  0.4442 -0.0968
 7318SOL    HW133416   3.560   0.880   1.673  0.1344 -0.2293  0.0867
 7318SOL    HW233417   3.570   0.938   1.814 -1.8356  2.9881 -1.0161
 7319SOL     OW33418   2.085   1.047   6.524 -0.2915 -0.3532 -0.0562
 7319SOL    HW133419   2.018   1.070   6.588  0.8074 -0.5540  1.1546
 7319SOL    HW233420   2.157   1.034   6.585 -0.1494  1.2507  0.1252
 7320SOL     OW33421   3.585   2.385   3.188 -0.0922 -0.1945 -0.5318
 7320SOL    HW133422   3.549   2.322   3.126  0.8904 -0.3932 -0.9106
 7320SOL    HW233423   3.504   2.419   3.227  0.0977  0.2581 -0.5313
 7321SOL     OW33424   2.585   1.500   0.729 -0.2096  0.3417 -0.7997
 7321SOL    HW133425   2.554   1.445   0.658 -1.0899  0.4753 -0.5133
 7321SOL    HW233426   2.671   1.460   0.741 -0.2300 -0.0885 -2.1785
 7322SOL     OW33427   0.676   4.530   7.955 -0.0263  0.0664 -0.3352
 7322SOL    HW133428   0.733   4.463   7.993 -2.2913 -1.2847  0.7101
 7322SOL    HW233429   0.594   4.480   7.952  0.1613 -0.2517 -0.2028
 7323SOL     OW33430   1.699   2.934   6.304  0.0073  0.4541  0.6750
 7323SOL    HW133431   1.755   2.892   6.239 -0.4089  2.0634 -0.7341
 7323SOL    HW233432   1.614   2.892   6.292 -0.3679  2.1709 -2.7081
 7324SOL     OW33433   1.545   1.024   6.001 -0.0499  0.1873 -0.5726
 7324SOL    HW133434   1.487   1.047   6.074  0.5087  0.7143 -0.2965
 7324SOL    HW233435   1.586   0.945   6.034 -0.8117 -0.9298 -2.2862
 7325SOL     OW33436   3.781   2.263  15.930 -0.0630 -0.1461 -0.1642
 7325SOL    HW133437   3.840   2.194  15.959  0.6622  1.4792  2.1827
 7325SOL    HW233438   3.808   2.329  15.993 -0.5548  2.1841 -2.3859
 7326SOL     OW33439   0.573   1.160   9.635 -0.0492  0.4418  0.1892
 7326SOL    HW133440   0.559   1.199   9.549  1.1692 -2.0953 -1.1665
 7326SOL    HW233441   0.618   1.227   9.686  1.8288  1.8008 -3.2950
 7327SOL     OW33442   1.208   1.890   7.978  0.4300 -0.4893 -0.2487
 7327SOL    HW133443   1.129   1.928   8.016 -0.2198 -1.1002 -1.0064
 7327SOL    HW233444   1.265   1.932   8.043 -0.1379 -1.2152  0.7063
 7328SOL     OW33445   3.994   2.422  13.324  0.5106  0.0708 -0.1860
 7328SOL    HW133446   4.035   2.425  13.411 -0.9103 -1.7337  0.5365
 7328SOL    HW233447   3.938   2.346  13.340  2.2625 -1.7461 -2.6276
 7329SOL     OW33448   3.993   2.361   1.611  0.3679 -0.7236  0.2976
 7329SOL    HW133449   3.939   2.401   1.543 -0.1148  0.3146  1.2947
 7329SOL    HW233450   4.020   2.444   1.651 -0.9450  0.0646 -0.4350
 7330SOL     OW33451   1.017   1.146   8.466 -0.6216  0.5246  0.3355
 7330SOL    HW133452   1.062   1.066   8.439 -2.3520 -0.2818 -0.1782
 7330SOL    HW233453   1.021   1.199   8.387 -0.4711 -1.3138 -0.9072
 7331SOL     OW33454   0.091   4.552   4.430  0.4652 -0.0635 -0.3515
 7331SOL    HW133455   0.134   4.487   4.486 -3.2437 -1.2781  1.1321
 7331SOL    HW233456   0.099   4.632   4.481 -2.3804 -0.2092  0.3070
 7332SOL     OW33457   3.428   4.068   3.709 -0.2752 -0.5037  0.1158
 7332SOL    HW133458   3.448   3.978   3.732  1.1666  0.2330  1.7780
 7332SOL    HW233459   3.405   4.061   3.616  4.8231 -2.0222 -1.0350
 7333SOL     OW33460   1.043   2.353  12.434 -0.0527  0.0028 -0.4312
 7333SOL    HW133461   1.109   2.288  12.410  1.6433  1.5790 -0.1339
 7333SOL    HW233462   1.006   2.373  12.348  1.9021 -0.1574 -1.3227
 7334SOL     OW33463   2.933   0.566   7.253  0.3174 -0.0238  0.2296
 7334SOL    HW133464   2.960   0.658   7.249 -0.1630  0.0576 -1.0846
 7334SOL    HW233465   2.893   0.547   7.168  1.4750 -0.4243 -0.2361
 7335SOL     OW33466   0.654   4.708   6.955 -0.3741 -0.2968 -0.0336
 7335SOL    HW133467   0.633   0.042   7.030  2.0278 -1.8142  1.7938
 7335SOL    HW233468   0.723   4.656   6.995  2.2693  3.1050 -0.2032
 7336SOL     OW33469   4.558   1.161  12.625 -0.2261  0.0602  0.3387
 7336SOL    HW133470   4.642   1.115  12.625  0.1272  0.6636 -2.3234
 7336SOL    HW233471   4.509   1.117  12.694  1.1308 -0.6761  0.8275
 7337SOL     OW33472   3.113   2.210   3.295  0.1623 -0.1792  0.6874
 7337SOL    HW133473   3.050   2.280   3.311 -0.2762 -0.3916 -0.1316
 7337SOL    HW233474   3.149   2.197   3.383  2.3608 -0.9047 -0.3137
 7338SOL     OW33475   4.184   2.455   2.303 -0.5838  0.3801 -0.3760
 7338SOL    HW133476   4.164   2.499   2.386  2.7791 -3.1695  2.3194
 7338SOL    HW233477   4.219   2.371   2.332 -0.3387  0.3739 -0.6860
 7339SOL     OW33478   3.849   4.644   9.851 -0.3474 -0.4411  0.2337
 7339SOL    HW133479   3.762   4.620   9.821  1.1864 -2.4120 -2.5450
 7339SOL    HW233480   3.832   4.619   9.942 -0.5378  0.0356  0.3287
 7340SOL     OW33481   0.594   0.403  15.243 -0.2255 -0.2521 -0.1018
 7340SOL    HW133482   0.550   0.377  15.162  0.5514  1.6536 -1.1675
 7340SOL    HW233483   0.532   0.371  15.307 -0.2544 -0.7561 -0.3818
 7341SOL     OW33484   0.166   0.276   6.569  0.1028  0.7558  0.0600
 7341SOL    HW133485   0.185   0.182   6.576 -0.1684  0.7531  0.7727
 7341SOL    HW233486   0.127   0.290   6.656 -2.8880  1.5210 -1.4115
 7342SOL     OW33487   1.017   0.357   8.894 -0.3077  0.2039  0.2190
 7342SOL    HW133488   1.069   0.404   8.830 -0.0483 -0.6529 -0.1956
 7342SOL    HW233489   1.080   0.307   8.946 -0.4451 -0.7931 -0.5846
 7343SOL     OW33490   0.133   0.278  14.471  0.7278  0.3117 -0.1360
 7343SOL    HW133491   0.092   0.354  14.430  0.8732  0.5985  0.2591
 7343SOL    HW233492   0.215   0.267  14.423  1.1948  1.6225  0.3797
 7344SOL     OW33493   2.843   1.117   5.194  0.2686  0.3664 -0.2089
 7344SOL    HW133494   2.850   1.039   5.249 -0.0142  1.1546  0.9685
 7344SOL    HW233495   2.865   1.189   5.254  0.5801 -0.8172  1.0855
 7345SOL     OW33496   3.181   2.171   5.192 -0.2938  0.1498 -1.0284
 7345SOL    HW133497   3.124   2.177   5.115 -0.9684  0.1932 -0.5233
 7345SOL    HW233498   3.114   2.183   5.258  0.3314 -1.7476 -0.0660
 7346SOL     OW33499   1.447   1.126   7.003  0.0057 -0.1158  0.4752
 7346SOL    HW133500   1.478   1.180   6.931 -0.4136 -0.9803 -0.3620
 7346SOL    HW233501   1.491   1.044   6.982  1.0875  0.7671 -0.6744
 7347SOL     OW33502   3.254   3.017   4.580 -0.0369  0.4715  0.0836
 7347SOL    HW133503   3.256   2.999   4.674  1.7584  1.5318  0.2391
 7347SOL    HW233504   3.301   3.098   4.562 -0.9158  0.9355 -0.1395
 7348SOL     OW33505   1.213   0.189   4.781 -0.1288 -0.3445  0.0471
 7348SOL    HW133506   1.260   0.222   4.704 -0.7186  0.6132  0.0984
 7348SOL    HW233507   1.166   0.264   4.817 -0.2624 -1.7670  2.8618
 7349SOL     OW33508   3.438   2.757   6.781  0.4481 -1.3362 -0.5338
 7349SOL    HW133509   3.508   2.717   6.730  2.5675  1.8617 -0.1830
 7349SOL    HW233510   3.403   2.833   6.735  1.1501  0.2567  1.5321
 7350SOL     OW33511   1.673   3.630  11.201  0.4016  0.4580  0.4676
 7350SOL    HW133512   1.717   3.607  11.283  0.5061  0.3683  0.3865
 7350SOL    HW233513   1.754   3.648  11.154  0.1001  1.9485  0.5109
 7351SOL     OW33514   4.140   4.080   3.790  0.0183 -0.0239 -0.7131
 7351SOL    HW133515   4.134   4.149   3.723 -0.9520  0.8092  0.2524
 7351SOL    HW233516   4.091   4.118   3.862  0.6722 -0.4806 -0.0189
 7352SOL     OW33517   0.081   0.318   3.242 -0.6620  0.2952  0.1409
 7352SOL    HW133518   0.021   0.316   3.167  0.1907 -0.5715 -0.5182
 7352SOL    HW233519   0.087   0.410   3.265 -0.0185  0.0825  0.8058
 7353SOL     OW33520   1.139   2.658  12.317 -0.1223 -0.0581 -0.4052
 7353SOL    HW133521   1.104   2.661  12.406 -0.7386  1.6715 -0.7102
 7353SOL    HW233522   1.056   2.638  12.274  0.5963  0.4982 -2.0385
 7354SOL     OW33523   0.256   3.068   2.962  0.2311 -0.4949 -0.9230
 7354SOL    HW133524   0.275   3.161   2.970 -0.4502 -0.5424  1.3733
 7354SOL    HW233525   0.238   3.054   3.055  0.8134 -0.7229 -0.8448
 7355SOL     OW33526   1.861   0.814  13.584  0.1001 -0.3903  0.0891
 7355SOL    HW133527   1.908   0.761  13.520  2.3517  0.0609  1.3501
 7355SOL    HW233528   1.802   0.746  13.617  2.1564 -1.3830  1.7370
 7356SOL     OW33529   3.804   4.496  14.443  0.1123  0.2592  0.2136
 7356SOL    HW133530   3.858   4.418  14.441 -2.1012 -1.3151  1.7928
 7356SOL    HW233531   3.795   4.502  14.347 -0.5944  1.2466  0.3359
 7357SOL     OW33532   1.294   1.562   5.212  0.6389 -0.4713 -0.3609
 7357SOL    HW133533   1.323   1.516   5.133 -2.1608  0.4406 -1.9148
 7357SOL    HW233534   1.313   1.654   5.191  1.1019 -0.5120 -0.1196
 7358SOL     OW33535   0.046   0.186  10.989 -0.2683  0.4055 -0.4890
 7358SOL    HW133536   0.048   0.222  11.078 -2.8389  0.0547 -0.3025
 7358SOL    HW233537   0.066   0.265  10.939 -0.0809  0.6648 -0.0133
 7359SOL     OW33538   3.818   1.608   6.327 -0.6769 -0.3186  0.3782
 7359SOL    HW133539   3.825   1.642   6.238  0.1478  0.4834  0.7491
 7359SOL    HW233540   3.748   1.542   6.328 -0.3280 -0.6770  1.1506
 7360SOL     OW33541   3.262   3.527  10.293  0.6544 -0.0341  0.3893
 7360SOL    HW133542   3.174   3.520  10.330  0.2843 -2.3151 -0.8668
 7360SOL    HW233543   3.263   3.619  10.267  0.3280 -0.8130 -2.3609
 7361SOL     OW33544   0.665   4.593   2.002 -0.1024  0.0273 -0.3582
 7361SOL    HW133545   0.651   4.603   1.908  1.0006 -1.5626 -0.6879
 7361SOL    HW233546   0.581   4.567   2.040  0.6635  1.1064  2.0977
 7362SOL     OW33547   0.004   4.317   7.272 -0.6677  0.7962  0.2997
 7362SOL    HW133548   4.669   4.298   7.198 -0.4742 -0.1994  0.4084
 7362SOL    HW233549   4.660   4.303   7.340 -0.3795 -1.1626  0.1756
 7363SOL     OW33550   1.661   1.109   3.725 -0.0628  1.0227 -0.0708
 7363SOL    HW133551   1.674   1.022   3.762 -0.8341 -0.2479 -2.8578
 7363SOL    HW233552   1.744   1.156   3.740  1.0333 -0.8513 -0.2876
 7364SOL     OW33553   2.168   0.160   8.679  0.0303  0.3093 -0.8905
 7364SOL    HW133554   2.085   0.123   8.707  0.8094 -0.8918 -0.1535
 7364SOL    HW233555   2.198   0.082   8.632 -2.4797 -2.5502  2.2191
 7365SOL     OW33556   2.531   1.545   5.973  0.3345 -0.0532 -0.2900
 7365SOL    HW133557   2.474   1.489   6.025 -0.4061  0.2957 -0.7328
 7365SOL    HW233558   2.616   1.507   5.995  1.0017  1.9683  0.6659
 7366SOL     OW33559   0.005   3.376   8.136 -0.1800  0.2377 -0.6399
 7366SOL    HW133560   0.004   3.337   8.224 -0.7927 -0.1275 -0.8145
 7366SOL    HW233561   0.046   3.305   8.087 -0.3822 -0.3300  0.0198
 7367SOL     OW33562   0.477   4.092   9.494 -0.4623  0.1239 -0.8602
 7367SOL    HW133563   0.418   4.026   9.456 -3.0951  1.1877  1.3347
 7367SOL    HW233564   0.491   4.146   9.416  0.7885  1.2087  0.1104
 7368SOL     OW33565   2.112   2.469   5.872  0.2434 -0.4103  0.2915
 7368SOL    HW133566   2.033   2.513   5.843  0.8658 -0.0162 -0.8253
 7368SOL    HW233567   2.097   2.391   5.817  1.7872 -1.0546  0.7656
 7369SOL     OW33568   3.721   4.476   2.012  0.0419  0.9122  0.7663
 7369SOL    HW133569   3.772   4.397   2.028 -0.2302  0.4500 -0.6272
 7369SOL    HW233570   3.630   4.448   2.000 -0.0554  0.8971  1.5769
 7370SOL     OW33571   1.041   1.041   7.454  0.2151  0.0810  0.1966
 7370SOL    HW133572   0.953   1.035   7.490 -0.1408  0.4276 -0.6129
 7370SOL    HW233573   1.058   0.947   7.456  2.3943  0.4694  0.3248
 7371SOL     OW33574   4.271   2.837   2.232 -0.7488  0.1478 -0.2042
 7371SOL    HW133575   4.210   2.855   2.303 -0.1460 -0.4504  0.4659
 7371SOL    HW233576   4.265   2.742   2.223 -0.0031  0.0184  0.6981
 7372SOL     OW33577   3.648   4.503   8.079 -0.2342  0.2585 -0.0646
 7372SOL    HW133578   3.597   4.486   7.999  1.1159  2.0704 -1.2886
 7372SOL    HW233579   3.597   4.493   8.160 -1.7250  1.1351 -0.9015
 7373SOL     OW33580   4.413   0.856   4.270  0.1439 -0.0125 -0.2540
 7373SOL    HW133581   4.433   0.890   4.183 -1.8774  0.3250 -0.6023
 7373SOL    HW233582   4.318   0.867   4.269  0.2311  0.8915  0.8466
 7374SOL     OW33583   2.990   1.441   5.119 -0.4540  0.3112 -0.2656
 7374SOL    HW133584   2.970   1.360   5.166  2.3185  0.0824  0.5211
 7374SOL    HW233585   2.991   1.417   5.026  0.4616 -1.3451  0.1686
 7375SOL     OW33586   3.569   4.183   9.421  0.1641  0.0049 -0.0799
 7375SOL    HW133587   3.559   4.238   9.499  2.8574  0.8438 -0.3114
 7375SOL    HW233588   3.586   4.244   9.350  0.8143 -1.3951 -1.1211
 7376SOL     OW33589   1.954   2.994   4.304 -0.2970 -0.5454 -0.6770
 7376SOL    HW133590   1.935   2.973   4.395 -1.8848 -2.4738 -1.4763
 7376SOL    HW233591   1.875   3.038   4.275 -0.9541 -0.9386  0.5232
 7377SOL     OW33592   1.837   0.153   9.524  0.0045 -0.1714  0.2399
 7377SOL    HW133593   1.853   0.070   9.570 -0.5974  0.3313  1.3524
 7377SOL    HW233594   1.753   0.175   9.564 -0.1096  0.4268 -0.3339
 7378SOL     OW33595   2.890   0.860   8.094  0.0147 -0.2048  0.3529
 7378SOL    HW133596   2.867   0.767   8.098  2.9496 -0.8549  2.3549
 7378SOL    HW233597   2.846   0.883   8.013 -1.7027 -0.6714  1.1397
 7379SOL     OW33598   4.325   2.112  13.874  0.2074  0.0471  0.5615
 7379SOL    HW133599   4.253   2.113  13.936  1.0404 -2.0145  1.5775
 7379SOL    HW233600   4.296   2.178  13.812 -0.4382 -1.5268 -0.8231
 7380SOL     OW33601   0.841   2.100   1.960  0.2072  0.0922 -0.5466
 7380SOL    HW133602   0.854   2.180   2.011  0.5627 -0.6586  0.5376
 7380SOL    HW233603   0.881   2.035   2.016 -3.1755 -2.7889 -1.4445
 7381SOL     OW33604   4.422   1.639  15.387  0.1553  0.4609  0.0232
 7381SOL    HW133605   4.461   1.713  15.340  1.6680 -2.1593 -2.8587
 7381SOL    HW233606   4.440   1.565  15.329  1.0786  0.3462  0.4577
 7382SOL     OW33607   3.654   3.198   7.167  0.6457 -0.3220 -0.3868
 7382SOL    HW133608   3.597   3.222   7.240  1.1837  0.2742 -0.1599
 7382SOL    HW233609   3.606   3.131   7.118  2.2954 -0.2943 -2.0337
 7383SOL     OW33610   0.453   0.707   4.889 -0.1883 -0.0922  0.6008
 7383SOL    HW133611   0.488   0.759   4.816 -0.7470 -0.6410 -0.0624
 7383SOL    HW233612   0.438   0.768   4.960 -1.3206 -1.7211  1.7528
 7384SOL     OW33613   4.680   4.336  13.470  0.0229  0.3100 -0.7186
 7384SOL    HW133614   4.633   4.284  13.406 -1.8154 -0.2832  1.0995
 7384SOL    HW233615   4.627   4.416  13.468 -1.5668 -0.6473  3.1719
 7385SOL     OW33616   4.250   2.013  12.398 -0.0344  0.0153 -0.1691
 7385SOL    HW133617   4.204   2.089  12.432  2.4575  2.1026 -1.4302
 7385SOL    HW233618   4.341   2.031  12.422 -0.4411 -0.1890  1.5066
 7386SOL     OW33619   0.802   0.469   9.015 -0.6114 -0.3530 -0.5527
 7386SOL    HW133620   0.885   0.443   8.976 -0.1438 -2.0491  1.5823
 7386SOL    HW233621   0.751   0.389   9.029  2.6428 -2.3850 -0.4791
 7387SOL     OW33622   1.796   1.955   5.661  0.2407  0.0321  0.0360
 7387SOL    HW133623   1.869   1.899   5.637  0.6177 -0.5964  2.5751
 7387SOL    HW233624   1.730   1.936   5.594 -0.5709  1.3620  0.4453
 7388SOL     OW33625   0.300   2.954   3.863 -0.3458  0.7280  0.0656
 7388SOL    HW133626   0.301   2.869   3.819 -0.0558  0.6898  0.1500
 7388SOL    HW233627   0.206   2.971   3.852 -0.4176 -2.2994 -4.2090
 7389SOL     OW33628   1.546   4.637   6.100  0.0020  0.0316 -0.5566
 7389SOL    HW133629   1.494   4.557   6.102  0.0314 -0.0117 -1.6858
 7389SOL    HW233630   1.609   4.610   6.034 -2.0423 -1.7291 -1.7724
 7390SOL     OW33631   4.192   0.188   9.539 -0.1991  0.1234 -0.1923
 7390SOL    HW133632   4.128   0.172   9.609  0.5008 -3.8798 -0.4442
 7390SOL    HW233633   4.252   0.247   9.585  3.0955 -1.5667 -2.3477
 7391SOL     OW33634   4.398   4.300   9.815  0.0666  0.5597  0.3816
 7391SOL    HW133635   4.445   4.217   9.805 -0.9500  0.1235 -0.7951
 7391SOL    HW233636   4.482   4.341   9.836  1.1642 -1.0511 -0.8751
 7392SOL     OW33637   3.767   2.420   7.175  0.4530  0.1100  0.0487
 7392SOL    HW133638   3.784   2.514   7.177  0.5574  0.1233 -1.3378
 7392SOL    HW233639   3.755   2.393   7.266  2.2377  1.6007  0.7397
 7393SOL     OW33640   3.728   0.530  11.146  0.7527 -0.1183 -0.1976
 7393SOL    HW133641   3.816   0.524  11.182 -0.0058 -3.0483  1.1533
 7393SOL    HW233642   3.699   0.619  11.168 -0.0831 -0.0082 -1.7102
 7394SOL     OW33643   2.438   3.637  14.642 -0.0308  0.0524 -0.0439
 7394SOL    HW133644   2.487   3.664  14.564 -0.3768 -1.4663 -0.7996
 7394SOL    HW233645   2.414   3.547  14.617  1.1492 -0.6536  1.3687
 7395SOL     OW33646   0.692   0.472   5.042 -1.1644 -0.3524 -0.3200
 7395SOL    HW133647   0.696   0.532   5.117  3.1281 -0.8204 -0.1270
 7395SOL    HW233648   0.714   0.391   5.088  1.2941 -0.5629 -1.8631
 7396SOL     OW33649   2.320   3.442   3.719  0.2092  0.2024  0.0888
 7396SOL    HW133650   2.336   3.363   3.667  0.3421 -0.4272  1.0765
 7396SOL    HW233651   2.409   3.476   3.733  1.0673 -1.1899 -1.9274
 7397SOL     OW33652   0.512   3.636   3.725  0.2678 -0.0064  0.2981
 7397SOL    HW133653   0.516   3.612   3.817 -0.5416 -0.0881  0.3044
 7397SOL    HW233654   0.603   3.617   3.700  0.0170  0.3967 -0.9510
 7398SOL     OW33655   1.483   1.467  11.586  0.2505  0.3079  0.4854
 7398SOL    HW133656   1.391   1.457  11.561  1.0722  0.7255 -2.7541
 7398SOL    HW233657   1.484   1.554  11.624  4.0564  2.0637 -3.5977
 7399SOL     OW33658   2.559   2.436   0.813 -0.0635  0.0672 -0.0437
 7399SOL    HW133659   2.479   2.468   0.769 -1.5734 -2.1335  1.1128
 7399SOL    HW233660   2.559   2.354   0.764  0.9437 -1.1775  2.0445
 7400SOL     OW33661   3.639   2.553   1.285 -0.7094 -0.0544 -0.5280
 7400SOL    HW133662   3.662   2.460   1.290  0.8793  0.2916 -1.2336
 7400SOL    HW233663   3.547   2.540   1.262 -0.3083 -1.6406 -1.2471
 7401SOL     OW33664   2.152   2.811   2.898 -0.5128  0.2951 -0.0710
 7401SOL    HW133665   2.170   2.893   2.943  0.7812  0.0294 -0.1038
 7401SOL    HW233666   2.243   2.783   2.885  0.1677  1.5562  1.9576
 7402SOL     OW33667   2.671   2.000   2.457  0.1060 -0.2887  0.2872
 7402SOL    HW133668   2.738   2.017   2.391 -1.3855 -1.1033 -1.4223
 7402SOL    HW233669   2.721   1.949   2.521  1.2077  0.7013  0.2263
 7403SOL     OW33670   1.768   2.839   6.559  0.0198  0.3192  0.4192
 7403SOL    HW133671   1.811   2.905   6.612  0.5832  0.6531 -0.4503
 7403SOL    HW233672   1.732   2.896   6.490 -1.7331 -1.4174 -0.0903
 7404SOL     OW33673   0.857   0.812   2.188  0.1644 -0.1401  0.3968
 7404SOL    HW133674   0.928   0.875   2.181  1.5898 -1.8875 -0.9481
 7404SOL    HW233675   0.815   0.856   2.262  0.1982  1.0332 -0.2725
 7405SOL     OW33676   4.422   2.881   3.232 -0.0967  0.4381  0.6632
 7405SOL    HW133677   4.371   2.814   3.187 -0.3024  3.2610 -3.2987
 7405SOL    HW233678   4.485   2.897   3.161  1.3439  0.7791  2.0016
 7406SOL     OW33679   3.078   1.433  17.116  0.2499 -0.2352  0.7891
 7406SOL    HW133680   3.018   1.506  17.099 -1.5217 -1.3528  2.3142
 7406SOL    HW233681   3.019   1.401  17.184 -0.4296  0.2227  0.4201
 7407SOL     OW33682   0.535   0.185   2.414 -0.1146  0.0732  0.1296
 7407SOL    HW133683   0.604   0.139   2.463 -1.1474 -1.4980  0.1210
 7407SOL    HW233684   0.465   0.181   2.479 -1.0803  3.0162 -0.7678
 7408SOL     OW33685   1.311   4.607   3.656 -0.1248 -0.0272 -0.6145
 7408SOL    HW133686   1.326   4.571   3.743 -1.0427  0.6225 -0.1901
 7408SOL    HW233687   1.234   4.555   3.632 -1.0332  0.1582  1.9431
 7409SOL     OW33688   2.589   1.410  12.526 -0.6135 -0.4250 -0.2160
 7409SOL    HW133689   2.569   1.388  12.436  2.0027 -1.0469 -0.6593
 7409SOL    HW233690   2.682   1.391  12.539 -0.1843  1.8059 -0.0212
 7410SOL     OW33691   0.143   4.088  14.652 -0.0645 -0.5145  0.3286
 7410SOL    HW133692   0.048   4.099  14.662 -0.5167 -0.8327 -3.5539
 7410SOL    HW233693   0.162   4.167  14.601  0.1099 -0.4546  0.4842
 7411SOL     OW33694   4.220   3.151   4.507 -0.1908  0.5695 -0.4498
 7411SOL    HW133695   4.133   3.182   4.533 -0.5867 -0.9523 -0.0020
 7411SOL    HW233696   4.206   3.065   4.467 -2.4030  0.3036  0.8684
 7412SOL     OW33697   1.832   0.880   5.590  0.3197  0.3204 -0.0591
 7412SOL    HW133698   1.796   0.815   5.651  0.0712 -0.0437 -0.5892
 7412SOL    HW233699   1.782   0.960   5.606 -0.5784 -0.0353 -1.1176
 7413SOL     OW33700   2.977   0.487   3.717  0.1138 -0.2172 -0.2365
 7413SOL    HW133701   2.930   0.453   3.640  2.7528 -1.9561 -1.0858
 7413SOL    HW233702   2.908   0.489   3.783 -0.5868  1.0915 -0.9971
 7414SOL     OW33703   1.456   2.056   8.495 -0.4910 -0.1141  0.0973
 7414SOL    HW133704   1.451   2.134   8.550 -0.8672 -0.1047  0.0505
 7414SOL    HW233705   1.393   2.002   8.541  1.1372 -1.4071  0.8085
 7415SOL     OW33706   0.513   3.078  13.491  0.5571 -0.3170 -0.4816
 7415SOL    HW133707   0.418   3.080  13.477 -0.1508 -1.7554  4.2155
 7415SOL    HW233708   0.519   3.022  13.568  1.3220  0.7124  0.2072
 7416SOL     OW33709   0.604   1.709  11.479  0.3338 -0.1903  0.2792
 7416SOL    HW133710   0.576   1.710  11.388  1.0760 -0.4166  0.0447
 7416SOL    HW233711   0.519   1.684  11.514  0.6613  0.9857  1.9153
 7417SOL     OW33712   2.464   1.684   3.974 -0.5061  0.0992 -0.3611
 7417SOL    HW133713   2.537   1.690   3.912  1.0381 -1.7959  1.2850
 7417SOL    HW233714   2.466   1.595   4.009 -1.2699 -0.1010 -0.8199
 7418SOL     OW33715   3.934   2.395  15.639 -0.1031 -0.0403  0.8206
 7418SOL    HW133716   3.981   2.419  15.559 -1.9254  0.3147 -0.1481
 7418SOL    HW233717   3.901   2.480  15.668  0.1707 -0.5696  2.6785
 7419SOL     OW33718   0.420   1.711   2.664 -0.1614  0.7272  0.0015
 7419SOL    HW133719   0.475   1.784   2.695  0.8434 -0.7524  1.6955
 7419SOL    HW233720   0.487   1.667   2.611  0.2148  1.4436 -0.1303
 7420SOL     OW33721   1.895   0.886  16.354  0.8850 -0.0711  0.0184
 7420SOL    HW133722   1.944   0.854  16.278  0.8461 -1.4020  0.5514
 7420SOL    HW233723   1.820   0.827  16.362  1.0195 -0.3510 -0.8458
 7421SOL     OW33724   0.047   1.874   2.251  0.1072  0.2273  0.3824
 7421SOL    HW133725   0.037   1.877   2.156 -0.7794 -1.8339  0.3871
 7421SOL    HW233726   0.142   1.868   2.260 -0.0546 -0.8414  1.4775
 7422SOL     OW33727   3.955   0.032  11.461  0.7997 -0.2287  0.4791
 7422SOL    HW133728   3.898   0.049  11.386  2.3609  0.6747 -0.5284
 7422SOL    HW233729   4.041   0.035  11.419  0.1307 -2.9597 -1.0748
 7423SOL     OW33730   0.835   4.322   8.055  0.7349  0.5639  0.6139
 7423SOL    HW133731   0.913   4.268   8.054  1.0394  1.0075  0.3794
 7423SOL    HW233732   0.822   4.327   8.149 -1.1135 -0.0409  0.3884
 7424SOL     OW33733   3.633   2.733   6.494  0.6281  0.2784  0.0556
 7424SOL    HW133734   3.557   2.696   6.448  1.0448 -1.8575  1.0940
 7424SOL    HW233735   3.697   2.676   6.451 -2.1702 -1.8381 -1.3203
 7425SOL     OW33736   0.451   0.067   9.505 -0.3933 -0.2894 -0.1010
 7425SOL    HW133737   0.377   0.127   9.503 -0.0581  0.1496  1.3961
 7425SOL    HW233738   0.518   0.105   9.447 -2.8611  1.8596 -1.5303
 7426SOL     OW33739   0.980   2.562   1.196  0.2532  0.4403 -0.4547
 7426SOL    HW133740   0.970   2.597   1.108  0.0620 -4.2295 -2.2897
 7426SOL    HW233741   1.013   2.638   1.244  1.1918  0.2135 -0.7442
 7427SOL     OW33742   3.066   0.056   6.543  0.0426 -0.2203  0.4627
 7427SOL    HW133743   3.138   0.118   6.555  0.7397 -0.8315 -0.5645
 7427SOL    HW233744   3.097   4.690   6.560 -1.2016 -1.0609 -1.5613
 7428SOL     OW33745   0.602   1.489   6.516 -0.3871 -0.2933 -0.1446
 7428SOL    HW133746   0.638   1.523   6.598  0.4727 -2.1014  0.2207
 7428SOL    HW233747   0.510   1.474   6.538 -0.1578 -1.6580 -0.1127
 7429SOL     OW33748   3.114   0.718   3.721  0.1067 -0.2776 -0.5224
 7429SOL    HW133749   3.059   0.640   3.722 -2.1932  1.3746  0.7562
 7429SOL    HW233750   3.048   0.774   3.680  1.3478  1.7157  0.1953
 7430SOL     OW33751   0.421   3.285   8.056 -0.2061 -0.4630 -0.0882
 7430SOL    HW133752   0.472   3.205   8.049  2.2745  1.0934  0.4119
 7430SOL    HW233753   0.489   3.336   8.012 -0.5088  1.7942  2.0501
 7431SOL     OW33754   2.382   1.784   7.329 -0.3043  0.0991 -0.1453
 7431SOL    HW133755   2.455   1.832   7.290  0.4201 -0.1178  0.9430
 7431SOL    HW233756   2.421   1.698   7.346  0.8524  0.9963  1.7368
 7432SOL     OW33757   3.613   2.208  15.738  0.3803 -0.3655 -0.3234
 7432SOL    HW133758   3.695   2.216  15.788  0.8367 -1.4269 -0.9045
 7432SOL    HW233759   3.543   2.196  15.801 -0.4962  1.1132 -1.0126
 7433SOL     OW33760   1.364   0.176  10.201  0.3562  0.0803  0.2712
 7433SOL    HW133761   1.404   0.209  10.282 -0.6944  1.2043  0.3191
 7433SOL    HW233762   1.285   0.137  10.239 -0.3530  1.4353  0.1619
 7434SOL     OW33763   4.002   4.105   3.098 -0.1662  0.2045 -0.6979
 7434SOL    HW133764   4.013   4.060   3.015  0.5219 -2.3314  0.7708
 7434SOL    HW233765   4.054   4.184   3.084  0.9667 -0.6871 -1.5212
 7435SOL     OW33766   1.052   0.114  13.552 -0.3479  0.1600 -0.3659
 7435SOL    HW133767   1.036   0.019  13.557 -1.5764  0.2864 -1.8520
 7435SOL    HW233768   1.091   0.128  13.465  2.1229  1.0130  0.8786
 7436SOL     OW33769   0.140   0.478   5.951 -0.2532  0.2474  0.2034
 7436SOL    HW133770   0.083   0.412   5.990  1.0035  0.3844  2.2638
 7436SOL    HW233771   0.163   0.524   6.031 -0.0705  1.2079 -0.3973
 7437SOL     OW33772   0.891   2.565   0.910 -0.1662  0.7985  0.0610
 7437SOL    HW133773   0.810   2.530   0.948  0.6334 -1.2921 -0.1220
 7437SOL    HW233774   0.856   2.558   0.822 -1.1602  1.9365  0.3790
 7438SOL     OW33775   1.226   1.690   6.254  0.2112  0.4875 -0.4780
 7438SOL    HW133776   1.171   1.768   6.247 -0.0881  0.0149 -3.2305
 7438SOL    HW233777   1.236   1.652   6.167  2.4283  1.0868 -0.4670
 7439SOL     OW33778   3.729   3.064   0.825  0.7631  0.8379  0.0624
 7439SOL    HW133779   3.823   3.078   0.817  0.8786  0.8609  1.6231
 7439SOL    HW233780   3.715   3.045   0.732  2.8257  2.1776 -0.5208
 7440SOL     OW33781   3.194   2.103   7.133 -0.7152  0.2841  0.4572
 7440SOL    HW133782   3.207   2.009   7.124 -1.6374  0.4974 -3.1854
 7440SOL    HW233783   3.167   2.128   7.045 -0.1661 -0.4473  0.0832
 7441SOL     OW33784   1.021   4.132   6.835  0.2953 -0.2063  0.3125
 7441SOL    HW133785   1.013   4.132   6.931  2.9237  0.5398  0.5169
 7441SOL    HW233786   1.014   4.039   6.815  1.6432 -0.0090 -0.9919
 7442SOL     OW33787   3.519   0.247   6.926 -0.3304  0.1681 -0.3252
 7442SOL    HW133788   3.468   0.307   6.871 -1.0749 -2.3083 -2.3763
 7442SOL    HW233789   3.468   0.254   7.006 -1.4310 -1.6308 -0.8729
 7443SOL     OW33790   2.537   3.502  11.400  0.0724  0.4749  0.4527
 7443SOL    HW133791   2.583   3.550  11.331  1.0779 -1.3130 -0.1099
 7443SOL    HW233792   2.455   3.481  11.355 -0.3492  0.9802  0.9882
 7444SOL     OW33793   3.657   0.426   7.642  0.1716 -0.0410  0.2290
 7444SOL    HW133794   3.722   0.369   7.601  0.8572  1.3986 -0.6586
 7444SOL    HW233795   3.707   0.507   7.650  0.4678 -0.0700 -1.2860
 7445SOL     OW33796   4.436   3.023   5.287 -0.2907 -0.3269 -0.0213
 7445SOL    HW133797   4.399   3.004   5.201  0.1240  0.2136 -0.3163
 7445SOL    HW233798   4.525   3.042   5.258  0.6409  0.7466  3.4767
 7446SOL     OW33799   2.127   1.895   6.040  0.1078  0.0274  0.0098
 7446SOL    HW133800   2.067   1.946   6.095 -1.1452 -0.8966 -0.4977
 7446SOL    HW233801   2.092   1.810   6.066 -0.6944  0.6499  0.9762
 7447SOL     OW33802   4.606   2.869   3.028 -0.5508  0.1969  0.4209
 7447SOL    HW133803   4.676   2.830   3.081  0.3915  1.9667  0.4748
 7447SOL    HW233804   4.593   2.798   2.965 -0.5162 -1.3017  2.1074
 7448SOL     OW33805   0.691   1.666   3.957 -0.1319  0.5497  0.1787
 7448SOL    HW133806   0.616   1.608   3.975  1.8976 -1.7757  1.1735
 7448SOL    HW233807   0.756   1.601   3.928 -0.1138  0.2518  0.8989
 7449SOL     OW33808   2.145   0.964  16.835  0.1115 -0.4544  0.0307
 7449SOL    HW133809   2.105   0.972  16.748 -1.6900  2.0092  1.1114
 7449SOL    HW233810   2.216   1.028  16.828 -0.2173 -0.3417 -2.2386
 7450SOL     OW33811   1.588   3.742   9.229 -0.0542  0.5780 -0.2147
 7450SOL    HW133812   1.560   3.652   9.247 -0.9116  0.9260  0.2261
 7450SOL    HW233813   1.550   3.789   9.303  2.7128 -1.1925  2.3158
 7451SOL     OW33814   1.457   0.809   1.467  0.2250  0.2620  0.2176
 7451SOL    HW133815   1.375   0.854   1.449  0.1279  0.3098  0.7834
 7451SOL    HW233816   1.411   0.729   1.492  2.7365 -0.9092  1.0859
 7452SOL     OW33817   2.800   0.915   4.447 -0.4695 -0.1087  0.3258
 7452SOL    HW133818   2.813   0.825   4.474 -0.9020  0.5607  2.7175
 7452SOL    HW233819   2.776   0.911   4.354 -0.5296  3.7030  0.1520
 7453SOL     OW33820   4.717   3.856   8.157  0.8752  0.6212 -0.2177
 7453SOL    HW133821   0.003   3.763   8.139  4.4290  1.2066 -1.8777
 7453SOL    HW233822   0.007   3.863   8.252  1.0730  2.9193 -0.4136
 7454SOL     OW33823   3.357   4.678   1.187  0.1778 -0.1449 -0.2544
 7454SOL    HW133824   3.421   4.615   1.222 -0.3257 -0.8026 -0.5248
 7454SOL    HW233825   3.306   4.699   1.265  1.2547  1.5722 -0.0040
 7455SOL     OW33826   0.594   3.468   5.086 -0.5601 -1.1138  0.0692
 7455SOL    HW133827   0.618   3.560   5.097  0.4923 -1.6246  1.9325
 7455SOL    HW233828   0.535   3.466   5.162  0.9772 -0.6594  1.2609
 7456SOL     OW33829   0.644   3.806  14.993 -0.0974 -0.2100 -0.2228
 7456SOL    HW133830   0.734   3.803  14.961  0.3451  0.8450  0.8793
 7456SOL    HW233831   0.606   3.832  14.909  1.3605  0.6287 -0.6163
 7457SOL     OW33832   0.811   3.854  15.705 -0.3081 -0.0835 -0.4463
 7457SOL    HW133833   0.820   3.840  15.799 -1.2667 -0.0619 -0.3426
 7457SOL    HW233834   0.748   3.927  15.701 -2.2301 -1.8297 -2.0013
 7458SOL     OW33835   3.164   0.878  10.752 -0.5310 -0.6951  0.0191
 7458SOL    HW133836   3.197   0.840  10.834 -1.5421 -0.9992  0.2789
 7458SOL    HW233837   3.070   0.864  10.755 -0.6673  0.5671  1.6538
 7459SOL     OW33838   3.429   4.439  13.935  0.4121  0.7479 -0.0804
 7459SOL    HW133839   3.499   4.413  13.994 -0.3284  0.1731  0.5533
 7459SOL    HW233840   3.415   4.527  13.971  2.5774  1.8366 -1.9781
 7460SOL     OW33841   0.574   1.343   2.328  0.0438  0.0593 -0.2118
 7460SOL    HW133842   0.538   1.324   2.241 -0.8862 -0.4806  0.2822
 7460SOL    HW233843   0.668   1.350   2.314  0.1824  0.7112  1.0430
 7461SOL     OW33844   4.201   2.260  14.804 -0.1390 -0.2787 -0.0629
 7461SOL    HW133845   4.222   2.180  14.852  0.2389 -0.5191 -0.6228
 7461SOL    HW233846   4.211   2.229  14.714 -0.2291  1.4153 -0.6492
 7462SOL     OW33847   2.013   3.050   3.245 -0.4559  0.7718  0.4184
 7462SOL    HW133848   1.936   2.993   3.237 -0.0924  0.4752 -0.9916
 7462SOL    HW233849   2.031   3.034   3.337 -0.0356  0.8501  0.3494
 7463SOL     OW33850   2.149   3.430   7.515  0.1583  0.1392 -0.2283
 7463SOL    HW133851   2.167   3.405   7.606 -1.5865  2.1676  0.6593
 7463SOL    HW233852   2.234   3.469   7.495  0.3240  0.2088  0.5799
 7464SOL     OW33853   2.471   0.637  11.802  0.3621 -0.6761 -0.3657
 7464SOL    HW133854   2.426   0.580  11.865  0.6898 -0.0339  0.4463
 7464SOL    HW233855   2.556   0.595  11.817  0.8555  0.0196 -1.2247
 7465SOL     OW33856   2.564   3.265   3.310 -0.1032  0.5024  0.3276
 7465SOL    HW133857   2.634   3.315   3.268 -0.3086  0.2277 -0.3376
 7465SOL    HW233858   2.615   3.206   3.365 -0.7010  0.6316  1.0296
 7466SOL     OW33859   1.898   2.267  10.695 -0.4067  0.3666  0.4265
 7466SOL    HW133860   1.873   2.223  10.777 -2.8973  1.5037  0.2839
 7466SOL    HW233861   1.844   2.211  10.640  1.1228 -1.7558  1.0776
 7467SOL     OW33862   1.656   0.752   1.625  0.0092  0.5031 -0.3307
 7467SOL    HW133863   1.574   0.776   1.583  0.2498 -0.5785 -1.4324
 7467SOL    HW233864   1.677   0.672   1.577  2.3889  0.3593  0.9633
 7468SOL     OW33865   4.088   4.406   3.881 -0.0059 -0.0791  0.1764
 7468SOL    HW133866   4.132   4.331   3.841  0.3817  1.3700 -2.1368
 7468SOL    HW233867   4.150   4.476   3.861 -0.6480 -0.0411 -1.7077
 7469SOL     OW33868   4.621   3.757  11.223  0.4564  0.2736 -0.4148
 7469SOL    HW133869   4.527   3.775  11.225  0.3701 -0.2159 -0.2285
 7469SOL    HW233870   4.637   3.705  11.144  1.0759  1.7790 -1.2897
 7470SOL     OW33871   3.332   2.249   0.137 -0.5703  0.0875 -0.1700
 7470SOL    HW133872   3.350   2.165   0.178  1.1095 -0.6446 -2.3755
 7470SOL    HW233873   3.415   2.294   0.153  0.6362 -1.6068 -1.7068
 7471SOL     OW33874   1.756   2.771   8.436 -0.3733 -0.4400  0.3356
 7471SOL    HW133875   1.704   2.697   8.470 -1.2112 -0.0649 -0.1090
 7471SOL    HW233876   1.824   2.724   8.387 -0.3189 -0.8184  0.7691
 7472SOL     OW33877   3.220   2.794   7.138 -0.7134  0.1171  0.2876
 7472SOL    HW133878   3.134   2.823   7.168 -0.3207 -0.7339  2.2979
 7472SOL    HW233879   3.262   2.797   7.224  1.5226  2.2785 -0.8641
 7473SOL     OW33880   3.641   1.891  17.024  0.2703 -0.7938  0.0785
 7473SOL    HW133881   3.647   1.907  16.930 -2.8610  0.2827  0.0856
 7473SOL    HW233882   3.595   1.807  17.034 -0.9441 -0.0386  0.7965
 7474SOL     OW33883   1.767   1.862   3.083  0.2667  0.4207  0.2266
 7474SOL    HW133884   1.755   1.902   3.169  1.1729 -2.8231  1.8963
 7474SOL    HW233885   1.852   1.819   3.086  0.8059  1.6475  2.8054
 7475SOL     OW33886   4.555   3.414  14.580 -0.3094 -0.1509  0.0953
 7475SOL    HW133887   4.525   3.487  14.526  3.7591  1.1976 -0.3186
 7475SOL    HW233888   4.564   3.343  14.516 -0.6337 -0.1803  0.0797
 7476SOL     OW33889   3.636   2.675   2.923  0.7164  0.0054 -0.0227
 7476SOL    HW133890   3.653   2.750   2.979 -0.7674 -1.3337  2.2575
 7476SOL    HW233891   3.541   2.688   2.916  0.6447 -0.3646  0.2542
 7477SOL     OW33892   4.076   2.981   0.164 -0.0723 -0.1927 -0.1828
 7477SOL    HW133893   4.013   3.051   0.147 -0.0775 -0.6373 -2.0515
 7477SOL    HW233894   4.133   3.026   0.227 -0.9764  0.9093 -0.1507
 7478SOL     OW33895   4.498   1.532  13.294  0.3228  0.0680  0.2772
 7478SOL    HW133896   4.424   1.586  13.323  0.7442  1.0708 -0.5230
 7478SOL    HW233897   4.567   1.597  13.307  0.4221  0.1715 -0.7677
 7479SOL     OW33898   2.326   4.678   6.967 -0.0404 -0.4584  0.1622
 7479SOL    HW133899   2.368   0.041   6.974 -0.1854 -0.3431 -0.3650
 7479SOL    HW233900   2.232   4.698   6.974 -0.0727 -1.3117  2.1503
 7480SOL     OW33901   3.361   1.388  10.142  0.0215  0.2539 -0.2095
 7480SOL    HW133902   3.303   1.439  10.085  0.7204  1.2709 -0.0084
 7480SOL    HW233903   3.310   1.327  10.195  2.5906 -1.9376 -0.2909
 7481SOL     OW33904   0.437   0.037   4.127 -0.3315  0.3143 -0.5801
 7481SOL    HW133905   0.353   0.045   4.173 -0.0738 -1.1553  0.1263
 7481SOL    HW233906   0.418   0.084   4.046 -1.7725 -0.3549 -0.6286
 7482SOL     OW33907   3.389   0.435   0.887 -0.2306  0.6126  0.3450
 7482SOL    HW133908   3.389   0.392   0.972 -1.8236 -0.0224  0.0251
 7482SOL    HW233909   3.310   0.489   0.900  1.1812  2.0172  3.1727
 7483SOL     OW33910   3.906   3.668  10.460  0.0332 -0.0505  0.4950
 7483SOL    HW133911   3.999   3.645  10.461  0.1363  0.2698 -0.9454
 7483SOL    HW233912   3.901   3.733  10.390  1.0625 -1.6611 -1.0704
 7484SOL     OW33913   3.091   3.284  15.118 -0.1893 -0.1681  0.8096
 7484SOL    HW133914   3.057   3.260  15.204  0.7889  0.0496  1.2594
 7484SOL    HW233915   3.186   3.273  15.128 -0.5957 -3.1192  1.5678
 7485SOL     OW33916   1.568   4.479  11.765  0.1489 -0.1556  0.1170
 7485SOL    HW133917   1.610   4.400  11.731  2.5001  1.0167  0.3226
 7485SOL    HW233918   1.633   4.546  11.744  1.0022 -0.6078  1.3160
 7486SOL     OW33919   4.097   1.793  12.368  0.2401  0.2224  0.0257
 7486SOL    HW133920   4.013   1.832  12.392  0.2327  0.7696 -0.9171
 7486SOL    HW233921   4.149   1.874  12.376 -2.1094  1.6803  0.4292
 7487SOL     OW33922   2.533   0.534   8.673 -0.1417  0.2174  0.2419
 7487SOL    HW133923   2.593   0.547   8.599 -2.3566 -0.6768 -1.7078
 7487SOL    HW233924   2.472   0.473   8.631 -0.4579  1.5634 -1.2756
 7488SOL     OW33925   0.153   0.956  14.812  0.2388 -0.4654 -0.2874
 7488SOL    HW133926   0.061   0.941  14.793  0.1866  0.1673 -0.5337
 7488SOL    HW233927   0.194   0.870  14.805  1.1300 -0.1872  1.5786
 7489SOL     OW33928   2.520   2.577   6.826 -0.2270 -0.4466 -0.4778
 7489SOL    HW133929   2.430   2.605   6.812 -0.0051 -0.0181 -1.0592
 7489SOL    HW233930   2.513   2.484   6.804  1.9952 -0.8034  0.2690
 7490SOL     OW33931   3.380   3.369   2.185 -0.3149  0.3476  0.1314
 7490SOL    HW133932   3.295   3.326   2.179 -0.0259 -0.3374  1.0694
 7490SOL    HW233933   3.364   3.437   2.119 -1.2214 -0.2062 -0.2176
 7491SOL     OW33934   3.870   4.297   7.904 -0.5685 -0.0036  0.0214
 7491SOL    HW133935   3.823   4.218   7.929 -1.1880  0.5348  0.5388
 7491SOL    HW233936   3.923   4.314   7.982 -0.6869 -0.1017  0.1223
 7492SOL     OW33937   1.040   2.778  12.997 -0.0201  0.2261 -0.3053
 7492SOL    HW133938   1.072   2.761  13.085 -3.9953 -1.0937  0.8654
 7492SOL    HW233939   1.010   2.693  12.964  1.5091  0.1902 -1.6254
 7493SOL     OW33940   2.964   3.455   1.764  0.0763 -0.1145  0.0190
 7493SOL    HW133941   3.017   3.530   1.740  1.6936 -0.8059  1.4370
 7493SOL    HW233942   2.915   3.494   1.837 -0.2501 -0.0761 -0.2193
 7494SOL     OW33943   3.773   4.556   5.559  0.4436  0.0041  0.2596
 7494SOL    HW133944   3.785   4.547   5.654 -0.1970  0.1122  0.3519
 7494SOL    HW233945   3.709   4.626   5.567 -1.2278 -1.3834 -1.1413
 7495SOL     OW33946   0.655   4.588   9.160  0.3959  0.0924 -0.2727
 7495SOL    HW133947   0.570   4.550   9.184  0.2367 -0.0504 -1.0509
 7495SOL    HW233948   0.649   4.604   9.066 -1.5208 -1.0219 -0.3510
 7496SOL     OW33949   2.885   2.534   7.855 -0.6682  0.7799 -0.1954
 7496SOL    HW133950   2.875   2.628   7.838 -0.6291  0.7068 -0.6287
 7496SOL    HW233951   2.974   2.525   7.821 -1.0229 -2.2875 -0.3463
 7497SOL     OW33952   1.638   2.803   1.313  0.2572  0.5774 -0.4385
 7497SOL    HW133953   1.587   2.770   1.239  1.9442 -2.4761 -0.2207
 7497SOL    HW233954   1.641   2.724   1.367 -0.5289 -0.2440 -1.5809
 7498SOL     OW33955   3.413   4.282  17.030  0.2603 -0.3191 -0.0550
 7498SOL    HW133956   3.432   4.234  17.111  1.2356 -0.1169 -0.1672
 7498SOL    HW233957   3.478   4.352  17.028  1.3525 -1.2947  0.7911
 7499SOL     OW33958   2.100   2.755   3.516 -0.1650 -0.0747  0.3803
 7499SOL    HW133959   2.184   2.749   3.560  0.4998 -0.4931 -0.9709
 7499SOL    HW233960   2.110   2.675   3.466  1.5498 -0.6721  1.7053
 7500SOL     OW33961   0.818   2.380  12.053 -0.6646 -0.1214 -0.2233
 7500SOL    HW133962   0.789   2.411  11.967 -0.0578  0.7437 -0.1150
 7500SOL    HW233963   0.735   2.373  12.100 -1.1552  0.5163 -0.9957
 7501SOL     OW33964   4.609   4.070   9.414  0.3946  0.0657 -0.4532
 7501SOL    HW133965   4.648   4.060   9.501 -0.8655 -0.5989  0.0374
 7501SOL    HW233966   4.672   4.133   9.378  0.0372 -0.2069 -1.5389
 7502SOL     OW33967   0.299   4.544  14.423  0.5979 -0.2227  0.0246
 7502SOL    HW133968   0.345   4.556  14.340  1.3230 -0.3765  0.3968
 7502SOL    HW233969   0.358   4.571  14.493 -0.4888  1.4542  0.2864
 7503SOL     OW33970   1.833   1.415   5.176 -0.3600 -0.6335  0.1647
 7503SOL    HW133971   1.912   1.436   5.125 -0.7854  2.0399  0.6522
 7503SOL    HW233972   1.862   1.353   5.243 -2.2221 -0.7511  0.8376
 7504SOL     OW33973   4.273   2.837  13.384 -0.1882  0.2033 -0.6330
 7504SOL    HW133974   4.269   2.904  13.452 -1.6586  0.9275 -1.4241
 7504SOL    HW233975   4.184   2.850  13.350 -0.3299  0.5958 -0.1191
 7505SOL     OW33976   1.125   4.434  14.488  0.5038  0.6041  0.2835
 7505SOL    HW133977   1.136   4.483  14.570  2.5965  0.3233  0.1625
 7505SOL    HW233978   1.111   4.493  14.414  0.7056  0.0298 -0.2153
 7506SOL     OW33979   0.759   2.204   5.941 -0.1144 -0.0384  0.4488
 7506SOL    HW133980   0.743   2.114   5.969 -2.6949  1.1324  2.7047
 7506SOL    HW233981   0.811   2.238   6.014  0.3079  1.5100 -0.5640
 7507SOL     OW33982   4.294   0.205   2.430 -0.1060 -0.0492  0.2257
 7507SOL    HW133983   4.308   0.133   2.369 -0.5692  1.1547 -1.2952
 7507SOL    HW233984   4.204   0.220   2.401  0.2882 -0.4874 -1.2231
 7508SOL     OW33985   3.236   2.132  11.497 -0.5259  0.5256 -0.1069
 7508SOL    HW133986   3.324   2.098  11.481 -1.4761 -0.4182 -3.4226
 7508SOL    HW233987   3.249   2.214  11.543 -1.3973  0.5752  0.0510
 7509SOL     OW33988   1.080   4.071   7.115 -0.4293 -0.2174  0.5919
 7509SOL    HW133989   1.176   4.074   7.114 -0.5355  2.5543 -1.0576
 7509SOL    HW233990   1.056   4.000   7.174 -0.9758  1.1790  2.0387
 7510SOL     OW33991   2.759   0.448   3.508 -0.3738  0.1815 -0.0675
 7510SOL    HW133992   2.692   0.469   3.572 -1.4057 -2.2398 -0.3372
 7510SOL    HW233993   2.748   0.524   3.452  1.1630  1.5332  1.4521
 7511SOL     OW33994   2.869   1.869   0.257 -0.3551 -0.5376  0.2378
 7511SOL    HW133995   2.889   1.908   0.172 -0.9595 -0.0006  0.3477
 7511SOL    HW233996   2.905   1.781   0.244  4.0800  1.2822  0.2372
 7512SOL     OW33997   3.483   3.870   5.854  0.0905 -0.2780 -0.3892
 7512SOL    HW133998   3.418   3.927   5.812  1.4748  0.4482 -1.5709
 7512SOL    HW233999   3.522   3.808   5.792  1.5444 -1.6831  1.9288
 7513SOL     OW34000   1.628   3.282   5.843 -0.0578 -0.4877 -0.1717
 7513SOL    HW134001   1.566   3.246   5.780  1.0147 -0.6313 -1.1475
 7513SOL    HW234002   1.691   3.333   5.791  0.8963 -1.6880 -0.1874
 7514SOL     OW34003   0.775   1.191   8.580  0.2113 -0.0531 -0.2562
 7514SOL    HW134004   0.812   1.240   8.654  0.6746  0.4841 -0.8391
 7514SOL    HW234005   0.851   1.144   8.547 -0.9735 -1.4270 -0.9981
 7515SOL     OW34006   4.670   3.081   5.181 -0.5839  0.0447  0.0387
 7515SOL    HW134007   4.696   3.155   5.126 -0.4532  0.9124  1.2543
 7515SOL    HW234008   0.033   3.051   5.213 -1.2709 -1.0441  0.8339
 7516SOL     OW34009   3.769   0.088   8.242 -0.0084  0.0172 -1.0325
 7516SOL    HW134010   3.773   0.183   8.232  1.1786  0.0991  0.1357
 7516SOL    HW234011   3.712   0.058   8.172  0.3210  0.2867 -1.4198
 7517SOL     OW34012   3.825   0.252   8.599  0.6618 -0.1063 -0.5742
 7517SOL    HW134013   3.759   0.285   8.538 -0.9856 -2.0250  0.1953
 7517SOL    HW234014   3.903   0.244   8.543  1.3120 -0.2180  0.3385
 7518SOL     OW34015   4.420   3.352   4.477  0.0347 -0.5394 -0.0853
 7518SOL    HW134016   4.398   3.444   4.491  0.0545 -0.5601  0.0918
 7518SOL    HW234017   4.373   3.306   4.547  0.5623 -2.2238 -0.8298
 7519SOL     OW34018   3.421   4.540   9.401 -0.0832 -0.2537  0.0900
 7519SOL    HW134019   3.342   4.523   9.350 -0.6905 -2.3434  1.7159
 7519SOL    HW234020   3.488   4.529   9.334  0.0904 -0.9830  0.3879
 7520SOL     OW34021   3.476   2.027  11.024  0.0049 -0.1831 -0.3151
 7520SOL    HW134022   3.565   2.042  11.055 -0.1797 -4.0580  2.0321
 7520SOL    HW234023   3.490   2.020  10.929  0.8924  1.0433 -0.2725
 7521SOL     OW34024   0.111   1.176   4.509 -0.3155  0.7919 -0.3750
 7521SOL    HW134025   0.081   1.257   4.468 -0.2619  1.5675  1.1370
 7521SOL    HW234026   0.126   1.204   4.599 -0.0630  2.1817 -0.8456
 7522SOL     OW34027   0.921   1.150   5.679  0.2917 -0.1747 -0.4173
 7522SOL    HW134028   0.961   1.094   5.746  0.5091  0.8590  0.3275
 7522SOL    HW234029   0.975   1.229   5.671  0.0879  0.1186  1.0470
 7523SOL     OW34030   3.360   4.630   5.212 -0.5846  0.0583 -0.6696
 7523SOL    HW134031   3.348   0.003   5.217  0.4014  0.1216  0.2647
 7523SOL    HW234032   3.420   4.630   5.137 -1.6015  1.7278 -1.4925
 7524SOL     OW34033   1.418   4.016   7.762 -0.2704 -0.0151 -0.3076
 7524SOL    HW134034   1.392   3.991   7.850 -1.1387 -0.7081 -0.7530
 7524SOL    HW234035   1.371   4.099   7.753  1.2619  1.1117  2.4167
 7525SOL     OW34036   0.609   1.049   4.507  0.0585 -0.3788 -0.2175
 7525SOL    HW134037   0.515   1.064   4.510 -0.7314 -4.8222 -1.8841
 7525SOL    HW234038   0.636   1.109   4.576 -0.8505  0.7527 -0.8413
 7526SOL     OW34039   2.259   2.880  11.214 -0.6689  0.6240  0.5672
 7526SOL    HW134040   2.164   2.868  11.210 -0.1202 -3.0821 -1.8134
 7526SOL    HW234041   2.257   2.971  11.244 -0.5819  0.1120  2.0885
 7527SOL     OW34042   1.091   0.427   4.856 -0.5424  0.8310 -0.3826
 7527SOL    HW134043   1.054   0.505   4.899  0.0447  0.1123  1.3981
 7527SOL    HW234044   1.130   0.478   4.784 -0.0831  1.0745  0.0423
 7528SOL     OW34045   0.621   2.327  14.463 -0.2332 -0.0314  0.1680
 7528SOL    HW134046   0.610   2.368  14.377  2.0529 -0.0642 -0.1459
 7528SOL    HW234047   0.653   2.240  14.438  2.0864 -0.2233  3.8188
 7529SOL     OW34048   0.186   3.433  10.118  0.0353 -0.1697 -0.1500
 7529SOL    HW134049   0.119   3.399  10.059  0.1383 -1.9414  0.7760
 7529SOL    HW234050   0.257   3.455  10.057  0.1109 -1.2136 -0.4465
 7530SOL     OW34051   2.417   4.716   2.926  0.0248  0.1631  0.7413
 7530SOL    HW134052   2.380   4.646   2.873  1.3146  1.5410 -1.9625
 7530SOL    HW234053   2.510   4.695   2.915 -0.2097  0.8683 -2.3441
 7531SOL     OW34054   2.333   2.925  10.925  0.1523 -0.0864  0.0500
 7531SOL    HW134055   2.285   2.865  10.868 -1.6495  0.0347  1.4363
 7531SOL    HW234056   2.325   3.011  10.884 -0.0282 -0.9371 -1.6824
 7532SOL     OW34057   3.387   2.070   8.079  0.2566  0.2979 -0.1331
 7532SOL    HW134058   3.306   2.040   8.120  0.7469 -0.3393  0.3497
 7532SOL    HW234059   3.423   1.986   8.053  3.8843  0.9332  2.8170
 7533SOL     OW34060   0.207   0.582   2.953 -0.1297 -0.4642  0.1478
 7533SOL    HW134061   0.126   0.607   2.909  0.3378 -0.7795 -0.8771
 7533SOL    HW234062   0.264   0.642   2.905 -0.7575 -0.6516 -0.8180
 7534SOL     OW34063   2.997   4.344   4.566  0.5308  0.7102 -0.2061
 7534SOL    HW134064   2.982   4.430   4.528  1.5400  1.3073  0.7301
 7534SOL    HW234065   2.908   4.310   4.576  0.0750  2.5442  1.9472
 7535SOL     OW34066   2.141   0.624   6.027  0.0583 -0.2490  0.2902
 7535SOL    HW134067   2.156   0.534   6.000 -1.4576 -0.1753 -0.7720
 7535SOL    HW234068   2.049   0.640   6.006  0.2689 -0.4225 -0.7551
 7536SOL     OW34069   1.140   3.549   2.949  0.0805  0.0132 -0.2128
 7536SOL    HW134070   1.193   3.625   2.975  1.8227 -1.2632 -0.1097
 7536SOL    HW234071   1.140   3.556   2.854  1.8806  0.9042 -0.1511
 7537SOL     OW34072   3.058   4.327   4.241 -0.0709  0.3757  0.0470
 7537SOL    HW134073   3.050   4.417   4.271  1.3710  0.3290  0.5670
 7537SOL    HW234074   3.081   4.348   4.150 -1.5684  1.6664 -0.0200
 7538SOL     OW34075   2.327   3.613   7.346  0.0247 -0.0428  0.1637
 7538SOL    HW134076   2.405   3.597   7.292 -1.3517 -3.1673 -0.9264
 7538SOL    HW234077   2.266   3.647   7.281  0.7045  1.7691  0.4717
 7539SOL     OW34078   2.613   2.962   0.634  0.1044 -0.6036  0.1100
 7539SOL    HW134079   2.647   2.889   0.582  1.3970  0.1447 -0.0972
 7539SOL    HW234080   2.655   3.040   0.600  1.0406 -1.0977  0.1230
 7540SOL     OW34081   4.101   1.114  10.135 -0.3856 -0.3979  0.6107
 7540SOL    HW134082   4.023   1.072  10.171 -1.3155  0.9893  0.2270
 7540SOL    HW234083   4.090   1.096  10.041 -1.7795  1.9431  0.3174
 7541SOL     OW34084   2.622   1.296   7.950 -0.4339 -0.0155 -0.1959
 7541SOL    HW134085   2.570   1.221   7.920 -0.4616 -0.1950  0.3094
 7541SOL    HW234086   2.566   1.364   7.986  1.9994  1.1957  1.2781
 7542SOL     OW34087   2.390   1.896   6.161  0.0391  0.4452  0.4746
 7542SOL    HW134088   2.401   1.964   6.228 -0.9492  2.3164 -1.2824
 7542SOL    HW234089   2.301   1.910   6.129  0.0566 -0.8819 -0.1490
 7543SOL     OW34090   0.460   4.493   6.728 -0.5912  0.1568 -0.0379
 7543SOL    HW134091   0.443   4.494   6.633 -2.8062 -0.7136  0.3591
 7543SOL    HW234092   0.457   4.399   6.744  2.3517  0.2266  0.7809
 7544SOL     OW34093   0.581   0.953   6.733  0.3482  0.2595  0.0615
 7544SOL    HW134094   0.598   0.863   6.703 -0.6046  0.0990  0.0249
 7544SOL    HW234095   0.500   0.950   6.783  1.0484  0.9290  1.2334
 7545SOL     OW34096   3.189   1.036  15.561 -0.0111  0.4348 -0.4321
 7545SOL    HW134097   3.176   0.943  15.545  1.6899  0.2162 -0.5141
 7545SOL    HW234098   3.155   1.084  15.485  1.9604  1.3312 -0.7626
 7546SOL     OW34099   1.764   4.430   9.372 -0.6984 -0.6781 -0.2300
 7546SOL    HW134100   1.789   4.337   9.366 -0.3922 -0.5337 -1.1890
 7546SOL    HW234101   1.669   4.434   9.384 -0.6222 -0.0486  0.1444
 7547SOL     OW34102   0.496   1.965   0.553  0.3425 -0.1707 -0.3005
 7547SOL    HW134103   0.408   1.954   0.589  0.1312 -2.6556 -1.6082
 7547SOL    HW234104   0.542   1.894   0.599  0.9785 -0.3221 -1.1860
 7548SOL     OW34105   0.680   1.745  13.244 -0.0635  0.6548  0.2617
 7548SOL    HW134106   0.690   1.657  13.279 -0.3537  0.1135 -1.0128
 7548SOL    HW234107   0.635   1.786  13.318 -2.1918  1.2029 -1.3334
 7549SOL     OW34108   0.302   0.250   9.211 -0.1612  0.0985 -0.2584
 7549SOL    HW134109   0.255   0.191   9.153 -0.3368 -0.2314  0.2166
 7549SOL    HW234110   0.223   0.288   9.250  0.4245  0.1265  0.9068
 7550SOL     OW34111   2.122   0.078   5.883 -0.3434  0.8465 -0.5104
 7550SOL    HW134112   2.196   0.060   5.941 -2.9302 -1.6090  2.1149
 7550SOL    HW234113   2.156   0.157   5.842 -2.8152  1.2994 -1.6638
 7551SOL     OW34114   1.271   2.512  16.714 -0.0297 -0.4418 -0.1852
 7551SOL    HW134115   1.329   2.574  16.758  0.1218 -0.5387 -0.2531
 7551SOL    HW234116   1.303   2.436  16.763  0.0683 -1.0670 -1.2262
 7552SOL     OW34117   1.667   3.255   1.603 -0.6078  0.1792 -0.2918
 7552SOL    HW134118   1.684   3.315   1.530  1.2725 -1.4575 -1.1808
 7552SOL    HW234119   1.576   3.274   1.625 -0.5086  0.7713 -0.3720
 7553SOL     OW34120   2.345   3.018   2.694 -0.1097 -0.3043  0.1571
 7553SOL    HW134121   2.352   2.924   2.677 -0.6474 -0.6595  1.8913
 7553SOL    HW234122   2.435   3.045   2.710  0.4947 -0.7623 -2.5949
 7554SOL     OW34123   4.285   1.478  15.557 -0.3894 -0.5010 -0.5908
 7554SOL    HW134124   4.249   1.525  15.633  0.0071 -1.9706  0.5068
 7554SOL    HW234125   4.320   1.541  15.494  4.4198 -1.2038  1.3475
 7555SOL     OW34126   0.388   3.131   5.899  0.1968 -0.0949 -0.4211
 7555SOL    HW134127   0.337   3.090   5.829 -0.3076  0.7538 -0.5467
 7555SOL    HW234128   0.360   3.074   5.971  1.6087  0.4253  0.5205
 7556SOL     OW34129   4.656   0.780  16.014  0.0239  0.1027  0.0017
 7556SOL    HW134130   4.683   0.758  16.103 -2.5077  0.5234  0.8746
 7556SOL    HW234131   4.567   0.813  16.024  1.0633  2.7682  0.5692
 7557SOL     OW34132   2.783   2.428   4.844  0.2237  0.3469 -0.1281
 7557SOL    HW134133   2.801   2.435   4.750 -1.7061 -0.7272 -0.5640
 7557SOL    HW234134   2.768   2.516   4.877 -0.3248  0.3662 -0.4360
 7558SOL     OW34135   3.580   3.701  17.591  0.3661  0.2882 -0.2611
 7558SOL    HW134136   3.583   3.608  17.572  0.4008  0.1998  0.1805
 7558SOL    HW234137   3.666   3.716  17.631 -0.2321 -1.6928  1.7533
 7559SOL     OW34138   1.656   1.091   7.756  0.5507  0.2677  0.1689
 7559SOL    HW134139   1.565   1.063   7.754  0.2478  0.9301  3.9925
 7559SOL    HW234140   1.643   1.186   7.754 -1.7978 -0.0708 -0.3696
 7560SOL     OW34141   3.745   2.787  14.591 -0.1345 -0.1063 -0.1686
 7560SOL    HW134142   3.776   2.824  14.508 -2.0762  1.4840 -0.1695
 7560SOL    HW234143   3.657   2.768  14.559 -1.0811 -0.0770  2.4779
 7561SOL     OW34144   3.013   2.342   9.452  0.3726 -0.5726 -0.1723
 7561SOL    HW134145   2.999   2.296   9.369 -1.4527 -1.9490  0.8776
 7561SOL    HW234146   3.031   2.271   9.514  0.0153  1.4334  2.2550
 7562SOL     OW34147   2.306   3.465   2.692  0.5815  0.5040  0.2721
 7562SOL    HW134148   2.341   3.499   2.610 -0.1308  1.4114  0.3361
 7562SOL    HW234149   2.277   3.379   2.662  0.5999  0.8007 -0.5776
 7563SOL     OW34150   1.533   4.462   8.745 -0.3222 -0.3060  0.1415
 7563SOL    HW134151   1.599   4.423   8.803 -0.1488 -1.8400 -1.1019
 7563SOL    HW234152   1.542   4.400   8.673 -1.3327  0.4658 -0.6507
 7564SOL     OW34153   1.850   2.460   0.162  0.4147 -0.2283 -0.6139
 7564SOL    HW134154   1.756   2.455   0.183  1.0575 -0.6940  2.1437
 7564SOL    HW234155   1.889   2.378   0.190 -2.2963 -1.5856 -0.7711
 7565SOL     OW34156   3.768   0.783   4.201 -0.3131 -0.2887 -0.2221
 7565SOL    HW134157   3.778   0.876   4.182 -0.8730 -0.1742  0.0395
 7565SOL    HW234158   3.710   0.758   4.129  0.4848  0.8239 -1.2548
 7566SOL     OW34159   3.029   2.325  17.247 -0.1873  0.1130  0.1042
 7566SOL    HW134160   3.059   2.326  17.338  2.3761  1.5932 -0.7528
 7566SOL    HW234161   2.961   2.390  17.228  0.2793  0.7199  0.5115
 7567SOL     OW34162   3.571   0.128   2.726  0.0445  0.4249 -0.8410
 7567SOL    HW134163   3.621   0.127   2.807  0.1636  3.9186 -0.8735
 7567SOL    HW234164   3.557   0.222   2.721  0.2606  0.5867  1.6782
 7568SOL     OW34165   1.065   1.876   6.641  0.2147  0.2484  0.4701
 7568SOL    HW134166   1.114   1.804   6.681  1.7448  0.1403 -1.6355
 7568SOL    HW234167   1.130   1.942   6.663 -1.4475  1.5072  1.6324
 7569SOL     OW34168   0.042   2.275  16.326  0.1219 -0.0720  0.0923
 7569SOL    HW134169   4.711   2.334  16.273 -1.6468 -0.8998  0.9242
 7569SOL    HW234170   0.128   2.312  16.310  0.6353 -2.4607 -2.6440
 7570SOL     OW34171   1.278   2.754   6.748  0.6705 -0.4210 -0.1443
 7570SOL    HW134172   1.205   2.817   6.754  0.0755 -1.0342 -0.8624
 7570SOL    HW234173   1.279   2.714   6.835  2.4866  0.9351  0.4446
 7571SOL     OW34174   4.028   2.679  16.807 -0.6103  0.0821 -0.3889
 7571SOL    HW134175   4.089   2.612  16.837 -1.7444 -0.5535  0.4746
 7571SOL    HW234176   3.942   2.650  16.836 -0.2089  2.0083  2.7529
 7572SOL     OW34177   1.079   1.790   0.904  0.1167 -0.0456 -0.1575
 7572SOL    HW134178   1.086   1.843   0.984 -0.0474  0.1487 -0.2724
 7572SOL    HW234179   1.149   1.727   0.922 -1.3866 -1.7473 -0.2504
 7573SOL     OW34180   3.392   3.580  11.895  0.0733  0.5825  0.1719
 7573SOL    HW134181   3.336   3.652  11.866 -1.1049  0.3717  1.8792
 7573SOL    HW234182   3.464   3.634  11.928  1.3646 -0.4563 -0.9575
 7574SOL     OW34183   0.012   3.668   3.747  0.1139  0.3931  0.2193
 7574SOL    HW134184   0.087   3.648   3.803  1.2498  0.4595 -1.2794
 7574SOL    HW234185   4.690   3.730   3.804  0.2540 -1.2958  2.1784
 7575SOL     OW34186   4.337   4.393   4.286  0.1456  0.0210 -0.0631
 7575SOL    HW134187   4.421   4.426   4.318 -0.2062  0.4132  0.4479
 7575SOL    HW234188   4.376   4.323   4.234 -0.8948 -1.0625  0.6274
 7576SOL     OW34189   1.647   1.162  12.697  0.1919 -0.0630 -0.5051
 7576SOL    HW134190   1.640   1.151  12.792 -1.5430 -1.0427 -0.7424
 7576SOL    HW234191   1.741   1.160  12.681  0.2929  0.5657  0.0084
 7577SOL     OW34192   0.013   1.812  15.882 -0.2551 -0.1048 -1.0176
 7577SOL    HW134193   4.690   1.730  15.862 -1.0736  0.0254  0.2884
 7577SOL    HW234194   4.674   1.863  15.935 -2.3142 -1.7701 -1.7738
 7578SOL     OW34195   1.993   3.412   9.594 -0.0070  0.7137 -0.0829
 7578SOL    HW134196   1.914   3.394   9.646  0.0344 -0.6814 -0.4876
 7578SOL    HW234197   2.001   3.334   9.539 -0.4236 -0.4703  1.5317
 7579SOL     OW34198   3.964   0.252   6.023  0.5420 -0.0093  0.1890
 7579SOL    HW134199   3.889   0.218   6.072 -0.1041  1.7786  0.4585
 7579SOL    HW234200   3.949   0.341   5.992 -0.0414  0.0028  0.5039
 7580SOL     OW34201   2.590   2.152   5.423  0.7925  0.2446  0.1095
 7580SOL    HW134202   2.527   2.081   5.432  1.0788  0.0837  0.7801
 7580SOL    HW234203   2.540   2.200   5.357 -0.0550 -0.2407  0.3976
 7581SOL     OW34204   1.203   4.288   4.284  0.2057 -0.7362 -0.1748
 7581SOL    HW134205   1.124   4.245   4.315  1.6261 -2.5948  0.8553
 7581SOL    HW234206   1.234   4.337   4.360 -2.4892  2.8315 -1.3838
 7582SOL     OW34207   3.533   2.726  13.561 -0.3171 -0.5488  0.0227
 7582SOL    HW134208   3.592   2.660  13.524  0.1955  0.3334 -0.7314
 7582SOL    HW234209   3.458   2.734  13.503 -0.9633  2.7299  1.3560
 7583SOL     OW34210   0.389   3.157  11.565 -0.5198  0.1810 -0.4773
 7583SOL    HW134211   0.411   3.068  11.539  2.0903  1.0092 -1.0120
 7583SOL    HW234212   0.458   3.199  11.514  0.2316 -0.9559 -0.4030
 7584SOL     OW34213   1.587   4.255   0.628  0.5128  0.1049  0.0653
 7584SOL    HW134214   1.499   4.224   0.604  0.3794  0.6737 -0.1882
 7584SOL    HW234215   1.612   4.169   0.661 -0.8551  0.6380  2.5394
 7585SOL     OW34216   0.580   2.385   8.029 -0.1492  0.5796  0.4543
 7585SOL    HW134217   0.595   2.319   8.097 -0.0339  2.7823  2.5675
 7585SOL    HW234218   0.614   2.462   8.074  0.9196  1.1466 -1.3291
 7586SOL     OW34219   3.629   1.921   3.085  0.9695  0.3917 -0.0833
 7586SOL    HW134220   3.698   1.970   3.041  0.5186  2.1009  1.1197
 7586SOL    HW234221   3.686   1.845   3.101 -1.2399 -1.0712  0.9282
 7587SOL     OW34222   1.261   4.604   9.711 -0.4007  0.1482 -0.4658
 7587SOL    HW134223   1.248   4.526   9.764 -0.1153  0.7883  0.5456
 7587SOL    HW234224   1.348   4.629   9.742 -0.7737 -1.2583  1.6831
 7588SOL     OW34225   1.634   1.797   6.050 -0.2902  0.1463 -0.1981
 7588SOL    HW134226   1.573   1.842   6.108 -1.6396  0.1431 -1.6237
 7588SOL    HW234227   1.607   1.706   6.064  1.0657 -0.4835 -1.6920
 7589SOL     OW34228   1.353   0.650   6.966  0.0999  0.2898  0.0689
 7589SOL    HW134229   1.286   0.582   6.968  1.0128 -0.6129 -0.3599
 7589SOL    HW234230   1.369   0.665   6.873 -0.9098 -0.2810 -0.2000
 7590SOL     OW34231   0.715   0.053   5.016 -0.2059 -0.4186 -0.1472
 7590SOL    HW134232   0.714   0.134   5.068  0.3981  0.0962 -0.9527
 7590SOL    HW234233   0.760   4.722   5.082  0.3608  0.9501  0.5916
 7591SOL     OW34234   2.974   4.698   4.884  0.0173 -1.0057  0.2388
 7591SOL    HW134235   3.052   0.031   4.875 -1.1514  0.4326 -1.1084
 7591SOL    HW234236   2.956   4.657   4.800 -2.5644 -1.7319  1.1698
 7592SOL     OW34237   3.093   1.039   5.610 -0.5796 -0.3871  0.2608
 7592SOL    HW134238   3.081   1.131   5.584  1.2737  0.4101  2.1573
 7592SOL    HW234239   3.005   1.008   5.590 -0.8829 -0.2578  1.4055
 7593SOL     OW34240   0.041   2.755   2.004 -0.7741 -0.5900 -0.5898
 7593SOL    HW134241   0.067   2.664   1.990 -2.7611 -1.4628  1.3912
 7593SOL    HW234242   0.046   2.792   1.916  0.5452 -1.5745 -0.9260
 7594SOL     OW34243   2.029   3.975   5.987 -0.0993  0.2021 -0.1548
 7594SOL    HW134244   2.042   4.033   6.061  4.8679  0.0737 -0.8916
 7594SOL    HW234245   2.119   3.973   5.955 -0.3491 -1.4890 -0.7402
 7595SOL     OW34246   3.941   0.762   2.846 -0.2876  0.0306  0.4590
 7595SOL    HW134247   3.902   0.849   2.848  0.6690  0.4997 -1.5677
 7595SOL    HW234248   4.033   0.785   2.832 -1.0744  1.6530 -2.0234
 7596SOL     OW34249   2.453   2.109   3.736  0.6849 -0.4667 -0.2721
 7596SOL    HW134250   2.389   2.120   3.666  2.3701 -1.1788 -1.9064
 7596SOL    HW234251   2.411   2.149   3.812  0.0567  0.0596 -0.8930
 7597SOL     OW34252   3.716   1.019   1.167 -0.0387  0.1032  0.0743
 7597SOL    HW134253   3.794   0.997   1.116  0.3938 -2.7569  1.9676
 7597SOL    HW234254   3.665   1.070   1.105  0.2948 -0.8473 -0.9854
 7598SOL     OW34255   2.726   3.160  10.949 -0.1938 -0.0805  0.1907
 7598SOL    HW134256   2.747   3.230  11.011  1.0857 -1.9031  1.8045
 7598SOL    HW234257   2.775   3.175  10.869  1.2061 -0.6899  0.9340
 7599SOL     OW34258   1.195   3.581   2.116  0.5717 -0.3067  0.0996
 7599SOL    HW134259   1.157   3.616   2.197  2.9154 -2.7338  2.2181
 7599SOL    HW234260   1.208   3.671   2.085 -1.1305 -1.0064 -2.7112
 7600SOL     OW34261   0.321   3.423   6.189 -0.9690  0.4783  1.3238
 7600SOL    HW134262   0.396   3.479   6.172 -2.0424  1.3979 -0.3594
 7600SOL    HW234263   0.290   3.399   6.102  4.5349  1.1554 -0.7893
 7601SOL     OW34264   0.553   2.900   4.177 -0.7734 -0.1489  0.3983
 7601SOL    HW134265   0.569   2.915   4.084 -2.5481  1.9289  0.4384
 7601SOL    HW234266   0.544   2.805   4.186 -0.1888 -0.2024  0.4768
 7602SOL     OW34267   3.943   4.495   6.885  0.1042 -0.3223 -0.7740
 7602SOL    HW134268   3.907   4.502   6.797 -0.6776 -0.8392 -0.4968
 7602SOL    HW234269   4.030   4.458   6.871  0.1336 -0.9853  1.0859
 7603SOL     OW34270   4.332   3.249   9.360 -0.6828  0.4645  0.0976
 7603SOL    HW134271   4.276   3.326   9.349 -1.5846 -0.5668 -2.6810
 7603SOL    HW234272   4.336   3.227   9.267 -1.9901 -0.8916  0.3683
 7604SOL     OW34273   2.145   1.625   4.100 -0.0607 -0.2999  0.0954
 7604SOL    HW134274   2.204   1.688   4.142 -0.7420  0.7930 -0.5936
 7604SOL    HW234275   2.108   1.587   4.180 -2.2791  0.3940 -0.6020
 7605SOL     OW34276   1.024   4.519  17.087  0.5120 -0.1408 -0.8993
 7605SOL    HW134277   1.068   4.576  17.024  0.4866 -0.0899 -0.8708
 7605SOL    HW234278   1.096   4.474  17.130 -1.3069 -0.0634  2.1664
 7606SOL     OW34279   0.268   4.649   8.037 -0.3753 -0.5957  0.3046
 7606SOL    HW134280   0.300   4.629   8.125 -0.2278 -3.1109 -0.3196
 7606SOL    HW234281   0.241   0.018   8.049  0.7922  0.5081 -5.5294
 7607SOL     OW34282   2.618   3.442  13.743 -0.0411 -0.0709  0.0225
 7607SOL    HW134283   2.634   3.489  13.825  1.5374  2.9203 -2.0143
 7607SOL    HW234284   2.570   3.505  13.688 -0.0563  1.3623  1.6726
 7608SOL     OW34285   0.002   1.602   7.862 -0.9644 -0.3930  0.1074
 7608SOL    HW134286   0.048   1.684   7.884 -1.5873 -0.5160  1.8434
 7608SOL    HW234287   0.069   1.540   7.891  0.0235  0.3901 -0.4896
 7609SOL     OW34288   4.704   0.155   4.332  0.1597 -0.0584  0.1131
 7609SOL    HW134289   0.015   0.108   4.409  1.7485  1.2058  0.1786
 7609SOL    HW234290   4.660   0.080   4.291  0.0775  0.4291 -0.6860
 7610SOL     OW34291   2.467   2.183   7.839 -0.3825  0.5330  0.3245
 7610SOL    HW134292   2.464   2.164   7.745 -0.5745 -0.5123  0.5458
 7610SOL    HW234293   2.563   2.182   7.844 -0.4092 -0.7416  0.6370
 7611SOL     OW34294   3.676   1.035  11.120  0.1416 -0.1454 -0.6069
 7611SOL    HW134295   3.606   1.073  11.173  0.7113  0.0640 -0.0085
 7611SOL    HW234296   3.728   1.105  11.082  0.7808 -0.0128  0.4865
 7612SOL     OW34297   1.521   0.372  15.028  0.3354 -0.1488  0.0690
 7612SOL    HW134298   1.597   0.426  15.004 -0.4544  1.3953  1.0059
 7612SOL    HW234299   1.454   0.426  14.986  0.7462 -1.2418 -2.0175
 7613SOL     OW34300   4.357   3.620   2.699  0.1855 -0.1750 -0.0406
 7613SOL    HW134301   4.275   3.663   2.677  0.8000  0.8050 -0.3855
 7613SOL    HW234302   4.326   3.530   2.709 -0.5287  0.2502  1.5233
 7614SOL     OW34303   4.023   3.126   6.958 -0.1043  0.0945 -0.1777
 7614SOL    HW134304   3.956   3.069   6.920  1.2766 -2.0567  0.5438
 7614SOL    HW234305   3.981   3.211   6.946 -1.9529 -0.3948  2.7501
 7615SOL     OW34306   2.437   2.180   4.020  0.4881  0.0107  0.2074
 7615SOL    HW134307   2.368   2.131   4.065 -0.3524  0.8224 -0.1934
 7615SOL    HW234308   2.511   2.164   4.078 -0.7335 -2.0888  1.1640
 7616SOL     OW34309   4.142   3.870   8.536  0.4430 -0.7095 -0.4246
 7616SOL    HW134310   4.116   3.883   8.628 -0.0414 -0.7865 -0.5506
 7616SOL    HW234311   4.200   3.794   8.535  1.3916  0.0275 -1.3549
 7617SOL     OW34312   1.343   3.884   3.297  0.0390  0.3215 -0.5021
 7617SOL    HW134313   1.365   3.831   3.374 -0.4629  1.8078  0.6671
 7617SOL    HW234314   1.414   3.948   3.307 -1.1475  1.7105 -1.0022
 7618SOL     OW34315   2.246   3.771   7.569 -0.3365  0.6339 -0.6152
 7618SOL    HW134316   2.278   3.728   7.490 -0.9574 -1.4862  0.2947
 7618SOL    HW234317   2.330   3.798   7.607  0.9438 -0.5319 -2.6254
 7619SOL     OW34318   4.157   2.767   3.846  0.3702  0.3797 -0.0352
 7619SOL    HW134319   4.122   2.682   3.819  0.9988  0.0522  0.1791
 7619SOL    HW234320   4.247   2.740   3.864  0.0914 -1.5116 -1.4528
 7620SOL     OW34321   3.410   2.191   7.288  0.0241  0.2659 -0.3313
 7620SOL    HW134322   3.341   2.148   7.238  1.1461 -0.7652 -1.0030
 7620SOL    HW234323   3.395   2.144   7.370 -1.4015  0.8174 -0.2964
 7621SOL     OW34324   1.857   3.423   4.039 -0.2679  0.2044  0.0803
 7621SOL    HW134325   1.942   3.429   3.995 -0.4267 -0.1966 -0.2889
 7621SOL    HW234326   1.883   3.435   4.130 -2.0606  1.1288  0.4667
 7622SOL     OW34327   2.464   3.406   4.250 -0.6416  0.3377  0.0935
 7622SOL    HW134328   2.416   3.482   4.216  0.7177  0.8406 -0.7000
 7622SOL    HW234329   2.451   3.348   4.175  0.4976 -0.3215  0.3960
 7623SOL     OW34330   3.974   0.635   0.595  0.4790  0.2712 -0.3476
 7623SOL    HW134331   3.948   0.726   0.579 -2.3701 -0.4096  0.3358
 7623SOL    HW234332   3.892   0.586   0.599  0.0351  1.1881  1.9754
 7624SOL     OW34333   0.950   2.185  17.307  0.3071  0.2340 -0.7639
 7624SOL    HW134334   0.980   2.276  17.317 -0.5029  0.1473  2.5277
 7624SOL    HW234335   0.923   2.172  17.398  2.5144  1.4229  0.0732
 7625SOL     OW34336   0.473   2.328   6.107 -0.2358  0.1866  0.5299
 7625SOL    HW134337   0.548   2.381   6.135  0.5519 -0.3139 -0.6385
 7625SOL    HW234338   0.516   2.256   6.061  1.8495  3.6850 -3.0665
 7626SOL     OW34339   4.076   4.436   5.421 -0.5121 -0.3079  0.6131
 7626SOL    HW134340   4.064   4.415   5.513  2.5203 -0.3244  1.0057
 7626SOL    HW234341   4.020   4.513   5.415  0.8558  0.6038 -0.4911
 7627SOL     OW34342   0.373   2.861  12.040 -0.4941 -0.5847  0.1473
 7627SOL    HW134343   0.454   2.815  12.061  0.9717  1.3275 -1.3813
 7627SOL    HW234344   0.323   2.818  12.110 -0.6080 -0.3715  0.1948
 7628SOL     OW34345   0.712   0.235   3.397 -0.0506  0.2663 -0.0536
 7628SOL    HW134346   0.679   0.323   3.413 -0.3258 -0.4971  3.5293
 7628SOL    HW234347   0.685   0.236   3.305  0.5216 -0.3782 -0.2271
 7629SOL     OW34348   4.490   0.494  16.166  0.2712  0.5320 -0.1754
 7629SOL    HW134349   4.493   0.488  16.071  1.6813  0.1636 -0.1098
 7629SOL    HW234350   4.397   0.477  16.180  0.7270 -2.5392 -0.9356
 7630SOL     OW34351   0.536   2.603  17.503 -0.5533 -0.5020  0.1539
 7630SOL    HW134352   0.599   2.591  17.432 -0.5365 -0.5238  0.1728
 7630SOL    HW234353   0.553   2.528  17.560  2.9193 -0.2414 -0.5308
 7631SOL     OW34354   1.196   3.197  11.912  0.5089 -0.0941 -0.0091
 7631SOL    HW134355   1.287   3.223  11.897  0.5915  0.3759  1.3037
 7631SOL    HW234356   1.147   3.248  11.848  0.9865  0.7373  0.2844
 7632SOL     OW34357   3.386   3.366   5.038  0.5091  0.7155 -0.2536
 7632SOL    HW134358   3.373   3.274   5.017 -1.4944  1.0136 -0.3048
 7632SOL    HW234359   3.443   3.361   5.115 -0.6542  1.1699  0.6413
 7633SOL     OW34360   2.777   1.748   1.936 -0.0389 -0.2773  0.2067
 7633SOL    HW134361   2.831   1.756   1.857  2.0028  1.4122  1.7983
 7633SOL    HW234362   2.694   1.790   1.914  0.8100 -0.5747 -3.6336
 7634SOL     OW34363   2.315   2.708  15.565 -0.8043 -0.2503  0.2845
 7634SOL    HW134364   2.344   2.679  15.478 -0.8431  0.6410 -0.0318
 7634SOL    HW234365   2.396   2.742  15.604  0.3190  0.0656 -2.2886
 7635SOL     OW34366   0.865   4.229   0.275 -0.5432 -0.3530  0.1612
 7635SOL    HW134367   0.787   4.241   0.329 -1.5071 -0.6499 -1.1470
 7635SOL    HW234368   0.840   4.143   0.241  1.9580 -0.2557 -1.9175
 7636SOL     OW34369   0.935   2.545  12.892  0.1116  0.2091 -0.9651
 7636SOL    HW134370   0.930   2.487  12.968  2.7299  0.9688 -0.2412
 7636SOL    HW234371   0.993   2.501  12.830  1.6006 -0.0313  0.6054
 7637SOL     OW34372   1.984   4.014   1.157  0.3323  0.1901  0.2558
 7637SOL    HW134373   1.946   4.065   1.228 -0.0699  0.1866  0.0453
 7637SOL    HW234374   2.006   4.085   1.097 -3.7042 -1.4381 -3.1489
 7638SOL     OW34375   3.378   3.205   3.834 -0.5127 -0.4016 -0.1573
 7638SOL    HW134376   3.453   3.156   3.798  0.7180  0.4431  1.2713
 7638SOL    HW234377   3.325   3.141   3.881 -2.8062  2.5465  1.1809
 7639SOL     OW34378   2.779   3.697   5.290  0.2941  0.6790 -0.1519
 7639SOL    HW134379   2.720   3.658   5.225 -0.1712  1.6292 -0.2941
 7639SOL    HW234380   2.795   3.618   5.342 -0.4401 -0.2104 -1.2967
 7640SOL     OW34381   3.504   3.692   4.558 -0.0001  0.6954 -0.0634
 7640SOL    HW134382   3.459   3.650   4.631 -0.5189 -0.3115 -0.9509
 7640SOL    HW234383   3.430   3.747   4.532 -1.1616 -1.3402 -1.1079
 7641SOL     OW34384   0.228   2.053   9.177  0.3163  0.4784  0.3414
 7641SOL    HW134385   0.232   2.116   9.249  0.3103 -0.5566  1.2374
 7641SOL    HW234386   0.157   1.995   9.205 -0.5179  0.7726 -1.1464
 7642SOL     OW34387   4.411   3.875   8.811 -0.5572 -0.4683  0.0130
 7642SOL    HW134388   4.357   3.859   8.888 -1.6006  2.3775 -0.1450
 7642SOL    HW234389   4.364   3.941   8.761 -1.6388  0.0467  1.7283
 7643SOL     OW34390   2.024   1.433   4.976 -0.0822  0.8831 -0.1432
 7643SOL    HW134391   2.087   1.451   4.906 -0.0894 -0.2644 -0.4372
 7643SOL    HW234392   2.082   1.435   5.053 -0.2612  0.0223  0.0136
 7644SOL     OW34393   2.842   0.621   3.206  0.6840  0.0381 -0.5678
 7644SOL    HW134394   2.811   0.700   3.162 -2.8633 -1.1732 -0.3183
 7644SOL    HW234395   2.931   0.639   3.234  0.4132  1.0075 -0.3581
 7645SOL     OW34396   1.220   2.990   7.265 -0.0444 -0.4874  0.2190
 7645SOL    HW134397   1.315   2.989   7.278 -0.0049 -1.1578 -0.1278
 7645SOL    HW234398   1.209   3.028   7.178 -1.2893 -0.3143  0.4444
 7646SOL     OW34399   0.722   2.738   4.745  0.0483 -0.1509 -0.2290
 7646SOL    HW134400   0.713   2.688   4.826 -0.2172 -0.8454 -0.6883
 7646SOL    HW234401   0.686   2.822   4.773 -0.7533 -0.9452  1.1375
 7647SOL     OW34402   0.179   0.542   9.021  0.5045  0.4339  0.1864
 7647SOL    HW134403   0.166   0.470   8.960 -0.0892  0.5556  0.1634
 7647SOL    HW234404   0.137   0.505   9.098  0.9223 -2.2019 -0.8796
 7648SOL     OW34405   2.719   1.446  10.622 -0.1711 -0.0753  0.3219
 7648SOL    HW134406   2.659   1.514  10.656 -0.4752  0.4059 -1.1638
 7648SOL    HW234407   2.785   1.502  10.582 -0.3504 -0.5514 -0.6260
 7649SOL     OW34408   4.512   0.516   9.284  0.6335  0.0263  0.0474
 7649SOL    HW134409   4.420   0.543   9.278  0.4022 -0.7924 -0.1104
 7649SOL    HW234410   4.532   0.543   9.374 -6.3066  0.0485  1.5622
 7650SOL     OW34411   0.628   1.931  17.154 -0.2234  0.2523 -0.0706
 7650SOL    HW134412   0.630   2.001  17.219 -1.5465  1.0149 -0.8557
 7650SOL    HW234413   0.719   1.940  17.125 -0.6372  0.3816 -1.3391
 7651SOL     OW34414   2.757   1.977   5.831 -0.2375  0.1318 -0.1619
 7651SOL    HW134415   2.725   1.909   5.889 -0.0860  0.3484  0.1730
 7651SOL    HW234416   2.684   2.039   5.825 -0.8573 -0.8154 -2.3501
 7652SOL     OW34417   4.505   1.525   6.009 -0.2017 -0.1282 -0.4030
 7652SOL    HW134418   4.463   1.443   6.034 -1.1463  0.4543 -0.0614
 7652SOL    HW234419   4.454   1.549   5.932  0.7214  1.1460 -0.6132
 7653SOL     OW34420   3.444   1.251  14.216 -0.1802 -0.1096  0.0609
 7653SOL    HW134421   3.537   1.264  14.236  0.4757 -0.8348 -2.4424
 7653SOL    HW234422   3.450   1.295  14.131  0.1588  1.9390  1.1278
 7654SOL     OW34423   0.980   0.949   1.053  0.0223 -0.2252 -0.0262
 7654SOL    HW134424   1.053   1.011   1.045  0.4052 -0.7038 -0.2578
 7654SOL    HW234425   1.000   0.887   0.983 -0.0733 -0.4340  0.1304
 7655SOL     OW34426   0.661   1.985   4.834 -0.3137  0.0034 -1.0215
 7655SOL    HW134427   0.747   1.989   4.876 -0.0907  2.9543 -1.7095
 7655SOL    HW234428   0.619   2.065   4.867 -0.0806  0.7669 -2.5820
 7656SOL     OW34429   3.537   3.143   6.813 -0.0618 -0.7836 -0.0766
 7656SOL    HW134430   3.504   3.231   6.797 -0.2663 -0.4002  2.4093
 7656SOL    HW234431   3.475   3.110   6.879 -2.0864 -0.1782 -1.6775
 7657SOL     OW34432   0.802   2.844   8.264  0.4709  0.4410  0.1262
 7657SOL    HW134433   0.761   2.833   8.178  0.8418 -1.9075  0.2650
 7657SOL    HW234434   0.727   2.823   8.320 -0.5261 -2.0101 -2.0869
 7658SOL     OW34435   2.009   0.722   8.922 -0.3366 -0.0173 -0.4577
 7658SOL    HW134436   2.006   0.694   8.831 -0.3641  1.6761 -0.9753
 7658SOL    HW234437   2.033   0.814   8.908  1.1276 -0.2005  0.8125
 7659SOL     OW34438   1.283   1.434   6.074 -0.1489  0.9797  0.0808
 7659SOL    HW134439   1.192   1.414   6.053 -0.8040  3.7494  0.2798
 7659SOL    HW234440   1.329   1.403   5.996  0.7559  1.8628  0.2576
 7660SOL     OW34441   3.483   4.139   0.125 -0.2467 -0.4419 -0.2480
 7660SOL    HW134442   3.473   4.077   0.053  1.0696 -1.0735  0.1246
 7660SOL    HW234443   3.412   4.112   0.182  0.8591 -1.5155  0.6216
 7661SOL     OW34444   3.936   0.384  12.914  0.4450  0.1040 -0.0170
 7661SOL    HW134445   3.970   0.359  13.000  2.0464  0.5260 -0.5268
 7661SOL    HW234446   3.951   0.309  12.857 -0.3817  0.6331 -0.9287
 7662SOL     OW34447   2.240   3.190  15.311  0.0252 -0.0826  0.2981
 7662SOL    HW134448   2.260   3.101  15.281  1.8363 -0.2072  1.9052
 7662SOL    HW234449   2.300   3.208  15.383 -1.6994 -1.8492  2.1860
 7663SOL     OW34450   2.078   2.792  15.565 -0.0192  0.4361  0.3813
 7663SOL    HW134451   2.168   2.763  15.554  0.1205  1.4493 -1.1341
 7663SOL    HW234452   2.061   2.789  15.659  0.3889  0.2624  0.4490
 7664SOL     OW34453   1.255   2.465   7.088  0.0652 -0.0731 -0.0566
 7664SOL    HW134454   1.173   2.474   7.137 -0.4047  0.1745 -0.8892
 7664SOL    HW234455   1.299   2.409   7.152 -1.2680 -1.3685 -0.2812
 7665SOL     OW34456   0.431   1.835   4.699  0.3892 -0.3137  0.5414
 7665SOL    HW134457   0.505   1.885   4.735  0.8234  0.1666 -1.0341
 7665SOL    HW234458   0.370   1.908   4.697  1.8049  0.8890  0.7078
 7666SOL     OW34459   1.233   2.094   6.740  0.5808 -0.2230  0.9622
 7666SOL    HW134460   1.192   2.125   6.820  1.6606 -0.3277  1.5536
 7666SOL    HW234461   1.301   2.159   6.722 -0.3979  0.4985 -0.1782
 7667SOL     OW34462   1.506   4.545  16.551  0.0765  0.2990 -0.2262
 7667SOL    HW134463   1.569   4.584  16.612 -0.2850  1.5989 -0.6957
 7667SOL    HW234464   1.553   4.556  16.468 -0.6821 -2.0839 -0.9661
 7668SOL     OW34465   0.828   3.498  17.430  0.2568  0.2292 -0.4354
 7668SOL    HW134466   0.900   3.554  17.401  0.4521  1.5406  2.6738
 7668SOL    HW234467   0.792   3.456  17.352  1.4569  1.0935 -1.4535
 7669SOL     OW34468   1.972   2.644   3.997 -0.0447  0.2110 -0.5756
 7669SOL    HW134469   1.888   2.686   4.017  0.6077  0.1835  2.1086
 7669SOL    HW234470   1.975   2.593   4.078 -1.0165  1.8559  0.4989
 7670SOL     OW34471   3.069   3.406   7.487 -0.2785 -0.1996  0.2310
 7670SOL    HW134472   3.030   3.475   7.542  2.2573  0.9957  0.5515
 7670SOL    HW234473   3.107   3.459   7.417 -2.3877  0.9964 -0.0251
 7671SOL     OW34474   3.442   1.482   3.262 -0.2044 -0.8354 -0.3686
 7671SOL    HW134475   3.362   1.505   3.215 -0.0755 -0.4227 -0.3892
 7671SOL    HW234476   3.455   1.387   3.269 -1.7115 -0.7786  3.1230
 7672SOL     OW34477   2.557   2.056   6.743 -0.1530 -0.8723  0.6736
 7672SOL    HW134478   2.642   2.030   6.706 -0.5052  3.6470 -3.2584
 7672SOL    HW234479   2.489   2.027   6.683  0.6637  1.2887 -1.2962
 7673SOL     OW34480   3.142   0.068   5.979  0.3870  0.1770  0.3420
 7673SOL    HW134481   3.210   0.062   5.912  0.6358  0.8711  0.5304
 7673SOL    HW234482   3.135   0.163   5.984 -1.2379  0.0390  0.8872
 7674SOL     OW34483   1.255   0.184   1.567 -0.2984 -0.0782 -0.4217
 7674SOL    HW134484   1.321   0.120   1.538  0.5090  0.1512  0.8901
 7674SOL    HW234485   1.218   0.145   1.646  2.6815 -0.8990  0.5850
 7675SOL     OW34486   2.079   4.693   8.009  0.2070  0.1900 -0.7810
 7675SOL    HW134487   2.043   4.698   8.098  0.2709  1.3658 -0.8251
 7675SOL    HW234488   2.044   4.608   7.982 -1.7004  0.9434 -0.7055
 7676SOL     OW34489   4.382   3.185   5.769 -0.1076  0.3362  0.3608
 7676SOL    HW134490   4.418   3.188   5.858 -0.5884  2.4249  0.4722
 7676SOL    HW234491   4.424   3.260   5.729 -1.2434  0.6564 -0.2523
 7677SOL     OW34492   0.109   0.656  15.527 -0.3386  0.3237 -0.7708
 7677SOL    HW134493   0.113   0.563  15.549  2.0417  0.4508 -0.7006
 7677SOL    HW234494   0.016   0.676  15.532 -1.1165 -4.0146  1.6094
 7678SOL     OW34495   0.708   0.179   9.939 -0.3997  0.2551  0.4122
 7678SOL    HW134496   0.659   0.242   9.992 -1.8237 -2.2348  2.0645
 7678SOL    HW234497   0.688   0.104   9.995  0.8619 -0.6738 -0.3833
 7679SOL     OW34498   1.089   2.041   5.792 -0.1402  0.0084  0.2627
 7679SOL    HW134499   1.154   2.110   5.809  0.6950 -0.8194  0.4361
 7679SOL    HW234500   1.150   1.977   5.756 -1.0584 -0.7547  0.0962
 7680SOL     OW34501   3.064   3.776   2.613 -0.3764 -0.2761  0.2640
 7680SOL    HW134502   3.156   3.795   2.630 -0.5638 -0.7205  1.7868
 7680SOL    HW234503   3.028   3.842   2.554 -2.5677  0.2943  2.2327
 7681SOL     OW34504   3.021   1.220   8.339  0.3753 -0.1177  0.1936
 7681SOL    HW134505   2.951   1.273   8.377 -0.4952 -0.6924 -0.6208
 7681SOL    HW234506   2.972   1.141   8.317  0.3166 -0.2135  0.6596
 7682SOL     OW34507   4.439   0.281  10.308  0.0859  0.2673 -0.1263
 7682SOL    HW134508   4.380   0.298  10.235 -1.3252  0.7764  1.1316
 7682SOL    HW234509   4.444   0.187  10.327 -0.9160  0.2649  0.1130
 7683SOL     OW34510   1.377   1.640  10.871  0.4381 -0.0302 -0.2261
 7683SOL    HW134511   1.458   1.655  10.919 -1.0917 -1.5085  2.7822
 7683SOL    HW234512   1.359   1.546  10.878  0.5333  0.0459  0.9963
 7684SOL     OW34513   0.100   1.277   2.995  0.7983 -0.5719 -0.2936
 7684SOL    HW134514   0.029   1.323   2.950 -0.4753 -1.4020  0.8612
 7684SOL    HW234515   0.162   1.264   2.924 -0.8357  0.2800 -1.8616
 7685SOL     OW34516   0.227   4.054   3.106  0.3472 -0.4977  0.2160
 7685SOL    HW134517   0.243   3.988   3.039 -1.5621 -0.8211  0.0733
 7685SOL    HW234518   0.219   4.008   3.190 -0.2275 -2.9741 -1.1982
 7686SOL     OW34519   4.253   4.594   5.741 -0.1363 -0.0860  0.4098
 7686SOL    HW134520   4.330   4.566   5.691  0.3886  2.7761 -0.3823
 7686SOL    HW234521   4.265   4.542   5.820 -0.0624  0.7136  0.9186
 7687SOL     OW34522   2.334   2.626  11.029 -0.4205 -0.0540  0.6232
 7687SOL    HW134523   2.333   2.592  10.939  0.3678  2.8587 -0.4926
 7687SOL    HW234524   2.360   2.547  11.077  0.9958  0.9710  1.5394
 7688SOL     OW34525   2.618   3.170   8.297 -0.2349  0.4642 -0.3453
 7688SOL    HW134526   2.697   3.186   8.350 -0.0112 -1.6013 -0.0413
 7688SOL    HW234527   2.554   3.143   8.363  0.0638 -1.5875 -0.9182
 7689SOL     OW34528   3.079   2.286   5.606 -0.3378  0.9556  0.1869
 7689SOL    HW134529   2.991   2.254   5.626 -0.8552  1.6022 -1.0717
 7689SOL    HW234530   3.132   2.209   5.585  2.1559  2.3629  1.4462
 7690SOL     OW34531   1.423   3.923   6.316 -0.1349  0.1393  0.4170
 7690SOL    HW134532   1.379   3.900   6.234 -0.7063  1.4133  0.3672
 7690SOL    HW234533   1.476   3.845   6.331 -0.8836 -0.9850 -2.6978
 7691SOL     OW34534   0.049   2.496  15.036 -0.4165  0.2589  0.2504
 7691SOL    HW134535   0.110   2.535  15.098 -0.0853 -2.2546  1.5333
 7691SOL    HW234536   4.695   2.550  15.053  0.4201  1.7183 -0.7005
 7692SOL     OW34537   3.935   1.606  15.880 -0.4407  0.1776  0.3286
 7692SOL    HW134538   3.901   1.557  15.806  1.7243  0.4692 -0.8433
 7692SOL    HW234539   3.938   1.537  15.946 -0.1302  1.0741  1.2490
 7693SOL     OW34540   1.370   0.754   7.905  0.4143 -0.2549  0.0609
 7693SOL    HW134541   1.381   0.835   7.857 -3.3940  1.6258  2.3298
 7693SOL    HW234542   1.299   0.707   7.862  0.5532  0.6865 -1.1752
 7694SOL     OW34543   1.946   4.406  12.283 -0.5006 -0.6768 -0.1592
 7694SOL    HW134544   1.882   4.401  12.212 -0.3533 -1.3360 -0.2477
 7694SOL    HW234545   1.926   4.489  12.325 -1.1057  0.3768 -2.5257
 7695SOL     OW34546   4.227   0.184   2.708 -0.3479 -0.4599  0.0251
 7695SOL    HW134547   4.256   0.218   2.624 -0.1499  1.1254  0.7344
 7695SOL    HW234548   4.306   0.184   2.762  0.8791  0.1558 -1.8005
 7696SOL     OW34549   0.294   3.150   8.304  0.5873  0.4015 -0.1157
 7696SOL    HW134550   0.235   3.160   8.229  0.4511 -0.4863 -0.1243
 7696SOL    HW234551   0.361   3.095   8.265  0.9958  0.4216  0.5532
 7697SOL     OW34552   0.403   2.422   7.260 -0.1230  0.4186 -0.2592
 7697SOL    HW134553   0.498   2.434   7.258 -0.2842  2.0019  1.1727
 7697SOL    HW234554   0.372   2.506   7.227  2.0662  2.5406  2.9959
 7698SOL     OW34555   3.736   0.205   9.990 -0.7338  0.0646 -0.4554
 7698SOL    HW134556   3.790   0.258   9.931 -1.0824 -2.1387 -2.7433
 7698SOL    HW234557   3.682   0.159   9.926  0.0349  0.0275 -1.0809
 7699SOL     OW34558   1.944   4.535   7.377  0.0520 -0.4242  0.5333
 7699SOL    HW134559   2.038   4.548   7.383  0.3429 -2.9150  1.4831
 7699SOL    HW234560   1.919   4.509   7.466 -0.4002  0.4304  0.6520
 7700SOL     OW34561   3.551   1.573   1.555  0.1934 -0.0458 -0.3602
 7700SOL    HW134562   3.476   1.521   1.525  1.0057 -0.4374 -1.7576
 7700SOL    HW234563   3.500   1.650   1.579  0.9134  0.5261 -0.6655
 7701SOL     OW34564   0.506   2.861   2.860 -0.2817 -0.2969 -0.9491
 7701SOL    HW134565   0.430   2.851   2.916  0.2965  0.6655  0.0031
 7701SOL    HW234566   0.479   2.914   2.785  1.1273  2.2646  0.3659
 7702SOL     OW34567   0.507   4.165   8.085  0.6596  0.4218  0.5351
 7702SOL    HW134568   0.583   4.174   8.028 -0.0251 -3.9487 -1.0418
 7702SOL    HW234569   0.537   4.091   8.137  1.2638  1.2851  1.4236
 7703SOL     OW34570   2.241   3.537   8.146  0.0488  0.2676 -0.6877
 7703SOL    HW134571   2.312   3.592   8.177  0.7960 -0.2342 -1.5349
 7703SOL    HW234572   2.277   3.449   8.153 -0.6882  0.0685  0.7125
 7704SOL     OW34573   0.999   2.130   1.288 -0.7832  0.1381  0.1102
 7704SOL    HW134574   0.963   2.197   1.346  1.1823  1.4817 -0.2150
 7704SOL    HW234575   1.006   2.055   1.347 -2.4657  0.7496  1.1039
 7705SOL     OW34576   0.516   0.617   9.006  0.0860 -0.0919  0.8756
 7705SOL    HW134577   0.475   0.548   8.953 -1.6565  0.6045  1.3239
 7705SOL    HW234578   0.588   0.573   9.051  0.0581 -1.8095 -0.7613
 7706SOL     OW34579   4.130   4.274   3.597  0.4426 -0.3144 -0.1235
 7706SOL    HW134580   4.153   4.260   3.505 -1.4007 -0.1739 -0.5888
 7706SOL    HW234581   4.084   4.357   3.586 -1.1754 -1.1858  0.0888
 7707SOL     OW34582   1.341   3.383   8.838  0.2156 -0.2558  0.2256
 7707SOL    HW134583   1.342   3.316   8.906  1.0348 -0.0010  0.4533
 7707SOL    HW234584   1.428   3.373   8.799  0.4222 -3.9551  1.6081
 7708SOL     OW34585   0.643   3.988   6.836  0.7540  0.1832 -0.9356
 7708SOL    HW134586   0.686   3.982   6.921  0.5340 -0.3506 -0.8642
 7708SOL    HW234587   0.696   4.053   6.789 -1.1806  2.5560  0.1032
 7709SOL     OW34588   2.850   3.060   1.266 -0.3473  0.2204  0.2955
 7709SOL    HW134589   2.850   3.124   1.337  1.1283  0.3606  0.1569
 7709SOL    HW234590   2.768   3.084   1.223  0.1726  1.0028 -0.2421
 7710SOL     OW34591   2.326   4.209   8.597 -0.3026  0.6336 -0.0656
 7710SOL    HW134592   2.251   4.258   8.630  0.0907 -0.9645  3.2136
 7710SOL    HW234593   2.310   4.120   8.629  2.0372  0.1372 -0.2440
 7711SOL     OW34594   2.775   2.087   8.568 -0.5482  0.3915 -0.2476
 7711SOL    HW134595   2.796   2.172   8.529  2.9470  0.2336  1.2669
 7711SOL    HW234596   2.680   2.087   8.577 -0.3299  0.4928  2.1523
 7712SOL     OW34597   1.717   3.907   0.997  0.1691  0.3926 -0.6335
 7712SOL    HW134598   1.635   3.913   1.047  0.8750 -1.1471  0.7089
 7712SOL    HW234599   1.787   3.893   1.060  0.3332  0.0317 -0.9014
 7713SOL     OW34600   3.461   2.200   8.789 -0.1805 -0.1504  0.0704
 7713SOL    HW134601   3.414   2.249   8.857 -1.8886  0.4498 -1.5454
 7713SOL    HW234602   3.424   2.111   8.784 -2.4428  0.6428  2.6608
 7714SOL     OW34603   0.423   0.474  16.717 -0.6392  0.5281 -0.0596
 7714SOL    HW134604   0.401   0.390  16.757 -0.0219  1.2951  1.8467
 7714SOL    HW234605   0.397   0.451  16.627 -0.9184  1.7404 -0.2889
 7715SOL     OW34606   3.299   1.658   7.680 -0.9142 -0.2109 -0.3789
 7715SOL    HW134607   3.347   1.584   7.718  1.0687  0.3450 -1.7633
 7715SOL    HW234608   3.254   1.614   7.608  0.0551  0.0190 -1.1354
 7716SOL     OW34609   1.737   1.088  11.137 -0.1583 -0.5000  0.4948
 7716SOL    HW134610   1.776   1.035  11.068  1.9114  2.1355 -0.3742
 7716SOL    HW234611   1.660   1.036  11.159 -0.4167  0.6238  2.3077
 7717SOL     OW34612   2.468   2.262   5.199  0.3009 -0.2504  0.4387
 7717SOL    HW134613   2.529   2.318   5.150  0.6387 -0.1827  0.9313
 7717SOL    HW234614   2.501   2.179   5.164  0.7944 -0.3846  1.2288
 7718SOL     OW34615   3.721   4.317   3.914  0.4634  0.0417 -0.2472
 7718SOL    HW134616   3.705   4.279   3.828 -1.2046 -3.1748  1.4819
 7718SOL    HW234617   3.768   4.394   3.881  1.1866 -0.8443 -1.2556
 7719SOL     OW34618   2.254   1.379  11.141  0.4013 -0.1982 -0.9464
 7719SOL    HW134619   2.222   1.337  11.220  0.6461  1.8727  0.2555
 7719SOL    HW234620   2.215   1.326  11.071 -2.6433  1.2882 -0.3641
 7720SOL     OW34621   1.607   4.109  12.548  0.0209 -0.0879  0.0308
 7720SOL    HW134622   1.515   4.097  12.529  0.0471  0.5672 -0.4936
 7720SOL    HW234623   1.610   4.149  12.635 -0.7927  0.7475 -0.3343
 7721SOL     OW34624   1.785   3.921  14.746 -0.6314 -0.0421 -0.0609
 7721SOL    HW134625   1.879   3.913  14.734 -0.3916  0.1399  1.7286
 7721SOL    HW234626   1.757   3.999  14.699 -1.4148 -1.0108 -1.2046
 7722SOL     OW34627   2.464   1.758  16.616  0.0129  0.2352 -0.3375
 7722SOL    HW134628   2.370   1.746  16.630 -0.0387  0.2742 -0.6561
 7722SOL    HW234629   2.506   1.684  16.572  0.2776 -0.1896  0.6332
 7723SOL     OW34630   1.121   3.130   8.382  0.0018  0.3336  0.1759
 7723SOL    HW134631   1.061   3.082   8.439 -0.4414  1.1664  0.4148
 7723SOL    HW234632   1.162   3.197   8.437  1.3370 -0.1409 -0.2390
 7724SOL     OW34633   2.596   1.288   9.354  0.3777 -0.0762 -0.0015
 7724SOL    HW134634   2.619   1.345   9.428 -2.6411  0.7561  0.2862
 7724SOL    HW234635   2.676   1.239   9.337 -0.1273 -0.9144  0.0112
 7725SOL     OW34636   2.361   1.850   8.670 -0.1316 -0.0958  0.0353
 7725SOL    HW134637   2.270   1.837   8.645  0.0336 -2.0011  0.4169
 7725SOL    HW234638   2.362   1.803   8.753  0.2708 -2.8901 -1.5518
 7726SOL     OW34639   0.152   1.254   5.690  0.1073  0.7898 -0.1023
 7726SOL    HW134640   0.079   1.314   5.672 -0.6340  0.1889  0.8630
 7726SOL    HW234641   0.162   1.241   5.784 -2.1994 -1.7399 -0.1914
 7727SOL     OW34642   3.610   1.657   8.034  0.3799 -0.0649  0.1145
 7727SOL    HW134643   3.598   1.562   8.031  1.6055 -0.2200  0.1822
 7727SOL    HW234644   3.705   1.661   8.041  0.3694  0.1504  0.1476
 7728SOL     OW34645   3.323   0.946  17.234 -0.3139  0.4111  0.2987
 7728SOL    HW134646   3.297   0.955  17.326 -2.5869 -0.0082 -0.2983
 7728SOL    HW234647   3.308   0.854  17.212  0.2294  0.5378 -0.6088
 7729SOL     OW34648   1.337   0.903   3.056 -0.0914  0.4576 -0.5761
 7729SOL    HW134649   1.319   0.991   3.022  1.2668  1.5862  1.6418
 7729SOL    HW234650   1.253   0.856   3.055  1.1848 -1.8022  0.4545
 7730SOL     OW34651   0.698   0.968   5.975  0.6658  0.1766  0.0419
 7730SOL    HW134652   0.757   0.920   6.033  0.6031 -1.2991 -1.1007
 7730SOL    HW234653   0.685   1.055   6.013 -1.5163  1.5712 -3.8598
 7731SOL     OW34654   3.961   2.511   4.332 -0.2135  0.0331 -0.1974
 7731SOL    HW134655   3.891   2.560   4.287 -1.0082  0.4557  1.5042
 7731SOL    HW234656   4.042   2.544   4.294 -0.1764 -2.2096 -2.0397
 7732SOL     OW34657   0.859   0.844   6.169 -0.9769  0.1310  0.6387
 7732SOL    HW134658   0.881   0.844   6.262 -0.3023  0.0165  0.4780
 7732SOL    HW234659   0.865   0.752   6.146  0.0382  0.6549 -1.1895
 7733SOL     OW34660   3.433   0.368   7.783 -0.1269 -0.5079 -0.1206
 7733SOL    HW134661   3.511   0.368   7.727 -0.8293 -0.9027 -1.0844
 7733SOL    HW234662   3.371   0.409   7.723  0.9743  1.5825  0.1566
 7734SOL     OW34663   0.795   1.628  10.587 -0.0498 -0.8253  0.1516
 7734SOL    HW134664   0.875   1.669  10.620 -0.7760  1.9485 -1.4935
 7734SOL    HW234665   0.804   1.650  10.494 -2.1080  0.5867  0.2892
 7735SOL     OW34666   2.530   2.769  16.846 -0.0832 -0.3764  0.1950
 7735SOL    HW134667   2.543   2.854  16.806  0.3401 -1.5104 -2.0851
 7735SOL    HW234668   2.500   2.794  16.933 -0.6205 -2.4402  0.6221
 7736SOL     OW34669   3.407   1.042  10.055  0.2292 -0.7023  0.4869
 7736SOL    HW134670   3.471   1.110  10.079 -1.1987  0.5707  0.7058
 7736SOL    HW234671   3.350   1.095  10.000 -0.7740 -1.0453  1.1979
 7737SOL     OW34672   4.620   2.233   5.896 -0.0531 -0.8573  0.2561
 7737SOL    HW134673   4.543   2.178   5.881 -0.6668  0.2839 -0.7326
 7737SOL    HW234674   4.602   2.304   5.835  1.0562 -2.0977 -1.5278
 7738SOL     OW34675   3.212   3.742   5.680  0.6834 -0.3792 -0.6631
 7738SOL    HW134676   3.248   3.667   5.632 -0.8083 -0.0073 -2.3851
 7738SOL    HW234677   3.235   3.722   5.770 -0.7313 -0.8199 -0.4040
 7739SOL     OW34678   0.641   2.690  12.852  0.4303  0.6129 -0.3904
 7739SOL    HW134679   0.686   2.756  12.904  0.1544  2.6661 -2.7564
 7739SOL    HW234680   0.636   2.612  12.909 -0.6832 -0.0565 -1.4030
 7740SOL     OW34681   0.017   2.844   7.656  0.2318 -0.3100  0.3275
 7740SOL    HW134682   4.720   2.928   7.699 -1.8553 -0.1019 -1.0198
 7740SOL    HW234683   0.049   2.869   7.569  1.6379  1.3559  1.3209
 7741SOL     OW34684   2.804   2.447  17.133 -0.1537  0.1900  0.0512
 7741SOL    HW134685   2.725   2.500  17.136 -1.0633 -1.0563 -1.6056
 7741SOL    HW234686   2.827   2.447  17.040 -2.2094 -2.9361 -0.4583
 7742SOL     OW34687   1.038   4.496  13.020 -0.0603  0.3979 -0.0409
 7742SOL    HW134688   0.954   4.468  13.055  0.2983  2.2389  2.2932
 7742SOL    HW234689   1.078   4.534  13.099  0.1037 -0.6436  0.3787
 7743SOL     OW34690   4.655   4.007   4.059 -0.1251  0.5124 -0.3584
 7743SOL    HW134691   4.576   4.053   4.086 -0.2092  1.5933 -2.4252
 7743SOL    HW234692   4.621   3.951   3.989  0.9136  0.9672 -1.2367
 7744SOL     OW34693   1.401   1.516   1.224 -0.6053 -0.5732  0.1259
 7744SOL    HW134694   1.477   1.512   1.167 -0.9530  0.6663 -0.4258
 7744SOL    HW234695   1.406   1.429   1.262 -1.8182 -0.5851  0.2616
 7745SOL     OW34696   3.948   1.099  17.343 -0.1572 -0.3089 -0.4954
 7745SOL    HW134697   3.960   1.021  17.398  0.7846  0.7477  0.8042
 7745SOL    HW234698   3.937   1.054  17.259 -0.2341 -1.0866 -0.0692
 7746SOL     OW34699   4.330   2.841  10.346  0.4343  0.4318  0.3344
 7746SOL    HW134700   4.351   2.810  10.434  0.1094 -0.1110  0.2160
 7746SOL    HW234701   4.380   2.783  10.289  0.9067 -0.2461  1.4494
 7747SOL     OW34702   1.098   1.534  10.927  0.0505 -0.1952 -0.2172
 7747SOL    HW134703   1.157   1.460  10.913 -0.5678 -0.7979  0.4235
 7747SOL    HW234704   1.092   1.544  11.022  1.9378 -0.5648 -0.0534
 7748SOL     OW34705   0.207   2.289  17.031  0.0159  0.3046  0.1391
 7748SOL    HW134706   0.267   2.295  17.106 -0.2484  1.2647  0.2711
 7748SOL    HW234707   0.253   2.306  16.949  0.1856  0.0843  0.1863
 7749SOL     OW34708   0.966   1.067   2.077  0.2473 -0.6748  0.0035
 7749SOL    HW134709   1.008   1.078   2.163 -2.4310  0.6258  1.1340
 7749SOL    HW234710   1.029   1.097   2.011  1.7468  1.3901  2.3931
 7750SOL     OW34711   0.605   3.396   6.578 -0.2749 -0.6025  0.1458
 7750SOL    HW134712   0.513   3.377   6.558  0.1350 -2.9680  0.5683
 7750SOL    HW234713   0.648   3.312   6.563 -2.5694 -1.1646 -3.1764
 7751SOL     OW34714   1.580   2.512   7.475 -0.0256  0.1732 -0.8288
 7751SOL    HW134715   1.575   2.598   7.434 -0.1318 -0.5812 -2.4166
 7751SOL    HW234716   1.674   2.506   7.493 -0.6294  0.1220  2.3585
 7752SOL     OW34717   1.897   0.713   5.041 -0.3848 -0.4109 -0.3465
 7752SOL    HW134718   1.916   0.795   5.086  1.8349  1.1585 -4.0934
 7752SOL    HW234719   1.981   0.671   5.027  1.2004  2.0443  1.8445
 7753SOL     OW34720   2.537   4.175   3.446 -0.1221  0.2880  0.0038
 7753SOL    HW134721   2.526   4.252   3.390 -0.9099  0.5505  0.5193
 7753SOL    HW234722   2.574   4.213   3.526 -2.3554 -0.2947  1.3245
 7754SOL     OW34723   0.943   1.092   8.186  0.1466  0.2385  0.4172
 7754SOL    HW134724   1.002   1.167   8.177  0.6644 -0.4167 -1.8397
 7754SOL    HW234725   0.998   1.027   8.141 -0.1316 -1.3423  2.3898
 7755SOL     OW34726   0.104   2.941   5.944  0.5467 -0.3578 -0.3346
 7755SOL    HW134727   0.074   3.032   5.945 -0.4430 -0.7051  1.6482
 7755SOL    HW234728   0.166   2.952   6.017 -0.8233 -0.9550  0.9344
 7756SOL     OW34729   3.082   1.317   5.581  0.2537 -0.4355 -0.2274
 7756SOL    HW134730   3.146   1.320   5.510  1.2714 -0.0804  0.6996
 7756SOL    HW234731   3.007   1.363   5.543  0.5549  0.7388  0.5851
 7757SOL     OW34732   4.335   3.146   3.494 -0.0161 -0.2509 -0.3017
 7757SOL    HW134733   4.256   3.192   3.524  0.8684  0.8738  0.3003
 7757SOL    HW234734   4.322   3.059   3.533  1.1531  0.0304  0.7319
 7758SOL     OW34735   4.700   1.987   3.709  0.1662  0.4302  0.4672
 7758SOL    HW134736   0.051   1.950   3.759 -0.8361 -1.5500  0.4457
 7758SOL    HW234737   4.699   1.946   3.623 -3.1667  0.6180  0.4113
 7759SOL     OW34738   4.609   4.439   9.873  0.5936 -0.1006 -0.2134
 7759SOL    HW134739   4.665   4.363   9.853  0.4347 -0.2912  0.0550
 7759SOL    HW234740   4.638   4.476   9.956 -2.0630 -0.7575  1.0048
 7760SOL     OW34741   3.568   1.632   0.106 -0.9318  0.6418  0.1521
 7760SOL    HW134742   3.626   1.560   0.081 -1.2682  0.9633 -1.5452
 7760SOL    HW234743   3.628   1.701   0.080 -1.4562 -0.1317 -3.0421
 7761SOL     OW34744   0.084   1.715   0.523 -0.0454 -0.5252  0.1922
 7761SOL    HW134745   0.003   1.664   0.530  1.1509 -2.3963  0.4470
 7761SOL    HW234746   0.130   1.678   0.447 -2.0295 -2.1085 -0.2452
 7762SOL     OW34747   4.347   4.017  11.242 -0.5984 -0.4804 -0.0541
 7762SOL    HW134748   4.355   4.051  11.331  0.7463 -1.6629  0.2855
 7762SOL    HW234749   4.252   4.022  11.254 -0.4840 -2.6943  1.8660
 7763SOL     OW34750   0.369   4.206   2.151 -0.6552  0.5047  0.2061
 7763SOL    HW134751   0.400   4.223   2.062 -1.5223  1.9208  0.1910
 7763SOL    HW234752   0.280   4.182   2.125 -0.0848 -0.6490 -0.7152
 7764SOL     OW34753   2.982   3.168   4.999  0.0144  0.2444  0.0118
 7764SOL    HW134754   2.912   3.191   4.938  0.2236 -2.2638 -1.1725
 7764SOL    HW234755   3.014   3.254   5.027  1.1256 -1.1599  3.0179
 7765SOL     OW34756   3.958   1.318   6.073 -0.3401 -0.4051 -0.2992
 7765SOL    HW134757   4.043   1.318   6.029  0.7085  0.2665  1.6979
 7765SOL    HW234758   3.977   1.388   6.137  2.3068 -0.8277 -0.6157
 7766SOL     OW34759   4.195   3.943   2.570  0.0559 -0.0104  0.0962
 7766SOL    HW134760   4.156   3.859   2.596 -0.0131 -0.3520 -1.1093
 7766SOL    HW234761   4.250   3.910   2.499 -0.7276 -1.0446 -0.0476
 7767SOL     OW34762   0.283   4.253   9.596 -0.1944 -0.1124  0.6681
 7767SOL    HW134763   0.363   4.306   9.592 -0.1129 -0.1895  1.2321
 7767SOL    HW234764   0.318   4.167   9.572 -1.8358 -0.9340  1.1680
 7768SOL     OW34765   1.275   0.925   7.262 -0.5482 -0.0035 -0.4716
 7768SOL    HW134766   1.213   0.987   7.223 -1.0358 -1.4197 -1.9718
 7768SOL    HW234767   1.221   0.884   7.329  0.7795 -1.6378 -0.3841
 7769SOL     OW34768   1.153   0.636   0.630  0.1528 -0.3338 -0.4499
 7769SOL    HW134769   1.244   0.613   0.611  0.1829 -0.0291 -0.6690
 7769SOL    HW234770   1.121   0.582   0.558 -2.0808 -0.9644  1.0027
 7770SOL     OW34771   2.276   3.439  11.297 -0.4492  0.8307  0.0083
 7770SOL    HW134772   2.191   3.427  11.339  0.5601  2.1010  2.4790
 7770SOL    HW234773   2.250   3.418  11.208 -0.7345  0.8514  0.0878
 7771SOL     OW34774   3.437   3.754   5.218  0.3718  0.2358  0.0991
 7771SOL    HW134775   3.382   3.676   5.220 -0.8752  1.1935  2.4512
 7771SOL    HW234776   3.383   3.818   5.266 -1.0162  0.7545 -2.1631
 7772SOL     OW34777   0.399   3.460   4.447 -0.4089  0.0278 -0.7161
 7772SOL    HW134778   0.388   3.428   4.357 -3.1532 -1.3238  0.1135
 7772SOL    HW234779   0.361   3.547   4.444  1.8505  1.1007  1.7837
 7773SOL     OW34780   4.655   0.545   3.871 -0.6069 -0.2093  0.0053
 7773SOL    HW134781   4.659   0.595   3.952 -1.1909 -0.3145  0.0986
 7773SOL    HW234782   4.560   0.543   3.859 -0.5356  0.0313 -0.6032
 7774SOL     OW34783   4.559   0.441  12.500 -0.0562  0.1236  0.3155
 7774SOL    HW134784   4.626   0.499  12.535 -0.0409 -0.1292  0.7131
 7774SOL    HW234785   4.607   0.364  12.530 -1.3572 -1.3770 -1.4575
 7775SOL     OW34786   3.673   0.852   8.386 -0.2220 -0.1003 -0.5607
 7775SOL    HW134787   3.644   0.761   8.380  2.1032 -0.9571  1.2067
 7775SOL    HW234788   3.586   0.890   8.385 -0.6344 -0.9321  1.6965
 7776SOL     OW34789   2.333   1.815  10.402  0.4836 -0.0506  0.1320
 7776SOL    HW134790   2.318   1.801  10.309  2.0045 -1.3041  0.0808
 7776SOL    HW234791   2.386   1.894  10.397  0.1980  0.1453  0.1629
 7777SOL     OW34792   1.621   0.683  11.432 -0.3452 -0.1999 -0.2172
 7777SOL    HW134793   1.583   0.652  11.350  1.2583 -4.1887  0.5609
 7777SOL    HW234794   1.574   0.623  11.490  0.4566 -2.8898 -2.3610
 7778SOL     OW34795   0.104   2.577   4.056 -0.1976 -0.0511 -0.2264
 7778SOL    HW134796   0.075   2.638   3.988  1.6099 -1.6734 -2.4450
 7778SOL    HW234797   0.150   2.634   4.116  2.8716 -1.4153 -1.2865
 7779SOL     OW34798   3.176   1.589   3.028 -0.1048 -0.0942 -0.3812
 7779SOL    HW134799   3.117   1.663   3.012 -1.0997 -0.3666  1.9769
 7779SOL    HW234800   3.137   1.547   3.105 -0.9656 -0.0981 -0.8121
 7780SOL     OW34801   1.097   2.527   2.733 -0.0488  0.4856 -0.6200
 7780SOL    HW134802   1.060   2.510   2.647 -0.6562 -1.1468 -0.0251
 7780SOL    HW234803   1.023   2.572   2.776  1.4391  1.1816  1.2238
 7781SOL     OW34804   0.890   0.521   4.556  0.2331 -0.0662 -0.2857
 7781SOL    HW134805   0.814   0.545   4.608  0.4708  0.5287 -0.2142
 7781SOL    HW234806   0.963   0.565   4.600 -1.0879  3.0694 -1.2078
 7782SOL     OW34807   1.519   1.594   1.656 -0.4029 -0.0243  0.1628
 7782SOL    HW134808   1.595   1.651   1.665 -0.2444  0.1279 -2.0470
 7782SOL    HW234809   1.447   1.646   1.692 -1.6712 -0.9338 -1.0781
 7783SOL     OW34810   0.732   2.083   3.294  0.2007  0.2933  0.5809
 7783SOL    HW134811   0.734   2.034   3.377 -1.6739 -0.6861  0.0590
 7783SOL    HW234812   0.682   2.017   3.246  0.2011  0.2448  0.6457
 7784SOL     OW34813   0.101   2.288  12.381 -0.4383 -0.4471  0.6877
 7784SOL    HW134814   0.187   2.283  12.422  0.0129  0.3941 -0.1647
 7784SOL    HW234815   0.078   2.378  12.406 -1.0097 -0.8622  1.6743
 7785SOL     OW34816   2.096   0.929  11.316  0.0489 -0.1723  0.2858
 7785SOL    HW134817   2.090   0.834  11.313  1.1810 -0.2201 -0.7721
 7785SOL    HW234818   2.190   0.946  11.303 -0.3719  0.9032 -1.4842
 7786SOL     OW34819   2.772   0.737   6.762  0.2557  0.2494  0.2812
 7786SOL    HW134820   2.815   0.785   6.833  0.3522 -1.0519  1.1033
 7786SOL    HW234821   2.823   0.739   6.681 -0.0024 -0.4755  0.1047
 7787SOL     OW34822   2.081   0.955   6.950 -0.4708 -0.1538 -0.2188
 7787SOL    HW134823   2.038   0.870   6.944  3.4283 -2.0664 -0.4946
 7787SOL    HW234824   2.082   0.983   6.858 -1.1627  2.3742  0.5311
 7788SOL     OW34825   3.795   4.577   9.508  0.2109  0.4783  0.0811
 7788SOL    HW134826   3.872   4.567   9.564 -1.1802  0.0283  1.8838
 7788SOL    HW234827   3.818   4.529   9.428  1.1494  1.6354 -0.3488
 7789SOL     OW34828   1.160   4.074   8.366 -0.1050  0.4268  0.4502
 7789SOL    HW134829   1.078   4.024   8.373  1.3535 -1.9725  0.3300
 7789SOL    HW234830   1.219   4.005   8.395 -1.0350  0.0627  1.4506
 7790SOL     OW34831   0.035   1.425   6.186 -0.5647  0.2143  0.1332
 7790SOL    HW134832   4.675   1.473   6.187  0.5892  2.1446  1.0889
 7790SOL    HW234833   0.040   1.362   6.259  1.2736 -2.0895 -1.9890
 7791SOL     OW34834   3.883   3.766   9.645  0.2346 -0.0631  0.3404
 7791SOL    HW134835   3.836   3.829   9.590  0.8427 -0.1564 -0.2937
 7791SOL    HW234836   3.821   3.733   9.709 -2.1461 -0.7545 -2.3572
 7792SOL     OW34837   2.517   2.327   6.728  0.6335 -0.1097 -0.1776
 7792SOL    HW134838   2.507   2.233   6.741 -1.4221  0.1392  0.1156
 7792SOL    HW234839   2.582   2.321   6.658  0.5842  1.1842 -0.3335
 7793SOL     OW34840   1.666   3.908   7.857  0.7696  0.3398 -0.3872
 7793SOL    HW134841   1.578   3.934   7.830  1.2421  0.5811 -1.7088
 7793SOL    HW234842   1.714   3.921   7.775 -0.6741  0.8986 -1.1343
 7794SOL     OW34843   3.978   3.478  10.697  0.1882 -0.4866 -0.4254
 7794SOL    HW134844   3.937   3.536  10.761  0.7234  0.5274 -1.0157
 7794SOL    HW234845   3.920   3.487  10.622 -0.1434 -2.8562 -0.4759
 7795SOL     OW34846   3.838   4.311   2.599  0.3172  0.4248  0.2558
 7795SOL    HW134847   3.789   4.299   2.518 -1.4320  3.7689  0.8044
 7795SOL    HW234848   3.869   4.401   2.590 -0.1740  0.6359  0.6246
 7796SOL     OW34849   3.963   2.965  10.063  0.3218  0.2311 -0.8166
 7796SOL    HW134850   4.032   2.972   9.998  2.2144 -2.3319  0.9447
 7796SOL    HW234851   4.015   2.968  10.143 -1.4106  0.6877  0.3057
 7797SOL     OW34852   0.331   1.844   1.963  0.0627  0.0155 -0.4662
 7797SOL    HW134853   0.386   1.885   2.030 -1.9931  1.9312  0.0589
 7797SOL    HW234854   0.245   1.882   1.981 -0.8815 -0.5934 -3.6702
 7798SOL     OW34855   1.333   0.657   6.459  0.1056  0.1123 -0.2842
 7798SOL    HW134856   1.342   0.707   6.540 -2.2757 -0.2503  0.2150
 7798SOL    HW234857   1.412   0.700   6.425  1.3063 -1.4469  0.5619
 7799SOL     OW34858   2.484   4.189   4.047  0.1171 -0.0343  0.3197
 7799SOL    HW134859   2.486   4.231   4.133  0.0192 -0.5495  0.5742
 7799SOL    HW234860   2.394   4.161   4.030  0.2943 -1.3698  1.5850
 7800SOL     OW34861   2.089   1.870   3.558  0.1622 -0.3999 -0.1388
 7800SOL    HW134862   2.107   1.815   3.482  0.3939 -0.2618 -0.1844
 7800SOL    HW234863   2.159   1.825   3.605  0.8087  2.5331  1.7174
 7801SOL     OW34864   4.576   2.385   7.331  0.3218 -0.8100  0.2860
 7801SOL    HW134865   4.601   2.434   7.252  2.9496 -0.9610  1.0060
 7801SOL    HW234866   4.580   2.295   7.297 -0.9605 -0.7830  0.0767
 7802SOL     OW34867   2.253   2.519  13.925 -0.1442  0.3455  0.4155
 7802SOL    HW134868   2.252   2.544  14.017  3.3412 -0.5284  0.6718
 7802SOL    HW234869   2.281   2.427  13.923 -2.9737 -0.4862 -1.0329
 7803SOL     OW34870   4.261   1.063   1.538 -0.4414 -0.6652  0.0206
 7803SOL    HW134871   4.290   1.152   1.558  1.3001 -0.6785 -2.4281
 7803SOL    HW234872   4.330   1.047   1.474  1.0059 -0.3109  1.4677
 7804SOL     OW34873   2.605   0.857   8.450  0.0164  0.0633 -0.1300
 7804SOL    HW134874   2.511   0.840   8.463 -0.6483  3.7826  0.0094
 7804SOL    HW234875   2.619   0.811   8.367  1.9596 -1.1587  0.8991
 7805SOL     OW34876   4.091   1.205   1.715 -0.0553  0.0822 -0.4668
 7805SOL    HW134877   4.137   1.151   1.651  2.7403  1.0159  0.7416
 7805SOL    HW234878   4.003   1.170   1.707  0.1197 -0.3211 -0.6388
 7806SOL     OW34879   0.961   0.693   1.443  0.0270  0.4797  0.5246
 7806SOL    HW134880   0.902   0.637   1.493 -1.6395  1.0477 -0.7891
 7806SOL    HW234881   0.939   0.779   1.479 -1.9167 -0.7463  2.2805
 7807SOL     OW34882   3.715   4.478  12.620 -0.2539  0.3099 -0.3344
 7807SOL    HW134883   3.699   4.387  12.648  3.2282 -0.1628  0.0761
 7807SOL    HW234884   3.759   4.461  12.537 -2.4943 -0.5208 -1.3535
 7808SOL     OW34885   4.392   0.484   5.490  0.3490 -0.3153  0.3771
 7808SOL    HW134886   4.443   0.526   5.559 -0.8275  0.2457  0.9129
 7808SOL    HW234887   4.326   0.435   5.539 -0.2692  0.4003  0.2623
 7809SOL     OW34888   0.436   3.644  13.112 -0.1586  0.0465 -0.0345
 7809SOL    HW134889   0.368   3.601  13.164  1.5198 -2.5531 -0.0464
 7809SOL    HW234890   0.497   3.676  13.179 -2.3571  1.0345  1.4991
 7810SOL     OW34891   0.563   1.913   0.042  0.0100 -0.5038 -0.1339
 7810SOL    HW134892   0.645   1.926   0.091  1.0487 -1.9596 -1.4850
 7810SOL    HW234893   0.577   1.973  17.659 -0.8236  0.5703  0.5911
 7811SOL     OW34894   0.018   3.400   4.742  0.0480 -0.2480 -0.3713
 7811SOL    HW134895   4.645   3.393   4.748  0.0197 -0.3330 -0.8605
 7811SOL    HW234896   0.018   3.430   4.651 -3.0511  0.5990 -0.0780
 7812SOL     OW34897   1.654   2.495   6.966  0.2637 -0.5089  0.2055
 7812SOL    HW134898   1.729   2.437   6.981 -1.0169 -1.7767  1.7289
 7812SOL    HW234899   1.691   2.569   6.919  0.5152 -0.0996  1.0368
 7813SOL     OW34900   1.844   0.562   3.154  0.2887 -0.3192 -0.0543
 7813SOL    HW134901   1.772   0.622   3.139 -0.0037 -0.3944  1.0757
 7813SOL    HW234902   1.861   0.538   3.063  0.5696 -1.5646  0.3243
 7814SOL     OW34903   1.450   0.007   1.486  0.0106 -0.3356 -0.2999
 7814SOL    HW134904   1.399   4.664   1.438  0.0607 -0.5425 -0.0703
 7814SOL    HW234905   1.528   4.722   1.432 -0.7359 -4.7765 -0.7633
 7815SOL     OW34906   3.288   1.977   2.411 -0.2699 -0.0387 -0.6560
 7815SOL    HW134907   3.272   1.944   2.499 -0.7428  1.4225 -0.1860
 7815SOL    HW234908   3.201   1.978   2.370  0.0617 -1.8679 -1.4075
 7816SOL     OW34909   4.049   0.743   7.641 -0.1519 -0.8991 -0.0948
 7816SOL    HW134910   4.133   0.723   7.682  0.1367 -2.3440 -1.3899
 7816SOL    HW234911   4.058   0.671   7.578  3.3992  0.5077 -1.1791
 7817SOL     OW34912   3.309   0.783   8.087 -0.1693  0.0871 -0.3068
 7817SOL    HW134913   3.239   0.848   8.081 -1.2641 -1.0295  0.2783
 7817SOL    HW234914   3.266   0.703   8.054 -0.3493 -0.8253  2.1730
 7818SOL     OW34915   0.306   3.432  17.487  0.0650  0.0691  0.4749
 7818SOL    HW134916   0.298   3.435  17.582  1.3391 -2.7532  0.6639
 7818SOL    HW234917   0.213   3.445  17.468  0.2935 -0.4115 -0.9755
 7819SOL     OW34918   3.868   1.462  13.732 -0.0725  0.1301 -0.2237
 7819SOL    HW134919   3.842   1.373  13.707  2.8419 -0.5868 -0.6283
 7819SOL    HW234920   3.836   1.465  13.822 -1.1303 -1.2934 -0.5575
 7820SOL     OW34921   3.095   0.328   5.905  0.4023 -0.3169  0.1642
 7820SOL    HW134922   3.002   0.314   5.891  0.1780  0.7498  0.5300
 7820SOL    HW234923   3.121   0.377   5.827 -2.6386  0.6683 -0.2490
 7821SOL     OW34924   3.101   0.624   8.285 -0.5735 -0.1195  0.1637
 7821SOL    HW134925   3.045   0.546   8.285  1.6507 -1.6920  1.4672
 7821SOL    HW234926   3.127   0.613   8.194  0.8088 -0.9623  0.6655
 7822SOL     OW34927   3.546   1.025   5.504 -0.7252 -0.0134 -0.2814
 7822SOL    HW134928   3.548   0.946   5.557  0.6996  0.2756  0.0974
 7822SOL    HW234929   3.547   1.097   5.568  1.7369 -0.8078  0.5594
 7823SOL     OW34930   1.345   4.637   3.236 -0.0429  0.0683  0.5246
 7823SOL    HW134931   1.258   4.598   3.247 -0.7063  1.0962 -1.0846
 7823SOL    HW234932   1.407   4.566   3.222 -1.4271 -0.9409 -0.5542
 7824SOL     OW34933   1.265   3.935   7.981 -0.1278 -0.5118  0.2690
 7824SOL    HW134934   1.257   3.859   8.038 -0.0731 -1.8788 -1.5599
 7824SOL    HW234935   1.171   3.934   7.966 -0.2903 -0.8010  1.3092
 7825SOL     OW34936   3.185   1.594   4.956  0.1932  0.3044 -0.3534
 7825SOL    HW134937   3.114   1.558   5.009  0.0938 -0.8583 -1.2651
 7825SOL    HW234938   3.232   1.651   5.016 -1.3258  0.9582  0.2239
 7826SOL     OW34939   2.530   3.279   6.311 -0.3871  0.1495  0.1767
 7826SOL    HW134940   2.508   3.367   6.281 -0.2763 -0.1788 -0.8674
 7826SOL    HW234941   2.516   3.230   6.230 -1.1853  0.7235 -0.0354
 7827SOL     OW34942   1.422   1.615  14.776  0.0721 -0.2886  0.1233
 7827SOL    HW134943   1.438   1.641  14.685  0.1933 -2.5654 -0.5129
 7827SOL    HW234944   1.436   1.707  14.798  0.2453 -0.0527 -0.9640
 7828SOL     OW34945   0.403   2.146   6.841 -0.8534 -0.3225  0.3871
 7828SOL    HW134946   0.456   2.102   6.774 -2.0843  0.6521 -1.2191
 7828SOL    HW234947   0.432   2.088   6.912  2.8956 -1.4096 -2.0685
 7829SOL     OW34948   4.431   3.451   5.406  0.2149 -0.0421 -0.3336
 7829SOL    HW134949   4.451   3.440   5.313 -1.7592  0.4364 -0.8149
 7829SOL    HW234950   4.338   3.476   5.407  0.1386 -0.3366 -0.1538
 7830SOL     OW34951   2.501   1.407  10.225 -0.2145 -0.3540 -0.4892
 7830SOL    HW134952   2.426   1.381  10.278 -0.2428 -0.7552 -0.7192
 7830SOL    HW234953   2.457   1.464  10.163  1.0813  0.3341 -0.7707
 7831SOL     OW34954   2.651   4.418   4.994  0.1836 -0.2089  0.2123
 7831SOL    HW134955   2.613   4.479   4.931  1.4643 -0.9285 -1.2400
 7831SOL    HW234956   2.740   4.454   5.002  1.1067 -2.1293 -1.5523
 7832SOL     OW34957   3.494   3.114  16.627 -0.1468  0.2954 -0.3500
 7832SOL    HW134958   3.455   3.201  16.635  1.3161  1.0570 -1.3407
 7832SOL    HW234959   3.548   3.123  16.548  1.3220  0.5022  0.6888
 7833SOL     OW34960   0.789   2.987   7.415  0.3079 -0.1193 -0.3518
 7833SOL    HW134961   0.703   3.002   7.453  1.9717  1.5577  2.6866
 7833SOL    HW234962   0.790   3.023   7.326 -0.2945 -0.8877 -0.6709
 7834SOL     OW34963   2.106   1.441  10.091 -0.1852 -0.2917  0.9445
 7834SOL    HW134964   2.057   1.360  10.072 -0.2239 -0.3926  1.4664
 7834SOL    HW234965   2.035   1.484  10.140  0.7532 -1.1394  3.0575
 7835SOL     OW34966   2.238   4.215  15.493 -0.2039 -0.2183 -0.2214
 7835SOL    HW134967   2.313   4.244  15.546 -0.3393  0.3400 -0.3369
 7835SOL    HW234968   2.248   4.282  15.426 -0.0703 -0.7457 -0.7259
 7836SOL     OW34969   1.870   3.641   3.762 -0.1990 -0.1046  0.1145
 7836SOL    HW134970   1.880   3.555   3.804  0.4029 -0.0727  0.0381
 7836SOL    HW234971   1.961   3.667   3.747 -0.2231  0.3932  0.8578
 7837SOL     OW34972   3.967   0.367   2.819  0.6587  0.0458  0.3021
 7837SOL    HW134973   4.031   0.386   2.750 -1.1289  0.1781 -1.2995
 7837SOL    HW234974   4.030   0.365   2.891 -0.5582 -0.4229  1.3492
 7838SOL     OW34975   4.249   1.807   5.091 -0.1514 -0.4165  0.1841
 7838SOL    HW134976   4.336   1.811   5.130  0.3566 -0.7035 -0.9089
 7838SOL    HW234977   4.255   1.872   5.020  0.9377  0.2393  0.8727
 7839SOL     OW34978   0.819   1.453   1.062 -1.0276  0.4826  0.0201
 7839SOL    HW134979   0.895   1.440   1.006 -0.0838  1.2355  1.1297
 7839SOL    HW234980   0.767   1.373   1.060 -1.3365  0.7403 -1.9651
 7840SOL     OW34981   2.684   3.988   4.756  0.7290  0.0999 -0.2390
 7840SOL    HW134982   2.680   4.035   4.839 -0.3849 -0.6336  0.1264
 7840SOL    HW234983   2.777   3.992   4.736  1.4042  1.1069  3.0041
 7841SOL     OW34984   2.671   4.286   0.560  0.3882  0.1611  0.1964
 7841SOL    HW134985   2.719   4.217   0.514 -0.5707  1.0427 -2.0959
 7841SOL    HW234986   2.726   4.361   0.543 -1.6448  1.7160  0.4527
 7842SOL     OW34987   0.612   2.624   3.353  0.3428 -0.1834 -0.4269
 7842SOL    HW134988   0.566   2.592   3.431  0.4994 -0.3033 -0.3845
 7842SOL    HW234989   0.541   2.613   3.290  0.7796 -0.6750 -0.8291
 7843SOL     OW34990   1.089   4.393   5.954  0.8719 -0.2512 -0.5698
 7843SOL    HW134991   1.060   4.474   5.997 -0.9379 -0.5742 -1.1865
 7843SOL    HW234992   1.008   4.342   5.957  0.7442  0.0320  0.8378
 7844SOL     OW34993   3.719   0.851  12.321 -0.3502  0.7123  0.4984
 7844SOL    HW134994   3.778   0.811  12.257 -0.8506  1.2493 -0.3085
 7844SOL    HW234995   3.722   0.784  12.389  1.9832  2.8632  2.5229
 7845SOL     OW34996   3.695   4.410   2.389 -0.0293  0.0474 -0.6535
 7845SOL    HW134997   3.635   4.451   2.452 -0.3912 -3.0254  0.9998
 7845SOL    HW234998   3.635   4.353   2.342 -2.4793 -0.8657  3.6075
 7846SOL     OW34999   4.618   1.302   8.420  0.3800  0.2543 -0.0830
 7846SOL    HW135000   4.526   1.309   8.445  0.8575 -0.6435  1.9813
 7846SOL    HW235001   4.645   1.212   8.441 -3.8627 -1.2990 -1.2362
 7847SOL     OW35002   1.535   0.513  11.218 -0.1956  0.5689 -0.1017
 7847SOL    HW135003   1.614   0.479  11.176 -1.0403 -1.2487 -0.1951
 7847SOL    HW235004   1.490   0.430  11.231  0.3988  0.9244  4.2309
 7848SOL     OW35005   1.266   0.684   2.281 -0.4281 -0.8592 -0.5460
 7848SOL    HW135006   1.270   0.598   2.239  1.8020 -1.3731  0.6911
 7848SOL    HW235007   1.271   0.643   2.368  1.3357  1.0936  0.2730
 7849SOL     OW35008   3.521   0.873   1.972  0.5694 -0.7265  0.0009
 7849SOL    HW135009   3.443   0.899   2.021  0.4166  0.1141 -0.6839
 7849SOL    HW235010   3.564   0.807   2.027 -0.1134 -2.6138 -1.7251
 7850SOL     OW35011   2.121   1.519   3.862  0.2630 -0.4860  0.1298
 7850SOL    HW135012   2.201   1.482   3.826  0.2759 -0.9236  0.6097
 7850SOL    HW235013   2.149   1.583   3.927 -1.0568  0.8864 -0.6470
 7851SOL     OW35014   1.798   0.213   0.301 -0.1395 -0.7273  0.0587
 7851SOL    HW135015   1.823   0.265   0.377 -1.6368  1.4468 -0.9060
 7851SOL    HW235016   1.873   0.219   0.242  1.6133 -0.0231  2.4094
 7852SOL     OW35017   0.734   3.931   5.165 -0.5557 -0.2219 -0.4580
 7852SOL    HW135018   0.819   3.938   5.122  0.5392  0.7860  1.8722
 7852SOL    HW235019   0.749   3.992   5.237 -1.6399 -1.1208  0.5314
 7853SOL     OW35020   0.910   2.283   2.170  0.2087 -0.6288 -0.5591
 7853SOL    HW135021   0.979   2.247   2.227  0.2167 -0.1422 -0.2647
 7853SOL    HW235022   0.862   2.345   2.224  0.0758 -0.0816 -1.3130
 7854SOL     OW35023   3.480   0.240  15.125 -0.3303  0.3756 -0.2202
 7854SOL    HW135024   3.497   0.184  15.050  2.7461 -0.8512  1.4118
 7854SOL    HW235025   3.384   0.239  15.124 -0.3287  0.1836 -0.2091
 7855SOL     OW35026   0.769   2.221  16.574  0.4623 -0.4492  0.5525
 7855SOL    HW135027   0.759   2.246  16.666  1.4193 -2.0926  1.0965
 7855SOL    HW235028   0.684   2.181  16.556 -0.1141  1.3442 -0.7064
 7856SOL     OW35029   1.929   1.724   2.742  0.1854  0.2476 -0.7981
 7856SOL    HW135030   2.015   1.743   2.704  0.6968 -1.2285 -0.3586
 7856SOL    HW235031   1.894   1.671   2.670 -2.4071  2.9080 -1.5127
 7857SOL     OW35032   0.763   0.638   8.791 -0.1793 -0.1021 -0.0675
 7857SOL    HW135033   0.839   0.695   8.800 -0.5462  0.2188  1.0074
 7857SOL    HW235034   0.758   0.612   8.883 -1.2723 -0.2792 -0.1740
 7858SOL     OW35035   2.424   0.987  13.178  0.5005 -0.3528 -0.3895
 7858SOL    HW135036   2.440   1.081  13.182  0.9605 -0.4954  1.2823
 7858SOL    HW235037   2.357   1.002  13.111 -0.2089  1.1516  0.6411
 7859SOL     OW35038   2.860   2.762   4.333 -0.1501  0.1329 -0.0884
 7859SOL    HW135039   2.908   2.800   4.406 -0.4500 -1.6790  1.0346
 7859SOL    HW235040   2.838   2.836   4.276 -0.4437  3.1983  4.0587
 7860SOL     OW35041   0.356   1.315   7.356 -0.0613 -0.4988  0.0373
 7860SOL    HW135042   0.272   1.268   7.356  0.2490 -1.0491 -1.1847
 7860SOL    HW235043   0.376   1.296   7.448  0.2046 -0.9729 -0.1228
 7861SOL     OW35044   0.063   1.898   4.248  0.0738  0.4518  0.0353
 7861SOL    HW135045   4.713   1.959   4.261  0.5268  0.9774  0.0599
 7861SOL    HW235046   0.139   1.947   4.278 -0.7460  0.5157  2.0496
 7862SOL     OW35047   2.759   3.770  10.283 -0.0968 -0.3874  0.0081
 7862SOL    HW135048   2.727   3.680  10.280 -0.5109 -0.2614  0.9377
 7862SOL    HW235049   2.690   3.805  10.338 -2.1521 -1.5899 -1.7917
 7863SOL     OW35050   4.593   1.509  10.117  0.0079  0.3028 -0.6019
 7863SOL    HW135051   4.571   1.425  10.075  1.3692 -0.4598  0.2037
 7863SOL    HW235052   4.533   1.505  10.191 -1.1228  0.7896 -1.4889
 7864SOL     OW35053   4.056   4.560   9.624  0.2783  0.5388  0.4261
 7864SOL    HW135054   4.057   4.587   9.716  0.7624  0.5037  0.4296
 7864SOL    HW235055   4.140   4.516   9.615  0.3889  0.7789  0.2953
 7865SOL     OW35056   3.592   0.774  11.141  0.2703  0.0595 -0.0704
 7865SOL    HW135057   3.665   0.824  11.105 -2.7283  2.8134 -2.3123
 7865SOL    HW235058   3.512   0.822  11.119 -0.4584 -0.9997  0.2629
 7866SOL     OW35059   0.563   3.616  15.902  0.4338 -0.1025  0.5108
 7866SOL    HW135060   0.491   3.659  15.855 -1.0433 -1.6236  1.4086
 7866SOL    HW235061   0.586   3.550  15.837 -0.6749 -3.0262  3.1414
 7867SOL     OW35062   2.637   4.517  12.791  0.3395 -0.0825 -0.2118
 7867SOL    HW135063   2.576   4.444  12.779  0.0126  0.4548 -1.7881
 7867SOL    HW235064   2.710   4.491  12.734  0.0658  1.1295 -1.1298
 7868SOL     OW35065   1.043   3.878   8.975 -0.0673 -0.2684 -0.1326
 7868SOL    HW135066   1.108   3.945   8.995 -0.8589 -0.0005  1.4864
 7868SOL    HW235067   1.048   3.820   9.051 -3.2258  0.4568  0.6284
 7869SOL     OW35068   2.414   2.678   1.107  0.4960 -0.1903  0.0378
 7869SOL    HW135069   2.384   2.690   1.196  0.8077  1.3510 -0.0567
 7869SOL    HW235070   2.463   2.759   1.092 -0.0330 -0.0855 -1.0992
 7870SOL     OW35071   1.831   2.549   3.360  0.1660 -0.1643  0.6183
 7870SOL    HW135072   1.803   2.499   3.283  4.0498 -0.7871 -0.4041
 7870SOL    HW235073   1.911   2.502   3.384  0.2460 -0.7588 -0.8120
 7871SOL     OW35074   1.805   1.598   8.276  0.2125  0.0476 -0.4241
 7871SOL    HW135075   1.869   1.613   8.207 -1.8966  0.6473 -2.2368
 7871SOL    HW235076   1.727   1.600   8.221  0.4562  1.7396 -0.6939
 7872SOL     OW35077   0.724   1.020  16.586 -0.4618 -0.4436 -0.4469
 7872SOL    HW135078   0.776   1.100  16.584  1.0129 -1.3383  2.7111
 7872SOL    HW235079   0.726   0.983  16.498  0.5603  0.6365 -0.8791
 7873SOL     OW35080   2.069   4.325   9.463  0.2942 -0.1523  0.4638
 7873SOL    HW135081   2.002   4.267   9.498 -1.5582  0.9769 -1.1771
 7873SOL    HW235082   2.149   4.276   9.481  0.9734  1.7127  2.5327
 7874SOL     OW35083   0.134   4.610   9.425 -0.2417  0.0419 -0.4229
 7874SOL    HW135084   0.190   4.578   9.354  0.1541  0.8174 -0.4596
 7874SOL    HW235085   0.149   4.705   9.423 -4.7811  0.7479 -0.1602
 7875SOL     OW35086   4.197   3.206   0.291  0.5932  0.0534  0.3816
 7875SOL    HW135087   4.161   3.294   0.291  0.0833 -0.1385  2.3221
 7875SOL    HW235088   4.277   3.222   0.342 -0.9564  2.0254  2.2140
 7876SOL     OW35089   2.399   1.290   7.175  0.2710  0.1104  0.2978
 7876SOL    HW135090   2.303   1.282   7.171  0.4843 -1.5977 -1.8335
 7876SOL    HW235091   2.414   1.205   7.217 -0.5185  0.4957  1.3327
 7877SOL     OW35092   0.196   2.649  12.178 -0.2794  0.4117 -0.1127
 7877SOL    HW135093   0.186   2.705  12.256  0.5034  0.3236  0.0566
 7877SOL    HW235094   0.254   2.583  12.217 -1.1568  0.1962  0.8291
 7878SOL     OW35095   3.706   0.558  10.699  0.0188  0.0249 -0.2416
 7878SOL    HW135096   3.730   0.642  10.739  0.2418 -0.2095  0.1139
 7878SOL    HW235097   3.661   0.586  10.620 -0.4763 -0.1201 -0.0078
 7879SOL     OW35098   0.407   0.962   5.475  0.6077  0.3604 -0.1005
 7879SOL    HW135099   0.378   1.049   5.448 -2.0467 -0.0598  1.4471
 7879SOL    HW235100   0.351   0.950   5.551  1.1234 -1.4555 -0.0028
 7880SOL     OW35101   0.615   4.021   8.783 -0.4156 -0.3682 -0.3342
 7880SOL    HW135102   0.709   4.024   8.771 -0.2951  2.1471  1.2829
 7880SOL    HW235103   0.612   3.934   8.823 -1.8596  1.0785  2.7362
 7881SOL     OW35104   3.479   0.656  10.250 -0.2701 -0.2204  0.4891
 7881SOL    HW135105   3.541   0.712  10.297 -1.1597 -0.3298  1.7964
 7881SOL    HW235106   3.475   0.575  10.302  1.2428 -0.9296 -0.4915
 7882SOL     OW35107   1.131   4.216   6.613 -0.5939  0.3514 -0.6265
 7882SOL    HW135108   1.067   4.180   6.675 -0.9076 -1.5441 -2.0679
 7882SOL    HW235109   1.174   4.142   6.572 -0.1135 -0.5666  1.5099
 7883SOL     OW35110   0.858   4.596   5.211 -0.6373  0.1100  0.1456
 7883SOL    HW135111   0.872   4.637   5.296 -0.4411  0.1644  0.0855
 7883SOL    HW235112   0.935   4.633   5.168  0.0322 -0.0062  1.2563
 7884SOL     OW35113   4.062   2.374  14.503  0.7429 -0.2420 -0.6470
 7884SOL    HW135114   4.044   2.313  14.432  2.1228 -0.4839 -0.7948
 7884SOL    HW235115   4.147   2.347  14.538  1.4701 -0.7257 -2.7960
 7885SOL     OW35116   0.558   3.877   2.206 -0.3992  0.3358 -0.2836
 7885SOL    HW135117   0.605   3.960   2.208  2.2810 -1.1807  0.2275
 7885SOL    HW235118   0.563   3.859   2.300 -1.7193 -3.0954 -0.8571
 7886SOL     OW35119   3.584   2.260   3.756  0.5176 -0.0012  0.0283
 7886SOL    HW135120   3.611   2.184   3.705  1.2443  0.0434  0.3556
 7886SOL    HW235121   3.517   2.215   3.807  2.0789 -1.0439  1.1521
 7887SOL     OW35122   1.903   2.088   8.238 -0.4605 -0.7330 -0.2528
 7887SOL    HW135123   1.875   2.168   8.283  0.4786 -0.5247 -0.0479
 7887SOL    HW235124   1.978   2.116   8.186 -0.5403 -0.7438 -0.3742
 7888SOL     OW35125   2.035   0.599  16.535 -0.0377  0.0907 -0.0340
 7888SOL    HW135126   2.001   0.654  16.605 -2.3581  1.5197 -2.2876
 7888SOL    HW235127   2.089   0.666  16.494  0.7134 -0.7644 -0.4459
 7889SOL     OW35128   4.656   4.056   2.891  0.5395 -0.7618  0.0604
 7889SOL    HW135129   4.608   4.138   2.881 -0.2207 -1.5404 -2.6838
 7889SOL    HW235130   4.607   4.003   2.828 -1.2161 -0.5394  1.2452
 7890SOL     OW35131   3.858   3.425   5.540  0.3518 -0.2375 -0.3388
 7890SOL    HW135132   3.781   3.371   5.526  1.3560 -1.7990  0.1304
 7890SOL    HW235133   3.934   3.368   5.526 -0.1701 -1.3356  1.3345
 7891SOL     OW35134   1.303   3.460   5.204  0.5179  0.4096  0.0304
 7891SOL    HW135135   1.230   3.402   5.224  1.0289 -0.7582 -1.4985
 7891SOL    HW235136   1.281   3.537   5.256  2.0896  1.4537 -0.8349
 7892SOL     OW35137   2.291   3.120  11.369 -0.2719 -0.2308  0.2409
 7892SOL    HW135138   2.218   3.146  11.425 -0.7177 -0.3394 -0.2804
 7892SOL    HW235139   2.337   3.063  11.430 -0.9470 -1.5092 -0.4530
 7893SOL     OW35140   4.031   3.767   6.501 -0.0096  0.4771 -0.0766
 7893SOL    HW135141   4.032   3.725   6.587 -2.6680 -0.4612 -0.4769
 7893SOL    HW235142   3.989   3.705   6.440  2.9248 -2.3145  0.7508
 7894SOL     OW35143   4.068   4.374   5.687  0.5569 -0.0171 -0.0360
 7894SOL    HW135144   4.058   4.315   5.762 -1.3963  0.2764 -0.0790
 7894SOL    HW235145   4.104   4.451   5.731 -0.1202 -0.3100  1.0520
 7895SOL     OW35146   1.892   0.113  12.226 -0.1347  0.2312  0.1141
 7895SOL    HW135147   1.802   0.083  12.216  0.1504 -0.1650 -1.2666
 7895SOL    HW235148   1.925   0.140  12.141  1.0286  0.4804  0.6471
 7896SOL     OW35149   2.208   3.392   7.769 -0.3632 -0.1952  0.4849
 7896SOL    HW135150   2.286   3.346   7.800 -1.2348 -1.2782  1.0903
 7896SOL    HW235151   2.145   3.407   7.840 -1.1161  1.8616 -0.6308
 7897SOL     OW35152   2.799   2.730   6.125 -0.2591 -0.2153  0.1117
 7897SOL    HW135153   2.831   2.641   6.116  1.3705  0.3990 -0.2655
 7897SOL    HW235154   2.736   2.726   6.197  0.2116 -1.3632  0.4634
 7898SOL     OW35155   1.935   4.291  11.347  0.1509 -0.3876  0.2416
 7898SOL    HW135156   1.973   4.288  11.259  0.1668  3.2814  0.1209
 7898SOL    HW235157   1.940   4.385  11.361 -0.1350 -0.8078  3.0737
 7899SOL     OW35158   1.680   2.557   2.070 -0.3565 -0.5258 -0.8152
 7899SOL    HW135159   1.614   2.614   2.032 -0.4853  0.1972  0.4853
 7899SOL    HW235160   1.633   2.477   2.094 -1.8069  1.1920  2.0355
 7900SOL     OW35161   4.303   0.736  11.677  0.1171 -0.3176  1.1509
 7900SOL    HW135162   4.267   0.733  11.765  1.5898 -2.3550  1.6824
 7900SOL    HW235163   4.295   0.642  11.660  0.6902 -0.0833 -0.4287
 7901SOL     OW35164   4.428   0.615  12.946 -0.5305 -0.4598  0.4097
 7901SOL    HW135165   4.498   0.681  12.948  0.6886 -1.7630  0.4377
 7901SOL    HW235166   4.492   0.547  12.926  0.1421  0.8546 -1.8584
 7902SOL     OW35167   3.151   2.703   4.799  0.0722  0.3864 -0.5499
 7902SOL    HW135168   3.118   2.640   4.734 -1.3491 -0.0788  0.6119
 7902SOL    HW235169   3.235   2.661   4.811 -0.5129 -1.3104 -2.3657
 7903SOL     OW35170   0.823   4.404  15.124 -0.5814  0.8425 -0.6422
 7903SOL    HW135171   0.807   4.458  15.046 -1.4673  2.3150  0.5390
 7903SOL    HW235172   0.797   4.316  15.098  0.4160  0.0701  1.0206
 7904SOL     OW35173   1.735   4.501  12.979 -0.2622 -0.2652 -0.4404
 7904SOL    HW135174   1.766   4.415  13.008  2.0180  0.0374 -2.0249
 7904SOL    HW235175   1.711   4.495  12.887  1.0815 -2.4880 -0.6359
 7905SOL     OW35176   2.036   0.604   2.736  0.2224 -0.7888  0.2801
 7905SOL    HW135177   1.966   0.567   2.789  0.6958 -1.6655  0.2811
 7905SOL    HW235178   2.064   0.525   2.690  1.1585 -0.8291  0.9203
 7906SOL     OW35179   3.605   4.597   8.522 -0.6776  0.3705 -0.0626
 7906SOL    HW135180   3.602   4.687   8.488  1.4859  1.1441  1.8334
 7906SOL    HW235181   3.521   4.585   8.567  0.2434  1.8980  2.0221
 7907SOL     OW35182   4.535   4.066   7.963 -0.3287  0.4393  0.3276
 7907SOL    HW135183   4.564   3.991   8.015 -0.6884  0.5870  0.7459
 7907SOL    HW235184   4.440   4.065   7.978 -0.5126  3.3157 -0.6543
 7908SOL     OW35185   3.076   0.225   5.350 -0.4043  0.5333 -0.0562
 7908SOL    HW135186   3.004   0.204   5.292  1.9374 -0.0413 -2.7270
 7908SOL    HW235187   3.098   0.143   5.395 -0.0815  0.8284  0.3363
 7909SOL     OW35188   3.682   2.426   9.108 -0.2338  0.3435  0.6567
 7909SOL    HW135189   3.749   2.488   9.138  0.1893  1.0065 -1.6635
 7909SOL    HW235190   3.709   2.415   9.017  0.1355 -1.3760  0.9630
 7910SOL     OW35191   3.526   1.882   2.495  0.2174  0.2829 -0.1281
 7910SOL    HW135192   3.497   1.873   2.586  1.5351  0.0127  0.2633
 7910SOL    HW235193   3.454   1.934   2.460 -1.2525 -1.6110  0.1097
 7911SOL     OW35194   0.726   1.487  13.301  0.4234 -0.5754  0.1724
 7911SOL    HW135195   0.819   1.501  13.285  0.3721 -0.0099  0.3679
 7911SOL    HW235196   0.711   1.411  13.245  4.1774  2.0214 -4.3229
 7912SOL     OW35197   3.453   1.051   3.591 -0.0056  0.7228 -0.0500
 7912SOL    HW135198   3.431   1.076   3.681 -0.4850  0.6108 -0.1362
 7912SOL    HW235199   3.547   1.066   3.582 -0.1099  0.6713 -1.1465
 7913SOL     OW35200   3.541   3.373   8.407 -0.1148 -0.3311  0.1628
 7913SOL    HW135201   3.515   3.293   8.361 -0.9234  0.5189 -0.8566
 7913SOL    HW235202   3.601   3.331   8.468  0.2976 -1.0106 -0.7072
 7914SOL     OW35203   1.071   4.600  14.261 -0.0012 -0.1102  0.2813
 7914SOL    HW135204   1.000   4.547  14.225 -0.9974  1.0164  0.5798
 7914SOL    HW235205   1.031   4.681  14.230 -1.2774 -1.0376 -0.5215
 7915SOL     OW35206   3.026   1.466   9.128 -0.3142 -0.3610 -0.4921
 7915SOL    HW135207   2.937   1.441   9.103 -1.0877 -0.0295  1.8762
 7915SOL    HW235208   3.023   1.551   9.083  0.4380 -0.0920 -0.0354
 7916SOL     OW35209   2.442   1.408  13.669 -0.7843 -0.1449 -0.7051
 7916SOL    HW135210   2.438   1.504  13.676 -1.8901  0.0081 -3.3140
 7916SOL    HW235211   2.495   1.407  13.589 -0.6068  2.4958 -0.6460
 7917SOL     OW35212   4.032   1.694  14.603 -0.3810 -0.6379  0.5713
 7917SOL    HW135213   3.944   1.709  14.636  0.2228 -0.1121  1.9412
 7917SOL    HW235214   4.085   1.736  14.672 -0.0123  1.3637 -0.9147
 7918SOL     OW35215   2.924   1.527  17.344 -0.3172 -0.4517 -0.3082
 7918SOL    HW135216   2.990   1.594  17.325 -1.0346  0.5287  0.6008
 7918SOL    HW235217   2.847   1.582  17.332  1.1986  2.1762  1.6907
 7919SOL     OW35218   1.016   1.478   1.292 -0.4178  0.1936  0.1179
 7919SOL    HW135219   0.951   1.503   1.227 -0.1173  1.1599  0.1913
 7919SOL    HW235220   1.047   1.390   1.269 -0.9375  0.2493 -0.8047
 7920SOL     OW35221   4.606   0.827  12.917  0.1154 -0.1435  0.1213
 7920SOL    HW135222   4.681   0.831  12.857  0.3425 -1.6925  0.2904
 7920SOL    HW235223   4.657   0.856  12.992 -0.0530  0.5900 -0.0479
 7921SOL     OW35224   2.759   0.969   9.786  0.2186 -0.3023 -0.2788
 7921SOL    HW135225   2.681   0.920   9.761 -0.1562  0.8431 -1.3322
 7921SOL    HW235226   2.820   0.904   9.821  2.1750  2.2994  1.1522
 7922SOL     OW35227   0.943   4.324   3.938  0.2860  0.3978 -0.3161
 7922SOL    HW135228   0.848   4.331   3.928  0.0222 -1.5174  0.8886
 7922SOL    HW235229   0.966   4.285   3.853  1.8148  0.4988  0.0443
 7923SOL     OW35230   2.683   2.287   3.811 -0.7370 -0.1141 -0.0525
 7923SOL    HW135231   2.623   2.212   3.817 -0.4025 -0.3209  0.7547
 7923SOL    HW235232   2.650   2.313   3.726 -4.5440 -0.9032  1.1606
 7924SOL     OW35233   4.390   1.296  15.787  0.0641  0.5958  0.1170
 7924SOL    HW135234   4.426   1.354  15.854 -3.2923  1.0502  1.4891
 7924SOL    HW235235   4.348   1.361  15.731  0.3226  0.6477 -0.0205
 7925SOL     OW35236   0.331   1.625  16.054  0.2086  0.1743  0.2929
 7925SOL    HW135237   0.397   1.559  16.074 -0.7933 -0.6048  1.0400
 7925SOL    HW235238   0.358   1.711  16.087  0.7963  0.0931  0.0141
 7926SOL     OW35239   4.656   2.837   2.684 -0.7323 -0.0391  0.3024
 7926SOL    HW135240   4.704   2.765   2.725 -0.0809 -0.1392 -0.6411
 7926SOL    HW235241   0.004   2.876   2.632 -0.1084 -1.9690 -0.3123
 7927SOL     OW35242   1.110   0.169   1.333 -0.3935  0.0598 -0.2588
 7927SOL    HW135243   1.033   0.182   1.388  0.0470  0.6254  0.2308
 7927SOL    HW235244   1.182   0.175   1.396  0.5621 -1.9439 -1.1672
 7928SOL     OW35245   3.609   1.759   4.466 -0.2868  0.1998  0.1141
 7928SOL    HW135246   3.633   1.848   4.495 -0.5518  0.0999  0.6406
 7928SOL    HW235247   3.651   1.704   4.532 -1.1588  0.8773  1.2429
 7929SOL     OW35248   0.030   1.677   4.827  0.6232 -0.1439 -0.3797
 7929SOL    HW135249   0.035   1.764   4.786  0.9025 -1.0864 -2.3403
 7929SOL    HW235250   4.715   1.705   4.910  0.8489 -1.8458  0.2829
 7930SOL     OW35251   3.097   1.854   5.827 -0.1001 -0.0984  0.2003
 7930SOL    HW135252   3.017   1.806   5.806  1.6611 -3.0696  0.1333
 7930SOL    HW235253   3.159   1.781   5.816 -0.1760 -0.1506  0.1164
 7931SOL     OW35254   2.980   3.956   2.412  0.3293  0.0817  0.1077
 7931SOL    HW135255   2.913   4.025   2.408  1.0448  0.7552 -0.2538
 7931SOL    HW235256   2.951   3.903   2.338  1.7927 -0.7824  0.1592
 7932SOL     OW35257   1.506   0.963   4.437 -0.3605 -0.1836 -0.3574
 7932SOL    HW135258   1.586   0.926   4.474 -0.4135  0.2001  0.1369
 7932SOL    HW235259   1.511   1.054   4.466 -0.8778 -0.7646  1.4978
 7933SOL     OW35260   3.979   3.020   1.610  0.1801  0.3378  0.0047
 7933SOL    HW135261   3.907   2.963   1.638  1.3284 -2.5976 -3.0337
 7933SOL    HW235262   4.040   2.955   1.575 -0.8474 -1.5977  1.7504
 7934SOL     OW35263   2.335   0.595   4.660 -0.0084  0.3120 -0.3368
 7934SOL    HW135264   2.261   0.585   4.600 -1.5933  1.2614  1.4505
 7934SOL    HW235265   2.411   0.610   4.604 -0.8811  0.2594 -1.5432
 7935SOL     OW35266   1.894   1.615   3.093 -0.3899  0.0175  0.0289
 7935SOL    HW135267   1.922   1.527   3.066  2.0453  1.3657 -1.7847
 7935SOL    HW235268   1.802   1.599   3.114 -1.1797  1.4342 -2.3090
 7936SOL     OW35269   2.863   1.656   5.734 -0.4202  0.3812 -0.4088
 7936SOL    HW135270   2.833   1.565   5.735 -0.6263  0.4325 -2.2587
 7936SOL    HW235271   2.806   1.704   5.794 -0.3048 -1.4996  1.1738
 7937SOL     OW35272   4.136   4.232   2.612  0.1230  0.5760  0.3524
 7937SOL    HW135273   4.042   4.218   2.614 -0.1777  2.4090 -0.1919
 7937SOL    HW235274   4.158   4.139   2.615 -1.1666  0.1982 -2.0951
 7938SOL     OW35275   2.359   3.648   9.021  0.2710  0.1684 -0.0893
 7938SOL    HW135276   2.294   3.713   8.994  0.0623  0.0415  0.1055
 7938SOL    HW235277   2.332   3.568   8.975 -0.1061 -0.9238  2.0211
 7939SOL     OW35278   1.801   3.949  17.231  0.0378  0.5642 -0.2136
 7939SOL    HW135279   1.891   3.955  17.263 -0.0141 -0.0194  0.0371
 7939SOL    HW235280   1.761   3.901  17.303  0.9745  1.8485  1.1530
 7940SOL     OW35281   0.362   0.625   2.168 -0.4344  0.1122  0.4067
 7940SOL    HW135282   0.439   0.680   2.179 -0.8643  0.8383 -0.2072
 7940SOL    HW235283   0.372   0.613   2.073 -1.6796 -1.8831  0.5089
 7941SOL     OW35284   4.079   2.435   9.314  0.5968 -0.2751  0.1315
 7941SOL    HW135285   4.099   2.528   9.317 -0.4549 -0.0647  0.8168
 7941SOL    HW235286   3.997   2.429   9.363  2.3839 -2.2291  2.9243
 7942SOL     OW35287   3.069   3.336   3.171 -0.1485 -0.0216 -0.0344
 7942SOL    HW135288   3.111   3.326   3.085  1.5901  1.5119  0.6417
 7942SOL    HW235289   3.066   3.431   3.173 -2.7686 -0.1001 -0.5854
 7943SOL     OW35290   4.641   2.500   7.075 -0.0051  0.2911 -0.2952
 7943SOL    HW135291   4.676   2.577   7.030 -3.2163  1.5391 -0.6795
 7943SOL    HW235292   4.686   2.422   7.044 -1.1564 -0.7415  0.5995
 7944SOL     OW35293   3.530   1.713  11.402  0.3177 -0.3850  0.1936
 7944SOL    HW135294   3.461   1.733  11.466 -0.3853  0.4349 -0.8142
 7944SOL    HW235295   3.547   1.622  11.426  0.7866 -0.4156 -0.2628
 7945SOL     OW35296   1.703   0.076   6.869  0.0456  0.0917  0.2722
 7945SOL    HW135297   1.675   0.125   6.791 -0.4285 -1.5953 -0.6172
 7945SOL    HW235298   1.797   0.082   6.884  0.2484  1.0653 -1.3278
 7946SOL     OW35299   2.239   4.670   2.404 -0.7558  0.5186 -0.0794
 7946SOL    HW135300   2.178   4.596   2.405  0.1082 -0.2075 -1.5864
 7946SOL    HW235301   2.267   4.664   2.313 -0.0058 -1.7167  0.2943
 7947SOL     OW35302   2.644   0.838   3.910 -0.0276 -0.1007 -0.4316
 7947SOL    HW135303   2.572   0.775   3.904 -0.4094  0.2817  0.2401
 7947SOL    HW235304   2.615   0.899   3.842 -1.6692 -0.0964  0.2910
 7948SOL     OW35305   3.035   2.877   4.506  0.5441 -0.1805  0.3342
 7948SOL    HW135306   3.108   2.935   4.524 -0.4469  0.2468  2.9313
 7948SOL    HW235307   3.067   2.795   4.544 -2.6011 -1.2290  0.7869
 7949SOL     OW35308   1.121   1.683  11.469 -0.1721 -0.6147  0.1760
 7949SOL    HW135309   1.111   1.767  11.514  0.4073 -0.3758 -0.1358
 7949SOL    HW235310   1.165   1.717  11.391  3.4263 -0.4035  2.2911
 7950SOL     OW35311   0.907   1.898  15.104  0.2062  0.2242 -0.0702
 7950SOL    HW135312   0.821   1.925  15.138 -0.1077 -2.3273  1.2028
 7950SOL    HW235313   0.906   1.803  15.094 -1.0628  0.4745 -2.2952
 7951SOL     OW35314   1.257   4.480  17.502  0.1156  0.0703 -0.1407
 7951SOL    HW135315   1.303   4.535  17.438  2.7236 -0.4930  1.2504
 7951SOL    HW235316   1.265   4.395  17.458 -0.6812 -0.1165  0.0766
 7952SOL     OW35317   1.441   1.252   7.251  0.5673  0.5469  0.3818
 7952SOL    HW135318   1.452   1.213   7.164 -1.7126 -0.2161  0.4448
 7952SOL    HW235319   1.526   1.295   7.262  0.7475  0.1582  0.5117
 7953SOL     OW35320   1.897   2.172   3.075 -0.3884  0.5947  0.0016
 7953SOL    HW135321   1.922   2.230   3.003 -1.5051  0.8784 -0.1580
 7953SOL    HW235322   1.831   2.113   3.038 -0.4385  1.1171 -0.7401
 7954SOL     OW35323   0.037   2.842   7.344 -0.3877  0.0527  0.2814
 7954SOL    HW135324   0.072   2.917   7.295 -1.1051  1.6799  2.2872
 7954SOL    HW235325   0.090   2.768   7.311  0.7721  1.2967 -0.6548
 7955SOL     OW35326   3.354   2.711   2.909 -0.1283  0.8257 -0.1372
 7955SOL    HW135327   3.322   2.645   2.847  1.0228 -1.2334  1.4553
 7955SOL    HW235328   3.335   2.794   2.866 -1.2015  1.0702  0.7961
 7956SOL     OW35329   0.431   2.908   7.069 -0.4648 -0.4430  0.8513
 7956SOL    HW135330   0.443   2.954   6.986 -2.9224  0.7813  1.1661
 7956SOL    HW235331   0.520   2.887   7.097 -0.0449  0.7236  0.3620
 7957SOL     OW35332   2.982   3.011   6.245 -0.2529  0.2341 -0.2351
 7957SOL    HW135333   2.952   3.025   6.335  2.4768  2.1479  0.3754
 7957SOL    HW235334   2.924   2.936   6.229  1.4551 -1.2880  0.6496
 7958SOL     OW35335   4.696   2.214  11.084 -0.3193  0.1602 -0.1848
 7958SOL    HW135336   4.637   2.222  11.158  0.1874 -0.2373  0.2595
 7958SOL    HW235337   4.680   2.295  11.036 -0.9891  0.2769  0.2456
 7959SOL     OW35338   1.735   3.823   7.288 -0.7097 -0.3868 -0.3251
 7959SOL    HW135339   1.723   3.730   7.304 -0.5864 -0.2971  0.2593
 7959SOL    HW235340   1.830   3.828   7.295 -0.7588 -0.3335  0.2863
 7960SOL     OW35341   0.710   2.657   2.505  0.3019  0.0159  0.3449
 7960SOL    HW135342   0.678   2.636   2.592 -2.0092 -1.1913 -0.8290
 7960SOL    HW235343   0.729   2.750   2.524  0.9523 -0.0309 -0.0610
 7961SOL     OW35344   1.385   4.149   1.424  0.1176  0.4842  0.0269
 7961SOL    HW135345   1.376   4.243   1.441  1.3251  0.2409  1.9722
 7961SOL    HW235346   1.347   4.106   1.500 -3.0722  2.2484 -0.5728
 7962SOL     OW35347   4.389   2.918   1.919  0.0352  0.4358  0.6988
 7962SOL    HW135348   4.384   2.952   1.830 -1.7662 -0.7582  0.3342
 7962SOL    HW235349   4.378   2.823   1.914 -0.4620  0.5137  0.2743
 7963SOL     OW35350   1.792   1.959  13.577  0.1589 -0.0705 -0.3332
 7963SOL    HW135351   1.703   1.940  13.606  1.1006 -4.1917 -0.1325
 7963SOL    HW235352   1.794   1.888  13.513 -1.0952 -0.8046  0.4418
 7964SOL     OW35353   4.105   0.548   0.887  0.2653  0.1185  0.7028
 7964SOL    HW135354   4.044   0.481   0.918 -0.6733  0.3250 -0.7301
 7964SOL    HW235355   4.053   0.628   0.891 -0.0681  0.0527 -2.0608
 7965SOL     OW35356   4.720   2.583   7.581  0.3178  0.3531  0.0385
 7965SOL    HW135357   4.719   2.678   7.593  3.1708  0.4399 -0.4582
 7965SOL    HW235358   0.075   2.563   7.634  1.0514 -0.4172 -1.3399
 7966SOL     OW35359   0.373   2.473  12.313 -0.0880  0.0804 -0.1683
 7966SOL    HW135360   0.344   2.383  12.326 -0.4424  0.0276 -1.2303
 7966SOL    HW235361   0.399   2.502  12.400  1.2749 -0.4191 -0.4094
 7967SOL     OW35362   0.998   4.530   2.765 -0.8432 -0.0871  0.2944
 7967SOL    HW135363   0.964   4.490   2.845 -2.0433  1.4383  0.5450
 7967SOL    HW235364   0.961   4.477   2.694  1.6091  1.1368 -1.9058
 7968SOL     OW35365   2.705   0.277   4.321  0.3081 -0.5555  0.3475
 7968SOL    HW135366   2.682   0.186   4.300  1.2697 -0.6054 -0.4793
 7968SOL    HW235367   2.675   0.330   4.247  0.8863 -0.6540  0.0474
 7969SOL     OW35368   4.302   4.343   1.402 -0.2161 -0.2792 -0.2334
 7969SOL    HW135369   4.339   4.364   1.317  2.6554  0.4595  1.2038
 7969SOL    HW235370   4.349   4.409   1.453  0.6835 -3.2052  2.7245
 7970SOL     OW35371   4.160   1.853   5.904  0.6611 -0.3786  0.0463
 7970SOL    HW135372   4.108   1.893   5.833  0.6050 -1.8387 -0.7294
 7970SOL    HW235373   4.200   1.935   5.933  0.8015 -0.2136 -0.6009
 7971SOL     OW35374   2.320   1.653   6.378 -0.5361  0.5587  0.1782
 7971SOL    HW135375   2.387   1.719   6.365 -0.2300  0.2555  0.2161
 7971SOL    HW235376   2.379   1.582   6.402  1.6886  1.8540 -1.5757
 7972SOL     OW35377   2.393   3.363   5.974 -0.4032  0.1329 -0.2144
 7972SOL    HW135378   2.407   3.272   5.999 -1.3572  0.5857  1.9671
 7972SOL    HW235379   2.469   3.415   5.999 -1.1336  1.3249 -0.4998
 7973SOL     OW35380   4.453   2.090   3.992 -0.7035  0.6815 -0.2368
 7973SOL    HW135381   4.547   2.084   4.010 -0.5707  0.1749 -1.0704
 7973SOL    HW235382   4.415   2.079   4.079 -1.5428  0.4570 -0.6331
 7974SOL     OW35383   1.234   1.375  15.406 -0.0898  0.4136 -0.0999
 7974SOL    HW135384   1.174   1.340  15.341  2.6970  1.0188 -3.0250
 7974SOL    HW235385   1.243   1.465  15.377 -0.2206  0.8129  1.0935
 7975SOL     OW35386   2.762   1.275  16.194  0.0372 -0.3899  0.2363
 7975SOL    HW135387   2.670   1.294  16.211  0.2159  0.6007  0.0950
 7975SOL    HW235388   2.782   1.218  16.268  0.8953 -3.6692 -2.5148
 7976SOL     OW35389   2.467   3.156   5.060 -0.0887  0.0052 -0.0718
 7976SOL    HW135390   2.399   3.089   5.073  0.2194 -0.3688 -0.3822
 7976SOL    HW235391   2.542   3.119   5.105  0.2338  0.2455 -0.4102
 7977SOL     OW35392   4.647   1.987   8.994 -0.1045  0.0293 -0.3721
 7977SOL    HW135393   4.688   2.033   9.068  2.3238 -0.4034 -1.4566
 7977SOL    HW235394   4.635   2.059   8.932  0.8808  0.1370 -0.4325
 7978SOL     OW35395   2.820   3.554   1.988 -0.1081  0.1960  0.4888
 7978SOL    HW135396   2.745   3.525   2.039 -0.9072  0.4644 -0.5265
 7978SOL    HW235397   2.800   3.647   1.991 -1.0668  0.0374 -0.8349
 7979SOL     OW35398   0.123   3.345   1.203  0.3247 -0.0129 -0.2077
 7979SOL    HW135399   0.147   3.388   1.121 -2.1914 -1.3960 -1.6431
 7979SOL    HW235400   0.210   3.313   1.227 -1.3946 -3.8246  0.9550
 7980SOL     OW35401   2.238   0.741   6.568 -0.4038  0.0077  0.8120
 7980SOL    HW135402   2.166   0.786   6.612 -1.2096  0.4103 -0.9116
 7980SOL    HW235403   2.217   0.760   6.477  2.4474 -0.7252  0.0140
 7981SOL     OW35404   3.833   1.054  15.720 -0.9072 -0.2109 -0.2948
 7981SOL    HW135405   3.829   1.121  15.652  1.4511  0.1395 -0.1099
 7981SOL    HW235406   3.802   1.111  15.791 -1.3084  0.2590 -0.8491
 7982SOL     OW35407   3.253   3.798   4.468  0.5341  0.6895 -0.0761
 7982SOL    HW135408   3.249   3.891   4.448 -1.0129  0.5570 -0.3489
 7982SOL    HW235409   3.232   3.778   4.377 -2.9992 -0.1830  0.9281
 7983SOL     OW35410   0.770   1.477   0.192 -0.2213 -0.9331  0.6255
 7983SOL    HW135411   0.801   1.541   0.256 -1.0501 -0.7815  0.8802
 7983SOL    HW235412   0.736   1.534   0.123 -1.5964 -1.2517  1.0297
 7984SOL     OW35413   1.885   0.463   3.694  0.0675 -0.1029  0.1129
 7984SOL    HW135414   1.933   0.545   3.684  1.5924 -0.8418  1.3984
 7984SOL    HW235415   1.911   0.421   3.776  0.6561  1.4184  0.6943
 7985SOL     OW35416   3.637   4.647   4.598 -0.3623 -0.0799  0.0297
 7985SOL    HW135417   3.658   4.615   4.511 -0.8146  1.6323 -0.7073
 7985SOL    HW235418   3.723   4.678   4.629 -0.2857  1.0423 -1.3325
 7986SOL     OW35419   3.187   0.603  10.177 -0.5418 -0.4177 -0.4131
 7986SOL    HW135420   3.243   0.668  10.219  1.0850 -1.2024 -1.3789
 7986SOL    HW235421   3.254   0.561  10.123 -0.8906 -0.7106 -0.6180
 7987SOL     OW35422   1.216   2.463  17.644 -0.7621  0.5344  0.4343
 7987SOL    HW135423   1.283   2.530  17.627 -0.9861  0.5814 -0.2655
 7987SOL    HW235424   1.222   2.465   0.048  0.8345  1.5071  0.3099
 7988SOL     OW35425   1.881   3.280   3.513 -0.1517 -0.1962  0.4533
 7988SOL    HW135426   1.954   3.220   3.498  0.0828  0.1142  0.3417
 7988SOL    HW235427   1.939   3.350   3.544 -0.7597  0.1625  0.7843
 7989SOL     OW35428   0.880   0.295   7.146 -1.1842  0.5504  0.2011
 7989SOL    HW135429   0.785   0.306   7.152 -1.0299  1.5817  0.7369
 7989SOL    HW235430   0.896   0.361   7.078 -1.3849  0.6731  0.2757
 7990SOL     OW35431   3.032   0.136   2.767  0.0672  0.1787  0.1725
 7990SOL    HW135432   2.960   0.128   2.704  0.0708  2.7483 -0.1544
 7990SOL    HW235433   3.086   0.209   2.738 -0.5616 -0.1399 -1.8098
 7991SOL     OW35434   0.144   3.191   0.365  0.3151 -0.5832 -0.1250
 7991SOL    HW135435   0.215   3.241   0.325 -1.2971  1.9763  0.2004
 7991SOL    HW235436   0.172   3.180   0.455 -1.3475  0.4694  0.5259
 7992SOL     OW35437   4.203   2.314  15.313  0.5831 -0.1748  0.3205
 7992SOL    HW135438   4.289   2.286  15.345  1.6511 -0.1420 -2.5248
 7992SOL    HW235439   4.208   2.297  15.219  0.5441 -2.6651  0.7596
 7993SOL     OW35440   2.967   2.166  11.328 -0.0520 -0.2947  0.7366
 7993SOL    HW135441   2.934   2.139  11.242 -0.1998  2.3289 -0.0535
 7993SOL    HW235442   3.022   2.238  11.297 -0.7439  0.2936  0.8694
 7994SOL     OW35443   1.327   4.003   1.634  0.0182  0.7477 -0.1728
 7994SOL    HW135444   1.375   3.923   1.612 -1.7080 -0.5879  0.9458
 7994SOL    HW235445   1.394   4.049   1.686  0.4807 -1.3020  1.0176
 7995SOL     OW35446   2.549   3.506   7.681  0.4566 -0.2375  0.1619
 7995SOL    HW135447   2.529   3.424   7.726  1.8420 -1.9591 -2.3910
 7995SOL    HW235448   2.495   3.485   7.605  0.3325  1.3798 -0.2037
 7996SOL     OW35449   4.576   2.347   8.484 -0.1028 -0.0103 -0.1439
 7996SOL    HW135450   4.662   2.381   8.508 -0.3059 -0.4004  1.1191
 7996SOL    HW235451   4.578   2.371   8.391  2.2425 -2.1634 -0.6758
 7997SOL     OW35452   1.777   3.819   2.413 -0.2686  0.5958  0.0451
 7997SOL    HW135453   1.839   3.748   2.429 -0.2219  0.6872  0.2827
 7997SOL    HW235454   1.765   3.840   2.506  0.0986  0.1873  0.1823
 7998SOL     OW35455   4.120   1.822   8.419  0.5160 -0.2416  0.3589
 7998SOL    HW135456   4.186   1.884   8.386  0.6654 -1.5165 -1.7417
 7998SOL    HW235457   4.056   1.876   8.464  0.3413  0.2709 -0.4958
 7999SOL     OW35458   0.395   4.538   9.584  0.1332 -0.2490 -0.4751
 7999SOL    HW135459   0.459   4.503   9.645 -1.1403 -0.4272  0.7452
 7999SOL    HW235460   0.410   4.628   9.556 -0.1092 -0.8384 -2.5462
 8000SOL     OW35461   3.724   2.330   3.504  0.2505 -0.3001 -0.1485
 8000SOL    HW135462   3.670   2.293   3.434 -0.6092  1.5999 -0.4723
 8000SOL    HW235463   3.715   2.267   3.576  2.5408 -1.5992 -0.9822
 8001SOL     OW35464   1.511   4.332   7.544 -0.7049  0.3583  0.3200
 8001SOL    HW135465   1.512   4.427   7.554  3.4034  0.2358  1.0939
 8001SOL    HW235466   1.586   4.313   7.600  0.2677  2.3949 -0.2916
 8002SOL     OW35467   3.930   0.987   2.424 -0.2526 -0.3771 -0.3057
 8002SOL    HW135468   3.950   1.081   2.429  0.7466 -0.5038 -1.8852
 8002SOL    HW235469   3.970   0.960   2.341  0.7087  2.1272 -0.6803
 8003SOL     OW35470   4.223   3.800   9.043 -0.7257 -0.1389  0.0879
 8003SOL    HW135471   4.193   3.719   9.086  3.3657 -1.0503  1.1596
 8003SOL    HW235472   4.292   3.823   9.105 -1.1360 -1.4925  1.0464
 8004SOL     OW35473   4.059   1.487   1.701  0.2323 -0.3050  0.3716
 8004SOL    HW135474   4.088   1.400   1.726 -2.7347 -0.4502  3.2407
 8004SOL    HW235475   3.966   1.498   1.723  0.0444  0.0432 -0.5679
 8005SOL     OW35476   2.559   0.461   9.895  0.5879 -0.4494  0.6138
 8005SOL    HW135477   2.486   0.429   9.842  0.9123 -0.8607  0.4136
 8005SOL    HW235478   2.588   0.387   9.948  1.5300 -1.6270 -1.5520
 8006SOL     OW35479   3.859   3.118   5.205 -0.2378  0.5921  0.0593
 8006SOL    HW135480   3.896   3.204   5.187 -0.0572  0.7578  1.2252
 8006SOL    HW235481   3.924   3.058   5.170 -0.3956  1.3792 -1.5728
 8007SOL     OW35482   3.804   3.681   5.460  0.4616  0.0625  0.0024
 8007SOL    HW135483   3.775   3.654   5.373  1.1250  0.8091 -0.4552
 8007SOL    HW235484   3.830   3.594   5.489 -0.4141 -0.3563 -0.4613
 8008SOL     OW35485   3.283   3.955   5.340 -0.1140  0.4374 -0.1777
 8008SOL    HW135486   3.351   3.942   5.406 -1.1226 -0.2969  0.7009
 8008SOL    HW235487   3.251   4.045   5.345 -1.0620  0.1206 -0.4601
 8009SOL     OW35488   3.396   3.074   4.300  0.2016 -0.3623  0.0602
 8009SOL    HW135489   3.378   3.125   4.378  0.0645 -2.3940  1.3622
 8009SOL    HW235490   3.347   3.125   4.236  2.2672  1.5101 -0.0397
 8010SOL     OW35491   4.180   0.652  13.097 -0.6725  0.9072  0.3681
 8010SOL    HW135492   4.254   0.647  13.037 -0.7746 -1.2654  0.4341
 8010SOL    HW235493   4.114   0.698  13.045  0.1620 -0.2094 -1.6553
 8011SOL     OW35494   3.904   4.123   8.165  0.3867  0.2871  0.2090
 8011SOL    HW135495   3.992   4.092   8.145  0.6709  1.2804 -0.0894
 8011SOL    HW235496   3.921   4.217   8.168  3.1414 -0.2706  1.9412
 8012SOL     OW35497   2.161   3.778   0.450  1.0314  0.2033  0.0154
 8012SOL    HW135498   2.228   3.711   0.437  0.6204 -0.2758  0.3648
 8012SOL    HW235499   2.089   3.727   0.487  0.2363  0.3088 -1.4092
 8013SOL     OW35500   4.587   1.094   3.341  0.5863 -0.5018 -0.6783
 8013SOL    HW135501   4.513   1.146   3.371  0.5076 -0.5278 -0.8317
 8013SOL    HW235502   4.634   1.161   3.292 -1.3461  1.6821  0.4700
 8014SOL     OW35503   4.249   1.428   5.586 -0.1648  0.2387 -0.3788
 8014SOL    HW135504   4.256   1.333   5.600 -1.1563 -0.1922 -2.8716
 8014SOL    HW235505   4.154   1.433   5.572 -0.4634 -3.0504  0.3959
 8015SOL     OW35506   3.473   3.791   2.995 -0.5208  0.1815 -0.6740
 8015SOL    HW135507   3.518   3.714   2.959 -1.2367 -1.6128  2.3023
 8015SOL    HW235508   3.545   3.830   3.044 -0.7551 -0.7456  0.3822
 8016SOL     OW35509   3.994   2.120   6.791 -0.1167 -0.0506 -0.7374
 8016SOL    HW135510   3.964   2.185   6.854 -1.2804 -2.4657  1.1980
 8016SOL    HW235511   3.981   2.163   6.706  2.3783  0.6022 -0.7944
 8017SOL     OW35512   4.580   0.052  10.607  0.3670 -0.1289 -0.0489
 8017SOL    HW135513   4.534   0.023  10.528  0.0176  0.3731 -0.0301
 8017SOL    HW235514   4.517   0.018  10.671  2.1245 -0.0448  1.7176
 8018SOL     OW35515   0.636   4.113   6.449  0.0648  0.4827  0.2130
 8018SOL    HW135516   0.627   4.034   6.395 -0.5347 -0.1071  1.1863
 8018SOL    HW235517   0.547   4.134   6.478  0.9884  1.4845  2.2662
 8019SOL     OW35518   0.867   1.647   0.789 -0.3622  0.0383  1.1964
 8019SOL    HW135519   0.907   1.566   0.820  1.5256 -0.0445 -1.4780
 8019SOL    HW235520   0.941   1.704   0.809 -3.3294  3.7567  1.4803
 8020SOL     OW35521   4.475   3.760   5.606  0.0268 -0.2208 -0.2679
 8020SOL    HW135522   4.379   3.759   5.607  0.0355  3.3872  1.4723
 8020SOL    HW235523   4.486   3.716   5.691 -0.2328  0.9148  0.3440
 8021SOL     OW35524   0.039   1.703  10.529 -0.1796  0.4544 -0.4055
 8021SOL    HW135525   0.025   1.784  10.579  0.1376  0.6586 -0.6454
 8021SOL    HW235526   0.130   1.707  10.500  0.7631  0.3947  2.5686
 8022SOL     OW35527   0.355   4.153   3.577  0.5484  0.2256  0.2729
 8022SOL    HW135528   0.448   4.146   3.600  0.8797 -2.9638 -2.0478
 8022SOL    HW235529   0.321   4.210   3.646 -2.2803  1.5564 -2.2434
 8023SOL     OW35530   1.424   4.497   4.780  0.4083 -0.5666 -0.1390
 8023SOL    HW135531   1.514   4.471   4.801  0.1380 -1.8196 -0.5251
 8023SOL    HW235532   1.382   4.424   4.825  1.6432 -0.9822  0.3503
 8024SOL     OW35533   3.737   1.120   5.119 -0.1195 -0.0487 -0.1151
 8024SOL    HW135534   3.658   1.153   5.076 -0.0308 -1.2592 -1.2108
 8024SOL    HW235535   3.804   1.185   5.102  0.8111 -0.5107  1.7167
 8025SOL     OW35536   0.938   4.042   0.489 -0.8153 -0.5912  0.3430
 8025SOL    HW135537   0.849   4.062   0.520 -0.8551 -0.4984  0.1681
 8025SOL    HW235538   0.975   4.126   0.461 -0.0027 -1.4456 -1.1087
 8026SOL     OW35539   4.332   2.573   6.613  0.1618  0.7228 -0.1854
 8026SOL    HW135540   4.296   2.640   6.671 -2.7359  0.2787 -1.4577
 8026SOL    HW235541   4.365   2.627   6.541  1.0057 -0.4815 -0.7023
 8027SOL     OW35542   4.627   2.064   8.465 -0.8130 -0.3737 -0.1204
 8027SOL    HW135543   4.680   2.092   8.390 -0.7347 -1.8060 -0.6064
 8027SOL    HW235544   4.611   2.152   8.498  0.7943 -0.5010  0.9841
 8028SOL     OW35545   0.398   3.050   2.676 -0.3145  0.4995 -0.1151
 8028SOL    HW135546   0.475   3.100   2.653  0.0270 -0.0489 -0.1633
 8028SOL    HW235547   0.362   3.114   2.738  1.1277  0.0274  1.1996
 8029SOL     OW35548   1.354   1.705  16.131 -0.0073 -0.0717  0.1426
 8029SOL    HW135549   1.319   1.662  16.053 -0.0064  0.5619 -0.2068
 8029SOL    HW235550   1.349   1.794  16.096 -1.9097 -0.2124  0.0387
 8030SOL     OW35551   3.516   0.467   9.948 -0.1074 -0.5790  0.8628
 8030SOL    HW135552   3.432   0.504   9.921  0.8055  1.8803  1.3608
 8030SOL    HW235553   3.501   0.397  10.011  0.1462 -1.2590  0.1749
 8031SOL     OW35554   1.444   1.255   7.752 -0.5373  0.1683 -0.3068
 8031SOL    HW135555   1.378   1.198   7.713 -0.0496  0.7925 -2.0765
 8031SOL    HW235556   1.403   1.283   7.833 -2.7997 -2.9605 -0.3631
 8032SOL     OW35557   3.684   3.409   3.570 -0.1969 -0.0159  0.1924
 8032SOL    HW135558   3.719   3.368   3.649 -0.5073  0.5482  0.6214
 8032SOL    HW235559   3.610   3.462   3.600 -0.0896  0.4379 -0.3533
 8033SOL     OW35560   1.937   0.049   9.288  0.0110  0.1244  0.2219
 8033SOL    HW135561   2.001   0.004   9.342 -0.6327 -0.9539  0.0770
 8033SOL    HW235562   1.893   0.089   9.363  1.0601  2.0764 -0.1821
 8034SOL     OW35563   2.558   4.671   7.201 -0.0509 -0.5993 -0.1119
 8034SOL    HW135564   2.485   4.666   7.139  0.3107 -0.9689 -0.5097
 8034SOL    HW235565   2.594   4.582   7.202 -0.8151 -0.8828  2.3479
 8035SOL     OW35566   1.989   1.138   5.968 -0.6327 -0.1603 -0.0670
 8035SOL    HW135567   2.037   1.188   6.034 -0.2230 -0.8653  0.1704
 8035SOL    HW235568   1.911   1.193   5.958 -0.0784  0.5841 -0.2791
 8036SOL     OW35569   1.021   2.422   8.041  0.3645 -0.0116 -0.2319
 8036SOL    HW135570   1.017   2.510   8.079 -0.1667 -0.1711  0.0887
 8036SOL    HW235571   1.078   2.438   7.966  0.6393 -0.5245 -0.1276
 8037SOL     OW35572   4.670   1.035   7.957  0.3802 -0.0901 -0.0654
 8037SOL    HW135573   4.594   1.019   8.012 -0.0582  0.8373 -0.4059
 8037SOL    HW235574   0.010   1.086   8.009  0.5506 -1.5920  1.2139
 8038SOL     OW35575   4.055   1.174  12.758  0.1025 -0.8293  0.5916
 8038SOL    HW135576   4.141   1.212  12.740 -0.6055 -0.1260 -1.4070
 8038SOL    HW235577   4.004   1.193  12.679  1.5008 -1.1539 -0.3841
 8039SOL     OW35578   1.230   2.263   5.713 -0.1154  0.4052 -0.4428
 8039SOL    HW135579   1.314   2.222   5.693 -1.6309 -3.1242  0.3719
 8039SOL    HW235580   1.235   2.348   5.670  0.3200 -0.2064 -1.5844
 8040SOL     OW35581   4.106   1.207   9.121  0.1032 -0.2248 -0.3466
 8040SOL    HW135582   4.160   1.279   9.087 -0.2292 -0.2017 -0.8208
 8040SOL    HW235583   4.123   1.156   9.042  0.0166 -0.3118 -0.3091
 8041SOL     OW35584   3.116   1.614   4.198 -0.5097  0.3301  0.2603
 8041SOL    HW135585   3.124   1.578   4.110  0.7290  1.5237 -0.1061
 8041SOL    HW235586   3.200   1.656   4.213 -1.2280  2.6866 -2.2007
 8042SOL     OW35587   1.281   0.634   2.905  0.6020  0.6340  0.0641
 8042SOL    HW135588   1.257   0.650   2.997 -0.1331  0.7374 -0.1464
 8042SOL    HW235589   1.275   0.540   2.892  2.1343  0.6255 -0.5701
 8043SOL     OW35590   3.505   2.163   3.054 -0.0408 -0.2822  0.4861
 8043SOL    HW135591   3.436   2.152   2.989  1.9035 -2.5800 -1.2105
 8043SOL    HW235592   3.557   2.084   3.037 -1.0844 -1.0234  0.7239
 8044SOL     OW35593   1.107   1.846   2.940  0.0225  0.4052 -0.3511
 8044SOL    HW135594   1.183   1.789   2.948  0.6759  1.2973 -0.1964
 8044SOL    HW235595   1.038   1.779   2.936 -0.3532  0.7379  0.6646
 8045SOL     OW35596   2.755   4.170   3.186  0.2230 -0.3996 -0.0301
 8045SOL    HW135597   2.681   4.165   3.125  1.4298 -0.4226 -1.5125
 8045SOL    HW235598   2.758   4.255   3.230  1.1984 -0.7732  0.6219
 8046SOL     OW35599   1.294   3.332   0.424 -0.5090 -0.0838  0.4197
 8046SOL    HW135600   1.347   3.374   0.491  1.4872 -0.1979 -1.0921
 8046SOL    HW235601   1.314   3.394   0.355 -0.1128 -0.4725  0.1785
 8047SOL     OW35602   0.808   0.580  14.304  0.3337  0.6828 -0.6920
 8047SOL    HW135603   0.835   0.670  14.323 -0.5064  1.3060 -2.5356
 8047SOL    HW235604   0.757   0.595  14.225 -0.2585  0.0190 -0.4374
 8048SOL     OW35605   3.205   1.905   2.662  0.5179  0.5399  0.1036
 8048SOL    HW135606   3.229   1.947   2.745  1.5200 -0.3853  0.2891
 8048SOL    HW235607   3.201   1.809   2.668  0.2380  0.5024 -0.6270
 8049SOL     OW35608   3.216   0.151  13.939  0.1328 -0.5678  0.7250
 8049SOL    HW135609   3.305   0.123  13.957  0.3902  0.7897  1.5436
 8049SOL    HW235610   3.176   0.070  13.968  0.4524 -1.1602 -0.4767
 8050SOL     OW35611   4.247   0.312   5.666 -0.1508  0.0547 -0.4424
 8050SOL    HW135612   4.236   0.260   5.745 -0.1351 -0.1359 -0.5672
 8050SOL    HW235613   4.304   0.257   5.614 -0.2623 -0.4072 -0.0705
 8051SOL     OW35614   1.201   3.456   0.938 -0.4868 -0.3159 -0.4707
 8051SOL    HW135615   1.122   3.415   0.904  1.0087 -1.8787 -2.0566
 8051SOL    HW235616   1.258   3.380   0.947  1.4117  0.9485 -1.5520
 8052SOL     OW35617   0.646   3.724   8.207 -0.3871 -0.1426  0.3239
 8052SOL    HW135618   0.672   3.701   8.119 -1.0421 -1.7691  0.5542
 8052SOL    HW235619   0.688   3.649   8.248 -0.8962 -1.1185 -0.9589
 8053SOL     OW35620   0.207   0.683  14.068 -0.2222  0.3630 -0.2908
 8053SOL    HW135621   0.294   0.658  14.038  0.9852  1.4020  2.2973
 8053SOL    HW235622   0.167   0.691  13.982 -0.4824 -0.5819 -0.2501
 8054SOL     OW35623   3.049   4.075   0.741 -0.3098  0.0827 -0.4476
 8054SOL    HW135624   2.957   4.098   0.724 -0.9826  0.1609  3.2663
 8054SOL    HW235625   3.047   4.070   0.837  0.7204 -0.7468 -0.4696
 8055SOL     OW35626   3.395   4.540   4.507 -0.5012  0.3568 -0.3398
 8055SOL    HW135627   3.484   4.573   4.519 -0.1814 -0.5454 -0.2346
 8055SOL    HW235628   3.405   4.468   4.444 -0.1379 -2.0132  2.4211
 8056SOL     OW35629   4.664   1.808   9.407 -0.1836  0.4348  0.2782
 8056SOL    HW135630   4.667   1.750   9.483  0.7072 -0.0074 -0.0956
 8056SOL    HW235631   0.017   1.864   9.426  1.6313 -1.7195 -0.5598
 8057SOL     OW35632   1.654   2.279  11.471  0.1209  0.0008 -0.4368
 8057SOL    HW135633   1.733   2.314  11.511 -1.5152 -0.3791  3.1512
 8057SOL    HW235634   1.583   2.336  11.501 -0.0161 -0.7614  0.6786
 8058SOL     OW35635   4.393   0.350   8.130  0.1150 -0.2048  0.2737
 8058SOL    HW135636   4.328   0.384   8.191  0.8973 -0.4916  1.2809
 8058SOL    HW235637   4.476   0.381   8.168  0.3883  0.6766 -1.0708
 8059SOL     OW35638   2.067   2.149  11.840 -0.4783 -1.0958 -0.0936
 8059SOL    HW135639   2.085   2.056  11.850 -0.7836 -1.0486  0.9327
 8059SOL    HW235640   2.035   2.144  11.750  0.8194 -0.4153 -0.5925
 8060SOL     OW35641   1.386   3.670   8.921  0.0940 -0.1838  0.0660
 8060SOL    HW135642   1.388   3.628   9.007 -2.3971  0.7417  0.5746
 8060SOL    HW235643   1.383   3.764   8.941 -1.9374 -0.3434  0.4798
 8061SOL     OW35644   2.718   1.489   3.109 -0.7259 -0.3328 -0.1478
 8061SOL    HW135645   2.793   1.471   3.166 -0.7396 -1.1355 -0.3848
 8061SOL    HW235646   2.727   1.583   3.092  0.3480 -0.5033 -0.5170
 8062SOL     OW35647   0.351   0.018   7.790  0.5376 -0.4099 -0.5112
 8062SOL    HW135648   0.436   0.021   7.834  0.8551  0.9350 -1.2167
 8062SOL    HW235649   0.295   4.701   7.857 -0.3334  2.0170  0.1801
 8063SOL     OW35650   0.213   4.495   5.464  0.2377 -0.2747 -0.1672
 8063SOL    HW135651   0.226   4.415   5.414 -0.7051  0.1523 -1.1091
 8063SOL    HW235652   0.267   4.558   5.417  3.3448 -1.7549  1.4929
 8064SOL     OW35653   4.345   4.513   5.378  0.2679  0.0370  0.1231
 8064SOL    HW135654   4.379   4.544   5.462 -0.4435 -1.0690  0.8275
 8064SOL    HW235655   4.259   4.483   5.407  0.6680 -1.8325 -0.6220
 8065SOL     OW35656   2.942   3.872   8.291 -0.2579  0.4289  0.3496
 8065SOL    HW135657   2.943   3.963   8.319 -1.9113 -0.1821  2.3605
 8065SOL    HW235658   3.037   3.861   8.297 -0.5325 -1.4158  1.4337
 8066SOL     OW35659   1.264   4.628   7.708  0.2767  0.1896 -0.0479
 8066SOL    HW135660   1.208   4.567   7.756 -1.0186 -0.7486 -2.7591
 8066SOL    HW235661   1.281   4.705   7.763  0.4055  1.3891 -1.7357
 8067SOL     OW35662   4.059   3.613   9.980  0.0173  0.5153 -0.4192
 8067SOL    HW135663   4.027   3.595   9.892 -0.7811 -2.0360  0.3907
 8067SOL    HW235664   3.987   3.584  10.037 -0.1955 -1.2665 -1.5851
 8068SOL     OW35665   2.962   2.639   0.563  0.5893  0.0759 -0.1632
 8068SOL    HW135666   2.942   2.612   0.473 -1.2494 -1.7735  0.8190
 8068SOL    HW235667   2.920   2.569   0.612  1.5628  0.4294  1.1459
 8069SOL     OW35668   2.104   0.335   2.657  0.0902  0.3605  0.1638
 8069SOL    HW135669   2.191   0.320   2.620 -0.1458  1.8216 -1.0090
 8069SOL    HW235670   2.050   0.308   2.582  3.5311  0.2435 -2.2485
 8070SOL     OW35671   3.574   4.292  15.442 -0.7870  0.2666  0.2049
 8070SOL    HW135672   3.517   4.347  15.387 -0.8655  0.8794  0.8841
 8070SOL    HW235673   3.544   4.202  15.430  0.3160  0.1255 -1.4215
 8071SOL     OW35674   3.419   3.889  17.685 -0.0752  0.0762 -0.3644
 8071SOL    HW135675   3.348   3.828   0.010  0.2858 -0.1745  0.2938
 8071SOL    HW235676   3.470   3.822  17.639  1.6102 -0.9582  2.9746
 8072SOL     OW35677   4.491   2.711   8.681  0.1190  0.0532 -0.1029
 8072SOL    HW135678   4.577   2.671   8.669 -0.2400 -0.4200 -1.1552
 8072SOL    HW235679   4.437   2.633   8.667  0.7967 -0.0985 -1.9563
 8073SOL     OW35680   1.532   4.577   9.544 -0.1578 -0.2633 -0.1467
 8073SOL    HW135681   1.475   4.522   9.491  0.5236  1.4231 -2.6111
 8073SOL    HW235682   1.499   4.578   9.634 -1.9796  2.3203 -0.8404
 8074SOL     OW35683   3.396   3.923   7.446 -0.3311 -0.2609 -0.2342
 8074SOL    HW135684   3.482   3.926   7.488 -0.3004  2.6104 -0.5030
 8074SOL    HW235685   3.359   3.867   7.514 -1.0150  0.1392 -0.2822
 8075SOL     OW35686   4.358   0.267  16.447 -0.3643  0.2510 -0.1583
 8075SOL    HW135687   4.336   0.285  16.356 -1.2585 -0.2358 -0.0410
 8075SOL    HW235688   4.446   0.229  16.442 -1.7170 -2.7743 -1.1344
 8076SOL     OW35689   3.911   1.472  11.192  0.7320 -0.3640  0.3580
 8076SOL    HW135690   3.929   1.413  11.265  1.4172  1.2849  1.5051
 8076SOL    HW235691   3.998   1.486  11.155  1.0292  0.3431  1.3153
 8077SOL     OW35692   2.313   2.892  12.157 -0.3855  0.5203  0.2767
 8077SOL    HW135693   2.237   2.870  12.102 -0.6926  2.1681  0.0373
 8077SOL    HW235694   2.368   2.946  12.100 -2.1296  0.6997 -1.2383
 8078SOL     OW35695   2.447   0.852   9.067 -0.1343  0.0227  0.9891
 8078SOL    HW135696   2.476   0.880   9.154  0.9744  0.9052  0.3194
 8078SOL    HW235697   2.356   0.826   9.080  0.3811 -0.8417  2.8831
 8079SOL     OW35698   1.019   0.492  15.290  0.2660  0.2972 -0.1897
 8079SOL    HW135699   0.940   0.438  15.295 -0.0495  0.6003 -1.8837
 8079SOL    HW235700   1.066   0.426  15.240 -1.2000 -1.6419  0.9694
 8080SOL     OW35701   1.127   2.210  11.749  0.1951 -0.2620 -0.1464
 8080SOL    HW135702   1.060   2.214  11.817 -0.3286  0.7263 -0.7342
 8080SOL    HW235703   1.117   2.295  11.708 -0.3116 -0.4938 -0.4963
 8081SOL     OW35704   1.229   4.305   2.651 -0.4465  0.1497  0.1875
 8081SOL    HW135705   1.181   4.251   2.589  1.8172 -0.9708 -0.6065
 8081SOL    HW235706   1.252   4.241   2.719  0.5678 -1.6951 -1.8955
 8082SOL     OW35707   1.050   3.790   9.660 -0.8426 -0.3612 -0.4482
 8082SOL    HW135708   0.995   3.852   9.708 -0.8008 -0.4589 -0.2764
 8082SOL    HW235709   1.004   3.711   9.688 -0.6779 -1.2070 -2.5279
 8083SOL     OW35710   2.722   1.023   7.146 -0.0470 -0.1804 -0.2411
 8083SOL    HW135711   2.715   1.118   7.156  2.1137 -0.2527  1.8881
 8083SOL    HW235712   2.635   1.001   7.112 -0.8703  0.7002  1.2586
 8084SOL     OW35713   3.533   0.754   3.663  0.6377 -0.0051  0.4958
 8084SOL    HW135714   3.490   0.839   3.670  2.4454  1.0396 -1.2559
 8084SOL    HW235715   3.464   0.703   3.621 -0.4769  2.6789 -0.9507
 8085SOL     OW35716   0.718   0.910   5.726 -0.5450 -0.3332  0.3289
 8085SOL    HW135717   0.639   0.855   5.727 -0.8507  0.1356  1.8718
 8085SOL    HW235718   0.726   0.943   5.815  1.7781  0.4192 -0.1803
 8086SOL     OW35719   1.155   4.253   3.070 -0.1301 -0.3331 -0.6070
 8086SOL    HW135720   1.064   4.232   3.050 -0.9482  2.2590  0.4879
 8086SOL    HW235721   1.159   4.278   3.162 -1.8429  0.8419 -0.8625
 8087SOL     OW35722   4.101   4.044   6.186 -0.2846 -0.1169 -0.1393
 8087SOL    HW135723   4.092   3.992   6.106 -0.8616  0.7287 -0.6140
 8087SOL    HW235724   4.016   4.089   6.184 -1.0397 -1.5033  0.5411
 8088SOL     OW35725   1.941   2.887   7.893 -0.3121 -0.7471 -0.1426
 8088SOL    HW135726   1.858   2.840   7.891 -0.6026 -0.2608  0.3858
 8088SOL    HW235727   1.965   2.873   7.984  1.5722  0.3316 -0.4703
 8089SOL     OW35728   3.865   1.002  17.623  0.3343  0.5187  0.5913
 8089SOL    HW135729   3.823   0.917  17.607  0.8955 -0.0347  2.0541
 8089SOL    HW235730   3.949   0.989  17.580 -1.0237 -5.3783 -0.3962
 8090SOL     OW35731   3.224   1.438  11.955 -0.6031  0.1848 -0.7913
 8090SOL    HW135732   3.255   1.474  12.038 -0.8481 -3.2175  0.8007
 8090SOL    HW235733   3.193   1.354  11.990 -1.8966  0.9542 -0.1053
 8091SOL     OW35734   0.431   1.128   6.139  0.4163  0.8603  0.0558
 8091SOL    HW135735   0.352   1.110   6.191  1.6738 -4.0154  0.2713
 8091SOL    HW235736   0.384   1.141   6.057  0.4656 -0.7105 -0.2229
 8092SOL     OW35737   0.369   1.670   8.633 -0.1196 -0.3057  0.6010
 8092SOL    HW135738   0.342   1.718   8.554  0.9229 -0.2078  0.3128
 8092SOL    HW235739   0.291   1.676   8.688 -2.1624 -1.1042 -2.1712
 8093SOL     OW35740   2.470   0.201   3.202 -0.5844 -0.3042 -0.7765
 8093SOL    HW135741   2.531   0.261   3.160 -0.1404  0.4392  0.8991
 8093SOL    HW235742   2.386   0.206   3.156 -1.1760 -3.9045 -0.1071
 8094SOL     OW35743   0.969   3.886   6.804  0.0315  0.1135  0.4613
 8094SOL    HW135744   0.905   3.853   6.867 -2.0849 -2.1773 -2.9363
 8094SOL    HW235745   1.041   3.824   6.818  0.7577  1.0227  0.8195
 8095SOL     OW35746   3.801   0.424   1.446 -0.0106  0.3808  0.1312
 8095SOL    HW135747   3.875   0.440   1.387  0.1909 -1.5306 -0.1420
 8095SOL    HW235748   3.722   0.475   1.426 -0.4166  0.0655  0.8993
 8096SOL     OW35749   3.862   1.606   2.278 -0.5953 -0.2193  0.3037
 8096SOL    HW135750   3.832   1.686   2.321 -1.4665  0.2005 -1.1110
 8096SOL    HW235751   3.797   1.617   2.209  0.1560 -0.8866 -0.5038
 8097SOL     OW35752   1.581   2.493  11.981 -0.3209 -0.2808 -0.0481
 8097SOL    HW135753   1.550   2.542  12.057  1.6808  2.0706 -0.7116
 8097SOL    HW235754   1.550   2.404  11.996  0.1669 -0.7523 -1.7375
 8098SOL     OW35755   0.451   1.501   4.191 -0.1095 -0.3294 -0.3601
 8098SOL    HW135756   0.447   1.494   4.096 -3.0515  0.8977 -0.3310
 8098SOL    HW235757   0.387   1.568   4.217  1.0024  0.2009  1.0455
 8099SOL     OW35758   0.208   0.699  15.267 -1.0636  0.3506  0.5229
 8099SOL    HW135759   0.292   0.745  15.276  1.7720 -4.6728  0.0246
 8099SOL    HW235760   0.181   0.698  15.359  0.8916  1.5981  1.1227
 8100SOL     OW35761   4.091   2.974   5.083  0.0744 -0.7055 -0.9163
 8100SOL    HW135762   4.179   2.969   5.044  0.3086 -1.5487 -0.2816
 8100SOL    HW235763   4.078   2.883   5.110 -2.2696 -0.5091 -1.3896
 8101SOL     OW35764   1.433   4.425   5.790  0.7483 -0.4208 -0.1165
 8101SOL    HW135765   1.516   4.464   5.762  0.6559 -1.6452 -2.0826
 8101SOL    HW235766   1.453   4.344   5.837 -1.9671  0.0601  1.8441
 8102SOL     OW35767   3.349   0.242   9.795 -0.2656  0.0071 -0.5845
 8102SOL    HW135768   3.309   0.199   9.870  0.9691  0.4719  0.3491
 8102SOL    HW235769   3.309   0.327   9.813 -0.0759  0.1270 -0.7183
 8103SOL     OW35770   4.086   2.745  12.914 -0.0934 -0.5305  0.4365
 8103SOL    HW135771   4.177   2.770  12.927 -0.6235  1.7136 -0.0379
 8103SOL    HW235772   4.086   2.689  12.992 -2.0009 -1.9536 -0.5958
 8104SOL     OW35773   1.695   2.578   6.505  0.0934 -0.3760 -0.1482
 8104SOL    HW135774   1.731   2.661   6.534 -2.1502 -0.0669  1.7258
 8104SOL    HW235775   1.600   2.590   6.513  0.1066  0.6650 -1.6305
 8105SOL     OW35776   1.307   3.541  13.863  0.1084  0.7015 -0.1061
 8105SOL    HW135777   1.323   3.624  13.818 -1.5587  0.6051 -0.8962
 8105SOL    HW235778   1.228   3.519  13.814  0.3873 -2.8764  1.0671
 8106SOL     OW35779   2.417   1.691   5.287 -0.4421  0.4290 -0.0769
 8106SOL    HW135780   2.373   1.673   5.370  0.2540  2.2855  0.6898
 8106SOL    HW235781   2.508   1.679   5.315  0.1778  2.4304 -1.2307
 8107SOL     OW35782   1.634   1.181   5.065  0.6028 -0.1102  0.4246
 8107SOL    HW135783   1.674   1.213   4.983  0.8946  0.7828  0.9158
 8107SOL    HW235784   1.713   1.180   5.118  0.4948 -1.7116  0.5524
 8108SOL     OW35785   3.719   1.834   8.314 -0.7572  0.4618 -0.2745
 8108SOL    HW135786   3.766   1.755   8.343 -0.9519 -0.0890 -1.4697
 8108SOL    HW235787   3.667   1.792   8.246 -2.9786  2.6096  0.1172
 8109SOL     OW35788   4.441   0.447  11.876 -0.4031  0.6094  0.2953
 8109SOL    HW135789   4.375   0.442  11.807 -0.2718  3.2947 -0.0271
 8109SOL    HW235790   4.517   0.438  11.819  0.5026  1.5674  1.3623
 8110SOL     OW35791   1.150   4.502  14.962 -0.4593 -0.0057 -0.0935
 8110SOL    HW135792   1.222   4.440  14.977 -1.6820 -1.2512  0.6153
 8110SOL    HW235793   1.113   4.502  15.050  1.5340 -1.3393  0.7429
 8111SOL     OW35794   0.270   1.730   5.018 -0.4496  0.6662 -0.1676
 8111SOL    HW135795   0.306   1.704   4.932  0.5632 -1.4062  0.8841
 8111SOL    HW235796   0.351   1.734   5.069 -1.5776 -2.2124  1.8068
 8112SOL     OW35797   1.488   3.861   3.807 -0.4161 -0.1487  0.1111
 8112SOL    HW135798   1.418   3.806   3.773  1.5301 -2.4313 -0.1672
 8112SOL    HW235799   1.452   3.949   3.800 -2.7162 -1.2752 -2.0631
 8113SOL     OW35800   2.083   4.318   3.408 -0.7799 -0.5057  0.0531
 8113SOL    HW135801   2.116   4.277   3.488  3.6013 -0.2206 -1.6404
 8113SOL    HW235802   2.035   4.242   3.374  0.7206 -0.8277 -1.3343
 8114SOL     OW35803   3.146   1.751   1.773 -0.3312  0.4627  0.3905
 8114SOL    HW135804   3.055   1.771   1.754 -0.8006  0.3286  2.4754
 8114SOL    HW235805   3.148   1.791   1.861  1.5072 -2.2963  1.6118
 8115SOL     OW35806   3.550   3.553  16.718 -0.1638  0.5405  0.0299
 8115SOL    HW135807   3.586   3.580  16.803  0.0670  1.5733 -0.3912
 8115SOL    HW235808   3.559   3.630  16.662 -1.8002 -0.0783 -1.0610
 8116SOL     OW35809   0.956   4.170   7.791 -0.1668 -0.7581 -0.5147
 8116SOL    HW135810   0.993   4.258   7.801  1.1266 -1.4869  1.1473
 8116SOL    HW235811   0.891   4.180   7.860 -0.2918 -0.8146 -0.6261
 8117SOL     OW35812   0.177   1.101   7.439  0.1457 -0.3298  0.2225
 8117SOL    HW135813   0.184   1.104   7.534  0.5863 -1.8290  0.2486
 8117SOL    HW235814   0.087   1.131   7.436  0.3857  0.3666 -0.1324
 8118SOL     OW35815   1.762   2.298  16.341 -0.1738 -0.3392 -0.1945
 8118SOL    HW135816   1.807   2.380  16.320 -0.1972  0.1005  1.4770
 8118SOL    HW235817   1.761   2.304  16.436 -0.7887  1.0801 -0.2938
 8119SOL     OW35818   4.506   3.125  13.337  0.2175 -0.3264 -0.4658
 8119SOL    HW135819   4.523   3.040  13.296 -0.4160 -0.2449 -0.8954
 8119SOL    HW235820   4.592   3.167  13.342 -1.0256  2.2562 -0.5691
 8120SOL     OW35821   3.703   1.150   0.078 -0.1272  0.1069  0.0011
 8120SOL    HW135822   3.685   1.086   0.147  0.3436  0.5790  0.5668
 8120SOL    HW235823   3.766   1.103   0.023  0.0106  0.0294  0.2248
 8121SOL     OW35824   3.564   4.647   6.176  0.1410  0.4485 -0.1704
 8121SOL    HW135825   3.488   4.663   6.231 -1.0476 -1.9129 -1.1366
 8121SOL    HW235826   3.551   4.564   6.131 -0.2884  0.1973  0.4135
 8122SOL     OW35827   1.762   0.234  14.252  0.1719 -0.1195  0.0721
 8122SOL    HW135828   1.801   0.148  14.238 -0.0464  0.2297 -2.6327
 8122SOL    HW235829   1.687   0.215  14.309 -0.1077 -0.4974 -0.4162
 8123SOL     OW35830   1.073   3.936   3.355 -0.1504 -0.2372  0.0768
 8123SOL    HW135831   1.022   3.863   3.320  1.1914 -1.7710  1.3335
 8123SOL    HW235832   1.159   3.915   3.319 -0.4896 -1.7739  0.1756
 8124SOL     OW35833   1.775   1.374   4.872  0.8396 -0.2875 -0.2281
 8124SOL    HW135834   1.793   1.349   4.781  1.2900  1.9303 -0.7631
 8124SOL    HW235835   1.861   1.390   4.910 -0.3166  1.3236  1.7232
 8125SOL     OW35836   1.667   1.275   8.334  0.0984  0.3492 -0.0216
 8125SOL    HW135837   1.663   1.339   8.264 -0.7906  0.6306  0.2817
 8125SOL    HW235838   1.746   1.228   8.307 -0.6251  1.1462 -3.4323
 8126SOL     OW35839   0.779   2.226   4.246 -0.3532 -0.4531  0.2559
 8126SOL    HW135840   0.853   2.244   4.189 -0.2305  0.8783  0.8227
 8126SOL    HW235841   0.738   2.313   4.254  1.9917  0.7566 -0.8787
 8127SOL     OW35842   4.624   4.152   9.865  0.1845 -0.2984  0.0850
 8127SOL    HW135843   4.711   4.188   9.885  0.4862 -0.2922 -1.2597
 8127SOL    HW235844   4.608   4.122   9.955  0.4456  0.9344  0.5463
 8128SOL     OW35845   1.076   1.247   6.394 -0.1397  0.3514 -0.2919
 8128SOL    HW135846   1.049   1.337   6.376  1.5761  0.6211 -1.4047
 8128SOL    HW235847   1.091   1.211   6.307 -0.0284 -4.2495  1.6450
 8129SOL     OW35848   1.141   3.654   5.804 -0.7583  0.1123 -0.0714
 8129SOL    HW135849   1.156   3.748   5.795 -1.0536  0.1576 -0.0967
 8129SOL    HW235850   1.046   3.645   5.799 -0.6319 -1.5320  0.5231
 8130SOL     OW35851   0.834   3.037   9.055 -0.5745 -0.4292 -0.9070
 8130SOL    HW135852   0.829   3.004   8.965 -0.7978  1.2717 -1.5045
 8130SOL    HW235853   0.902   2.981   9.094 -2.0913 -2.0501 -0.5849
 8131SOL     OW35854   1.642   1.985   3.604 -0.0307 -0.1883  0.7216
 8131SOL    HW135855   1.611   2.033   3.680 -3.6140 -0.5280 -0.5462
 8131SOL    HW235856   1.725   2.030   3.591  1.2514 -3.2465 -1.9383
 8132SOL     OW35857   2.391   0.055   8.430 -0.1073  0.8799 -0.6275
 8132SOL    HW135858   2.462   0.025   8.373  0.2644  0.7189 -0.0794
 8132SOL    HW235859   2.339   0.087   8.356 -2.1482 -0.6277  0.1614
 8133SOL     OW35860   3.343   4.273   6.292  0.5762  0.4358  0.1102
 8133SOL    HW135861   3.265   4.266   6.347  0.2773  0.3046 -0.3360
 8133SOL    HW235862   3.393   4.200   6.330 -1.2594 -0.2945  1.1391
 8134SOL     OW35863   1.096   0.650   4.045 -0.0072  0.1509 -0.1925
 8134SOL    HW135864   1.083   0.656   3.950 -2.7026 -1.9599  0.0345
 8134SOL    HW235865   1.050   0.567   4.058  3.2208 -1.4655  0.9688
 8135SOL     OW35866   1.193   2.465   0.231 -0.2231  0.2201  0.4647
 8135SOL    HW135867   1.190   2.373   0.258 -3.1332 -0.0255 -0.6972
 8135SOL    HW235868   1.273   2.495   0.273 -0.0919 -0.0942  0.4404
 8136SOL     OW35869   3.011   0.349  11.591  0.1196  0.4985  0.1850
 8136SOL    HW135870   3.072   0.361  11.663  1.2975 -1.2238 -0.5361
 8136SOL    HW235871   2.953   0.420  11.619 -0.4673 -0.3268  1.0412
 8137SOL     OW35872   1.612   2.089   3.259  1.1230  0.4470 -0.0564
 8137SOL    HW135873   1.692   2.096   3.310  0.2583  3.3277  0.9462
 8137SOL    HW235874   1.583   2.180   3.262 -0.2766 -0.0009  0.2360
 8138SOL     OW35875   3.863   1.071   5.986  0.2427  0.1479 -0.5929
 8138SOL    HW135876   3.896   1.147   6.033  2.3948 -0.0316 -1.8082
 8138SOL    HW235877   3.931   1.005   6.002 -1.6960 -1.4691  1.1719
 8139SOL     OW35878   3.145   1.636  15.198 -0.4272 -0.4027  0.4496
 8139SOL    HW135879   3.117   1.704  15.137 -2.7960 -2.2994 -0.5654
 8139SOL    HW235880   3.127   1.561  15.141  2.9457 -1.0094  0.1771
 8140SOL     OW35881   1.779   0.803  11.769 -0.4467 -0.1963 -0.2859
 8140SOL    HW135882   1.817   0.748  11.700  1.0952 -0.8308  1.0603
 8140SOL    HW235883   1.697   0.821  11.723 -0.9525 -3.8926 -0.8261
 8141SOL     OW35884   2.642   0.056   4.997 -0.2693 -0.2255  0.1471
 8141SOL    HW135885   2.663   0.147   4.976  0.8593  0.0240  2.3844
 8141SOL    HW235886   2.547   0.046   4.990  0.1093 -1.8431 -2.4421
 8142SOL     OW35887   1.768   3.198   4.193 -0.0496 -0.0072 -0.2833
 8142SOL    HW135888   1.794   3.215   4.103 -1.3528 -1.9909 -1.0234
 8142SOL    HW235889   1.795   3.281   4.232 -0.0584 -0.1630  0.0612
 8143SOL     OW35890   1.351   2.791   0.929 -0.2218 -0.1997  0.2458
 8143SOL    HW135891   1.333   2.855   0.860 -1.5066 -0.6001  0.2109
 8143SOL    HW235892   1.281   2.727   0.916 -0.3784 -0.1738  0.9587
 8144SOL     OW35893   1.728   3.275   7.389  0.0987 -0.2763  0.1983
 8144SOL    HW135894   1.815   3.245   7.362  0.3381  0.9395 -0.4001
 8144SOL    HW235895   1.687   3.319   7.314 -2.0373 -1.5017  0.6603
 8145SOL     OW35896   2.473   2.164   3.131 -0.2022 -0.8219  0.5056
 8145SOL    HW135897   2.463   2.257   3.111  1.0513 -0.4002  1.7748
 8145SOL    HW235898   2.553   2.135   3.086 -3.1529 -2.9899 -3.3401
 8146SOL     OW35899   4.047   3.482   4.778  0.1461 -0.5886 -0.4078
 8146SOL    HW135900   3.982   3.517   4.839  0.5188 -2.1762  0.9053
 8146SOL    HW235901   4.093   3.560   4.745 -1.4932  1.2965  1.8098
 8147SOL     OW35902   4.442   0.125   6.379  0.4212  0.2418 -0.1675
 8147SOL    HW135903   4.507   0.109   6.447  0.4825  1.1866 -0.0031
 8147SOL    HW235904   4.384   0.191   6.418 -0.8651  0.2950 -2.1782
 8148SOL     OW35905   1.421   0.309   8.709  1.2837  1.0018  0.5049
 8148SOL    HW135906   1.463   0.391   8.736  1.2718  1.0512  0.3767
 8148SOL    HW235907   1.470   0.247   8.763  0.9121 -1.1278 -1.5937
 8149SOL     OW35908   2.996   3.924   1.002 -0.4429 -0.2516 -0.1357
 8149SOL    HW135909   2.901   3.920   0.992 -0.6202 -1.6849  2.2257
 8149SOL    HW235910   2.998   4.008   1.048 -1.6216 -0.1377 -0.2897
 8150SOL     OW35911   3.019   2.914   5.052 -0.2657  0.1627 -0.0573
 8150SOL    HW135912   3.009   3.005   5.025 -1.5248  0.2433  0.6910
 8150SOL    HW235913   3.000   2.922   5.145 -1.4294  0.2998 -0.3109
 8151SOL     OW35914   4.116   0.717  10.102 -0.2670 -0.6694 -0.0902
 8151SOL    HW135915   4.134   0.780  10.172 -0.0110 -0.5880 -0.2304
 8151SOL    HW235916   4.189   0.656  10.106 -1.3232 -1.8362  1.6246
 8152SOL     OW35917   0.113   0.512   9.560  0.2984  0.2230 -0.2224
 8152SOL    HW135918   0.139   0.530   9.650  0.8819  0.7533 -0.4937
 8152SOL    HW235919   0.139   0.589   9.509 -2.7958  1.6395  0.3875
 8153SOL     OW35920   3.532   0.375   3.920  0.1182  0.2219 -0.0786
 8153SOL    HW135921   3.528   0.347   3.829  1.0224 -0.7864  0.1910
 8153SOL    HW235922   3.626   0.387   3.935  0.4392 -0.3629 -1.5951
 8154SOL     OW35923   1.165   2.076   3.085 -0.3250  0.3882  0.2529
 8154SOL    HW135924   1.116   2.017   3.027 -0.4587  0.3543  0.4009
 8154SOL    HW235925   1.155   2.034   3.170 -1.7896 -0.0435 -0.1259
 8155SOL     OW35926   1.087   1.397   4.024 -0.2178 -0.1173  0.0171
 8155SOL    HW135927   1.112   1.487   4.044 -2.6817  0.6847 -0.5310
 8155SOL    HW235928   1.069   1.372   4.115  0.5383 -1.1382 -0.1103
 8156SOL     OW35929   4.160   1.339   2.441  0.1241  0.1412 -0.4579
 8156SOL    HW135930   4.240   1.291   2.418 -0.4732 -1.8745  1.7331
 8156SOL    HW235931   4.169   1.416   2.385  1.4256 -1.1793 -2.0708
 8157SOL     OW35932   2.443   1.402   0.079 -0.3646  0.2186  0.3760
 8157SOL    HW135933   2.465   1.315   0.045 -1.2831 -0.0458  0.4560
 8157SOL    HW235934   2.510   1.415   0.146  0.3406 -1.0228 -0.0918
 8158SOL     OW35935   0.807   2.642   7.618 -0.2190  0.1283 -0.2341
 8158SOL    HW135936   0.741   2.694   7.573 -0.9239 -1.7838 -1.3943
 8158SOL    HW235937   0.770   2.555   7.633 -0.7894  0.3941 -0.1094
 8159SOL     OW35938   3.626   3.184   9.813 -0.2822  0.2093  0.3652
 8159SOL    HW135939   3.644   3.165   9.906  0.4068 -0.8513  0.0139
 8159SOL    HW235940   3.692   3.129   9.772 -0.2313  1.4647 -1.2214
 8160SOL     OW35941   0.858   3.699   5.724  0.2129 -0.1881 -0.0825
 8160SOL    HW135942   0.792   3.750   5.771 -0.0663 -2.5094  2.0332
 8160SOL    HW235943   0.809   3.616   5.724  1.1602 -0.7300  2.9899
 8161SOL     OW35944   2.897   3.745   4.475 -0.4812 -0.0719  0.5101
 8161SOL    HW135945   2.841   3.683   4.520 -0.2320 -1.7608 -1.5346
 8161SOL    HW235946   2.938   3.686   4.412  0.3089 -0.6991  1.6130
 8162SOL     OW35947   4.489   2.548   3.011  0.0275 -0.6443 -0.3066
 8162SOL    HW135948   4.469   2.571   3.102 -1.6014  0.7585 -1.0118
 8162SOL    HW235949   4.582   2.529   3.019  0.0636  0.0148  1.0267
 8163SOL     OW35950   0.198   1.564   6.002  0.1108  0.0131 -0.4939
 8163SOL    HW135951   0.110   1.599   5.989  0.2921 -0.3882 -2.7961
 8163SOL    HW235952   0.172   1.498   6.067  3.3313 -3.4553 -2.7523
 8164SOL     OW35953   2.541   2.807   8.772  0.2910  0.1156  0.0887
 8164SOL    HW135954   2.539   2.902   8.782  2.9139  0.2928 -1.2663
 8164SOL    HW235955   2.628   2.799   8.733 -0.3053 -0.5692 -1.0672
 8165SOL     OW35956   3.496   0.277   4.550 -0.6614 -0.1791 -0.1547
 8165SOL    HW135957   3.540   0.345   4.602 -2.4420  1.1951 -0.4155
 8165SOL    HW235958   3.569   0.230   4.510  0.6408  1.0473  0.8001
 8166SOL     OW35959   4.330   1.663   9.793 -0.4529 -0.1277  0.3103
 8166SOL    HW135960   4.423   1.670   9.818  0.3997  0.0501 -2.8660
 8166SOL    HW235961   4.307   1.577   9.827  0.3638 -0.5557 -0.2158
 8167SOL     OW35962   1.257   2.794   7.861 -0.2469  0.0689 -0.3741
 8167SOL    HW135963   1.261   2.736   7.785  2.1416  0.6250 -0.6916
 8167SOL    HW235964   1.296   2.878   7.837 -1.6417  0.9205  0.3133
 8168SOL     OW35965   4.202   1.554  10.961  0.3522 -0.2942 -0.8094
 8168SOL    HW135966   4.199   1.553  11.056  0.2435  0.8161 -0.8004
 8168SOL    HW235967   4.115   1.583  10.937  0.9338  2.0883 -0.0265
 8169SOL     OW35968   2.389   1.393  10.637  0.1243  0.4931 -0.3721
 8169SOL    HW135969   2.457   1.340  10.680 -1.0873 -0.2697  0.6176
 8169SOL    HW235970   2.312   1.371  10.690  0.4102 -1.4864 -0.7876
 8170SOL     OW35971   3.195   2.649   6.865 -0.2439 -0.5516 -0.0310
 8170SOL    HW135972   3.280   2.672   6.829 -1.6230  2.0914 -1.5347
 8170SOL    HW235973   3.192   2.715   6.935 -0.0848 -0.3856 -0.1830
 8171SOL     OW35974   0.412   1.858   1.353  0.1089 -0.1315 -0.2961
 8171SOL    HW135975   0.437   1.864   1.446  0.5544  1.4238 -0.5235
 8171SOL    HW235976   0.475   1.917   1.311 -1.1009  0.8554 -0.7169
 8172SOL     OW35977   0.496   1.171   7.885 -0.2714 -0.1340  0.3301
 8172SOL    HW135978   0.570   1.232   7.882 -0.9398  0.7407  1.3214
 8172SOL    HW235979   0.540   1.091   7.912  2.4211  1.4841  0.7710
 8173SOL     OW35980   3.122   0.729   2.175 -0.3933 -0.2088  0.0521
 8173SOL    HW135981   3.068   0.789   2.123 -0.6734 -0.0670  0.5013
 8173SOL    HW235982   3.078   0.646   2.156 -0.2628 -0.0516 -0.9542
 8174SOL     OW35983   0.543   4.353   9.717 -0.7882 -0.5844 -0.2023
 8174SOL    HW135984   0.605   4.352   9.643  0.2343  0.0660  0.6567
 8174SOL    HW235985   0.531   4.259   9.728  1.2192 -0.5646  1.8810
 8175SOL     OW35986   3.020   4.354   5.547  0.0786 -0.4937  0.6439
 8175SOL    HW135987   2.962   4.392   5.480  1.2707 -0.6551 -0.4742
 8175SOL    HW235988   2.973   4.275   5.575  0.3229 -1.1805 -0.8884
 8176SOL     OW35989   2.580   2.055  10.361 -0.0519 -0.2819 -0.1768
 8176SOL    HW135990   2.606   2.053  10.453 -0.9429  0.0661  0.0833
 8176SOL    HW235991   2.566   2.149  10.349  0.9105 -0.3254 -1.7358
 8177SOL     OW35992   1.699   2.581  14.561 -0.0820 -0.1510  0.0894
 8177SOL    HW135993   1.794   2.572  14.570 -0.3501 -2.6800  0.2776
 8177SOL    HW235994   1.674   2.663  14.604 -0.0913 -0.1433  0.0691
 8178SOL     OW35995   1.399   2.360   6.867  0.4264  0.2858 -0.1187
 8178SOL    HW135996   1.328   2.367   6.931  0.2280 -0.8898 -0.2238
 8178SOL    HW235997   1.467   2.398   6.923 -0.2855 -0.2537  1.1046
 8179SOL     OW35998   3.669   2.057   3.612 -0.0243 -0.1335  0.5413
 8179SOL    HW135999   3.630   2.035   3.527  1.2116 -0.3076  0.0114
 8179SOL    HW236000   3.733   1.986   3.618 -0.0757 -0.2500 -0.1808
 8180SOL     OW36001   3.631   2.415  15.251  0.8450  0.4991  0.5394
 8180SOL    HW136002   3.545   2.421  15.294  1.0907  0.0892  1.0851
 8180SOL    HW236003   3.642   2.508  15.232  0.8803 -0.0596 -2.2175
 8181SOL     OW36004   3.927   1.121  13.881 -0.1182  0.0656  0.4736
 8181SOL    HW136005   3.973   1.079  13.953  4.2080 -0.5292 -2.5792
 8181SOL    HW236006   3.840   1.139  13.916 -0.5280 -1.3006  0.1540
 8182SOL     OW36007   3.351   3.443   4.714  0.3475  0.0352 -0.1020
 8182SOL    HW136008   3.277   3.391   4.748  1.2543  0.1351  2.0359
 8182SOL    HW236009   3.306   3.525   4.695 -1.1219 -1.2859 -2.3575
 8183SOL     OW36010   2.638   3.100   7.403 -0.6782  0.5198 -0.3027
 8183SOL    HW136011   2.663   3.124   7.313  0.9425 -1.2504 -0.3297
 8183SOL    HW236012   2.544   3.105   7.387 -0.6945  2.2655  0.3215
 8184SOL     OW36013   3.654   2.002  12.288 -0.4055 -0.2591  0.1144
 8184SOL    HW136014   3.679   2.016  12.197 -1.3227  1.6389  0.1605
 8184SOL    HW236015   3.616   1.915  12.291  1.4887 -1.1650 -2.4838
 8185SOL     OW36016   3.788   2.319  15.034 -0.2732 -0.7329 -0.1971
 8185SOL    HW136017   3.750   2.406  15.041 -0.3422 -0.6419 -1.7184
 8185SOL    HW236018   3.845   2.332  14.959 -0.4567 -1.1745 -0.4149
 8186SOL     OW36019   0.939   4.637   7.811  0.7021  0.0838  0.3202
 8186SOL    HW136020   0.890   4.662   7.889 -1.9298  3.1237 -2.3246
 8186SOL    HW236021   0.995   4.715   7.804  2.1847 -0.9996  0.1804
 8187SOL     OW36022   3.639   0.035   7.999 -0.4726  0.2967  0.0514
 8187SOL    HW136023   3.657   4.667   8.025  0.4053  0.1340 -1.0907
 8187SOL    HW236024   3.717   0.063   7.952  1.0386 -0.8606  1.8725
 8188SOL     OW36025   1.974   0.849  12.956 -0.3652  0.0752 -0.1328
 8188SOL    HW136026   1.967   0.824  12.864  0.1805  2.8965 -0.9268
 8188SOL    HW236027   2.033   0.783  12.993 -0.7228 -0.0864  0.1505
 8189SOL     OW36028   1.612   4.075   2.914  0.4110 -0.5217 -0.4304
 8189SOL    HW136029   1.545   4.094   2.979  2.6467 -0.7067  1.9551
 8189SOL    HW236030   1.676   4.018   2.957 -0.8725 -1.5168  0.1370
 8190SOL     OW36031   0.536   3.109  14.622  0.1386  0.1312  0.1959
 8190SOL    HW136032   0.623   3.078  14.598  0.1145  0.4734 -0.3341
 8190SOL    HW236033   0.478   3.036  14.603 -0.8401  0.7326  0.8290
 8191SOL     OW36034   1.659   2.490  10.969  0.0833  0.0980  0.1034
 8191SOL    HW136035   1.679   2.582  10.983  2.8219 -0.3517 -0.9104
 8191SOL    HW236036   1.566   2.488  10.992 -0.7988  0.0866 -3.4539
 8192SOL     OW36037   1.407   2.255   1.423 -0.0196  0.1047  0.1194
 8192SOL    HW136038   1.416   2.160   1.422  1.2478  0.2328 -0.8547
 8192SOL    HW236039   1.434   2.281   1.334 -0.6552  2.0307  0.4941
 8193SOL     OW36040   1.939   1.339  13.112  0.6321  0.0445 -0.5064
 8193SOL    HW136041   1.901   1.382  13.036 -1.0266 -2.0971 -0.9134
 8193SOL    HW236042   2.032   1.338  13.091  1.1722 -1.1867  1.8996
 8194SOL     OW36043   4.066   3.478   7.208 -0.0271  0.2174 -0.0669
 8194SOL    HW136044   4.032   3.390   7.193  1.9528 -0.6190  0.3424
 8194SOL    HW236045   4.089   3.486   7.300  0.5249 -0.0428 -0.1839
 8195SOL     OW36046   4.212   2.980   7.968  0.3468  0.1731  0.4864
 8195SOL    HW136047   4.159   3.054   7.938 -1.1127 -1.1422 -0.1861
 8195SOL    HW236048   4.180   2.924   7.898  1.3363  1.8622 -1.3220
 8196SOL     OW36049   1.009   0.112   3.253  0.9982 -0.3891 -0.1678
 8196SOL    HW136050   1.007   0.201   3.218  0.3225 -0.2636  0.1886
 8196SOL    HW236051   1.061   0.068   3.185  0.5215 -1.3147  0.0654
 8197SOL     OW36052   2.110   1.010   4.144 -0.1336  0.2280  0.0387
 8197SOL    HW136053   2.169   0.968   4.081 -0.7248  0.4911 -0.6929
 8197SOL    HW236054   2.122   1.103   4.127 -1.3808  0.1071 -1.4757
 8198SOL     OW36055   2.406   1.044   7.304 -0.1283 -0.2068  0.7906
 8198SOL    HW136056   2.473   1.065   7.369 -1.3094  0.7547  1.6824
 8198SOL    HW236057   2.371   0.971   7.355 -0.2925  0.2135  1.2771
 8199SOL     OW36058   1.250   3.267   2.917 -0.3163 -0.2571 -0.5899
 8199SOL    HW136059   1.259   3.333   2.986 -0.6924 -2.5273  1.6746
 8199SOL    HW236060   1.155   3.258   2.915 -0.4970  2.2460 -2.1941
 8200SOL     OW36061   2.048   2.177   1.973  0.1619 -0.2518  0.2605
 8200SOL    HW136062   2.140   2.154   1.959 -0.1301 -2.0784  1.2905
 8200SOL    HW236063   2.064   2.263   2.011 -1.1903  0.4961 -0.8729
 8201SOL     OW36064   2.142   4.454  17.640  0.1879 -0.0357 -0.1309
 8201SOL    HW136065   2.220   4.440   0.003  1.5216  2.7261 -1.3567
 8201SOL    HW236066   2.158   4.544  17.613 -0.9740 -0.0110 -0.7348
 8202SOL     OW36067   3.976   2.718   3.132 -0.6076  0.0284  0.3735
 8202SOL    HW136068   3.924   2.639   3.150  0.5580 -0.7765  0.2233
 8202SOL    HW236069   3.927   2.789   3.174  1.5366  0.6460  1.8149
 8203SOL     OW36070   1.871   2.605  12.210 -0.0687 -0.4916 -0.0365
 8203SOL    HW136071   1.879   2.676  12.147  2.2932  0.3317  1.1883
 8203SOL    HW236072   1.796   2.642  12.257 -0.5713  2.2375 -3.0097
 8204SOL     OW36073   3.905   2.002   4.463 -0.4809 -0.3548 -0.0526
 8204SOL    HW136074   3.882   1.924   4.414 -1.6568 -1.0358  1.5842
 8204SOL    HW236075   3.845   2.067   4.427 -1.8796 -1.7017 -0.1411
 8205SOL     OW36076   2.819   1.750   4.438  0.0667 -0.6570  0.1108
 8205SOL    HW136077   2.907   1.781   4.461  0.3634  0.4614 -2.5123
 8205SOL    HW236078   2.844   1.657   4.439 -1.1866 -0.9999 -0.2624
 8206SOL     OW36079   0.098   4.064   6.893 -0.5142  0.2389  0.6134
 8206SOL    HW136080   0.089   3.990   6.834 -2.7184  0.9172  0.1158
 8206SOL    HW236081   0.108   4.036   6.984  1.4158 -0.9168  0.0584
 8207SOL     OW36082   3.720   4.640   2.233  0.4120  0.2602  0.0614
 8207SOL    HW136083   3.701   4.582   2.159  0.2969 -1.0212  1.0961
 8207SOL    HW236084   3.727   4.584   2.310 -0.3580 -0.4087 -0.3475
 8208SOL     OW36085   3.620   3.173   9.235 -0.5652  0.1332 -0.8755
 8208SOL    HW136086   3.641   3.236   9.305 -1.6669  0.6597 -1.0158
 8208SOL    HW236087   3.693   3.187   9.175 -1.9293  0.9584 -2.3302
 8209SOL     OW36088   0.981   3.777   6.103  0.3960 -0.2771 -0.4420
 8209SOL    HW136089   1.012   3.860   6.066 -3.6985  1.9965  1.1826
 8209SOL    HW236090   0.905   3.797   6.157  1.2702 -1.6218  1.2875
 8210SOL     OW36091   3.617   4.606   1.786 -0.3160 -0.4211 -0.2309
 8210SOL    HW136092   3.689   4.585   1.845 -0.0358 -2.8951 -1.4606
 8210SOL    HW236093   3.549   4.567   1.840 -0.9833  0.2164 -0.6056
 8211SOL     OW36094   3.856   0.581  12.399  0.0154 -0.0372  0.0337
 8211SOL    HW136095   3.832   0.528  12.475 -0.5791 -1.9021 -1.4171
 8211SOL    HW236096   3.893   0.518  12.337  1.2284  0.5712  0.1464
 8212SOL     OW36097   0.191   1.216   6.602 -0.3933  0.4965  0.1765
 8212SOL    HW136098   0.149   1.162   6.669 -0.1396  0.0840 -0.0017
 8212SOL    HW236099   0.275   1.234   6.643 -0.0970 -0.2753 -0.1015
 8213SOL     OW36100   3.296   1.205   2.531 -0.0263 -0.1470 -0.1005
 8213SOL    HW136101   3.230   1.140   2.509  0.6293 -0.7375 -0.3129
 8213SOL    HW236102   3.340   1.204   2.446  0.9928 -0.2023  0.4234
 8214SOL     OW36103   0.864   2.392   6.137 -0.5590  0.1973  0.0564
 8214SOL    HW136104   0.799   2.463   6.138 -1.4878 -0.6360 -0.8198
 8214SOL    HW236105   0.925   2.419   6.068 -0.2787  0.1542  0.2933
 8215SOL     OW36106   0.744   3.689   3.957 -0.1910 -0.5505  0.0415
 8215SOL    HW136107   0.808   3.757   3.936  1.7120 -1.2868  3.2925
 8215SOL    HW236108   0.803   3.613   3.955  0.7618  0.2123 -1.1055
 8216SOL     OW36109   1.965   3.407   0.771  0.2422  0.4193 -0.1895
 8216SOL    HW136110   1.968   3.452   0.855 -0.6705  2.5736 -1.3353
 8216SOL    HW236111   1.897   3.341   0.783  0.2203  0.6546  0.8980
 8217SOL     OW36112   1.019   3.053  13.153  0.1878 -0.3729  0.8117
 8217SOL    HW136113   1.114   3.050  13.159  0.4029  1.2234 -1.4687
 8217SOL    HW236114   1.009   2.961  13.128  1.2699 -0.1597 -0.4242
 8218SOL     OW36115   3.070   2.991   8.678 -0.0709  0.8186  0.3266
 8218SOL    HW136116   3.068   3.084   8.701 -0.9672  1.3287 -1.8257
 8218SOL    HW236117   3.154   2.964   8.714  0.0803 -0.0067 -0.6491
 8219SOL     OW36118   0.648   4.623   2.721 -0.2399  0.2192 -0.0238
 8219SOL    HW136119   0.610   4.571   2.791  1.0566  1.0617  1.2968
 8219SOL    HW236120   0.643   4.708   2.765 -0.1837 -0.7513  1.8463
 8220SOL     OW36121   0.696   3.332  12.988  0.5368  0.2918 -0.1059
 8220SOL    HW136122   0.615   3.308  13.032  0.5148  1.3509  0.4253
 8220SOL    HW236123   0.698   3.270  12.916  2.2036 -0.4233  0.5538
 8221SOL     OW36124   2.182   2.025   9.032 -0.5219  0.4772 -1.2488
 8221SOL    HW136125   2.174   2.084   8.957 -0.1044  0.7292 -1.0927
 8221SOL    HW236126   2.090   2.007   9.054  0.3027 -1.4381  0.6263
 8222SOL     OW36127   0.001   2.625   2.811  0.6099 -0.0493  0.1649
 8222SOL    HW136128   0.030   2.590   2.895  1.6706  0.2272 -0.0920
 8222SOL    HW236129   0.004   2.553   2.748  1.6964  0.1096  0.0320
 8223SOL     OW36130   1.238   1.864   9.442 -0.3065 -0.1472 -0.2198
 8223SOL    HW136131   1.146   1.889   9.436 -0.3784 -0.2739  0.3987
 8223SOL    HW236132   1.281   1.898   9.364 -0.4597 -0.5038 -0.4621
 8224SOL     OW36133   4.414   1.820   8.130 -0.4896 -0.0477  0.2167
 8224SOL    HW136134   4.469   1.828   8.052 -1.8734 -0.1355 -0.7752
 8224SOL    HW236135   4.454   1.885   8.189 -0.0751  1.5154 -1.7911
 8225SOL     OW36136   2.692   0.678   9.818 -0.2442 -0.0257 -0.4146
 8225SOL    HW136137   2.649   0.596   9.842 -1.7220  0.6877 -0.6784
 8225SOL    HW236138   2.785   0.654   9.827 -0.3434  0.5098  1.8646
 8226SOL     OW36139   3.773   4.611   8.931 -0.0829 -0.2359 -0.1213
 8226SOL    HW136140   3.748   4.697   8.898  0.2491 -0.6150 -1.3591
 8226SOL    HW236141   3.862   4.630   8.961  0.3661 -2.8076  0.2128
 8227SOL     OW36142   2.001   4.237   4.539 -0.3337  0.0268 -0.2462
 8227SOL    HW136143   1.950   4.304   4.493 -0.7853 -0.2347 -0.1236
 8227SOL    HW236144   2.023   4.177   4.468 -0.3177  1.3185 -1.3275
 8228SOL     OW36145   2.952   0.502   2.133  0.0946 -0.2140  0.5126
 8228SOL    HW136146   2.873   0.458   2.164 -0.7919  1.7708  1.0594
 8228SOL    HW236147   2.999   0.437   2.080  0.3425  0.5248 -0.1744
 8229SOL     OW36148   0.590   2.022   1.848 -0.3368 -0.3844  0.1303
 8229SOL    HW136149   0.553   1.985   1.928  0.6422 -1.4978  0.0743
 8229SOL    HW236150   0.679   2.045   1.875  0.4224 -2.0697 -0.9541
 8230SOL     OW36151   3.318   1.677  16.340 -0.1102 -0.3642  0.1697
 8230SOL    HW136152   3.292   1.679  16.247  3.9486 -0.9479 -0.9825
 8230SOL    HW236153   3.280   1.597  16.377 -0.7254  0.7850  2.0002
 8231SOL     OW36154   4.390   0.934   8.997  0.0919  0.0416  0.5722
 8231SOL    HW136155   4.319   0.997   8.981 -1.1146 -1.3827  0.3496
 8231SOL    HW236156   4.363   0.912   9.086 -0.3554  0.4192  0.5297
 8232SOL     OW36157   2.088   3.522   5.441 -0.0495  0.0737  0.1392
 8232SOL    HW136158   2.027   3.541   5.370 -0.7538  1.9839  1.2637
 8232SOL    HW236159   2.174   3.561   5.423 -0.0253 -0.5793 -1.1713
 8233SOL     OW36160   3.802   4.573  10.126  1.0289  0.1431 -0.2669
 8233SOL    HW136161   3.878   4.515  10.127  1.2964  0.5004  0.1408
 8233SOL    HW236162   3.826   4.615  10.208 -0.8825 -1.1227  0.9275
 8234SOL     OW36163   0.847   0.562   7.067 -0.1032  0.5583 -0.3097
 8234SOL    HW136164   0.781   0.527   7.008  0.8327 -0.6109 -0.6629
 8234SOL    HW236165   0.840   0.658   7.060 -1.5594  0.4468 -0.4191
 8235SOL     OW36166   2.550   1.127   4.753  0.7141 -0.2375 -0.0031
 8235SOL    HW136167   2.505   1.049   4.785  0.3943  0.4849  1.3008
 8235SOL    HW236168   2.564   1.173   4.836 -0.0115  0.7045 -0.4101
 8236SOL     OW36169   3.149   0.119   2.419 -0.2114 -0.3594  0.1747
 8236SOL    HW136170   3.073   0.140   2.473 -0.3177 -0.0541 -0.0916
 8236SOL    HW236171   3.211   0.120   2.491  1.2294 -2.4639 -1.0439
 8237SOL     OW36172   1.837   2.227   5.680 -0.0577 -1.0338  0.4473
 8237SOL    HW136173   1.825   2.135   5.658 -1.1878 -0.9168  0.5609
 8237SOL    HW236174   1.754   2.266   5.651  1.2297  1.9346  0.7544
 8238SOL     OW36175   4.290   0.891  10.236 -0.1879  1.0436  0.0073
 8238SOL    HW136176   4.371   0.903  10.286  1.5895  0.2581 -2.6833
 8238SOL    HW236177   4.280   0.982  10.209 -1.1678  0.7119 -0.7050
 8239SOL     OW36178   3.761   3.708   3.227 -0.7112  0.0213 -0.1259
 8239SOL    HW136179   3.778   3.620   3.260  1.2825  0.6131  0.4536
 8239SOL    HW236180   3.794   3.700   3.138  0.0554 -0.5261  0.2057
 8240SOL     OW36181   0.279   0.452   8.001 -0.8974  0.3449  0.0843
 8240SOL    HW136182   0.251   0.361   8.007 -2.0506  0.7611  0.9636
 8240SOL    HW236183   0.347   0.444   8.068 -1.8415 -0.9253  0.8828
 8241SOL     OW36184   2.418   0.814   3.321 -0.0852  0.6410 -0.1770
 8241SOL    HW136185   2.335   0.800   3.274 -0.4234  1.6130  0.1527
 8241SOL    HW236186   2.486   0.764   3.276 -0.0017  0.3364  0.2843
 8242SOL     OW36187   3.826   3.461  16.605  0.4256 -0.5090 -0.4099
 8242SOL    HW136188   3.883   3.443  16.530 -0.1127 -0.7209 -0.7667
 8242SOL    HW236189   3.739   3.488  16.574  0.8548  1.2054 -0.0976
 8243SOL     OW36190   0.891   4.038   9.667 -0.4249  0.5812  0.2815
 8243SOL    HW136191   0.914   4.126   9.638  1.1983  0.4615  1.1619
 8243SOL    HW236192   0.883   3.999   9.580 -1.4241 -1.1142  1.1353
 8244SOL     OW36193   3.194   3.863  12.211  0.0983  0.6415 -0.1800
 8244SOL    HW136194   3.127   3.931  12.202  0.1460  0.6056 -0.7953
 8244SOL    HW236195   3.145   3.799  12.260  1.6561 -0.6547 -0.3113
 8245SOL     OW36196   0.891   1.973   7.817  0.2583  0.4242 -0.5798
 8245SOL    HW136197   0.846   2.040   7.765 -0.3458  0.3262 -0.1801
 8245SOL    HW236198   0.835   1.900   7.792 -1.9025  1.1393  2.1798
 8246SOL     OW36199   4.128   0.492  13.341  0.2773 -0.5083 -0.0408
 8246SOL    HW136200   4.137   0.579  13.304 -0.8908  0.3109  1.5629
 8246SOL    HW236201   4.149   0.513  13.432  0.7851 -0.3538 -0.1941
 8247SOL     OW36202   2.021   3.735  12.476 -0.7422  0.8348 -0.0617
 8247SOL    HW136203   2.025   3.775  12.389 -0.8647  1.3946  0.1958
 8247SOL    HW236204   1.940   3.684  12.478 -0.2491  0.1868  2.4426
 8248SOL     OW36205   3.588   3.443   6.151 -0.3964  0.1558  0.5821
 8248SOL    HW136206   3.589   3.392   6.232  1.2164  0.0994  0.5257
 8248SOL    HW236207   3.590   3.531   6.189  2.0222  1.2366 -2.1006
 8249SOL     OW36208   2.592   3.404   2.711  0.3877  0.5861  0.3960
 8249SOL    HW136209   2.524   3.426   2.774  0.6077  3.0431 -0.2328
 8249SOL    HW236210   2.561   3.462   2.641  0.7879  0.7885  0.3857
 8250SOL     OW36211   4.299   3.136   6.972 -0.3204  0.0088  0.6003
 8250SOL    HW136212   4.286   3.105   6.883  1.3194 -0.1846  0.4434
 8250SOL    HW236213   4.213   3.150   7.013 -1.4295 -3.5104 -0.5460
 8251SOL     OW36214   1.875   2.512  10.800  0.3841  0.6868  0.3331
 8251SOL    HW136215   1.816   2.488  10.871 -0.1924 -1.0379 -0.7400
 8251SOL    HW236216   1.894   2.423  10.772  1.5566  0.8992  0.4782
 8252SOL     OW36217   4.433   1.509   8.824  0.2530 -1.0039  0.3069
 8252SOL    HW136218   4.489   1.558   8.884 -0.0201 -1.2768  0.7847
 8252SOL    HW236219   4.411   1.574   8.757  3.1646 -0.4449 -0.0944
 8253SOL     OW36220   3.467   0.643   2.408 -0.3435  0.2253  0.1223
 8253SOL    HW136221   3.406   0.704   2.450 -1.0665  0.2646 -0.9709
 8253SOL    HW236222   3.442   0.566   2.460  1.1200 -0.6971 -0.5526
 8254SOL     OW36223   3.381   2.697  13.330  0.6170 -0.4786 -0.1472
 8254SOL    HW136224   3.392   2.604  13.307 -3.4066 -1.1151  0.5570
 8254SOL    HW236225   3.332   2.735  13.258  3.4702  4.1834  0.3808
 8255SOL     OW36226   1.510   0.358   9.155  0.0496  0.3331  0.2351
 8255SOL    HW136227   1.485   0.435   9.103 -1.9951  1.0737  2.2990
 8255SOL    HW236228   1.488   0.377   9.246  0.6279 -1.6383  0.7716
 8256SOL     OW36229   0.483   3.782   3.300  0.1138  0.3745  0.1540
 8256SOL    HW136230   0.464   3.688   3.294 -0.0630  0.5040 -1.5088
 8256SOL    HW236231   0.478   3.800   3.394 -0.9549  1.5057 -0.1240
 8257SOL     OW36232   3.974   0.435   9.366 -0.0110 -0.0754  0.8281
 8257SOL    HW136233   3.901   0.452   9.307  1.0643  0.5982 -0.3003
 8257SOL    HW236234   3.938   0.458   9.451 -0.5957 -0.8690  0.7941
 8258SOL     OW36235   0.774   2.899  12.987  0.2779  0.3507 -0.0409
 8258SOL    HW136236   0.870   2.897  12.996  0.2663  0.7563  0.1677
 8258SOL    HW236237   0.755   2.989  12.962 -2.6389 -0.2547  0.0427
 8259SOL     OW36238   2.369   0.451  11.947 -0.5445  0.9468  1.0718
 8259SOL    HW136239   2.303   0.453  12.017  0.1244  3.6251  1.6186
 8259SOL    HW236240   2.373   0.356  11.932 -2.2649  1.1329 -0.6677
 8260SOL     OW36241   4.238   3.448   7.804 -0.0827 -0.5143 -0.8584
 8260SOL    HW136242   4.249   3.459   7.709  2.5766  2.0321 -0.2776
 8260SOL    HW236243   4.279   3.525   7.845 -2.1239 -0.4308  1.0176
 8261SOL     OW36244   2.307   4.052  14.860 -0.1910  0.0997  0.3176
 8261SOL    HW136245   2.246   4.059  14.934  1.9202 -1.3303  2.1851
 8261SOL    HW236246   2.282   3.965  14.831 -0.1397 -0.5915  2.3310
 8262SOL     OW36247   0.159   2.320   2.100  0.1380 -0.4009 -0.5097
 8262SOL    HW136248   0.156   2.314   2.195  0.1633 -1.5959 -0.5883
 8262SOL    HW236249   0.212   2.242   2.081 -0.9034 -1.0608 -0.6598
 8263SOL     OW36250   4.442   1.776   7.557 -0.4284 -0.0814  0.2127
 8263SOL    HW136251   4.352   1.804   7.543 -0.8761 -0.6489  1.9423
 8263SOL    HW236252   4.479   1.864   7.558 -1.5287  0.3963 -0.9606
 8264SOL     OW36253   0.835   0.816   1.238  0.2870  0.1104  0.0381
 8264SOL    HW136254   0.877   0.751   1.295  1.2524  0.4438 -0.2872
 8264SOL    HW236255   0.912   0.858   1.199 -0.2077 -0.2078 -1.2873
 8265SOL     OW36256   2.068   2.945   8.183 -0.4944  0.1321 -0.6123
 8265SOL    HW136257   2.158   2.955   8.215 -0.4168  0.9905 -1.0889
 8265SOL    HW236258   2.027   2.924   8.267  0.0639  1.0890 -0.1053
 8266SOL     OW36259   3.763   0.123   6.824 -0.2263  0.1401  0.4618
 8266SOL    HW136260   3.755   0.132   6.729 -0.7662  0.5656  0.5504
 8266SOL    HW236261   3.676   0.154   6.850 -1.1681 -1.3555 -0.9032
 8267SOL     OW36262   4.233   2.692   7.056 -0.8046  0.3919 -0.3483
 8267SOL    HW136263   4.289   2.625   7.019  0.0366  0.4693  0.8190
 8267SOL    HW236264   4.274   2.715   7.139 -0.9521  0.0818 -0.1918
 8268SOL     OW36265   3.843   2.562  12.095 -0.1950  0.4377 -0.4091
 8268SOL    HW136266   3.811   2.486  12.143  2.9214 -1.5530 -1.4487
 8268SOL    HW236267   3.894   2.523  12.024 -0.1060  2.3510 -1.3982
 8269SOL     OW36268   4.141   1.623  12.037  0.3421  0.0305  0.1187
 8269SOL    HW136269   4.144   1.654  12.127 -0.4112  0.8455 -0.1307
 8269SOL    HW236270   4.232   1.596  12.030  0.1238 -0.5038 -0.7414
 8270SOL     OW36271   4.681   2.127   9.232 -0.2903  0.6180  0.1713
 8270SOL    HW136272   4.612   2.062   9.247 -0.2969  0.5433 -0.1822
 8270SOL    HW236273   4.649   2.204   9.279 -0.3038 -0.3751  1.7706
 8271SOL     OW36274   0.819   4.373  13.170  0.0029 -0.2443 -0.1717
 8271SOL    HW136275   0.776   4.291  13.193 -1.2336  1.5708  3.9448
 8271SOL    HW236276   0.744   4.423  13.140 -0.0314  0.0647  0.4345
 8272SOL     OW36277   4.629   0.818   9.388 -0.1007  0.1020 -1.0240
 8272SOL    HW136278   4.595   0.751   9.447 -1.1403  0.1187 -1.5985
 8272SOL    HW236279   4.543   0.855   9.365 -1.0736 -0.4629  1.6316
 8273SOL     OW36280   1.830   2.193  13.477  0.2230 -0.3838 -0.1184
 8273SOL    HW136281   1.817   2.242  13.558 -1.6022  0.0260 -0.6493
 8273SOL    HW236282   1.810   2.104  13.505 -0.6846  0.0490  0.6268
 8274SOL     OW36283   3.323   1.569   9.865 -0.1888 -0.2291 -0.3729
 8274SOL    HW136284   3.236   1.532   9.878 -1.4550  3.4658  1.7543
 8274SOL    HW236285   3.346   1.519   9.787 -0.3998  0.0239 -0.6015
 8275SOL     OW36286   0.857   2.132   0.980 -0.0308  0.8553  0.0190
 8275SOL    HW136287   0.860   2.189   1.057  0.2725 -0.5108  1.0175
 8275SOL    HW236288   0.873   2.047   1.022  0.1259  1.4133  1.0966
 8276SOL     OW36289   3.129   2.636   7.771 -0.1157 -0.2675  0.3787
 8276SOL    HW136290   3.067   2.699   7.735 -3.0888 -3.6765 -0.5062
 8276SOL    HW236291   3.207   2.623   7.716  0.1880 -3.0191  1.4236
 8277SOL     OW36292   4.604   0.179  12.591  0.2657 -0.3352  0.0933
 8277SOL    HW136293   4.670   0.136  12.537  0.2375  1.6513 -1.5188
 8277SOL    HW236294   4.650   0.179  12.675  0.4364  0.6984 -0.0010
 8278SOL     OW36295   1.774   3.041  10.029  0.8976 -0.5727 -0.2802
 8278SOL    HW136296   1.743   3.029   9.939 -0.3729  0.5774  0.0053
 8278SOL    HW236297   1.787   3.136  10.023 -2.0368 -0.2717 -1.5343
 8279SOL     OW36298   2.892   3.940  16.138 -0.4711  0.0498  0.0530
 8279SOL    HW136299   2.838   3.981  16.206 -0.1795  0.5778 -0.0307
 8279SOL    HW236300   2.842   3.860  16.124  3.9038 -2.6006 -0.2122
 8280SOL     OW36301   1.725   1.302   9.761 -0.4480  0.6654  0.2918
 8280SOL    HW136302   1.802   1.251   9.787  0.0383  0.9572 -0.5607
 8280SOL    HW236303   1.658   1.234   9.759 -0.4715  0.6475  1.3664
 8281SOL     OW36304   1.846   2.738   3.602 -0.0754 -0.0625 -0.6103
 8281SOL    HW136305   1.938   2.754   3.584 -0.4002 -0.1234 -2.3030
 8281SOL    HW236306   1.835   2.683   3.524  1.0770 -1.6524  0.3473
 8282SOL     OW36307   0.683   4.647   7.551 -0.4881  0.2624 -0.1454
 8282SOL    HW136308   0.706   4.582   7.618 -2.0226  1.8956  1.9664
 8282SOL    HW236309   0.643   4.598   7.480 -0.3297 -0.4322  0.2510
 8283SOL     OW36310   4.441   4.460   4.980  0.4235 -0.2341 -0.1075
 8283SOL    HW136311   4.391   4.383   4.953 -0.4814  0.0678  0.7041
 8283SOL    HW236312   4.520   4.425   5.023 -0.0138 -3.0634 -1.6192
 8284SOL     OW36313   2.679   3.064   5.162 -0.3502 -0.3744  0.3707
 8284SOL    HW136314   2.756   3.021   5.201 -0.5922  1.2415  2.6395
 8284SOL    HW236315   2.708   3.053   5.072  0.6699  3.1733  0.2869
 8285SOL     OW36316   0.087   3.213   3.237  0.0859 -0.2871 -0.1699
 8285SOL    HW136317   0.074   3.282   3.303 -1.4224 -2.1668  1.4967
 8285SOL    HW236318   0.048   3.245   3.156  0.3470  2.1601  0.6691
 8286SOL     OW36319   1.254   2.060   4.181  0.2067 -0.0611  0.3254
 8286SOL    HW136320   1.172   2.057   4.230 -0.0815  0.1474 -0.1466
 8286SOL    HW236321   1.240   1.976   4.136  0.2284  0.0844  0.0487
 8287SOL     OW36322   4.159   4.072   8.970  0.2023 -0.1230 -0.0881
 8287SOL    HW136323   4.225   4.109   9.029  1.1035 -0.3888 -0.9240
 8287SOL    HW236324   4.170   3.977   8.984 -1.7145 -0.2421  0.6414
 8288SOL     OW36325   2.445   0.760   8.143 -0.7652 -0.3118  0.2881
 8288SOL    HW136326   2.364   0.709   8.143 -2.5755  2.5756 -0.3562
 8288SOL    HW236327   2.407   0.845   8.122 -0.1868  0.1639  1.1627
 8289SOL     OW36328   3.693   1.134  14.003 -0.2744  0.0224  0.4604
 8289SOL    HW136329   3.631   1.170  13.939 -0.8371 -0.0582  0.9670
 8289SOL    HW236330   3.697   1.212  14.058 -0.3283  0.7824 -0.5912
 8290SOL     OW36331   2.546   3.248   9.182  0.2396 -0.4141 -0.4677
 8290SOL    HW136332   2.611   3.178   9.174  0.2526 -0.2879 -1.4432
 8290SOL    HW236333   2.585   3.284   9.262 -1.6872  2.8035 -0.9547
 8291SOL     OW36334   0.109   3.696  16.774 -0.0651 -0.6101  0.3300
 8291SOL    HW136335   0.180   3.646  16.735  0.1844  0.1285 -0.1550
 8291SOL    HW236336   0.140   3.711  16.863  1.4948  3.4583 -0.9064
 8292SOL     OW36337   3.383   4.481  13.345  1.1177  0.5270 -0.0541
 8292SOL    HW136338   3.309   4.442  13.392  2.4668 -0.1849  1.4895
 8292SOL    HW236339   3.423   4.544  13.405  0.8798 -0.9171  1.6231
 8293SOL     OW36340   0.707   2.659   5.676 -0.4217 -0.7552  0.1593
 8293SOL    HW136341   0.693   2.570   5.710 -0.6762 -0.3901  1.0076
 8293SOL    HW236342   0.693   2.635   5.584 -1.3626  1.5066 -0.2762
 8294SOL     OW36343   3.014   2.967   8.419 -0.7373 -0.3419 -0.5282
 8294SOL    HW136344   2.967   2.886   8.398 -0.3636 -1.1820  1.8565
 8294SOL    HW236345   3.021   2.963   8.515 -1.3465  0.5315 -0.4452
 8295SOL     OW36346   1.989   2.277   9.192  0.3897 -0.2640  0.2447
 8295SOL    HW136347   2.021   2.229   9.268 -0.9886 -2.0784 -0.3268
 8295SOL    HW236348   1.968   2.206   9.132  2.8319 -0.8407  0.0725
 8296SOL     OW36349   2.543   3.741   9.227  0.4183 -0.3710  0.2030
 8296SOL    HW136350   2.475   3.736   9.160  2.5761  0.2534 -2.0017
 8296SOL    HW236351   2.494   3.746   9.309  0.2654  2.5390 -0.0538
 8297SOL     OW36352   1.847   3.054  15.881 -0.3750 -0.6189  0.4758
 8297SOL    HW136353   1.901   2.975  15.882 -0.7332 -0.8531  1.5901
 8297SOL    HW236354   1.798   3.044  15.799 -1.1399  0.7867  0.7546
 8298SOL     OW36355   1.361   2.957   9.234  0.2633 -0.1834  0.0852
 8298SOL    HW136356   1.438   2.904   9.214  0.2581  0.3542 -1.3668
 8298SOL    HW236357   1.360   2.962   9.330 -0.3593 -0.8037  0.1175
 8299SOL     OW36358   0.456   3.874   3.548 -0.0582 -0.2452 -0.4514
 8299SOL    HW136359   0.395   3.909   3.614 -3.6504 -2.8453 -2.4082
 8299SOL    HW236360   0.480   3.795   3.595  1.5909  1.4716  1.6365
 8300SOL     OW36361   0.027   1.842   7.684 -0.1539  0.3336  0.1425
 8300SOL    HW136362   0.089   1.910   7.659  0.0679  0.2407  0.4491
 8300SOL    HW236363   0.066   1.766   7.642  0.2128  1.2894 -1.2284
 8301SOL     OW36364   3.794   3.167   2.489 -0.3284 -0.2287 -0.1949
 8301SOL    HW136365   3.869   3.130   2.443  0.8128 -0.2187  1.6721
 8301SOL    HW236366   3.765   3.235   2.428 -1.9263 -0.8459 -0.1245
 8302SOL     OW36367   3.745   0.449   9.823  0.0513  0.0991  0.0587
 8302SOL    HW136368   3.773   0.508   9.893  1.4386 -0.6766  0.1477
 8302SOL    HW236369   3.662   0.430   9.868  0.8447  0.0403  1.5051
 8303SOL     OW36370   2.503   3.081   6.564  0.4664  0.2027 -0.1322
 8303SOL    HW136371   2.506   3.044   6.652  0.7967 -0.9615 -0.6362
 8303SOL    HW236372   2.409   3.091   6.550  0.0278 -0.2292  2.4148
 8304SOL     OW36373   2.967   3.687   3.812  0.6114 -0.8047  0.1619
 8304SOL    HW136374   2.975   3.674   3.718 -0.1812  0.6076 -0.1051
 8304SOL    HW236375   3.046   3.740   3.819  0.7976 -0.9803 -0.6600
 8305SOL     OW36376   0.003   3.246   3.885 -0.2377 -0.7305  0.0355
 8305SOL    HW136377   4.632   3.234   3.869 -0.0538  1.3135 -2.6721
 8305SOL    HW236378   0.014   3.195   3.965 -0.2493  0.5439  0.8584
 8306SOL     OW36379   3.295   1.957   0.198  0.6181 -0.3322  0.2379
 8306SOL    HW136380   3.367   1.928   0.255 -0.0308 -0.0140  1.2178
 8306SOL    HW236381   3.222   1.979   0.256  1.9607 -1.7575  2.4763
 8307SOL     OW36382   2.447   4.446   0.628  0.1627 -0.7600  0.0981
 8307SOL    HW136383   2.493   4.380   0.577  0.7614 -0.3708  0.1354
 8307SOL    HW236384   2.473   4.438   0.720  1.2122  1.2434 -0.0162
 8308SOL     OW36385   2.761   1.668   5.156 -0.5415 -0.5636  0.0013
 8308SOL    HW136386   2.702   1.719   5.101  2.2194  1.4056 -1.1664
 8308SOL    HW236387   2.808   1.613   5.094 -1.8401 -1.2143 -0.4076
 8309SOL     OW36388   3.315   2.482   8.986 -0.6511  0.0192  0.0457
 8309SOL    HW136389   3.351   2.423   9.053 -2.6080 -1.1422  0.0907
 8309SOL    HW236390   3.233   2.436   8.968  0.0883 -0.6379 -1.6452
 8310SOL     OW36391   1.606   1.147  10.071  0.5196 -0.2160  0.5542
 8310SOL    HW136392   1.662   1.114  10.001  0.1681 -1.3870  0.8144
 8310SOL    HW236393   1.531   1.177  10.021  0.3931 -1.2440  0.1127
 8311SOL     OW36394   4.176   4.282   6.807 -0.4456  0.0236  0.5672
 8311SOL    HW136395   4.234   4.219   6.765 -0.2633  0.5479  0.0349
 8311SOL    HW236396   4.099   4.230   6.828  1.3533 -2.0409  2.0576
 8312SOL     OW36397   2.213   0.641   7.804  0.6293 -0.5267  0.3943
 8312SOL    HW136398   2.130   0.688   7.792  0.6323 -0.6200  0.0031
 8312SOL    HW236399   2.191   0.579   7.874  1.6452 -0.5710  0.6716
 8313SOL     OW36400   4.324   1.754   0.252 -0.4646  0.2536 -0.4973
 8313SOL    HW136401   4.298   1.696   0.323  0.6946 -1.0601 -1.1287
 8313SOL    HW236402   4.371   1.818   0.305 -2.3975  1.5618 -0.3885
 8314SOL     OW36403   4.154   4.031   5.547  0.6276  0.2426 -0.3678
 8314SOL    HW136404   4.186   4.113   5.509  0.1291  0.5170 -0.2072
 8314SOL    HW236405   4.080   4.063   5.600  1.1047 -0.0187  0.4565
 8315SOL     OW36406   1.540   3.828   8.326  0.0336  0.0353  0.6037
 8315SOL    HW136407   1.507   3.744   8.296 -0.7814  0.8467 -0.7687
 8315SOL    HW236408   1.606   3.841   8.258  1.0528 -1.6054  1.2826
 8316SOL     OW36409   1.909   4.582   6.564 -0.4664 -0.2497 -0.1838
 8316SOL    HW136410   1.971   4.572   6.636 -1.9981  0.8604  1.2880
 8316SOL    HW236411   1.832   4.569   6.619 -1.1629  0.8570 -0.8871
 8317SOL     OW36412   0.169   3.723   5.786  0.0870 -0.3223 -0.0501
 8317SOL    HW136413   0.101   3.741   5.722  1.4280  1.4142 -0.9747
 8317SOL    HW236414   0.240   3.719   5.722 -0.8710  0.5195 -1.1595
 8318SOL     OW36415   3.739   3.164   5.488  0.2444 -0.1090 -0.1463
 8318SOL    HW136416   3.815   3.164   5.431 -0.5130  1.8222 -1.1701
 8318SOL    HW236417   3.720   3.070   5.492  0.2754 -0.1727 -1.5021
 8319SOL     OW36418   1.841   0.199   9.836  0.0762 -0.3043 -0.1095
 8319SOL    HW136419   1.811   0.262   9.902  1.4791  0.4443 -0.2003
 8319SOL    HW236420   1.769   0.136   9.829 -0.0022 -0.2158 -0.0998
 8320SOL     OW36421   2.342   4.590   3.882 -0.1081  0.1688  0.4894
 8320SOL    HW136422   2.367   4.679   3.855 -0.6953 -0.0409 -0.7371
 8320SOL    HW236423   2.249   4.612   3.882 -0.8498 -2.9841  2.0642
 8321SOL     OW36424   2.403   0.491   2.852  0.3434 -0.1503 -0.3443
 8321SOL    HW136425   2.346   0.482   2.929 -0.1251 -2.1182 -0.9102
 8321SOL    HW236426   2.395   0.400   2.822  2.2009  0.1630 -1.7480
 8322SOL     OW36427   3.577   1.120   8.732 -0.1245  0.0814 -0.5065
 8322SOL    HW136428   3.496   1.069   8.742 -0.3181  0.5584  0.3696
 8322SOL    HW236429   3.635   1.048   8.711  0.9465  1.0467 -0.8643
 8323SOL     OW36430   2.380   2.025   2.002  0.1694 -0.0911  0.3030
 8323SOL    HW136431   2.339   2.096   1.952 -1.1256 -0.5169  0.7597
 8323SOL    HW236432   2.455   2.003   1.946  2.3704 -1.3434  3.7114
 8324SOL     OW36433   3.426   1.761  11.100 -0.1472  0.0002 -0.7558
 8324SOL    HW136434   3.508   1.716  11.083 -0.4265 -0.2260 -1.5185
 8324SOL    HW236435   3.446   1.854  11.111  0.6424 -0.2663  0.0202
 8325SOL     OW36436   0.229   3.317   0.066  0.1083  0.0486  0.2277
 8325SOL    HW136437   0.184   3.378   0.123  2.0992 -0.6612  2.5784
 8325SOL    HW236438   0.305   3.295   0.121  0.0898 -1.9135 -0.5253
 8326SOL     OW36439   0.170   0.620  15.935  0.1254 -0.7904  0.4593
 8326SOL    HW136440   0.097   0.677  15.912  1.6699 -0.4581 -3.6368
 8326SOL    HW236441   0.130   0.535  15.912 -0.9360 -0.8788  2.6136
 8327SOL     OW36442   2.600   1.230   2.173 -0.2243 -0.0628  0.0901
 8327SOL    HW136443   2.681   1.274   2.200  0.3495 -0.3677 -1.1324
 8327SOL    HW236444   2.572   1.277   2.094  1.7370 -0.0523 -0.6061
 8328SOL     OW36445   2.633   3.155   1.108 -0.6156 -0.4763 -0.0964
 8328SOL    HW136446   2.645   3.213   1.032  1.8667  0.3453  0.9293
 8328SOL    HW236447   2.606   3.072   1.069 -1.0099 -0.5012  0.2313
 8329SOL     OW36448   0.453   4.336   7.464  0.0066  0.0920  0.2995
 8329SOL    HW136449   0.408   4.413   7.501  3.9067  2.8921 -0.8067
 8329SOL    HW236450   0.401   4.317   7.386 -0.8393 -2.7114  1.5542
 8330SOL     OW36451   0.632   4.444  11.766 -0.5505  0.0139 -0.5324
 8330SOL    HW136452   0.643   4.355  11.732 -2.2756 -0.7053  0.7941
 8330SOL    HW236453   0.627   4.498  11.687 -0.3601 -1.6709 -1.6974
 8331SOL     OW36454   4.345   0.950   3.688  0.0216  0.0133 -0.5243
 8331SOL    HW136455   4.427   0.953   3.638  1.0124  0.4877  1.0983
 8331SOL    HW236456   4.328   1.043   3.674  0.3912  0.0478 -0.7576
 8332SOL     OW36457   2.837   0.261   1.157  0.1333  0.7707  0.4270
 8332SOL    HW136458   2.770   0.308   1.106  0.2073  2.6004  2.0376
 8332SOL    HW236459   2.791   0.184   1.192  0.0498 -0.0999 -1.5895
 8333SOL     OW36460   3.883   2.704   7.918 -0.4994  0.0639  0.8406
 8333SOL    HW136461   3.851   2.630   7.969 -2.0041 -1.2589 -2.0443
 8333SOL    HW236462   3.819   2.773   7.937  1.6573  1.8334  1.7401
 8334SOL     OW36463   4.254   1.776  10.041 -0.3193  0.3777 -0.4408
 8334SOL    HW136464   4.219   1.845   9.985 -0.4668  0.3709 -0.3576
 8334SOL    HW236465   4.274   1.706   9.979 -1.5766 -2.9914  2.9428
 8335SOL     OW36466   3.653   2.880   5.448  0.5798 -0.2251 -0.0718
 8335SOL    HW136467   3.712   2.854   5.519  0.0826 -1.2525 -0.0319
 8335SOL    HW236468   3.684   2.832   5.371  0.8222  0.7385 -0.5745
 8336SOL     OW36469   2.813   0.877   5.662 -0.3632 -0.3972  0.1933
 8336SOL    HW136470   2.772   0.791   5.662 -0.9677 -0.1057  0.6257
 8336SOL    HW236471   2.836   0.887   5.569 -1.7796 -0.9341 -0.2096
 8337SOL     OW36472   0.856   0.634   6.459 -0.6811  0.5424  0.2295
 8337SOL    HW136473   0.778   0.602   6.413  0.1083  0.1578 -0.8562
 8337SOL    HW236474   0.918   0.633   6.386 -0.7862 -0.2750  0.1442
 8338SOL     OW36475   1.355   1.321  10.184 -0.6343  0.3079 -0.1661
 8338SOL    HW136476   1.442   1.296  10.152 -0.9859 -1.9738  0.6248
 8338SOL    HW236477   1.342   1.256  10.254 -0.8680  0.8245  0.2689
 8339SOL     OW36478   3.856   2.191   5.957  0.6190 -0.2400 -0.0088
 8339SOL    HW136479   3.838   2.098   5.940  1.6998 -0.5782  0.7080
 8339SOL    HW236480   3.941   2.186   6.001  1.1992  4.1979 -0.5984
 8340SOL     OW36481   4.276   4.457   2.922 -0.3623  0.0025  0.1614
 8340SOL    HW136482   4.262   4.519   2.850 -1.6221 -1.1316 -0.5667
 8340SOL    HW236483   4.345   4.403   2.883 -1.9040 -2.2095  0.5529
 8341SOL     OW36484   3.182   3.584   6.363  0.3341  0.1380  0.2507
 8341SOL    HW136485   3.124   3.509   6.355 -0.0445  0.6387 -1.5610
 8341SOL    HW236486   3.125   3.660   6.367 -0.0702 -0.1818  0.5514
 8342SOL     OW36487   2.401   2.661   2.891  0.5702 -0.6291 -0.3955
 8342SOL    HW136488   2.418   2.712   2.970 -3.2419 -0.1767  0.1562
 8342SOL    HW236489   2.395   2.575   2.934  1.1081 -0.8813 -0.8245
 8343SOL     OW36490   2.901   0.845  10.719 -0.3248 -0.2045 -0.6530
 8343SOL    HW136491   2.877   0.935  10.698  0.1636  0.3949  1.3649
 8343SOL    HW236492   2.835   0.825  10.786  0.1330 -0.2689 -0.2226
 8344SOL     OW36493   0.777   0.254   5.220  0.0428 -0.2542 -0.3521
 8344SOL    HW136494   0.852   0.214   5.263 -0.2847  1.2656  1.6424
 8344SOL    HW236495   0.713   0.229   5.286  0.9974 -4.3018 -1.0160
 8345SOL     OW36496   3.031   0.279  10.983 -0.0659 -0.2849 -0.5173
 8345SOL    HW136497   3.001   0.237  10.902 -0.3177 -1.6319  0.2792
 8345SOL    HW236498   3.018   0.206  11.044  0.0485 -2.9116 -3.5808
 8346SOL     OW36499   2.289   3.614   8.752 -0.2627  0.1687  0.3954
 8346SOL    HW136500   2.383   3.634   8.758 -0.7269  2.5754 -0.1850
 8346SOL    HW236501   2.278   3.582   8.663 -1.2353  1.2505  0.1221
 8347SOL     OW36502   2.233   1.992   3.157 -0.2147  0.1664 -0.6419
 8347SOL    HW136503   2.288   2.032   3.091 -1.4431  1.0477 -1.1404
 8347SOL    HW236504   2.202   1.908   3.123  1.2529  0.3010 -2.2779
 8348SOL     OW36505   2.635   2.607   8.285  0.3763  0.9323  0.2813
 8348SOL    HW136506   2.645   2.594   8.379 -1.2464  0.8476  0.4430
 8348SOL    HW236507   2.543   2.598   8.260  0.9091 -0.6828 -1.0596
 8349SOL     OW36508   2.186   4.510  10.822  0.0092 -0.0882  0.3832
 8349SOL    HW136509   2.099   4.512  10.861  0.1551  1.6373  0.6085
 8349SOL    HW236510   2.231   4.571  10.880 -0.5378  1.0297 -0.3810
 8350SOL     OW36511   3.387   1.778   1.638  0.8700  1.0799  0.0616
 8350SOL    HW136512   3.389   1.873   1.627 -2.3732  1.1111 -0.2726
 8350SOL    HW236513   3.304   1.760   1.683  2.2058  0.9279  2.4432
 8351SOL     OW36514   2.481   4.385   8.454  0.2137  0.7597 -0.2450
 8351SOL    HW136515   2.511   4.440   8.526 -0.0845 -0.9478  1.1688
 8351SOL    HW236516   2.423   4.323   8.497  1.9550  0.0311  1.0679
 8352SOL     OW36517   4.051   0.143   8.919  0.3817 -0.2396 -0.6666
 8352SOL    HW136518   4.058   0.069   8.979 -0.3098 -0.3014 -0.6655
 8352SOL    HW236519   4.032   0.087   8.843 -0.2221  0.7376 -1.2376
 8353SOL     OW36520   3.765   2.735   6.855  0.5310 -0.1490 -0.8244
 8353SOL    HW136521   3.805   2.699   6.934 -1.3996  0.4082  0.4005
 8353SOL    HW236522   3.715   2.659   6.826  1.7178 -0.2891 -2.5113
 8354SOL     OW36523   3.067   2.537   6.018 -0.5146  0.0346  0.4077
 8354SOL    HW136524   3.123   2.523   5.942  0.3761 -1.4002  1.3269
 8354SOL    HW236525   2.996   2.494   5.970 -1.1159  1.1805  0.2917
 8355SOL     OW36526   1.151   1.775   2.586 -0.5461  0.6458 -0.0059
 8355SOL    HW136527   1.195   1.756   2.669 -0.5828 -1.6689 -0.5380
 8355SOL    HW236528   1.169   1.869   2.578  2.0036  0.1139 -0.7139
 8356SOL     OW36529   1.626   0.760   6.443  0.0475 -0.2495  0.1588
 8356SOL    HW136530   1.636   0.666   6.455  1.0094 -0.1144  0.4154
 8356SOL    HW236531   1.689   0.790   6.509 -0.7462  0.5194  0.5652
 8357SOL     OW36532   3.982   3.337   7.666  0.1600 -0.1351  0.2413
 8357SOL    HW136533   3.907   3.389   7.637  0.0113  0.8396  2.3495
 8357SOL    HW236534   4.043   3.348   7.594 -1.9009 -0.6840 -1.5992
 8358SOL     OW36535   4.055   1.387  13.527 -0.2659 -0.4232 -0.2334
 8358SOL    HW136536   4.136   1.421  13.564  0.2310  0.2559 -1.9544
 8358SOL    HW236537   4.002   1.432  13.594  1.6425 -0.0331  1.0070
 8359SOL     OW36538   4.256   0.017   7.347  0.1378 -0.0331 -0.2507
 8359SOL    HW136539   4.199   0.053   7.278  1.8439  3.4132  0.1305
 8359SOL    HW236540   4.224   0.051   7.431 -1.2438 -3.7603  0.7614
 8360SOL     OW36541   1.443   0.172   3.810 -0.3892 -0.2337 -0.1914
 8360SOL    HW136542   1.507   0.199   3.745  1.5285  1.3872  2.3639
 8360SOL    HW236543   1.488   0.093   3.839 -2.1479 -0.3068  2.4040
 8361SOL     OW36544   3.373   2.854   8.123 -0.2296 -0.7036  0.6113
 8361SOL    HW136545   3.385   2.759   8.117 -1.7351 -0.9950  2.1956
 8361SOL    HW236546   3.348   2.855   8.215  1.0693 -0.2719  0.9486
 8362SOL     OW36547   1.847   1.878   3.362 -0.0845  0.1698 -0.4528
 8362SOL    HW136548   1.941   1.861   3.356  0.2479  0.9785  2.7030
 8362SOL    HW236549   1.852   1.951   3.423  1.5497 -1.2641  1.1263
 8363SOL     OW36550   1.031   2.812   1.324 -0.4383 -0.6344  0.0039
 8363SOL    HW136551   1.012   2.749   1.394  2.7911 -3.1004 -1.3506
 8363SOL    HW236552   0.947   2.858   1.317  0.9644  1.7321 -0.8901
 8364SOL     OW36553   3.242   3.781  10.150  0.7306 -0.4496 -0.0727
 8364SOL    HW136554   3.148   3.790  10.138  0.6020 -0.2353  1.0852
 8364SOL    HW236555   3.264   3.873  10.139 -0.9555 -0.0755 -0.2567
 8365SOL     OW36556   2.314   4.063   4.585  0.1350  0.2600 -0.1981
 8365SOL    HW136557   2.318   4.001   4.657  1.3010  2.4261  1.5994
 8365SOL    HW236558   2.403   4.070   4.551 -0.6247  0.0619 -2.2457
 8366SOL     OW36559   4.280   1.183   7.321 -0.1202 -0.3347 -0.1691
 8366SOL    HW136560   4.254   1.096   7.353  1.0237 -0.7076 -0.2817
 8366SOL    HW236561   4.215   1.182   7.251  1.2920 -0.4344 -1.4682
 8367SOL     OW36562   2.817   0.635   8.536  0.0947 -0.0244  0.4741
 8367SOL    HW136563   2.892   0.589   8.497 -0.7104  0.1164 -1.2219
 8367SOL    HW236564   2.774   0.678   8.462 -1.6024 -3.8406 -0.7621
 8368SOL     OW36565   0.685   1.405  13.028 -0.3719  0.0764  0.4407
 8368SOL    HW136566   0.697   1.438  12.939 -1.0176 -1.7770 -0.3376
 8368SOL    HW236567   0.594   1.426  13.047 -0.3795 -0.2614  0.7810
 8369SOL     OW36568   0.879   0.232  10.637  0.0217  0.3302  0.2900
 8369SOL    HW136569   0.966   0.214  10.602 -0.2851 -0.4236 -0.0866
 8369SOL    HW236570   0.819   0.211  10.565  2.0300 -0.1930 -1.2205
 8370SOL     OW36571   2.705   1.404   6.599 -0.5280  0.5792  0.5236
 8370SOL    HW136572   2.620   1.361   6.599 -0.8489  1.2155  0.0556
 8370SOL    HW236573   2.742   1.366   6.679  0.4931  2.7620  1.0942
 8371SOL     OW36574   2.473   1.242   5.647  0.7505 -0.3320 -0.5191
 8371SOL    HW136575   2.445   1.152   5.663 -1.3546  0.1703 -1.2575
 8371SOL    HW236576   2.391   1.292   5.648  0.4576 -0.8119 -0.4037
 8372SOL     OW36577   2.058   4.096   4.303  0.1802 -0.0817  0.1715
 8372SOL    HW136578   2.107   4.014   4.304  0.5838  0.1421 -1.3517
 8372SOL    HW236579   1.970   4.082   4.269 -0.8730  2.6498  1.7899
 8373SOL     OW36580   4.087   4.526   6.152  0.2885 -0.1175 -0.5168
 8373SOL    HW136581   4.122   4.552   6.066  1.2827 -0.2688 -0.1549
 8373SOL    HW236582   4.144   4.451   6.170  0.9413  0.7964  1.1897
 8374SOL     OW36583   1.768   3.953   6.256  0.0116 -0.7577  0.2809
 8374SOL    HW136584   1.794   3.890   6.188  0.1611 -0.1806 -0.1944
 8374SOL    HW236585   1.766   4.037   6.210  1.1261 -0.4950  0.7193
 8375SOL     OW36586   0.229   4.565   9.072  0.1525  0.0602 -0.2579
 8375SOL    HW136587   0.291   4.589   9.142 -1.5316  0.4876  1.0891
 8375SOL    HW236588   0.178   4.645   9.080  1.6533  0.8005  2.1755
 8376SOL     OW36589   2.366   0.992  10.986  0.2583  0.5462  0.4098
 8376SOL    HW136590   2.403   1.052  10.922  0.1009  1.4071  1.1281
 8376SOL    HW236591   2.284   0.971  10.941  0.8489 -1.9766  0.4841
 8377SOL     OW36592   2.095   1.870   4.661 -0.2981  0.2282  0.1279
 8377SOL    HW136593   2.119   1.948   4.611  2.1334 -0.2017  0.5944
 8377SOL    HW236594   2.014   1.837   4.622 -0.5253 -0.2945  1.0452
 8378SOL     OW36595   3.336   1.132  11.820  0.1841  0.0646 -0.1717
 8378SOL    HW136596   3.294   1.124  11.906  0.5156 -2.3821 -0.2598
 8378SOL    HW236597   3.298   1.057  11.775 -0.4606  1.1205 -1.4122
 8379SOL     OW36598   2.956   1.374  16.826  0.1708  0.1730  0.1569
 8379SOL    HW136599   2.973   1.378  16.920 -0.7134  1.4890  0.2589
 8379SOL    HW236600   3.036   1.329  16.798  0.2648 -0.1041  0.8673
 8380SOL     OW36601   1.369   1.449   6.988  0.1681  0.1783  0.5192
 8380SOL    HW136602   1.315   1.383   7.032  1.4774 -1.0554  0.2532
 8380SOL    HW236603   1.391   1.501   7.065  1.5721  1.4216 -0.7003
 8381SOL     OW36604   3.592   1.761   1.824  0.0594  0.8190  0.7239
 8381SOL    HW136605   3.533   1.751   1.749  1.5033 -0.8953 -0.1845
 8381SOL    HW236606   3.545   1.694   1.872  0.1813 -1.1580 -1.9449
 8382SOL     OW36607   0.999   1.516   5.245 -0.0124  0.3775 -0.1847
 8382SOL    HW136608   1.028   1.425   5.238 -0.7685  0.2368 -1.4064
 8382SOL    HW236609   1.075   1.566   5.277 -0.7264  1.6708 -0.4937
 8383SOL     OW36610   0.375   3.906   4.583  0.7973 -0.1360  0.0995
 8383SOL    HW136611   0.341   3.952   4.506 -1.2745 -1.2362  0.3414
 8383SOL    HW236612   0.402   3.974   4.645 -1.8868 -0.2200  1.3761
 8384SOL     OW36613   2.335   3.728   4.566  0.6877 -0.6529  0.0029
 8384SOL    HW136614   2.312   3.778   4.644  0.8702 -0.3886 -0.1122
 8384SOL    HW236615   2.422   3.764   4.546  0.7993  0.3547  2.3518
 8385SOL     OW36616   0.401   1.934   8.952 -0.1388 -0.3914  0.1027
 8385SOL    HW136617   0.457   2.012   8.952  0.6227 -0.9440  0.4094
 8385SOL    HW236618   0.350   1.954   9.031  0.2038  0.3749  0.1363
 8386SOL     OW36619   2.621   2.725   2.480 -0.2968 -0.4543 -0.0326
 8386SOL    HW136620   2.580   2.715   2.394  0.7136  3.0172 -0.8979
 8386SOL    HW236621   2.552   2.741   2.545 -0.9184  1.0543 -1.0809
 8387SOL     OW36622   2.057   0.044   9.068  0.5969 -0.2030  0.3544
 8387SOL    HW136623   1.997   0.070   9.137 -0.3179  0.9208 -0.8732
 8387SOL    HW236624   2.101   0.127   9.049 -0.0468 -0.6251 -2.9986
 8388SOL     OW36625   4.550   3.325   3.388 -0.2333 -0.3725 -0.4471
 8388SOL    HW136626   4.484   3.267   3.425  1.3856 -2.9691 -1.5590
 8388SOL    HW236627   4.617   3.305   3.454  1.1588  1.2887 -1.3511
 8389SOL     OW36628   0.075   3.649  11.418  0.5956 -0.6113  0.7147
 8389SOL    HW136629   0.016   3.705  11.367  1.6175 -0.3929 -0.2168
 8389SOL    HW236630   0.096   3.695  11.499  0.8781  1.3045 -0.4575
 8390SOL     OW36631   1.544   4.084  17.313 -0.0229  0.0996  0.6069
 8390SOL    HW136632   1.609   4.094  17.382  0.3922 -1.6164  0.4674
 8390SOL    HW236633   1.596   4.055  17.238 -0.0208  3.0774 -0.5543
 8391SOL     OW36634   0.225   1.473   0.667 -0.0004  0.0633 -0.0816
 8391SOL    HW136635   0.149   1.449   0.720 -0.0772  1.1759  0.3113
 8391SOL    HW236636   0.260   1.384   0.659 -1.1508 -0.4938  1.0706
 8392SOL     OW36637   1.073   4.202   4.854 -0.3081 -0.4148  0.0964
 8392SOL    HW136638   1.062   4.222   4.761  0.9284 -1.3627 -0.2553
 8392SOL    HW236639   0.984   4.181   4.883 -1.3656  0.8224 -2.3041
 8393SOL     OW36640   3.051   4.340   3.496 -0.3950  0.0294  0.4827
 8393SOL    HW136641   2.978   4.285   3.526  1.9012 -2.6998  1.0201
 8393SOL    HW236642   3.080   4.280   3.428  1.4562  1.9629 -0.4511
 8394SOL     OW36643   4.498   2.801   6.415 -0.0540 -0.1997  0.1681
 8394SOL    HW136644   4.509   2.837   6.503  0.3641  0.9991 -0.3573
 8394SOL    HW236645   4.575   2.748   6.396  0.6369  0.5169  0.9523
 8395SOL     OW36646   3.013   1.901  12.660 -0.5997 -0.2081  0.3547
 8395SOL    HW136647   3.084   1.895  12.596 -0.4349 -2.3307  0.7403
 8395SOL    HW236648   3.038   1.978  12.711 -0.7270 -0.0865  0.2332
 8396SOL     OW36649   0.804   2.989   3.282  0.3369 -0.0182  0.0016
 8396SOL    HW136650   0.714   2.966   3.257  0.1227  1.1033 -0.2718
 8396SOL    HW236651   0.844   2.991   3.195  1.0679  1.0088  0.3565
 8397SOL     OW36652   0.327   2.634   9.335  0.6171  0.3644  0.6287
 8397SOL    HW136653   0.401   2.646   9.276  1.6767  1.8802  2.2677
 8397SOL    HW236654   0.275   2.578   9.276 -0.8000  0.2851  1.9475
 8398SOL     OW36655   1.783   2.583   6.083 -0.4546 -0.1366  0.1380
 8398SOL    HW136656   1.827   2.604   6.001 -0.1587 -0.0607  0.3131
 8398SOL    HW236657   1.859   2.559   6.137  1.1502 -0.3943 -2.2647
 8399SOL     OW36658   1.279   2.783   1.249  0.3049 -0.2274  0.7233
 8399SOL    HW136659   1.188   2.785   1.279  0.0931  0.3178  0.0403
 8399SOL    HW236660   1.299   2.876   1.245  1.8245 -0.5739  0.0690
 8400SOL     OW36661   2.363   2.289  14.929  0.2983 -0.4185 -0.0277
 8400SOL    HW136662   2.451   2.255  14.917  0.1528 -1.3132  1.3708
 8400SOL    HW236663   2.318   2.209  14.900 -0.5649 -0.1547  0.5560
 8401SOL     OW36664   2.493   1.583  16.924  0.1601 -0.4241 -0.1023
 8401SOL    HW136665   2.483   1.493  16.894 -1.6199 -0.4463  0.5720
 8401SOL    HW236666   2.577   1.612  16.887 -0.3909  2.4070  0.8904
 8402SOL     OW36667   2.365   0.204   0.851  0.0719  0.5669 -0.2468
 8402SOL    HW136668   2.403   0.125   0.888 -0.7415  0.0083 -0.6250
 8402SOL    HW236669   2.335   0.171   0.766  0.1401  0.0391 -0.0616
 8403SOL     OW36670   4.600   2.084   4.300  0.1915 -0.4182 -0.1036
 8403SOL    HW136671   4.511   2.050   4.289 -1.2230  2.4086  2.3886
 8403SOL    HW236672   4.586   2.159   4.358 -0.4513 -0.0930 -0.6852
 8404SOL     OW36673   4.050   2.396  12.982  0.5148  0.0487  0.3392
 8404SOL    HW136674   4.069   2.348  13.063  1.1335 -0.4095 -0.0765
 8404SOL    HW236675   4.050   2.482  13.025  1.2543  0.6470 -0.8633
 8405SOL     OW36676   2.924   3.382   2.614  0.1589  0.0229  0.1488
 8405SOL    HW136677   2.844   3.402   2.565  0.4308  3.3905  1.0494
 8405SOL    HW236678   2.985   3.430   2.558 -1.0808  1.5534  0.0954
 8406SOL     OW36679   0.842   1.420   7.439 -0.2346 -0.4266 -0.0283
 8406SOL    HW136680   0.852   1.367   7.360 -2.3436 -1.3188  0.3070
 8406SOL    HW236681   0.826   1.503   7.395 -0.4454 -1.3207 -1.6416
 8407SOL     OW36682   0.001   3.529   6.872  0.0209  0.1193 -0.7772
 8407SOL    HW136683   0.085   3.572   6.883  0.7732 -1.8536  1.2176
 8407SOL    HW236684   4.711   3.556   6.781  1.9082  3.2349 -0.0578
 8408SOL     OW36685   3.302   0.137   4.086  0.1940 -0.0707 -0.1176
 8408SOL    HW136686   3.236   0.204   4.103 -0.7005 -0.6325 -1.3848
 8408SOL    HW236687   3.268   0.052   4.112 -1.3181 -0.7427 -4.3076
 8409SOL     OW36688   4.050   4.262   6.473 -0.0042  0.0148  0.0196
 8409SOL    HW136689   4.117   4.328   6.454  0.4823 -0.0845  1.3481
 8409SOL    HW236690   4.101   4.186   6.500 -2.2589 -0.8759  1.7500
 8410SOL     OW36691   2.441   3.343  15.029  0.2562 -0.7147 -1.0211
 8410SOL    HW136692   2.497   3.266  15.025  1.3226 -0.1409  2.2522
 8410SOL    HW236693   2.481   3.398  14.962  2.3674 -0.0474  0.7499
 8411SOL     OW36694   1.348   3.501   7.102  0.4222  0.1028  0.2127
 8411SOL    HW136695   1.366   3.434   7.037 -1.7371 -1.6992  1.4637
 8411SOL    HW236696   1.255   3.524   7.101  0.8080  1.6278 -0.8450
 8412SOL     OW36697   3.927   0.609   9.939 -0.0101  0.5812 -0.2621
 8412SOL    HW136698   3.985   0.534   9.922 -0.8474 -0.2940  0.7158
 8412SOL    HW236699   3.973   0.652  10.012  0.8712 -2.4146  0.9437
 8413SOL     OW36700   1.099   2.607   3.150 -0.6892 -0.0615 -0.6447
 8413SOL    HW136701   1.019   2.611   3.097  0.8210 -0.5700 -2.9510
 8413SOL    HW236702   1.165   2.617   3.082 -1.9262  0.6593 -1.7365
 8414SOL     OW36703   2.982   1.051  11.681  0.3919  0.1292  0.6060
 8414SOL    HW136704   3.066   1.017  11.652 -0.3701 -0.0306 -1.4102
 8414SOL    HW236705   2.996   1.026  11.773  0.4136 -0.0638  0.5506
 8415SOL     OW36706   4.609   0.613   3.297  0.1303 -0.6441  0.4893
 8415SOL    HW136707   4.701   0.616   3.270 -0.0463 -0.2545 -0.0723
 8415SOL    HW236708   4.577   0.701   3.275  1.7084 -0.7133 -2.1451
 8416SOL     OW36709   4.479   0.733   2.554  0.1513 -0.0771 -0.2246
 8416SOL    HW136710   4.466   0.699   2.465 -1.0047  0.9370 -0.4417
 8416SOL    HW236711   4.561   0.686   2.570 -0.8698 -2.2169 -1.2418
 8417SOL     OW36712   4.017   0.284   2.433  0.2360  0.3372  0.2714
 8417SOL    HW136713   4.045   0.365   2.391  0.4213 -0.0180 -0.2884
 8417SOL    HW236714   3.965   0.319   2.505  1.6012 -0.7054  1.7621
 8418SOL     OW36715   3.820   0.928   7.937  0.2245  0.5580  0.0960
 8418SOL    HW136716   3.803   0.997   8.002  1.8071  1.0373 -0.0006
 8418SOL    HW236717   3.727   0.928   7.914  0.1106 -0.2134  0.5910
 8419SOL     OW36718   1.152   4.643  15.299 -0.5689 -0.4658 -0.3215
 8419SOL    HW136719   1.068   4.683  15.319  1.5564  3.9693 -0.1122
 8419SOL    HW236720   1.177   4.606  15.384 -0.3889  2.6002  0.9748
 8420SOL     OW36721   2.497   0.427   7.395 -0.0374  0.7482 -0.3338
 8420SOL    HW136722   2.547   0.504   7.422  3.0344 -1.3103 -0.1011
 8420SOL    HW236723   2.420   0.429   7.451  0.5767 -1.9028  0.6178
 8421SOL     OW36724   2.974   1.900  10.934 -0.5052  0.2222  0.0055
 8421SOL    HW136725   3.059   1.906  10.890  0.6956 -1.0976  2.1054
 8421SOL    HW236726   2.980   1.809  10.964 -0.1463  0.5968  1.0742
 8422SOL     OW36727   4.378   2.024   5.512 -0.1402  0.2402  0.3703
 8422SOL    HW136728   4.425   1.944   5.533 -0.3635  0.4927  1.8008
 8422SOL    HW236729   4.443   2.093   5.528  0.1248  0.5035 -1.8124
 8423SOL     OW36730   1.992   3.658   4.941 -0.1483 -0.0724  0.5875
 8423SOL    HW136731   1.963   3.623   5.026  0.4778 -0.9790  0.4351
 8423SOL    HW236732   2.077   3.694   4.966 -0.7777  0.4157  2.0421
 8424SOL     OW36733   4.490   2.694  12.161 -0.2341  0.4824 -0.1001
 8424SOL    HW136734   4.406   2.740  12.159 -0.0476  0.7684 -1.2671
 8424SOL    HW236735   4.460   2.611  12.196 -0.4079  0.9467  0.8505
 8425SOL     OW36736   1.432   0.787   3.547  0.1702 -0.5082  0.0485
 8425SOL    HW136737   1.520   0.798   3.511  0.6210  1.9228  1.8467
 8425SOL    HW236738   1.436   0.734   3.627  1.6735 -0.6322 -0.1122
 8426SOL     OW36739   3.503   3.802   2.511  0.3015 -0.2749 -0.3439
 8426SOL    HW136740   3.543   3.889   2.509  0.1647 -0.2451 -1.5567
 8426SOL    HW236741   3.564   3.748   2.461  0.3435  0.4053 -1.0239
 8427SOL     OW36742   3.930   3.142  14.420 -0.0653 -0.0981 -0.3244
 8427SOL    HW136743   3.971   3.170  14.338  0.1805  0.8043  0.1125
 8427SOL    HW236744   3.862   3.209  14.418 -0.0350 -0.0300  0.8980
 8428SOL     OW36745   0.581   0.564   4.512 -0.8507 -0.3756 -0.1991
 8428SOL    HW136746   0.656   0.588   4.457  0.0360 -0.1197  1.1001
 8428SOL    HW236747   0.578   0.470   4.493 -2.8436 -0.1967 -0.7455
 8429SOL     OW36748   0.136   4.599   2.181 -0.3588 -0.3696 -0.0236
 8429SOL    HW136749   0.179   4.597   2.266  3.4759 -1.2967 -1.9831
 8429SOL    HW236750   0.134   4.694   2.164 -3.4895 -0.2902  0.6675
 8430SOL     OW36751   2.972   3.587   3.461  0.2807 -0.6914 -0.2951
 8430SOL    HW136752   2.993   3.498   3.490 -0.7284 -0.8052  0.0673
 8430SOL    HW236753   2.889   3.601   3.506  0.9434 -1.5119  1.1658
 8431SOL     OW36754   3.249   4.027   2.415  0.7824 -0.4477  0.2008
 8431SOL    HW136755   3.165   3.982   2.422  0.1478  0.2979 -2.8395
 8431SOL    HW236756   3.250   4.071   2.501  2.3368  0.5392 -0.3148
 8432SOL     OW36757   1.870   3.919   4.878 -0.0953  0.0474  0.1089
 8432SOL    HW136758   1.869   3.825   4.863 -2.3247 -0.0229  0.6575
 8432SOL    HW236759   1.959   3.924   4.913  1.1269  0.7910 -3.1419
 8433SOL     OW36760   4.275   3.655   1.762 -0.0542 -0.5439 -0.0026
 8433SOL    HW136761   4.225   3.575   1.748 -1.8255  0.7400 -1.0283
 8433SOL    HW236762   4.220   3.693   1.831 -3.3743 -0.5845 -2.6393
 8434SOL     OW36763   4.103   3.029   9.705 -0.5273  0.1531  0.1302
 8434SOL    HW136764   4.152   3.007   9.784  0.2952 -1.1399 -0.7442
 8434SOL    HW236765   4.110   3.124   9.696  0.3608 -0.0549 -1.5652
 8435SOL     OW36766   4.029   4.418   1.416 -0.0007 -0.5107  0.4773
 8435SOL    HW136767   4.031   4.469   1.497 -2.3353  1.1892 -0.5182
 8435SOL    HW236768   4.116   4.381   1.410 -0.5799 -1.6502 -0.8247
 8436SOL     OW36769   1.805   1.460   6.783  0.5180  0.0905  0.3145
 8436SOL    HW136770   1.861   1.427   6.713 -0.2784  1.1968 -0.8564
 8436SOL    HW236771   1.759   1.538   6.751 -0.9519 -2.1295 -2.9930
 8437SOL     OW36772   2.249   2.505  14.529 -0.2036  0.1736 -0.4322
 8437SOL    HW136773   2.279   2.421  14.494  1.1375  0.6774 -0.5071
 8437SOL    HW236774   2.320   2.543  14.581  0.6610 -0.8263 -0.8602
 8438SOL     OW36775   1.831   1.154  11.586  0.6510 -0.5497  0.3881
 8438SOL    HW136776   1.879   1.121  11.662  1.6329  2.5494  1.1081
 8438SOL    HW236777   1.824   1.072  11.536  0.0188 -0.0564 -0.3187
 8439SOL     OW36778   4.463   1.214   3.048 -0.3485  0.2265  0.0236
 8439SOL    HW136779   4.401   1.243   2.981  0.5769  2.4588  0.1185
 8439SOL    HW236780   4.446   1.120   3.045 -0.4043  0.2025  1.0627
 8440SOL     OW36781   3.145   3.123  14.161 -0.5481  0.5345 -0.4337
 8440SOL    HW136782   3.223   3.067  14.165  0.6285  2.2549  0.6704
 8440SOL    HW236783   3.100   3.089  14.238  2.0339  1.2596  1.3784
 8441SOL     OW36784   3.898   1.610   7.931  0.8999  0.2482 -0.2086
 8441SOL    HW136785   3.885   1.608   7.836  0.3690 -1.0767 -0.1020
 8441SOL    HW236786   3.970   1.671   7.947  0.7537 -0.1250  1.9475
 8442SOL     OW36787   1.126   4.493   0.062  0.0339 -0.2308  0.3241
 8442SOL    HW136788   1.150   4.529  17.666 -0.9028 -0.8833 -0.1997
 8442SOL    HW236789   1.031   4.491   0.053  0.2127 -0.5305 -1.6805
 8443SOL     OW36790   3.125   1.618  10.367 -0.3119  0.2058 -0.7251
 8443SOL    HW136791   3.143   1.689  10.306 -1.8180  1.3661  0.1724
 8443SOL    HW236792   3.087   1.556  10.305 -0.5704  2.0813 -2.4468
 8444SOL     OW36793   1.415   1.938  13.963 -0.3980 -1.1593  0.6644
 8444SOL    HW136794   1.399   1.956  14.056 -0.3439  0.5210  0.3546
 8444SOL    HW236795   1.505   1.907  13.975  0.4511  0.5111 -1.2773
 8445SOL     OW36796   2.924   1.203  17.306 -0.3946  0.2670  0.0139
 8445SOL    HW136797   2.856   1.145  17.341 -1.3081  0.6378 -1.1701
 8445SOL    HW236798   2.876   1.249  17.237 -0.6448  0.3892  0.2703
 8446SOL     OW36799   3.478   1.761   6.083  0.4885 -0.1272  0.0373
 8446SOL    HW136800   3.394   1.725   6.111  1.1286 -0.8465  0.9959
 8446SOL    HW236801   3.473   1.761   5.987  0.4746 -0.0576  0.0380
 8447SOL     OW36802   1.129   1.914   4.601  0.8814  0.5202  0.2278
 8447SOL    HW136803   1.132   2.002   4.639 -0.5463 -0.5109  2.7374
 8447SOL    HW236804   1.209   1.899   4.551  2.5436  0.8077  2.8061
 8448SOL     OW36805   0.017   3.339   8.608 -0.5395  0.0410  0.3666
 8448SOL    HW136806   0.109   3.363   8.591 -0.4456  0.5577  1.6169
 8448SOL    HW236807   0.017   3.249   8.575 -2.9425 -0.0672  0.6960
 8449SOL     OW36808   3.582   1.487   6.662 -0.1964 -0.6378 -0.0213
 8449SOL    HW136809   3.673   1.506   6.641 -0.6662  0.0327 -1.4120
 8449SOL    HW236810   3.569   1.523   6.750  0.7193 -0.3577 -0.0071
 8450SOL     OW36811   1.792   4.669   1.413 -0.0617 -0.5787 -0.8353
 8450SOL    HW136812   1.872   4.618   1.401 -0.2976 -1.1807  0.1569
 8450SOL    HW236813   1.738   4.597   1.448 -0.4525  1.0365  1.8746
 8451SOL     OW36814   0.705   1.606   6.751 -0.6781 -0.2825 -0.1870
 8451SOL    HW136815   0.649   1.683   6.758  1.0212  0.8253  1.1056
 8451SOL    HW236816   0.781   1.640   6.799 -0.1699 -0.6312 -0.7439
 8452SOL     OW36817   2.469   0.310  14.430 -0.4051 -0.3295  0.0049
 8452SOL    HW136818   2.535   0.378  14.415 -2.3334  1.9280  1.7543
 8452SOL    HW236819   2.394   0.341  14.381 -1.5791  1.1353  2.7315
 8453SOL     OW36820   4.643   0.093   6.184  0.3120  0.4084  0.1563
 8453SOL    HW136821   4.580   0.090   6.256 -0.2309  1.9151 -0.2607
 8453SOL    HW236822   4.692   0.012   6.200  1.8966  1.7799  2.1558
 8454SOL     OW36823   2.287   3.403  10.433  0.7162 -0.6648  0.3751
 8454SOL    HW136824   2.315   3.418  10.523 -5.2154  3.5129  1.4771
 8454SOL    HW236825   2.334   3.322  10.413  0.0860 -0.9281 -0.0563
 8455SOL     OW36826   4.092   2.806   3.455  0.6393 -0.3184 -0.0705
 8455SOL    HW136827   4.106   2.887   3.504 -1.6800  0.1467 -0.1386
 8455SOL    HW236828   4.034   2.837   3.386  1.6599 -3.1944 -2.1994
 8456SOL     OW36829   1.673   0.340   7.801  0.1135 -0.2614  0.1353
 8456SOL    HW136830   1.623   0.300   7.872  0.1360 -1.2997 -0.4437
 8456SOL    HW236831   1.757   0.308   7.837  0.6013  1.4233  0.4841
 8457SOL     OW36832   2.157   2.046  12.100 -0.1846  0.4372  0.5058
 8457SOL    HW136833   2.066   2.050  12.130 -0.3839  1.4858 -0.2089
 8457SOL    HW236834   2.156   2.003  12.015 -1.2877 -1.1370  1.3023
 8458SOL     OW36835   1.959   4.104   3.866 -0.7893 -0.0767  0.4904
 8458SOL    HW136836   1.916   4.021   3.884 -1.0189  0.6328  3.2061
 8458SOL    HW236837   1.917   4.147   3.941  2.4737  1.9058  1.1929
 8459SOL     OW36838   0.503   3.130  17.576 -0.2109 -0.4401 -0.3754
 8459SOL    HW136839   0.536   3.042  17.562  0.3972 -0.0141 -1.7400
 8459SOL    HW236840   0.409   3.119  17.561 -0.3303  0.3791 -0.2393
 8460SOL     OW36841   0.880   3.861   4.584 -0.0456 -0.2200  0.4023
 8460SOL    HW136842   0.824   3.826   4.654 -2.2166  1.2721 -0.5948
 8460SOL    HW236843   0.971   3.852   4.614 -0.4100  2.8440  2.4501
 8461SOL     OW36844   3.574   4.409  16.545 -0.0587 -0.7433  0.5160
 8461SOL    HW136845   3.497   4.428  16.598  0.3239 -0.8228  1.1047
 8461SOL    HW236846   3.543   4.428  16.456 -3.5130 -0.9763  1.6980
 8462SOL     OW36847   4.430   0.048  16.826 -0.4351 -0.1173  0.4596
 8462SOL    HW136848   4.477   0.132  16.828  2.0205 -1.5249  1.9032
 8462SOL    HW236849   4.452   0.003  16.745  2.3712  0.9862  0.6331
 8463SOL     OW36850   0.530   3.454   0.470  1.0078  0.3306  0.4419
 8463SOL    HW136851   0.472   3.521   0.506 -0.1438 -0.0939 -0.5980
 8463SOL    HW236852   0.474   3.402   0.412  0.9803  2.1893 -1.2262
 8464SOL     OW36853   1.225   1.095   7.624  0.4741  0.2320 -0.1225
 8464SOL    HW136854   1.155   1.120   7.684 -0.9838 -2.1212 -0.8363
 8464SOL    HW236855   1.178   1.083   7.541  0.8441 -0.2104 -0.2714
 8465SOL     OW36856   0.384   4.086   7.024  0.0729 -0.3360 -0.1087
 8465SOL    HW136857   0.434   4.008   7.000  0.0080 -0.0937 -1.0215
 8465SOL    HW236858   0.312   4.052   7.077 -1.2434  0.2081 -1.5412
 8466SOL     OW36859   0.449   3.443  13.384 -0.5855  0.2309 -0.1647
 8466SOL    HW136860   0.477   3.383  13.315  3.7913  2.5718 -0.4288
 8466SOL    HW236861   0.522   3.505  13.389  0.1425 -0.4087 -2.7261
 8467SOL     OW36862   3.160   4.693   2.186 -0.4216 -0.5534 -0.3120
 8467SOL    HW136863   3.091   4.629   2.202  1.4085 -2.4030  0.2105
 8467SOL    HW236864   3.126   0.048   2.231  2.7926 -1.3841  3.5065
 8468SOL     OW36865   0.341   0.758   2.807  0.2787  0.1143  0.5150
 8468SOL    HW136866   0.327   0.791   2.718  1.6718 -0.4281  0.1006
 8468SOL    HW236867   0.287   0.821   2.854 -0.1830 -0.2809  0.5153
 8469SOL     OW36868   1.329   0.915  13.459 -0.2655  0.0699 -0.5461
 8469SOL    HW136869   1.237   0.911  13.434 -0.4690  0.9284  0.0604
 8469SOL    HW236870   1.371   0.905  13.374  2.6390 -0.5522  0.9739
 8470SOL     OW36871   3.041   4.130   8.758 -0.5356  0.1380 -0.1733
 8470SOL    HW136872   3.033   4.225   8.766 -1.3365  0.0388  0.1404
 8470SOL    HW236873   3.111   4.128   8.693 -0.5844 -2.0968 -0.1730
 8471SOL     OW36874   2.119   4.132  15.763 -0.2827  0.2478  0.4953
 8471SOL    HW136875   2.209   4.109  15.789  0.2385  1.1314 -0.5512
 8471SOL    HW236876   2.137   4.166  15.676  2.9492 -1.0152  0.6590
 8472SOL     OW36877   3.392   2.643  17.459  0.7853 -0.1605 -0.3150
 8472SOL    HW136878   3.307   2.653  17.415  0.5706  2.4267  0.6668
 8472SOL    HW236879   3.396   2.729  17.500 -1.4406 -0.0821 -0.2260
 8473SOL     OW36880   0.907   4.638   3.414 -0.8182  0.3830 -0.3660
 8473SOL    HW136881   0.826   4.680   3.443 -0.6488 -0.3512  1.1554
 8473SOL    HW236882   0.945   4.714   3.370  0.3807  0.0355  0.0765
 8474SOL     OW36883   1.958   1.042   0.654 -0.0557 -0.1860 -0.1261
 8474SOL    HW136884   2.029   1.027   0.716 -0.2274  0.4519  0.2234
 8474SOL    HW236885   1.911   1.114   0.696  0.7929  0.1449  0.2577
 8475SOL     OW36886   3.562   2.503   5.487  0.4066  0.3700  0.2707
 8475SOL    HW136887   3.487   2.543   5.531 -0.5501 -0.5928 -0.4919
 8475SOL    HW236888   3.566   2.423   5.540  1.9196 -0.8853 -1.7494
 8476SOL     OW36889   3.471   0.404   1.142  0.5609 -0.2185 -0.3037
 8476SOL    HW136890   3.383   0.421   1.175  0.8492  1.2958 -0.3215
 8476SOL    HW236891   3.521   0.464   1.198 -0.0927  0.4406 -0.4286
 8477SOL     OW36892   1.402   2.693   8.350 -0.5751 -0.3749 -0.5210
 8477SOL    HW136893   1.462   2.742   8.294  0.0201 -0.0868  0.3629
 8477SOL    HW236894   1.382   2.619   8.293 -0.6574  1.8784 -3.4388
 8478SOL     OW36895   4.300   0.914   6.370 -0.5766 -0.0185 -0.0428
 8478SOL    HW136896   4.320   0.999   6.410 -1.9831  0.4256 -0.2776
 8478SOL    HW236897   4.374   0.902   6.311 -0.6314 -1.0439  0.0951
 8479SOL     OW36898   0.192   0.482   4.745 -0.7122  0.2256  0.1615
 8479SOL    HW136899   0.178   0.515   4.834  1.0621 -0.5882  0.7437
 8479SOL    HW236900   0.287   0.473   4.734 -0.7193  0.9669 -0.5446
 8480SOL     OW36901   3.557   0.191   3.321  0.4944  0.2776  0.3062
 8480SOL    HW136902   3.511   0.242   3.254  2.2733  2.4051  0.6877
 8480SOL    HW236903   3.602   0.263   3.367 -1.7400  1.5236  0.5524
 8481SOL     OW36904   2.528   4.563   4.790 -0.1199 -0.5751 -0.7222
 8481SOL    HW136905   2.475   4.633   4.829  1.4692 -0.0786  0.5196
 8481SOL    HW236906   2.455   4.507   4.764  0.2907 -2.1691  1.6003
 8482SOL     OW36907   1.366   3.033   7.760  0.4316 -0.5839  0.5204
 8482SOL    HW136908   1.290   3.090   7.743  1.5028  0.5677 -0.3919
 8482SOL    HW236909   1.393   3.019   7.670  1.1362 -1.4530  0.8673
 8483SOL     OW36910   0.875   4.327   8.378 -0.9615  0.0043 -0.3008
 8483SOL    HW136911   0.919   4.302   8.460 -1.1169 -1.3234 -0.6177
 8483SOL    HW236912   0.836   4.241   8.361 -0.1319 -0.1281 -1.4894
 8484SOL     OW36913   0.143   3.301   6.755  0.1960 -0.0080 -0.3662
 8484SOL    HW136914   0.076   3.361   6.787  0.0862 -0.1491 -0.3313
 8484SOL    HW236915   0.095   3.218   6.748 -2.1175  1.3683 -0.8279
 8485SOL     OW36916   2.093   0.233  12.343  0.2776  0.4003 -0.1106
 8485SOL    HW136917   2.011   0.190  12.318  1.0633 -0.4757 -1.2195
 8485SOL    HW236918   2.119   0.182  12.419 -1.1612 -0.1853 -0.0082
 8486SOL     OW36919   3.544   0.553   9.572  0.7615 -0.2709 -0.7738
 8486SOL    HW136920   3.541   0.624   9.636  0.4937 -1.9351  1.0368
 8486SOL    HW236921   3.609   0.503   9.620  2.6275  1.2184 -1.7523
 8487SOL     OW36922   3.041   1.904   2.310 -0.2773 -0.7852 -0.3252
 8487SOL    HW136923   2.961   1.930   2.264  0.3893 -3.4719 -2.9764
 8487SOL    HW236924   3.013   1.820   2.347 -0.0237  0.4898  2.7441
 8488SOL     OW36925   2.758   3.079   5.875  0.0108 -0.3956  0.2763
 8488SOL    HW136926   2.794   2.997   5.839 -0.8482 -0.5189 -0.2903
 8488SOL    HW236927   2.710   3.111   5.799 -2.5035  0.5500  2.2628
 8489SOL     OW36928   3.966   2.848   9.426  0.0633  0.1128 -0.1158
 8489SOL    HW136929   4.026   2.860   9.499 -0.7545  1.5555  0.3099
 8489SOL    HW236930   3.891   2.818   9.477  0.4208  0.4668  0.6155
 8490SOL     OW36931   3.205   3.500   8.220  0.3539  0.0159 -0.7314
 8490SOL    HW136932   3.203   3.406   8.237 -0.0496  0.2046  0.2276
 8490SOL    HW236933   3.179   3.496   8.128  0.4052 -0.5009 -0.7224
 8491SOL     OW36934   4.528   4.357   3.154 -0.3855 -0.5357 -0.0767
 8491SOL    HW136935   4.600   4.295   3.144  0.6878  0.6024  0.6387
 8491SOL    HW236936   4.535   4.413   3.077 -2.4481  0.0618  0.1655
 8492SOL     OW36937   3.084   0.163   4.363  0.1350 -0.0536 -0.3841
 8492SOL    HW136938   3.145   0.186   4.433 -0.9213  0.5404  0.3407
 8492SOL    HW236939   3.045   0.245   4.333  1.6233  1.1180  0.8754
 8493SOL     OW36940   0.686   1.897   8.136 -0.2763 -0.2168  0.1630
 8493SOL    HW136941   0.620   1.896   8.067  1.6730  0.4308 -1.7070
 8493SOL    HW236942   0.650   1.954   8.204  0.6064  2.2823 -1.4856
 8494SOL     OW36943   4.482   3.604   3.544  0.3706 -0.1047 -0.0304
 8494SOL    HW136944   4.552   3.659   3.507  0.6477  1.1036  2.2882
 8494SOL    HW236945   4.496   3.523   3.495  1.3076  0.2626 -0.3667
 8495SOL     OW36946   2.704   2.973   3.166 -0.1478 -0.2588 -0.0737
 8495SOL    HW136947   2.645   3.035   3.123  0.9770  0.1032 -1.0739
 8495SOL    HW236948   2.734   2.923   3.090  1.3391 -3.3553  2.5478
 8496SOL     OW36949   2.012   1.210  12.264  0.1600  0.2879  0.1292
 8496SOL    HW136950   1.983   1.175  12.180 -0.4992 -1.8015  1.2401
 8496SOL    HW236951   1.929   1.214  12.313  1.0297 -1.9430  1.7969
 8497SOL     OW36952   4.358   4.453   9.169 -0.5080 -0.0793  0.2537
 8497SOL    HW136953   4.336   4.360   9.164  0.4773 -0.3527  1.0553
 8497SOL    HW236954   4.450   4.453   9.196 -0.6510 -0.9514  0.7482
 8498SOL     OW36955   3.867   1.223   3.848  0.0436 -0.1306  0.2509
 8498SOL    HW136956   3.859   1.285   3.921 -0.4136  0.4513 -0.3001
 8498SOL    HW236957   3.955   1.191   3.868 -0.0517 -0.0256  0.8545
 8499SOL     OW36958   3.751   2.532  17.572  0.6111  0.4943  0.3801
 8499SOL    HW136959   3.741   2.523  17.477 -0.5922  0.2726  0.5276
 8499SOL    HW236960   3.843   2.512  17.586 -0.1146 -2.4079  1.0157
 8500SOL     OW36961   4.339   3.403  14.272 -0.2798 -0.4607  0.2055
 8500SOL    HW136962   4.265   3.370  14.219 -1.2648  1.3114  0.4806
 8500SOL    HW236963   4.293   3.441  14.347  0.0734  1.7275 -0.6902
 8501SOL     OW36964   2.636   1.136  17.230 -0.0158 -0.6286 -0.4740
 8501SOL    HW136965   2.694   1.095  17.166  0.2092 -0.7889 -0.1657
 8501SOL    HW236966   2.634   1.226  17.198 -2.0255 -0.7614 -0.7582
 8502SOL     OW36967   2.346   2.739  11.900 -0.0250 -0.4716  0.4932
 8502SOL    HW136968   2.317   2.802  11.835  0.3169 -1.5734 -0.7324
 8502SOL    HW236969   2.397   2.798  11.956  0.7898 -0.6124 -0.0951
 8503SOL     OW36970   1.267   0.083  10.755 -0.4175  0.1157 -0.5954
 8503SOL    HW136971   1.198   0.144  10.728 -1.9192 -1.4047 -0.1752
 8503SOL    HW236972   1.331   0.133  10.704 -0.9357 -0.9161 -2.2558
 8504SOL     OW36973   0.587   0.942   7.976  0.1409 -0.3983 -0.5702
 8504SOL    HW136974   0.620   0.933   8.065 -0.5109  0.7949 -0.2147
 8504SOL    HW236975   0.608   0.859   7.932 -3.6532 -2.0894  0.8448
 8505SOL     OW36976   4.278   1.881  17.634  0.6182  0.0894 -0.3891
 8505SOL    HW136977   4.350   1.831  17.672 -0.0569  1.8478  3.2428
 8505SOL    HW236978   4.201   1.851  17.682  0.6931  1.5807  0.6778
 8506SOL     OW36979   2.414   4.205   1.648 -0.5680  0.2593 -0.5793
 8506SOL    HW136980   2.427   4.188   1.555  1.8635  0.5164 -0.3106
 8506SOL    HW236981   2.420   4.120   1.692  1.8216 -0.6985 -2.7521
 8507SOL     OW36982   2.090   3.957   6.283 -0.2322  0.4483  0.0036
 8507SOL    HW136983   2.041   4.011   6.345 -0.8186 -1.0149  0.8107
 8507SOL    HW236984   2.039   3.877   6.269  0.7377  0.0288 -1.1679
 8508SOL     OW36985   4.250   4.222   6.080 -0.0860 -0.3066  0.3046
 8508SOL    HW136986   4.222   4.143   6.127  0.5863 -1.0125 -0.4833
 8508SOL    HW236987   4.344   4.212   6.090 -0.0234 -1.8869 -1.8046
 8509SOL     OW36988   0.244   2.235   7.729 -0.0465 -0.2961 -0.1320
 8509SOL    HW136989   0.229   2.267   7.818 -1.5723 -0.7120 -0.2346
 8509SOL    HW236990   0.314   2.171   7.741  0.3895  0.1751 -0.1686
 8510SOL     OW36991   3.123   4.301  11.448  0.1221  0.8209 -0.3297
 8510SOL    HW136992   3.066   4.274  11.375  1.7538  0.0200 -1.3144
 8510SOL    HW236993   3.107   4.231  11.511  0.7398  1.4670  0.5359
 8511SOL     OW36994   1.242   3.808   9.891  0.2070  0.3537  0.5584
 8511SOL    HW136995   1.158   3.830   9.931 -1.1111 -1.6882 -1.1325
 8511SOL    HW236996   1.304   3.839   9.958  3.3571  0.8708 -2.6308
 8512SOL     OW36997   0.947   0.328   6.882 -0.0940  0.0036 -0.8024
 8512SOL    HW136998   0.968   0.249   6.832 -1.4267 -0.9471  0.1169
 8512SOL    HW236999   0.983   0.394   6.824  1.0016 -0.7589 -0.9878
 8513SOL     OW37000   0.623   3.481  10.123 -0.2254  0.3109 -0.0454
 8513SOL    HW137001   0.592   3.527  10.044 -1.2709 -1.3147 -0.5695
 8513SOL    HW237002   0.633   3.553  10.185 -1.3491 -0.9293  1.5716
 8514SOL     OW37003   0.021   1.454   0.180 -0.3244  0.1719  0.0051
 8514SOL    HW137004   4.680   1.524   0.200 -0.1959  0.3668 -0.2712
 8514SOL    HW237005   0.073   1.474   0.258 -0.5881 -0.5742  0.3699
 8515SOL     OW37006   1.433   1.024   8.496  0.1795 -0.3353 -0.4222
 8515SOL    HW137007   1.436   1.075   8.415  0.8160 -1.8235 -1.3311
 8515SOL    HW237008   1.500   1.066   8.549 -0.5152  1.3456 -0.8653
 8516SOL     OW37009   0.990   1.937   9.413 -0.4178  0.3271 -0.2779
 8516SOL    HW137010   0.966   2.029   9.399 -0.2981  0.4644  0.4192
 8516SOL    HW237011   0.969   1.916   9.322  2.8600  1.1303 -1.2072
 8517SOL     OW37012   2.717   2.711   7.664  0.3317  0.1138  0.7504
 8517SOL    HW137013   2.727   2.748   7.576  0.5461 -1.0239  0.2960
 8517SOL    HW237014   2.700   2.621   7.635 -1.0411  0.9229 -0.9646
 8518SOL     OW37015   3.225   4.570   7.748 -0.5391  0.2554  0.4250
 8518SOL    HW137016   3.276   4.598   7.823 -2.2958 -2.9839  2.8485
 8518SOL    HW237017   3.144   4.569   7.798 -1.5081 -1.6680 -1.1368
 8519SOL     OW37018   1.556   4.175  14.830  0.2145 -0.0408 -0.0757
 8519SOL    HW137019   1.533   4.267  14.838 -0.0887 -0.0507 -0.7861
 8519SOL    HW237020   1.617   4.174  14.756  0.6075  2.4745  0.2380
 8520SOL     OW37021   2.561   3.846   4.525 -0.4445 -0.0952  0.6552
 8520SOL    HW137022   2.603   3.873   4.444 -0.7919 -0.3478  0.3928
 8520SOL    HW237023   2.586   3.913   4.589 -0.7339  2.5894 -2.0351
 8521SOL     OW37024   2.379   0.227   8.222  0.2410 -0.0970 -0.1694
 8521SOL    HW137025   2.446   0.160   8.208  0.6220 -0.1723  2.0939
 8521SOL    HW237026   2.419   0.298   8.172  1.3987 -2.5704 -2.7661
 8522SOL     OW37027   4.181   2.210   9.497 -0.1999 -0.3051 -0.5861
 8522SOL    HW137028   4.252   2.208   9.561 -1.2920 -0.3316  0.6177
 8522SOL    HW237029   4.217   2.188   9.411  0.6646 -1.2094  0.0176
 8523SOL     OW37030   3.445   3.547   7.195  0.4126  0.2543  0.2374
 8523SOL    HW137031   3.349   3.547   7.193  0.4164  0.7867 -0.1855
 8523SOL    HW237032   3.468   3.458   7.221  1.1229 -0.0345 -1.3531
 8524SOL     OW37033   2.881   4.574   6.865  0.3380 -0.8544  0.4807
 8524SOL    HW137034   2.844   4.623   6.939  0.7978 -0.3642  0.3874
 8524SOL    HW237035   2.876   4.638   6.794 -0.9106 -0.9633  0.4642
 8525SOL     OW37036   0.093   3.984   8.611  0.2054  0.1707 -0.1318
 8525SOL    HW137037   0.053   3.927   8.677  0.3073 -0.9974 -1.0740
 8525SOL    HW237038   0.090   4.070   8.653  1.2022 -0.0627  0.4263
 8526SOL     OW37039   3.554   3.654   1.851  0.3476  0.0242 -0.1412
 8526SOL    HW137040   3.505   3.635   1.771  1.6454 -1.8612 -0.4603
 8526SOL    HW237041   3.613   3.719   1.813  1.6962 -1.7700 -1.0506
 8527SOL     OW37042   2.714   4.272   4.620 -0.4399 -0.1999  0.3333
 8527SOL    HW137043   2.649   4.230   4.564  0.5062  0.8720 -1.5754
 8527SOL    HW237044   2.729   4.196   4.676  0.7991 -1.2981 -1.5051
 8528SOL     OW37045   4.370   2.219   8.010  0.2451 -0.5775 -1.0157
 8528SOL    HW137046   4.275   2.221   8.013  0.2616  0.9454 -1.6467
 8528SOL    HW237047   4.385   2.196   7.919 -1.4344  1.1168 -1.7049
 8529SOL     OW37048   0.133   2.842  12.398 -0.1453 -0.3470 -0.0465
 8529SOL    HW137049   0.159   2.934  12.402 -0.7785 -0.1944  0.5188
 8529SOL    HW237050   0.055   2.848  12.343  0.9527 -0.7176 -1.6296
 8530SOL     OW37051   1.390   2.432   2.133 -0.2143 -0.3917 -0.2792
 8530SOL    HW137052   1.324   2.375   2.172  0.8134 -3.1637 -2.5088
 8530SOL    HW237053   1.461   2.372   2.112  0.1494 -0.2494  0.5385
 8531SOL     OW37054   2.487   2.148   4.511 -0.0952 -0.3219  0.1227
 8531SOL    HW137055   2.402   2.105   4.518 -0.7516  0.8294 -0.9015
 8531SOL    HW237056   2.546   2.086   4.553 -0.4113 -1.1504 -0.6532
 8532SOL     OW37057   0.018   2.959  14.734 -0.1450  0.3676  0.1922
 8532SOL    HW137058   4.657   2.993  14.768  0.3550 -0.1982  2.0036
 8532SOL    HW237059   0.083   3.018  14.773  0.8014  1.3018 -2.7902
 8533SOL     OW37060   2.285   3.385   5.729  0.0047  0.1103 -0.7268
 8533SOL    HW137061   2.324   3.473   5.722 -1.8641  1.0976  1.3326
 8533SOL    HW237062   2.321   3.359   5.814 -0.0543  2.4856  0.0367
 8534SOL     OW37063   2.146   2.625   7.536  0.0321  0.3254 -0.3602
 8534SOL    HW137064   2.084   2.644   7.466  0.0977 -2.2634 -1.1389
 8534SOL    HW237065   2.107   2.541   7.559  0.6252 -0.2553 -1.4465
 8535SOL     OW37066   1.618   2.969   5.023 -0.0133  0.3250 -0.4926
 8535SOL    HW137067   1.546   3.025   5.052  0.4364  0.6490  0.0085
 8535SOL    HW237068   1.577   2.906   4.963 -0.7963 -0.2614  0.6666
 8536SOL     OW37069   2.453   3.422  17.096 -0.0752  0.6091 -0.5185
 8536SOL    HW137070   2.382   3.474  17.134  0.2959  1.3067 -0.7961
 8536SOL    HW237071   2.510   3.487  17.056 -1.7060  1.7983 -0.9205
 8537SOL     OW37072   0.880   2.236  12.666  0.3730  0.2461  0.0101
 8537SOL    HW137073   0.897   2.261  12.757 -1.3641  0.1532  0.3544
 8537SOL    HW237074   0.959   2.272  12.626 -0.8079  1.2291 -1.3919
 8538SOL     OW37075   1.710   1.321  17.211 -0.0165  0.0941  0.2004
 8538SOL    HW137076   1.774   1.368  17.157  0.5719 -0.2379  0.6017
 8538SOL    HW237077   1.739   1.231  17.195 -1.0543 -0.4194  1.1388
 8539SOL     OW37078   2.449   0.501   1.317  0.1993 -0.6779  0.5197
 8539SOL    HW137079   2.494   0.456   1.246  0.5191 -1.0709  0.9643
 8539SOL    HW237080   2.482   0.591   1.317 -2.2894  0.2375 -1.2651
 8540SOL     OW37081   2.144   3.667  16.740 -0.0983 -0.2211  0.0972
 8540SOL    HW137082   2.108   3.747  16.779 -0.9428  0.7269 -2.6543
 8540SOL    HW237083   2.111   3.677  16.651 -2.2359  2.7146  1.2160
 8541SOL     OW37084   2.593   0.544   3.706 -0.3125 -0.0739 -0.0303
 8541SOL    HW137085   2.513   0.597   3.703  1.1452  2.2730  3.2401
 8541SOL    HW237086   2.657   0.607   3.738  2.0406 -0.9665 -2.9599
 8542SOL     OW37087   2.113   0.500  14.459  0.0867 -0.0965 -0.3060
 8542SOL    HW137088   2.164   0.517  14.539 -0.1821  1.6923 -0.5068
 8542SOL    HW237089   2.027   0.538  14.478  0.6884  0.5949  1.0484
 8543SOL     OW37090   2.215   2.537  11.731  0.0132  0.2847  0.4280
 8543SOL    HW137091   2.260   2.495  11.658  1.2257 -1.0872  1.9727
 8543SOL    HW237092   2.210   2.625  11.694  2.7287  0.0883 -0.3792
 8544SOL     OW37093   3.635   3.199   4.941  0.4412 -0.0223  0.2158
 8544SOL    HW137094   3.636   3.108   4.910 -0.5639  0.6335 -1.7257
 8544SOL    HW237095   3.724   3.209   4.976  0.4740 -0.7510  0.3596
 8545SOL     OW37096   1.779   0.984   9.943 -0.3544 -0.7707  0.0241
 8545SOL    HW137097   1.731   0.925   9.885 -3.1255  0.4657  1.0584
 8545SOL    HW237098   1.844   0.923   9.980  1.4561  1.3056  0.2755
 8546SOL     OW37099   4.687   3.057   2.426  0.2332  0.1435  0.5253
 8546SOL    HW137100   4.596   3.075   2.402  0.3111 -3.0641 -2.2519
 8546SOL    HW237101   0.012   3.130   2.387 -0.6031 -0.4870 -1.6738
 8547SOL     OW37102   3.023   1.073   6.153 -0.2432 -0.3265  0.2322
 8547SOL    HW137103   2.960   1.009   6.118 -3.8968  1.9528  2.6093
 8547SOL    HW237104   3.011   1.146   6.093 -0.6639  0.6204  1.4691
 8548SOL     OW37105   0.183   3.451   2.117  0.6895 -0.4725  0.0387
 8548SOL    HW137106   0.222   3.477   2.200 -0.9636  3.0691 -0.2814
 8548SOL    HW237107   0.130   3.382   2.156  0.8375 -0.0152  1.0526
 8549SOL     OW37108   2.385   4.439   0.065  0.1410  0.1102 -0.4981
 8549SOL    HW137109   2.438   4.517   0.051 -1.3610  1.1045 -0.7067
 8549SOL    HW237110   2.449   4.392   0.118  0.4625  0.2219 -0.7916
 8550SOL     OW37111   1.619   1.084  14.590  0.1402 -0.3572 -0.3448
 8550SOL    HW137112   1.712   1.069  14.571  0.8504 -0.6041  3.2948
 8550SOL    HW237113   1.600   1.173  14.561 -1.8998 -0.9988 -1.0002
 8551SOL     OW37114   0.170   0.771  12.380  0.1506 -0.4346  0.0809
 8551SOL    HW137115   0.114   0.713  12.328 -0.6398  1.0819 -0.7434
 8551SOL    HW237116   0.127   0.770  12.465  2.8116 -5.4035  1.3557
 8552SOL     OW37117   0.406   3.914   3.959 -0.0217  0.2776 -0.6120
 8552SOL    HW137118   0.359   3.974   4.016 -1.2993 -1.5338  0.2387
 8552SOL    HW237119   0.331   3.873   3.916 -1.0254  0.3574  1.0938
 8553SOL     OW37120   4.288   0.095   4.835  0.0535 -0.0170  0.4186
 8553SOL    HW137121   4.243   0.154   4.774  1.2219  0.2835 -0.1732
 8553SOL    HW237122   4.371   0.144   4.842  1.2676 -1.7735 -1.7204
 8554SOL     OW37123   2.012   3.756  15.931 -0.4584 -0.3133  0.5479
 8554SOL    HW137124   2.106   3.753  15.950 -0.4552  1.1889  0.7916
 8554SOL    HW237125   2.011   3.787  15.841 -0.6174 -3.1920 -0.4382
 8555SOL     OW37126   1.551   3.172   4.487  0.0801 -0.8011  0.3762
 8555SOL    HW137127   1.590   3.175   4.574 -0.0214  0.3789  0.3857
 8555SOL    HW237128   1.581   3.261   4.472 -0.4865 -0.0274  3.7955
 8556SOL     OW37129   1.266   4.464   2.945 -0.0945  0.4604 -0.4308
 8556SOL    HW137130   1.220   4.517   3.011  0.7131 -0.5259  0.9320
 8556SOL    HW237131   1.219   4.380   2.950 -0.8769  1.0234  2.0127
 8557SOL     OW37132   4.102   3.581   3.877  0.1305  0.0784  0.3479
 8557SOL    HW137133   4.181   3.531   3.895  0.9181  0.9544 -0.6327
 8557SOL    HW237134   4.046   3.508   3.849  1.1071 -0.1398 -1.0021
 8558SOL     OW37135   1.011   0.924   5.169  0.2067 -0.3113 -0.2614
 8558SOL    HW137136   0.969   0.875   5.240 -1.4799  0.3658 -0.7976
 8558SOL    HW237137   1.047   0.850   5.120 -0.3699  0.6165 -2.0822
 8559SOL     OW37138   4.046   1.738   7.290  0.3743 -0.1248  0.0008
 8559SOL    HW137139   4.002   1.749   7.206  2.2678 -1.8879 -1.2201
 8559SOL    HW237140   4.020   1.650   7.318  0.5880 -0.1869  0.0032
 8560SOL     OW37141   2.221   1.660  10.671 -0.7697  0.1239 -0.3900
 8560SOL    HW137142   2.212   1.575  10.715 -1.0611  0.2188 -0.2705
 8560SOL    HW237143   2.141   1.709  10.687 -1.8191 -1.5675 -0.4664
 8561SOL     OW37144   4.530   1.615   8.438  0.2722 -0.3684  0.3050
 8561SOL    HW137145   4.601   1.634   8.500  0.5356  1.7169 -0.6439
 8561SOL    HW237146   4.497   1.702   8.416  2.0293  0.3438  0.4189
 8562SOL     OW37147   0.074   0.136   3.666  0.4053  0.2954 -0.3486
 8562SOL    HW137148   0.158   0.171   3.636  1.0479  0.8714  2.0622
 8562SOL    HW237149   0.070   0.168   3.756 -0.9800  1.4731 -0.8358
 8563SOL     OW37150   0.791   2.495   4.212 -0.0015 -0.9535 -0.0315
 8563SOL    HW137151   0.876   2.534   4.229 -1.8466  2.4752  1.5404
 8563SOL    HW237152   0.776   2.535   4.127 -0.2946 -1.5183 -0.2459
 8564SOL     OW37153   3.103   0.074   8.874  0.1657 -0.7018 -0.0318
 8564SOL    HW137154   3.147   0.079   8.959  1.6215  1.0336 -0.8730
 8564SOL    HW237155   3.174   0.086   8.810 -2.6926 -1.8919 -3.4506
 8565SOL     OW37156   2.283   3.589   4.169 -0.2286 -0.3851  0.5708
 8565SOL    HW137157   2.228   3.593   4.247 -0.9672  0.3347  0.0023
 8565SOL    HW237158   2.343   3.663   4.172 -0.3196 -0.2184 -2.2397
 8566SOL     OW37159   2.747   1.310   7.211 -0.6354  0.0719 -0.1987
 8566SOL    HW137160   2.774   1.378   7.272  2.1535 -0.8221 -0.4417
 8566SOL    HW237161   2.739   1.353   7.126  0.2860 -3.0811 -1.9039
 8567SOL     OW37162   3.070   3.668   4.894 -0.2629  0.2602  0.3868
 8567SOL    HW137163   3.062   3.574   4.907  2.0154 -0.0583 -0.5511
 8567SOL    HW237164   3.112   3.669   4.808 -1.3634  0.8421 -0.1462
 8568SOL     OW37165   2.551   1.417   1.977 -0.6083 -0.3225  0.0313
 8568SOL    HW137166   2.641   1.444   1.994 -1.5181  2.3824  0.6569
 8568SOL    HW237167   2.527   1.476   1.905  1.1894 -0.1312 -0.4170
 8569SOL     OW37168   4.157   2.011   6.522  0.1970 -0.4424  0.3385
 8569SOL    HW137169   4.225   2.078   6.529 -1.3188  1.1137  0.3361
 8569SOL    HW237170   4.211   1.934   6.538 -0.7477 -1.0703  0.5288
 8570SOL     OW37171   3.573   3.482   4.015 -0.3387 -0.6680 -0.6140
 8570SOL    HW137172   3.551   3.527   4.097 -0.3188 -0.8609 -0.5031
 8570SOL    HW237173   3.626   3.553   3.977 -1.8778  0.2057 -1.1363
 8571SOL     OW37174   1.413   0.768   6.700 -0.3472  0.6304  0.6995
 8571SOL    HW137175   1.494   0.728   6.734  0.6795  1.1945 -1.0705
 8571SOL    HW237176   1.452   0.853   6.680  0.8766  0.4057  2.0989
 8572SOL     OW37177   4.454   4.139   7.710 -0.0373  0.4550 -0.0538
 8572SOL    HW137178   4.497   4.122   7.794 -0.2059 -1.3451 -0.3398
 8572SOL    HW237179   4.365   4.167   7.731 -0.0936  2.0105 -2.4002
 8573SOL     OW37180   1.072   2.597   7.486  0.4032  0.3281 -0.0331
 8573SOL    HW137181   1.018   2.587   7.564 -2.0591  0.5267 -1.7389
 8573SOL    HW237182   1.152   2.632   7.527 -0.6774 -0.2828  2.6206
 8574SOL     OW37183   0.249   3.100  12.355 -0.0709  0.3478  0.3599
 8574SOL    HW137184   0.334   3.059  12.348 -0.0501  0.0769  2.2275
 8574SOL    HW237185   0.225   3.119  12.264  0.3916 -1.7419 -0.1818
 8575SOL     OW37186   3.746   0.538   1.984  0.8518  0.9557 -0.1045
 8575SOL    HW137187   3.678   0.474   1.964  1.9841 -0.6335  1.0827
 8575SOL    HW237188   3.786   0.545   1.897 -0.2796 -0.1503 -0.7003
 8576SOL     OW37189   1.547   3.166  13.176 -0.2167 -0.4566  0.0453
 8576SOL    HW137190   1.567   3.253  13.210 -1.2097 -0.6454  1.1047
 8576SOL    HW237191   1.619   3.116  13.215 -0.0773 -1.0116 -0.9139
 8577SOL     OW37192   3.648   0.726   1.083  0.4843 -0.1386 -0.6771
 8577SOL    HW137193   3.669   0.811   1.045 -1.9485  1.2956  1.1660
 8577SOL    HW237194   3.595   0.742   1.161  1.3256  1.2116 -0.3775
 8578SOL     OW37195   0.678   2.260   0.770  0.1320  0.1298  0.2339
 8578SOL    HW137196   0.714   2.202   0.702 -0.9607  0.9130 -1.0110
 8578SOL    HW237197   0.719   2.205   0.836 -0.1346  1.1997  1.2778
 8579SOL     OW37198   1.979   0.339  14.108 -1.0417  0.4023  0.0497
 8579SOL    HW137199   1.901   0.362  14.158  0.0299 -0.1475  1.9695
 8579SOL    HW237200   1.949   0.277  14.042  0.0830  0.9105 -0.9493
 8580SOL     OW37201   0.052   0.438   9.258  0.0374  0.1953  0.0072
 8580SOL    HW137202   0.081   0.441   9.349  0.3831 -2.3528 -0.0198
 8580SOL    HW237203   4.682   0.466   9.262 -0.8310 -2.9967  2.4389
 8581SOL     OW37204   0.957   0.185   5.764 -0.2887 -0.0126  0.1399
 8581SOL    HW137205   0.864   0.164   5.764 -0.0640 -0.9940 -2.7214
 8581SOL    HW237206   0.976   0.258   5.704 -0.9255  1.6161  1.9337
 8582SOL     OW37207   3.423   0.992  16.302 -0.1505 -0.1809  0.1358
 8582SOL    HW137208   3.424   1.002  16.397 -0.1262  1.2702 -0.0155
 8582SOL    HW237209   3.461   0.904  16.311  0.8580  0.1550 -0.9160
 8583SOL     OW37210   3.185   0.750  11.841  0.8768  0.0413 -0.1875
 8583SOL    HW137211   3.231   0.679  11.797 -0.1330  0.1238 -1.3607
 8583SOL    HW237212   3.189   0.825  11.783 -1.3043 -0.4965 -1.0210
 8584SOL     OW37213   3.634   1.874   2.765 -0.2145 -0.1776 -0.2545
 8584SOL    HW137214   3.663   1.964   2.747 -0.7960  0.0594  0.0110
 8584SOL    HW237215   3.694   1.849   2.835 -0.0357  1.7197  0.2695
 8585SOL     OW37216   3.285   2.907   8.379  0.3227 -0.0537 -0.4473
 8585SOL    HW137217   3.317   2.870   8.462  0.0816  2.4163  0.7415
 8585SOL    HW237218   3.194   2.928   8.398  0.6843  1.3580 -0.3027
 8586SOL     OW37219   2.176   4.635  11.224 -0.1615 -0.0445  0.0677
 8586SOL    HW137220   2.244   4.683  11.273  0.2914  1.2515 -1.8307
 8586SOL    HW237221   2.100   4.619  11.280 -1.7100 -3.6276 -3.0841
 8587SOL     OW37222   1.721   2.699   5.474 -0.4047  0.0844 -0.6193
 8587SOL    HW137223   1.674   2.629   5.427  1.5366 -0.3862 -1.8614
 8587SOL    HW237224   1.732   2.763   5.404  0.7318  0.4749 -0.0777
 8588SOL     OW37225   2.112   1.745   7.808  0.0716 -0.3125 -0.0177
 8588SOL    HW137226   2.032   1.788   7.779 -1.0546 -1.6569  1.0895
 8588SOL    HW237227   2.178   1.766   7.742  1.6436 -1.0502  1.3022
 8589SOL     OW37228   0.191   2.002   5.044 -0.6678  0.1615  0.4313
 8589SOL    HW137229   0.160   2.036   5.129 -2.6548 -0.2416 -0.1398
 8589SOL    HW237230   0.246   1.926   5.065  2.4880  2.5144  0.7572
 8590SOL     OW37231   3.059   2.012   3.127 -0.1857  0.4922  0.0657
 8590SOL    HW137232   3.040   1.970   3.210 -0.0463 -2.5078 -1.4440
 8590SOL    HW237233   3.104   2.087   3.166 -2.0387  1.4249  0.4188
 8591SOL     OW37234   3.915   4.615   7.848 -0.2630  0.0091  0.8541
 8591SOL    HW137235   3.894   4.564   7.770  0.3974  1.6870 -0.4055
 8591SOL    HW237236   3.949   4.548   7.907 -0.0051  1.1449  1.9966
 8592SOL     OW37237   4.357   4.660   8.947  0.0131 -0.3274  0.2666
 8592SOL    HW137238   4.397   4.592   9.001  3.1623 -0.1358 -1.7963
 8592SOL    HW237239   4.275   4.614   8.929  0.1581  0.1495 -1.5783
 8593SOL     OW37240   2.172   2.664   8.189 -0.2571  0.0346 -0.2544
 8593SOL    HW137241   2.183   2.754   8.156 -5.8196  1.1510  0.9583
 8593SOL    HW237242   2.251   2.630   8.146 -1.6383 -2.2118 -0.9649
 8594SOL     OW37243   1.238   0.413   6.882  0.3696  0.2548  0.2053
 8594SOL    HW137244   1.226   0.378   6.793  0.5280  1.7949 -0.4245
 8594SOL    HW237245   1.206   0.336   6.929  0.8384 -0.6413 -0.9372
 8595SOL     OW37246   2.420   2.410   4.180  0.1832 -0.4119  0.4022
 8595SOL    HW137247   2.395   2.353   4.107 -1.4116  0.8103  0.0003
 8595SOL    HW237248   2.448   2.344   4.243  1.9467 -0.7890 -0.7707
 8596SOL     OW37249   1.015   0.618   6.067 -0.1004  0.2132  0.0229
 8596SOL    HW137250   1.056   0.642   6.150  1.5939  1.2741 -1.1258
 8596SOL    HW237251   1.061   0.672   6.003 -1.9265  0.1124 -1.3828
 8597SOL     OW37252   4.406   1.925   7.033  1.0905 -0.1185  0.0574
 8597SOL    HW137253   4.343   1.949   6.964 -2.3359 -2.2414  2.4336
 8597SOL    HW237254   4.369   1.845   7.069 -1.0329 -0.7166 -3.3968
 8598SOL     OW37255   3.549   0.081   1.578  0.4317 -0.3667  0.1658
 8598SOL    HW137256   3.577   0.030   1.654  0.5392  1.2543  1.2176
 8598SOL    HW237257   3.635   0.110   1.546  0.8698 -4.0741 -2.0534
 8599SOL     OW37258   3.823   0.555  13.965 -1.0978 -0.1237  0.9555
 8599SOL    HW137259   3.809   0.461  13.963 -0.7036 -0.1957  1.8203
 8599SOL    HW237260   3.853   0.569  14.054 -1.0718 -1.5253  1.1686
 8600SOL     OW37261   4.674   1.583   8.144  0.6373  0.1113  0.2252
 8600SOL    HW137262   4.680   1.572   8.049 -1.8405  0.4622  0.0118
 8600SOL    HW237263   4.715   1.668   8.159  2.0459 -0.5455  0.0151
 8601SOL     OW37264   0.973   4.566   7.549 -0.3966  0.6175 -0.1697
 8601SOL    HW137265   0.953   4.559   7.643  0.3295 -1.1468 -0.1424
 8601SOL    HW237266   0.891   4.605   7.518 -0.4438 -0.1217 -0.9643
 8602SOL     OW37267   2.949   3.347   3.590  0.1304  0.2490  0.5036
 8602SOL    HW137268   2.914   3.283   3.652  0.1554 -1.0520 -0.8294
 8602SOL    HW237269   3.018   3.287   3.562 -0.5548 -1.0653  1.6095
 8603SOL     OW37270   0.728   2.446  17.089 -0.2852  0.2183  0.4285
 8603SOL    HW137271   0.685   2.509  17.031 -0.1114  1.6104  1.8396
 8603SOL    HW237272   0.653   2.395  17.122 -1.3217  1.0076 -0.7263
 8604SOL     OW37273   2.863   1.141   3.932 -0.2173  0.5595 -0.3949
 8604SOL    HW137274   2.914   1.063   3.908  1.9896  1.3917  1.5103
 8604SOL    HW237275   2.932   1.198   3.966  0.3158  0.1373 -0.7681
 8605SOL     OW37276   3.214   3.183   6.284  0.1487  0.2990 -0.1895
 8605SOL    HW137277   3.275   3.113   6.305  1.4315  1.2964 -0.5782
 8605SOL    HW237278   3.136   3.127   6.282  0.2063  0.1732  1.4976
 8606SOL     OW37279   4.610   0.112  16.424 -0.3595  0.2015  0.3696
 8606SOL    HW137280   4.693   0.068  16.438 -1.4974 -2.2282 -0.4064
 8606SOL    HW237281   4.550   0.059  16.477  0.6347 -1.2120  0.0855
 8607SOL     OW37282   0.574   4.586   5.279  0.2360  0.2598 -0.2414
 8607SOL    HW137283   0.657   4.566   5.236 -0.3485 -3.8258  0.5509
 8607SOL    HW237284   0.562   4.499   5.316  1.4057 -0.3333 -1.2830
 8608SOL     OW37285   0.562   0.204   5.396  0.0428  0.2753 -0.2116
 8608SOL    HW137286   0.504   0.266   5.353 -0.2310 -0.6193 -1.1239
 8608SOL    HW237287   0.504   0.130   5.415 -0.4666  0.6468 -0.3290
 8609SOL     OW37288   0.143   2.026  10.977 -0.2555  0.0695  0.3405
 8609SOL    HW137289   0.118   2.030  10.885 -0.5372 -1.7953  0.3364
 8609SOL    HW237290   0.096   2.100  11.016 -2.7696 -1.1602 -0.3363
 8610SOL     OW37291   2.247   2.962   5.027  0.5331 -0.3289 -0.2576
 8610SOL    HW137292   2.287   2.977   4.941 -0.8064  1.4973 -0.5675
 8610SOL    HW237293   2.155   2.963   4.999  0.4611 -0.3821 -0.0255
 8611SOL     OW37294   1.009   3.319   0.264 -0.0822  0.1072  0.0818
 8611SOL    HW137295   1.089   3.352   0.306  1.0140 -1.4185 -0.8300
 8611SOL    HW237296   0.939   3.363   0.313 -0.6102 -0.9177  0.2422
 8612SOL     OW37297   0.292   2.489   5.507  0.0145  0.2956 -0.0234
 8612SOL    HW137298   0.213   2.466   5.557  0.3068 -1.0225 -0.1628
 8612SOL    HW237299   0.323   2.564   5.557 -2.2630  0.2143  1.5661
 8613SOL     OW37300   1.766   2.049  10.883  0.9586  0.1730  0.7442
 8613SOL    HW137301   1.772   2.011  10.795  1.4441 -1.5467  1.5197
 8613SOL    HW237302   1.726   1.983  10.939 -0.3377 -0.0193 -0.4023
 8614SOL     OW37303   2.153   0.685   8.536 -0.1389 -0.2586 -0.3890
 8614SOL    HW137304   2.063   0.703   8.564 -0.3380 -2.3509  0.3225
 8614SOL    HW237305   2.156   0.590   8.540  2.0376 -0.2055 -1.1087
 8615SOL     OW37306   3.098   4.325   2.426  0.2584 -0.1154  0.1584
 8615SOL    HW137307   3.166   4.373   2.380  0.0800  2.0033  2.1246
 8615SOL    HW237308   3.141   4.241   2.409  0.1606 -0.7026  2.9057
 8616SOL     OW37309   2.735   1.109   5.802 -0.2371  0.0723 -0.0481
 8616SOL    HW137310   2.642   1.096   5.823 -0.0599  1.9866  1.9009
 8616SOL    HW237311   2.753   1.028   5.755 -0.7078  0.7494 -1.3838
 8617SOL     OW37312   3.499   1.399  11.227 -0.2918 -0.4261 -0.3711
 8617SOL    HW137313   3.446   1.322  11.208 -0.4301 -0.4148 -0.0319
 8617SOL    HW237314   3.511   1.387  11.322  1.4585  1.1038 -0.4067
 8618SOL     OW37315   3.188   0.270   3.453 -0.1419 -0.0899  0.2095
 8618SOL    HW137316   3.153   0.319   3.528 -1.0578  0.3207 -0.4758
 8618SOL    HW237317   3.241   0.209   3.504  1.5102  0.3289 -1.0337
 8619SOL     OW37318   1.739   4.661  11.906 -0.4865  0.3440  0.2509
 8619SOL    HW137319   1.796   4.696  11.838 -0.7815  2.1032  0.9129
 8619SOL    HW237320   1.756   4.721  11.979 -0.5658  1.2318 -0.4735
 8620SOL     OW37321   2.633   0.581  15.122  0.0846 -0.1903 -0.1151
 8620SOL    HW137322   2.574   0.531  15.065  0.1947 -3.5372  2.7141
 8620SOL    HW237323   2.705   0.595  15.060 -0.5226 -0.3986 -0.8711
 8621SOL     OW37324   1.525   4.098   3.313 -0.4612  0.1084 -0.3978
 8621SOL    HW137325   1.579   4.044   3.257 -0.3540  1.5103 -1.6464
 8621SOL    HW237326   1.574   4.180   3.327 -0.4292 -0.1313  0.8763
 8622SOL     OW37327   4.599   4.625   7.804 -0.2834  0.5055  0.7088
 8622SOL    HW137328   4.509   4.658   7.797  0.2189  1.0034 -3.6762
 8622SOL    HW237329   4.579   4.546   7.853  0.2822 -0.7722 -1.0890
 8623SOL     OW37330   4.307   1.545   9.271  0.2046  0.6915 -0.0618
 8623SOL    HW137331   4.227   1.591   9.245  0.6483  0.9433 -0.9543
 8623SOL    HW237332   4.344   1.513   9.189  1.2606  2.6642 -0.3605
 8624SOL     OW37333   2.205   1.955   6.902 -0.1374  0.6612 -0.6418
 8624SOL    HW137334   2.215   1.916   6.815  0.2105  2.5271 -1.4252
 8624SOL    HW237335   2.293   1.942   6.939 -0.6684 -0.7295  0.1436
 8625SOL     OW37336   1.536   2.696  14.318  0.2965 -0.1122 -0.0823
 8625SOL    HW137337   1.527   2.782  14.277  0.3330 -0.4267 -0.7574
 8625SOL    HW237338   1.612   2.714  14.373  0.8963 -2.4679 -0.1565
 8626SOL     OW37339   1.091   3.505   6.038  0.3487  0.7229 -0.2825
 8626SOL    HW137340   1.144   3.537   5.965  0.3385  0.6491 -0.3230
 8626SOL    HW237341   1.004   3.537   6.015  1.1390  2.5712 -0.6299
 8627SOL     OW37342   3.210   0.102   4.864  0.4984  0.0515  0.7219
 8627SOL    HW137343   3.227   0.109   4.958  2.6742 -1.0901  0.4147
 8627SOL    HW237344   3.199   0.193   4.837 -0.0132 -0.4619 -0.7729
 8628SOL     OW37345   4.510   0.216   2.791 -0.3075 -0.1174 -0.7302
 8628SOL    HW137346   4.486   0.297   2.747  2.3365  1.5105  0.8658
 8628SOL    HW237347   4.548   0.159   2.723  0.1564  0.6154 -1.0819
 8629SOL     OW37348   3.771   4.720  14.590  0.7865 -0.3235 -0.1435
 8629SOL    HW137349   3.686   0.024  14.554 -0.1752  1.8321  3.6571
 8629SOL    HW237350   3.798   4.642  14.541  1.3895  0.6183 -1.3184
 8630SOL     OW37351   4.689   4.420   2.000 -0.4029  0.6827 -0.5173
 8630SOL    HW137352   0.031   4.472   2.048 -0.5427 -0.9403  1.4198
 8630SOL    HW237353   4.609   4.447   2.046 -0.5434 -0.4525 -0.0947
 8631SOL     OW37354   4.467   1.118   5.283  0.1189  0.0654 -0.6347
 8631SOL    HW137355   4.401   1.088   5.347 -0.5646  0.0169 -1.3605
 8631SOL    HW237356   4.515   1.181   5.336 -0.0283 -0.1658 -0.2227
 8632SOL     OW37357   2.954   0.955  12.249  0.7165 -0.0667 -0.1201
 8632SOL    HW137358   3.021   0.940  12.315 -0.5674  5.8683  2.4685
 8632SOL    HW237359   2.913   0.870  12.228 -1.4961  0.5077  1.9302
 8633SOL     OW37360   1.499   3.728   5.956 -0.0575  0.8256 -0.8572
 8633SOL    HW137361   1.578   3.775   5.985 -0.0141 -0.3620  0.9558
 8633SOL    HW237362   1.516   3.712   5.863  1.6471 -0.5266 -0.3370
 8634SOL     OW37363   1.030   1.154   2.347 -0.0189 -0.0196  0.4564
 8634SOL    HW137364   1.086   1.207   2.402 -0.1261  0.7179 -0.1374
 8634SOL    HW237365   1.071   1.067   2.343  1.5397  0.8889 -3.3300
 8635SOL     OW37366   0.255   1.906   0.643 -0.0764  0.1102 -0.0492
 8635SOL    HW137367   0.182   1.950   0.686  0.6181  0.3617  0.8743
 8635SOL    HW237368   0.205   1.844   0.589 -0.1057 -1.3864  1.7182
 8636SOL     OW37369   1.730   1.131   4.659  0.0719 -0.4527  0.2376
 8636SOL    HW137370   1.638   1.140   4.634 -0.2935  0.8014  1.9605
 8636SOL    HW237371   1.757   1.058   4.604 -0.4971 -0.6317  0.1931
 8637SOL     OW37372   0.512   3.437   7.720  0.4726  0.2291  0.1829
 8637SOL    HW137373   0.584   3.390   7.761  1.6826  0.9871 -1.0877
 8637SOL    HW237374   0.475   3.484   7.795  2.4482 -0.8953  1.8702
 8638SOL     OW37375   2.573   4.415   2.523  0.5114 -0.2407  0.5520
 8638SOL    HW137376   2.615   4.430   2.439  3.0901 -1.9021  1.5258
 8638SOL    HW237377   2.602   4.326   2.545  1.5114 -0.6285 -2.3707
 8639SOL     OW37378   3.447   2.844   3.989  0.2066 -0.1795 -0.0701
 8639SOL    HW137379   3.390   2.918   3.970  1.1233  0.9989  1.7624
 8639SOL    HW237380   3.538   2.874   3.997  0.1203 -0.2334  1.0233
 8640SOL     OW37381   2.223   3.403   4.947 -0.5835  0.2194  0.1527
 8640SOL    HW137382   2.152   3.464   4.966  0.9784  2.6782 -1.9652
 8640SOL    HW237383   2.263   3.432   4.865 -0.9543 -0.1440 -0.1578
 8641SOL     OW37384   3.447   3.080   8.613 -0.2856  0.5704 -0.2765
 8641SOL    HW137385   3.380   3.148   8.616  1.2440  2.0518  0.3957
 8641SOL    HW237386   3.514   3.125   8.665  0.5332 -0.7718 -0.1671
 8642SOL     OW37387   1.999   3.977   5.257  0.8719 -0.3966  0.0824
 8642SOL    HW137388   2.078   3.983   5.311  0.5223 -2.2217  0.8231
 8642SOL    HW237389   2.036   3.957   5.172 -1.8851  3.5542 -2.0569
 8643SOL     OW37390   3.873   1.172  12.956  0.2885  0.1602  0.0036
 8643SOL    HW137391   3.792   1.171  12.905  1.7282 -0.6082 -2.2672
 8643SOL    HW237392   3.945   1.170  12.893 -0.1793  0.2739 -0.5362
 8644SOL     OW37393   3.670   0.213   2.970  0.4251  0.6253  0.5287
 8644SOL    HW137394   3.710   0.300   2.970  0.9792  0.3730 -0.7648
 8644SOL    HW237395   3.592   0.230   3.022  1.7768  2.7774  1.8907
 8645SOL     OW37396   1.011   2.278   7.683 -0.3215  0.0077 -0.8643
 8645SOL    HW137397   0.936   2.234   7.724  0.0943  0.1372  0.0342
 8645SOL    HW237398   1.089   2.232   7.713 -0.6367 -0.0977 -0.1954
 8646SOL     OW37399   3.271   3.373   6.113  0.0079 -0.1363  0.3129
 8646SOL    HW137400   3.364   3.381   6.134 -0.2038 -1.0670  1.6232
 8646SOL    HW237401   3.240   3.322   6.188  0.5875  0.5344  1.0110
 8647SOL     OW37402   2.364   0.597   0.522  0.3446 -0.0793 -0.1418
 8647SOL    HW137403   2.293   0.611   0.459 -0.2692 -0.5383  0.4463
 8647SOL    HW237404   2.341   0.665   0.586  4.6040 -1.5512  2.9704
 8648SOL     OW37405   3.384   2.461  15.416  0.2179  0.4068 -0.0920
 8648SOL    HW137406   3.366   2.401  15.489  2.1297  0.2504  0.2495
 8648SOL    HW237407   3.302   2.511  15.414  1.1216  1.9055  0.1983
 8649SOL     OW37408   3.362   4.349   4.295 -0.8114 -0.4253 -0.1063
 8649SOL    HW137409   3.280   4.314   4.262 -0.5374 -0.5674 -0.6497
 8649SOL    HW237410   3.394   4.398   4.219  0.0165  0.7008  0.9686
 8650SOL     OW37411   0.001   2.376   4.799 -0.6058 -0.0052 -0.6389
 8650SOL    HW137412   4.669   2.423   4.864  0.3614 -2.4069  1.9078
 8650SOL    HW237413   0.069   2.338   4.855 -0.1892  1.9172  0.1798
 8651SOL     OW37414   2.098   0.427   7.963  0.4306 -0.1506  0.0590
 8651SOL    HW137415   2.135   0.353   7.915 -0.2401 -0.4255 -0.0274
 8651SOL    HW237416   2.012   0.388   7.976  0.9154 -1.0828  0.4584
 8652SOL     OW37417   1.077   0.486   7.548  0.0596 -0.2829 -0.2363
 8652SOL    HW137418   0.985   0.513   7.548 -0.2529 -1.3263 -0.9224
 8652SOL    HW237419   1.065   0.402   7.504  0.0598  0.6393 -2.0276
 8653SOL     OW37420   4.368   2.680   3.985  0.4381  0.0291  0.7977
 8653SOL    HW137421   4.457   2.715   3.973  0.8185 -1.3499 -0.4709
 8653SOL    HW237422   4.373   2.586   4.001 -0.1212  0.0060  0.8209
 8654SOL     OW37423   1.880   0.665   0.225 -0.1202  0.5290 -0.0338
 8654SOL    HW137424   1.785   0.663   0.214 -0.2776 -4.1467  1.9060
 8654SOL    HW237425   1.879   0.723   0.301  3.1800  0.8934 -0.2362
 8655SOL     OW37426   0.828   3.307  10.177 -0.0413  0.1745 -0.9138
 8655SOL    HW137427   0.780   3.234  10.215 -0.2921  1.3963  1.1023
 8655SOL    HW237428   0.760   3.370  10.153  0.7156  1.5496  0.5199
 8656SOL     OW37429   3.586   0.400   8.511  0.1762  0.0607 -0.0256
 8656SOL    HW137430   3.658   0.438   8.461 -1.3409  2.3835 -0.4952
 8656SOL    HW237431   3.514   0.450   8.472  0.0814 -0.4813 -0.5477
 8657SOL     OW37432   3.130   0.682   9.320  0.7360  0.0919  0.4531
 8657SOL    HW137433   3.188   0.743   9.365  1.6883 -1.7667  1.7421
 8657SOL    HW237434   3.052   0.733   9.299  0.3625 -0.7839 -0.2946
 8658SOL     OW37435   2.066   1.850   7.200 -0.1830  0.0556 -0.1097
 8658SOL    HW137436   2.110   1.783   7.147 -1.1709 -0.4603 -0.2822
 8658SOL    HW237437   2.013   1.894   7.133  0.0312 -0.2259 -0.4679
 8659SOL     OW37438   3.364   3.093   5.079  0.8204 -0.1146 -0.4598
 8659SOL    HW137439   3.326   3.121   5.163  1.7302  0.0149 -0.0894
 8659SOL    HW237440   3.449   3.062   5.113  1.1417  0.5396 -0.6626
 8660SOL     OW37441   3.639   0.385  15.274 -0.2632  0.2049 -0.2302
 8660SOL    HW137442   3.583   0.359  15.201  0.1271 -0.8682 -0.1477
 8660SOL    HW237443   3.572   0.420  15.334  1.2412  1.3541  0.7773
 8661SOL     OW37444   2.236   0.799   9.216 -0.1988  0.4862 -0.4029
 8661SOL    HW137445   2.172   0.734   9.245 -1.0431  2.1021  1.3723
 8661SOL    HW237446   2.281   0.810   9.300  0.5816 -0.3990 -0.7148
 8662SOL     OW37447   1.225   2.650   4.856 -0.2288  0.1397 -0.1166
 8662SOL    HW137448   1.157   2.693   4.804 -0.5758 -0.2705  0.0010
 8662SOL    HW237449   1.206   2.686   4.943  0.3265 -1.0372  0.4958
 8663SOL     OW37450   3.036   4.650   7.942 -0.1441  0.4344  0.2982
 8663SOL    HW137451   3.021   0.020   7.962 -1.8121  0.5686 -1.6385
 8663SOL    HW237452   3.062   4.615   8.028 -0.9953  0.5369  0.5992
 8664SOL     OW37453   1.486   4.405  12.118  0.4074 -0.5503  0.0881
 8664SOL    HW137454   1.521   4.334  12.172  1.0595 -0.3950 -0.1193
 8664SOL    HW237455   1.427   4.444  12.182  2.0709  0.5322  0.9697
 8665SOL     OW37456   0.335   2.934   9.362  0.0244  0.0361 -0.1061
 8665SOL    HW137457   0.417   2.901   9.400  0.4736  2.4417  1.0069
 8665SOL    HW237458   0.288   2.852   9.353 -2.5043  1.5929 -0.8811
 8666SOL     OW37459   0.267   3.960  14.866  0.2819  0.1603  0.0358
 8666SOL    HW137460   0.236   3.878  14.828  0.6657  0.0754 -0.0899
 8666SOL    HW237461   0.216   4.008  14.801 -2.6724  0.2550  2.4272
 8667SOL     OW37462   4.543   1.460   6.597 -0.6135  0.0222 -0.1958
 8667SOL    HW137463   4.514   1.466   6.506  1.2396 -3.3273 -0.9692
 8667SOL    HW237464   4.471   1.414   6.640  1.2946 -2.6295  0.1344
 8668SOL     OW37465   3.315   1.021   8.765  0.8450 -0.4083  0.5967
 8668SOL    HW137466   3.283   0.932   8.749  0.1816  0.3634 -2.2661
 8668SOL    HW237467   3.334   1.020   8.859  0.3227  0.1170  0.7049
 8669SOL     OW37468   4.317   1.748   2.910  0.6371 -0.2510  0.4053
 8669SOL    HW137469   4.387   1.776   2.969  1.7999 -3.5803  0.6347
 8669SOL    HW237470   4.334   1.789   2.825 -0.2297 -0.9669 -0.1121
 8670SOL     OW37471   3.020   1.286   3.152  0.0267 -0.5798 -1.0632
 8670SOL    HW137472   3.028   1.191   3.152  2.0855 -0.3908  2.3754
 8670SOL    HW237473   3.065   1.297   3.068 -0.4443  1.6945 -1.0256
 8671SOL     OW37474   0.522   0.549  17.345 -0.2519  0.0411 -0.1825
 8671SOL    HW137475   0.487   0.612  17.407  0.2979  0.6661 -0.5060
 8671SOL    HW237476   0.495   0.475  17.399  1.7169 -0.7900 -0.3378
 8672SOL     OW37477   4.448   2.561  10.783  0.2181  0.9612  0.4153
 8672SOL    HW137478   4.417   2.488  10.729  0.0677  1.0392  0.3980
 8672SOL    HW237479   4.371   2.617  10.786 -0.7374 -0.3719  0.7034
 8673SOL     OW37480   1.881   3.765  17.043  0.0676  0.4143  0.2971
 8673SOL    HW137481   1.856   3.834  17.105 -1.0911 -1.2933  1.6993
 8673SOL    HW237482   1.869   3.819  16.964 -1.0577  1.3960  1.1410
 8674SOL     OW37483   2.371   3.110   7.336  0.2765 -0.4581  0.2277
 8674SOL    HW137484   2.317   3.105   7.415  1.7608  0.3658  1.2983
 8674SOL    HW237485   2.344   3.030   7.289 -3.3504 -0.2667  2.0167
 8675SOL     OW37486   3.433   1.774   4.786  0.1174  0.3618 -0.5425
 8675SOL    HW137487   3.513   1.727   4.762 -0.9955 -0.4800 -2.6511
 8675SOL    HW237488   3.428   1.761   4.881 -0.5720  0.4980 -0.5584
 8676SOL     OW37489   0.996   2.191   5.532  0.9179 -0.4028 -0.1970
 8676SOL    HW137490   1.048   2.161   5.457  0.0601  2.8004 -2.0789
 8676SOL    HW237491   1.066   2.212   5.593  0.9177  0.8528 -0.6156
 8677SOL     OW37492   3.539   4.279   2.219 -0.1723  0.0642  0.2768
 8677SOL    HW137493   3.553   4.279   2.125 -1.1616 -0.4373  0.1321
 8677SOL    HW237494   3.519   4.187   2.235 -0.6997 -0.2239 -2.0380
 8678SOL     OW37495   0.277   2.700   3.709 -0.3728 -0.6147  0.1455
 8678SOL    HW137496   0.221   2.754   3.654 -1.7906 -1.4955  0.7249
 8678SOL    HW237497   0.212   2.645   3.753 -0.6415 -0.3263  0.1071
 8679SOL     OW37498   2.433   1.141   8.887  0.1057 -0.5531 -0.2606
 8679SOL    HW137499   2.438   1.153   8.982 -2.8129  0.9216 -0.2982
 8679SOL    HW237500   2.525   1.141   8.860  0.0813 -1.4247 -0.3366
 8680SOL     OW37501   1.993   1.224   1.892  0.4784  0.4547 -0.2259
 8680SOL    HW137502   1.979   1.196   1.802 -1.3142 -0.9879  0.5078
 8680SOL    HW237503   2.082   1.258   1.883  0.2320  1.6534  1.6813
 8681SOL     OW37504   2.075   3.846  10.258  0.3019 -0.1622  0.2543
 8681SOL    HW137505   2.040   3.786  10.324  1.0352 -0.2554  0.5560
 8681SOL    HW237506   2.145   3.880  10.314 -0.4157  1.1634  0.3315
 8682SOL     OW37507   0.231   3.799   7.978 -0.0956 -0.2813 -0.2602
 8682SOL    HW137508   0.213   3.893   7.981 -3.5853 -0.8916 -2.1781
 8682SOL    HW237509   0.165   3.753   8.030  1.1167 -3.0565 -1.2278
 8683SOL     OW37510   1.995   4.183   9.914 -0.2160 -0.4570 -0.4725
 8683SOL    HW137511   1.962   4.114   9.971 -1.1406 -0.6193 -1.2236
 8683SOL    HW237512   2.033   4.234   9.986 -0.1110 -0.8389 -0.2549
 8684SOL     OW37513   4.350   4.089   8.643  0.1681 -0.2795  0.2697
 8684SOL    HW137514   4.407   4.102   8.567 -1.3443  2.8274 -0.3484
 8684SOL    HW237515   4.378   4.164   8.696 -1.8033  1.3296 -0.9713
 8685SOL     OW37516   3.831   2.737  17.190 -0.1957  0.0549  0.4658
 8685SOL    HW137517   3.871   2.774  17.111  1.7941 -0.8362  1.0578
 8685SOL    HW237518   3.896   2.764  17.254 -0.1111  1.0147 -0.0357
 8686SOL     OW37519   3.321   0.192   6.314  0.3192 -0.4031  0.1553
 8686SOL    HW137520   3.353   0.214   6.401  0.0201 -1.4808  0.5401
 8686SOL    HW237521   3.324   0.096   6.315 -2.0223 -0.4665  1.8114
 8687SOL     OW37522   0.603   3.699  15.588 -0.0754  0.4858  0.0650
 8687SOL    HW137523   0.670   3.746  15.637 -0.1827  0.9202 -0.2059
 8687SOL    HW237524   0.517   3.725  15.623  0.0575 -0.0111  0.7581
 8688SOL     OW37525   1.106   4.036   4.092 -0.0618  0.0928 -0.4726
 8688SOL    HW137526   1.069   3.974   4.029 -1.4804  0.1631  0.3054
 8688SOL    HW237527   1.089   4.113   4.037 -0.6387  0.0227 -0.3865
 8689SOL     OW37528   2.637   1.344  16.797 -0.0459  0.2056  0.1260
 8689SOL    HW137529   2.632   1.359  16.703  1.6427 -0.5854 -0.0779
 8689SOL    HW237530   2.704   1.277  16.802 -0.8407 -0.5087  1.3101
 8690SOL     OW37531   2.014   3.612   2.484 -0.0019 -0.0236 -0.1347
 8690SOL    HW137532   1.999   3.573   2.398 -0.7286  0.1411 -0.0822
 8690SOL    HW237533   2.050   3.536   2.529  1.7006  0.9242  0.1333
 8691SOL     OW37534   3.697   3.104  10.063  0.5884 -0.4678 -0.1046
 8691SOL    HW137535   3.684   3.105  10.157  1.7630 -0.0859  0.0534
 8691SOL    HW237536   3.773   3.046  10.065  1.0044  0.0894  0.3568
 8692SOL     OW37537   2.969   2.084   4.744 -0.3926 -0.5239 -0.6433
 8692SOL    HW137538   3.002   2.174   4.740 -0.3731 -0.5641 -1.5806
 8692SOL    HW237539   2.948   2.081   4.837 -1.2356 -3.0466 -0.9288
 8693SOL     OW37540   4.210   1.887   7.474  0.1057  0.3236  0.1823
 8693SOL    HW137541   4.254   1.947   7.413  0.1107  0.2366  0.1010
 8693SOL    HW237542   4.141   1.857   7.415  0.6903  0.4088 -0.5538
 8694SOL     OW37543   0.764   1.715   1.440  0.8607  0.0884 -0.2684
 8694SOL    HW137544   0.749   1.718   1.346 -0.7634  2.2142  0.0574
 8694SOL    HW237545   0.676   1.690   1.468  0.7530 -0.7646 -1.3719
 8695SOL     OW37546   3.621   4.228   6.651  0.1724  0.0972 -0.3723
 8695SOL    HW137547   3.618   4.229   6.746 -0.1525  1.1761 -0.4006
 8695SOL    HW237548   3.590   4.315   6.625 -1.0657 -1.0618 -2.8600
 8696SOL     OW37549   3.200   1.626   2.704  0.0751  0.0648  0.5499
 8696SOL    HW137550   3.233   1.546   2.665 -1.5742 -0.8469  1.0229
 8696SOL    HW237551   3.104   1.622   2.709  0.1044 -0.1788  0.8932
 8697SOL     OW37552   1.443   2.654   5.946  0.1046  0.0666 -0.5393
 8697SOL    HW137553   1.401   2.569   5.961  0.8720 -0.8254 -3.2753
 8697SOL    HW237554   1.533   2.628   5.927  0.5732  0.3790  1.2806
 8698SOL     OW37555   4.490   0.686   5.100  0.5638  0.0136 -0.0957
 8698SOL    HW137556   4.516   0.729   5.181  1.7355  0.4916 -0.7208
 8698SOL    HW237557   4.523   0.745   5.032  0.7228 -0.0153 -0.0433
 8699SOL     OW37558   0.968   1.483  16.228 -0.1018  0.1507  0.5633
 8699SOL    HW137559   1.001   1.499  16.140  0.4852  0.7873  0.8992
 8699SOL    HW237560   0.875   1.490  16.206 -0.3094  0.1813  1.4578
 8700SOL     OW37561   2.917   2.655  16.359  0.6618  0.4556  0.2337
 8700SOL    HW137562   2.920   2.667  16.264 -1.5682 -0.4359  0.0561
 8700SOL    HW237563   3.008   2.671  16.386  1.6574 -1.8110 -1.7730
 8701SOL     OW37564   2.121   2.640   4.807 -0.0234 -0.1492  0.2281
 8701SOL    HW137565   2.211   2.634   4.838 -0.5477 -2.1998  1.3912
 8701SOL    HW237566   2.134   2.643   4.712  0.3838  0.9223  0.3189
 8702SOL     OW37567   3.722   0.466   8.923 -0.2486 -0.7845  0.3725
 8702SOL    HW137568   3.799   0.427   8.880 -1.0809  0.8911 -2.6413
 8702SOL    HW237569   3.764   0.489   9.006  1.9303  0.5899 -1.0891
 8703SOL     OW37570   4.704   2.221   5.086 -0.3486  0.0483 -0.3248
 8703SOL    HW137571   4.655   2.212   5.168  1.8337 -0.2649  0.9474
 8703SOL    HW237572   4.637   2.177   5.034  0.4073  1.1083 -2.1891
 8704SOL     OW37573   4.566   4.212   0.028 -0.2815 -0.1260 -0.3949
 8704SOL    HW137574   4.656   4.243   0.040 -0.9136  0.9855  1.4262
 8704SOL    HW237575   4.565   4.135   0.086 -1.5408  0.7064  0.7004
 8705SOL     OW37576   4.608   1.864   5.404  0.5129  0.4620  0.0806
 8705SOL    HW137577   4.670   1.896   5.469  0.8973 -0.6241  0.2369
 8705SOL    HW237578   4.602   1.769   5.412 -0.2475  0.5048  0.0848
 8706SOL     OW37579   3.767   4.227   6.377 -1.0339 -0.1016 -0.4546
 8706SOL    HW137580   3.857   4.221   6.408 -0.5848  5.4886 -0.5430
 8706SOL    HW237581   3.716   4.252   6.454 -0.5636  0.3208 -0.2790
 8707SOL     OW37582   3.151   4.654   4.567  0.4145  0.3153  0.0896
 8707SOL    HW137583   3.189   4.712   4.632 -1.2920  0.3763  1.0263
 8707SOL    HW237584   3.222   4.597   4.539 -1.7006 -1.5118 -1.6520
 8708SOL     OW37585   4.615   2.563   4.618 -0.2642 -0.2734  0.4012
 8708SOL    HW137586   4.630   2.480   4.663  3.2335  1.2735  2.0998
 8708SOL    HW237587   4.667   2.626   4.669  0.0830 -0.5906  0.4432
 8709SOL     OW37588   3.733   3.841   4.201 -0.0238 -0.2353 -0.6775
 8709SOL    HW137589   3.663   3.885   4.249  0.8305 -1.5875  1.8086
 8709SOL    HW237590   3.785   3.920   4.184 -0.5010  0.8541  2.9382
 8710SOL     OW37591   2.702   1.512   2.376 -0.3613  0.2843 -0.1556
 8710SOL    HW137592   2.760   1.471   2.312  2.2919  2.7243  0.6924
 8710SOL    HW237593   2.657   1.435   2.409  0.5311 -0.0660  0.2377
 8711SOL     OW37594   4.253   2.570  11.957 -0.8494 -0.5112  0.1019
 8711SOL    HW137595   4.245   2.644  12.017 -2.4173 -0.9614  0.4672
 8711SOL    HW237596   4.339   2.591  11.921 -0.5622 -1.4474  0.2274
 8712SOL     OW37597   3.085   0.427   9.318 -0.4529 -0.0927  0.2221
 8712SOL    HW137598   3.132   0.389   9.392  0.1154 -1.7573 -0.9722
 8712SOL    HW237599   3.113   0.518   9.320  0.9216 -0.5375  1.4170
 8713SOL     OW37600   1.488   2.877   7.440  0.0634  0.4684  0.0482
 8713SOL    HW137601   1.534   2.835   7.368 -1.1444 -0.9579  0.1079
 8713SOL    HW237602   1.563   2.884   7.499  1.2546  0.3037 -1.4416
 8714SOL     OW37603   0.791   1.529   7.185 -0.4906  0.4060 -0.0136
 8714SOL    HW137604   0.748   1.474   7.119 -1.6581  1.8284 -0.4485
 8714SOL    HW237605   0.880   1.509   7.156 -0.1781  0.9638  0.5733
 8715SOL     OW37606   2.932   2.205   3.895 -0.0808 -0.2486 -0.5294
 8715SOL    HW137607   2.990   2.265   3.848  0.9485  0.9816  2.3232
 8715SOL    HW237608   2.850   2.233   3.853 -0.0258 -1.7260 -1.5902
 8716SOL     OW37609   1.321   1.461  16.743  0.0824  0.6165 -0.6251
 8716SOL    HW137610   1.281   1.432  16.826  0.2943 -0.4330 -0.8911
 8716SOL    HW237611   1.352   1.551  16.754  0.1524  0.6029 -0.7226
 8717SOL     OW37612   0.895   3.697   8.692 -0.4320 -0.1709 -0.2099
 8717SOL    HW137613   0.975   3.681   8.741 -0.8171 -3.7726 -0.7748
 8717SOL    HW237614   0.931   3.702   8.604 -2.0549  1.0802 -0.8129
 8718SOL     OW37615   3.974   0.550  14.824  0.1492  0.4058  0.3937
 8718SOL    HW137616   4.007   0.608  14.755 -1.0802 -0.2148 -0.6983
 8718SOL    HW237617   4.027   0.471  14.814 -0.8936 -0.3354  0.8497
 8719SOL     OW37618   2.773   4.568   3.886 -0.0157  0.4049 -0.3212
 8719SOL    HW137619   2.831   4.577   3.811  1.7817  0.1447  1.0379
 8719SOL    HW237620   2.810   4.484   3.913  1.4311  1.3314  0.5725
 8720SOL     OW37621   1.576   0.058   9.359 -0.1304 -0.2481  0.2063
 8720SOL    HW137622   1.563   0.117   9.433  0.6105  0.5937 -0.3338
 8720SOL    HW237623   1.575   4.695   9.404 -0.9694 -1.9286 -2.9483
 8721SOL     OW37624   3.929   0.005   4.771 -0.0569 -0.1067 -0.5805
 8721SOL    HW137625   3.922   4.701   4.863 -0.1708 -2.3766 -1.2178
 8721SOL    HW237626   3.988   4.660   4.735  2.3148 -0.0896  3.2350
 8722SOL     OW37627   1.790   2.110   5.946  0.0824  0.0495  0.2780
 8722SOL    HW137628   1.868   2.068   5.983 -0.6507 -0.2122  1.5448
 8722SOL    HW237629   1.817   2.129   5.857 -0.6222 -2.0590 -0.3778
 8723SOL     OW37630   2.962   4.631   4.363 -0.6570 -0.5373 -0.3941
 8723SOL    HW137631   3.018   4.623   4.441  0.7934 -2.5021 -1.6336
 8723SOL    HW237632   3.004   4.705   4.319  0.8314  0.9324  3.5303
 8724SOL     OW37633   3.227   0.947   5.011 -0.0185  0.0613 -0.0516
 8724SOL    HW137634   3.244   0.858   5.043  0.3238 -0.0700 -0.6117
 8724SOL    HW237635   3.148   0.930   4.959 -0.2043 -0.2707  0.3354
 8725SOL     OW37636   0.634   1.225   6.447  0.1908 -0.2434  0.0751
 8725SOL    HW137637   0.631   1.320   6.454 -0.0007 -0.2423 -0.0218
 8725SOL    HW237638   0.545   1.206   6.416  0.7088 -1.4522 -0.6659
 8726SOL     OW37639   3.485   2.623   6.196  0.2395  0.5525 -0.5844
 8726SOL    HW137640   3.565   2.675   6.187  1.3526 -1.0631 -0.0771
 8726SOL    HW237641   3.501   2.541   6.150 -0.9995 -0.8015  1.4298
 8727SOL     OW37642   2.882   4.704   5.917  0.2815 -0.3108 -0.5808
 8727SOL    HW137643   2.862   4.615   5.947 -0.7418 -0.1566 -0.8118
 8727SOL    HW237644   2.957   0.002   5.974  1.8318  0.7962 -2.9983
 8728SOL     OW37645   2.099   0.256   9.719 -0.2578  0.1327  0.2353
 8728SOL    HW137646   2.053   0.318   9.663  0.0114  1.1434  1.1331
 8728SOL    HW237647   2.025   0.218   9.766  0.3019  0.0126  1.0229
 8729SOL     OW37648   2.874   2.831   4.743 -0.2909 -0.7818 -0.2545
 8729SOL    HW137649   2.946   2.810   4.802 -2.1293 -0.7571  1.9732
 8729SOL    HW237650   2.918   2.881   4.674 -2.4905 -0.7023 -1.6170
 8730SOL     OW37651   4.495   3.158   7.899  0.7411  0.3321  0.2706
 8730SOL    HW137652   4.408   3.125   7.919 -0.7255  4.2796  0.3806
 8730SOL    HW237653   4.502   3.247   7.934  1.0555  1.0170 -1.5178
 8731SOL     OW37654   3.959   3.991   7.378  0.0250  0.0859  0.3893
 8731SOL    HW137655   4.017   4.033   7.315 -1.7060  0.3907 -0.9994
 8731SOL    HW237656   3.879   3.981   7.327  1.0254  2.3611 -1.6053
 8732SOL     OW37657   1.404   1.088   2.479 -0.3087 -0.3464 -0.0602
 8732SOL    HW137658   1.384   1.146   2.553 -0.9343 -0.2314 -0.3156
 8732SOL    HW237659   1.384   1.147   2.406 -1.0001  0.3292  0.6863
 8733SOL     OW37660   4.444   2.330   4.741  0.4651  0.0598 -0.3077
 8733SOL    HW137661   4.432   2.262   4.674 -1.2036 -0.6133  0.6700
 8733SOL    HW237662   4.529   2.302   4.775  0.0623  1.2141  1.6565
 8734SOL     OW37663   0.657   3.168   3.002 -0.0843  0.3790  0.1540
 8734SOL    HW137664   0.613   3.087   3.030  0.4931  0.3523  1.0098
 8734SOL    HW237665   0.672   3.205   3.089 -0.5163  3.4117 -1.0923
 8735SOL     OW37666   0.991   4.248   9.536  0.0970  0.3799 -0.3687
 8735SOL    HW137667   0.990   4.178   9.471 -0.7691 -1.5004  1.6213
 8735SOL    HW237668   0.943   4.317   9.490  0.0636  2.0577  2.1598
 8736SOL     OW37669   0.003   3.614  13.975  0.7248 -0.1382  0.1208
 8736SOL    HW137670   0.082   3.597  13.923  1.4410 -0.6995  1.4125
 8736SOL    HW237671   0.018   3.571  14.059 -1.3545  0.1772  0.6444
 8737SOL     OW37672   3.492   2.450  13.288 -0.2096  0.0082 -0.1687
 8737SOL    HW137673   3.573   2.502  13.297 -0.0870 -0.0825 -0.6999
 8737SOL    HW237674   3.532   2.368  13.260  1.1644  1.4029 -2.3501
 8738SOL     OW37675   1.928   2.368  16.018  0.2408 -0.2915  0.3168
 8738SOL    HW137676   2.006   2.317  15.996  1.0093  0.7711  0.5789
 8738SOL    HW237677   1.875   2.291  16.040 -0.7509  0.3029  0.0002
 8739SOL     OW37678   1.069   1.664   7.363 -0.1928  0.0273 -0.2322
 8739SOL    HW137679   1.064   1.621   7.278 -0.3708  0.2113 -0.3170
 8739SOL    HW237680   1.164   1.664   7.376  0.1129  0.1882 -2.5318
 8740SOL     OW37681   0.340   1.596  11.522 -0.6187  0.2349  0.0568
 8740SOL    HW137682   0.299   1.554  11.598 -2.2285  0.0466 -0.9313
 8740SOL    HW237683   0.267   1.592  11.462 -1.5533 -0.6927  1.2426
 8741SOL     OW37684   3.812   2.042   2.939 -0.2236 -0.7214  0.7816
 8741SOL    HW137685   3.796   2.117   2.881 -0.8563  0.1268  2.0619
 8741SOL    HW237686   3.906   2.035   2.923 -0.1607 -1.0352  1.3093
 8742SOL     OW37687   2.187   1.316   6.791  0.0191 -0.2574  0.5032
 8742SOL    HW137688   2.277   1.312   6.822  0.0098 -2.0140  0.2990
 8742SOL    HW237689   2.181   1.410   6.773  2.8646 -0.0806  0.5486
 8743SOL     OW37690   3.893   2.415  12.748  0.3496 -0.1847 -0.2066
 8743SOL    HW137691   3.804   2.445  12.766  0.1827 -1.7355  1.5146
 8743SOL    HW237692   3.930   2.426  12.836 -2.7249  1.6753  0.8622
 8744SOL     OW37693   3.277   0.578  12.958  0.0436  0.5016 -0.1976
 8744SOL    HW137694   3.355   0.522  12.958 -0.1230  0.2756  0.7860
 8744SOL    HW237695   3.248   0.579  13.049 -2.2473 -0.4147 -0.9190
 8745SOL     OW37696   3.756   0.053   4.202 -0.3956  0.0440  0.3282
 8745SOL    HW137697   3.752   0.021   4.292  2.2895 -0.2252  0.3439
 8745SOL    HW237698   3.670   0.095   4.200  0.5900  2.0943  1.0542
 8746SOL     OW37699   3.706   3.540  13.125  0.1656 -0.0526 -0.1048
 8746SOL    HW137700   3.723   3.609  13.189  4.4000 -0.0067 -1.2665
 8746SOL    HW237701   3.742   3.465  13.173 -1.2398  0.5925  1.9454
 8747SOL     OW37702   0.861   2.999   2.203 -0.2486  0.2572 -0.0894
 8747SOL    HW137703   0.892   3.006   2.293  0.9197  4.2980 -0.8149
 8747SOL    HW237704   0.827   3.087   2.189  2.7117  1.6274  1.5195
 8748SOL     OW37705   1.403   4.636  17.688  0.1058  0.3181  0.1210
 8748SOL    HW137706   1.344   4.711  17.686  0.3620  0.4686 -1.3146
 8748SOL    HW237707   1.350   4.582  17.630  0.3353  2.1119 -1.7564
 8749SOL     OW37708   0.892   0.574   9.283  0.0043  0.1178  0.1670
 8749SOL    HW137709   0.957   0.513   9.317  0.0091 -0.5989 -1.1105
 8749SOL    HW237710   0.854   0.519   9.214 -2.9840 -0.1872  2.0837
 8750SOL     OW37711   2.052   1.868   8.652 -0.2293 -0.7323  0.1125
 8750SOL    HW137712   2.047   1.780   8.689  0.2608 -0.5245  0.6843
 8750SOL    HW237713   1.991   1.863   8.579 -0.7663 -3.5723  0.7343
 8751SOL     OW37714   2.400   3.719   2.292 -0.0982  0.0985  0.6728
 8751SOL    HW137715   2.363   3.795   2.248  2.8752  1.4430  0.4594
 8751SOL    HW237716   2.338   3.651   2.267 -0.0004 -0.4393  1.8764
 8752SOL     OW37717   2.850   2.557  13.171 -0.2158 -0.8915  0.1008
 8752SOL    HW137718   2.775   2.616  13.183  0.3476 -0.3247  0.8322
 8752SOL    HW237719   2.815   2.473  13.204  1.3613 -0.7143  2.1978
 8753SOL     OW37720   0.141   4.001   7.192  0.0709 -0.4045 -0.2256
 8753SOL    HW137721   0.144   3.909   7.217 -1.8813 -0.1335  1.0557
 8753SOL    HW237722   0.183   4.036   7.270  0.8134  1.3636 -1.4148
 8754SOL     OW37723   0.306   4.620  11.271 -0.2269  0.0007 -0.5953
 8754SOL    HW137724   0.396   4.595  11.293 -1.3817 -1.8990  1.9994
 8754SOL    HW237725   0.298   4.601  11.177 -3.1652  1.4591 -0.6243
 8755SOL     OW37726   1.074   3.018   9.786 -0.5415  0.5743  0.2062
 8755SOL    HW137727   1.151   3.054   9.829 -1.0845  1.5252  0.3834
 8755SOL    HW237728   1.099   2.972   9.706  0.3861 -2.3538  2.1931
 8756SOL     OW37729   3.406   4.670   2.104 -0.6318  0.7738 -0.5053
 8756SOL    HW137730   3.419   4.624   2.021  1.3919 -1.7540  1.1920
 8756SOL    HW237731   3.312   4.658   2.120 -0.3712  1.8397  1.7345
 8757SOL     OW37732   0.602   0.799  16.686 -0.2010  0.3224  0.0440
 8757SOL    HW137733   0.628   0.891  16.695 -0.0497  0.2163  0.6592
 8757SOL    HW237734   0.533   0.801  16.620  0.3280 -0.9355 -0.5703
 8758SOL     OW37735   2.630   0.776   3.470  0.5416  0.4995 -0.3145
 8758SOL    HW137736   2.622   0.867   3.444 -0.5720  0.9496  1.6212
 8758SOL    HW237737   2.542   0.742   3.455  0.4923  0.5397 -0.1142
 8759SOL     OW37738   1.568   0.498   8.811 -0.1505  0.5708 -0.2390
 8759SOL    HW137739   1.645   0.477   8.864  2.1644  0.6326 -3.5338
 8759SOL    HW237740   1.557   0.594   8.811 -0.7501  0.5002 -2.5019
 8760SOL     OW37741   4.199   0.626   3.156  0.1789 -0.2797  0.2160
 8760SOL    HW137742   4.212   0.581   3.240 -1.2940 -0.1705  0.5042
 8760SOL    HW237743   4.270   0.588   3.104  1.9674 -0.2840  2.6263
 8761SOL     OW37744   2.507   1.031   5.114  0.3738 -0.0848 -0.6484
 8761SOL    HW137745   2.525   1.083   5.036  1.1770  0.7595  0.0967
 8761SOL    HW237746   2.412   1.023   5.112  0.3816 -0.5417  1.0440
 8762SOL     OW37747   4.383   3.061   2.377 -0.1985 -0.4764 -0.0409
 8762SOL    HW137748   4.414   3.139   2.423 -0.5968 -1.4015  1.8109
 8762SOL    HW237749   4.369   2.994   2.444 -1.9357  0.2835  0.3515
 8763SOL     OW37750   1.964   0.725   6.954  0.7341  0.7586 -0.7188
 8763SOL    HW137751   1.872   0.723   6.981  0.4628  0.4233 -1.6720
 8763SOL    HW237752   1.986   0.653   7.013 -0.2026  0.3148 -0.9118
 8764SOL     OW37753   0.431   1.706   8.343 -0.2104 -0.6939 -0.2353
 8764SOL    HW137754   0.442   1.800   8.351 -2.3753 -0.4317 -0.2274
 8764SOL    HW237755   0.515   1.665   8.363  0.2627 -0.0665 -0.9444
 8765SOL     OW37756   4.375   1.078   9.622  0.1822  0.5974 -0.0219
 8765SOL    HW137757   4.392   0.984   9.629 -2.6446  0.1817  1.4436
 8765SOL    HW237758   4.308   1.073   9.553  0.9251 -0.8590 -0.6413
 8766SOL     OW37759   4.184   0.214   8.591 -0.7959  0.1993  0.2978
 8766SOL    HW137760   4.118   0.207   8.522 -0.3632  1.8834 -0.2849
 8766SOL    HW237761   4.141   0.157   8.655  1.6947  0.5995  2.3550
 8767SOL     OW37762   2.563   2.342  17.343 -0.1643  0.2183 -0.4057
 8767SOL    HW137763   2.518   2.384  17.269 -0.5864  0.0437 -0.2447
 8767SOL    HW237764   2.560   2.414  17.406 -0.6542  0.2541 -0.4703
 8768SOL     OW37765   3.233   0.613  12.338 -0.3326 -0.2234 -0.4889
 8768SOL    HW137766   3.207   0.627  12.247  0.0472  0.2054 -0.5324
 8768SOL    HW237767   3.313   0.665  12.341  0.2510 -1.1485  0.4477
 8769SOL     OW37768   3.198   4.320   8.392  0.2516 -0.0671 -0.0011
 8769SOL    HW137769   3.229   4.403   8.428  0.6290 -0.5878  0.8699
 8769SOL    HW237770   3.219   4.323   8.299 -0.7886 -0.7236 -0.2548
 8770SOL     OW37771   0.442   3.589  17.304  0.6123  0.6345 -0.1859
 8770SOL    HW137772   0.500   3.630  17.369  2.5341 -2.0867 -0.2223
 8770SOL    HW237773   0.392   3.532  17.362  0.8055  2.4864  1.8189
 8771SOL     OW37774   0.129   4.301   4.563  0.2620 -0.4092 -0.0768
 8771SOL    HW137775   0.119   4.220   4.614  0.0842 -0.6728 -0.5281
 8771SOL    HW237776   0.039   4.332   4.574 -0.5179 -2.9874  0.7832
 8772SOL     OW37777   3.327   0.912   0.305  0.6643 -0.5811 -0.0643
 8772SOL    HW137778   3.265   0.980   0.281  1.0399  0.6692  2.4765
 8772SOL    HW237779   3.370   0.891   0.222 -3.9552  1.4222 -2.9788
 8773SOL     OW37780   3.165   0.019  11.673  0.1602 -0.4387 -0.3064
 8773SOL    HW137781   3.176   0.107  11.638 -2.3397 -0.5132 -1.2637
 8773SOL    HW237782   3.142   4.686  11.598 -1.7133  0.1555 -0.1606
 8774SOL     OW37783   2.936   1.439   8.014 -0.7618  0.0372 -0.2416
 8774SOL    HW137784   2.868   1.421   8.078  1.4777 -2.5830  1.4278
 8774SOL    HW237785   2.942   1.535   8.020 -0.6821 -0.0711  1.2483
 8775SOL     OW37786   1.194   2.908   5.372 -0.5661  0.2434 -0.3025
 8775SOL    HW137787   1.229   2.881   5.456 -3.4836 -0.2895  0.7417
 8775SOL    HW237788   1.154   2.993   5.392 -1.1353 -0.8777  3.2450
 8776SOL     OW37789   3.290   4.205   7.177  0.3209 -0.0670 -0.2468
 8776SOL    HW137790   3.299   4.231   7.268  3.3494 -1.1260 -0.2216
 8776SOL    HW237791   3.227   4.134   7.189  1.2290 -0.8624 -0.1385
 8777SOL     OW37792   1.905   3.797   8.545 -0.1257  0.9397 -0.1904
 8777SOL    HW137793   1.907   3.813   8.451  1.8545  2.0063  0.0344
 8777SOL    HW237794   1.997   3.781   8.568 -0.8771  0.9745  2.8579
 8778SOL     OW37795   0.098   0.984   4.232 -0.2990  0.3336  0.2043
 8778SOL    HW137796   0.069   0.969   4.322  1.7337  1.0045  0.9589
 8778SOL    HW237797   0.146   0.903   4.214  0.3285  0.9488 -0.8969
 8779SOL     OW37798   3.515   1.268   1.699  0.4165  0.8659  0.8410
 8779SOL    HW137799   3.544   1.299   1.785  0.6312  3.3751 -0.1397
 8779SOL    HW237800   3.453   1.205   1.735  0.4395 -0.3886 -1.3403
 8780SOL     OW37801   0.916   2.271   0.188 -1.0654  0.4891 -0.0483
 8780SOL    HW137802   0.837   2.251   0.139 -1.0050 -0.3036  0.1760
 8780SOL    HW237803   0.921   2.364   0.166  0.3408  0.6688  0.9963
 8781SOL     OW37804   0.202   1.732   8.867 -0.0164  0.2082  0.1120
 8781SOL    HW137805   0.257   1.804   8.899  0.4637  0.3057 -0.9273
 8781SOL    HW237806   0.171   1.697   8.950  2.0075  0.7584  1.0881
 8782SOL     OW37807   1.083   3.159   7.698  0.5944  0.3573  0.2470
 8782SOL    HW137808   1.060   3.131   7.786  0.3799 -0.2418  0.0020
 8782SOL    HW237809   1.067   3.088   7.636  1.6002  0.1020  0.2885
 8783SOL     OW37810   4.311   1.695   7.192 -0.4734 -0.3758 -0.2854
 8783SOL    HW137811   4.362   1.684   7.272 -1.6705  2.4562  0.8836
 8783SOL    HW237812   4.220   1.693   7.222 -0.7200 -0.4030 -1.0373
 8784SOL     OW37813   1.332   4.683  11.014 -0.0606 -0.6552  0.3537
 8784SOL    HW137814   1.299   4.693  10.925  0.1083 -1.3774  0.2113
 8784SOL    HW237815   1.425   4.705  11.000 -0.4320  0.1921 -0.7797
 8785SOL     OW37816   1.869   2.590  13.071  0.0079 -0.1077  0.5713
 8785SOL    HW137817   1.781   2.552  13.064 -0.8128  1.6274  1.3986
 8785SOL    HW237818   1.894   2.594  12.978 -0.4069 -0.1142  0.4544
 8786SOL     OW37819   0.762   1.763   7.706  0.3842  0.2054  0.7445
 8786SOL    HW137820   0.763   1.667   7.698 -0.9738  0.2839 -0.3424
 8786SOL    HW237821   0.717   1.784   7.625 -1.8196 -0.5408  1.7657
 8787SOL     OW37822   0.613   1.534   2.520  0.1478 -0.6659 -0.1121
 8787SOL    HW137823   0.661   1.472   2.575  1.5509  1.0240  0.5859
 8787SOL    HW237824   0.601   1.478   2.444  0.0359 -0.0538 -0.5380
 8788SOL     OW37825   3.125   2.581   9.410 -0.7194  0.3858  0.6400
 8788SOL    HW137826   3.217   2.561   9.431 -0.2230  1.6094 -0.3799
 8788SOL    HW237827   3.087   2.494   9.421 -0.8974  0.5357  1.2118
 8789SOL     OW37828   2.971   1.366   4.270 -0.0993 -0.0478 -0.2585
 8789SOL    HW137829   3.015   1.451   4.272 -2.3313  1.1213 -1.3262
 8789SOL    HW237830   3.023   1.336   4.196 -0.1305  0.4094 -0.4668
 8790SOL     OW37831   3.911   4.367   4.417  0.7594  0.0038 -0.6378
 8790SOL    HW137832   3.984   4.394   4.362  0.6011  2.1678  0.2140
 8790SOL    HW237833   3.932   4.275   4.431  1.3361  0.5452  2.0114
 8791SOL     OW37834   0.966   1.862   2.134  0.5375 -0.8045  0.2849
 8791SOL    HW137835   0.947   1.885   2.225  0.4976 -1.4194  0.4316
 8791SOL    HW237836   1.049   1.814   2.137 -0.0756 -1.8113  0.8392
 8792SOL     OW37837   4.045   3.785   3.701 -0.0634  0.6861 -0.3809
 8792SOL    HW137838   4.031   3.708   3.754 -1.1883  1.1212 -0.0521
 8792SOL    HW237839   3.994   3.783   3.620  0.6804  0.7941 -0.8570
 8793SOL     OW37840   1.301   1.753   1.642 -0.3751  0.5757  0.0159
 8793SOL    HW137841   1.215   1.769   1.682 -0.0945  2.7965 -0.2614
 8793SOL    HW237842   1.268   1.706   1.565  0.2914 -0.1252  0.1684
 8794SOL     OW37843   1.426   3.469   1.949 -0.2321 -0.5471  0.2683
 8794SOL    HW137844   1.441   3.419   1.868  2.6622  1.0371 -0.1610
 8794SOL    HW237845   1.518   3.475   1.971 -0.1853 -0.0005 -0.0923
 8795SOL     OW37846   4.506   2.882   9.435 -0.7488 -0.3294 -0.0205
 8795SOL    HW137847   4.504   2.944   9.363  1.2411 -2.9107 -2.3183
 8795SOL    HW237848   4.418   2.893   9.471  0.1349 -0.9008  2.3800
 8796SOL     OW37849   1.171   0.513  12.323 -0.4249  0.1577  0.2632
 8796SOL    HW137850   1.150   0.421  12.338  0.7336 -0.0128  0.8346
 8796SOL    HW237851   1.192   0.528  12.231 -0.1430  3.0843  0.7810
 8797SOL     OW37852   1.651   2.732   2.325  0.1797  0.0998  0.1308
 8797SOL    HW137853   1.684   2.643   2.318  3.2767  1.1457  1.6236
 8797SOL    HW237854   1.684   2.763   2.409 -2.7787 -0.0380  1.3577
 8798SOL     OW37855   0.666   4.350   5.748  0.1075 -0.5693  0.1541
 8798SOL    HW137856   0.574   4.331   5.732 -0.8495  2.7571  1.6055
 8798SOL    HW237857   0.654   4.363   5.842 -0.7871  0.0634 -0.0511
 8799SOL     OW37858   4.462   0.290  10.792  0.1593 -0.1874 -0.6287
 8799SOL    HW137859   4.501   0.311  10.707  2.1010 -0.4172  0.2000
 8799SOL    HW237860   4.382   0.340  10.780  1.6117  2.2959 -0.0903
 8800SOL     OW37861   1.949   1.142   8.222 -0.3445 -0.2003  0.2420
 8800SOL    HW137862   2.042   1.154   8.201 -0.4915 -0.3273 -0.5054
 8800SOL    HW237863   1.913   1.194   8.150  1.0799  0.7613  0.2231
 8801SOL     OW37864   1.077   0.170   7.988 -0.2090  0.2403 -0.0107
 8801SOL    HW137865   1.054   0.218   7.908 -0.2343 -0.3103 -0.3333
 8801SOL    HW237866   1.160   0.129   7.964  0.3199  1.1950  0.2128
 8802SOL     OW37867   1.008   4.563  13.277  0.2196  0.4444  0.0639
 8802SOL    HW137868   0.970   4.477  13.262 -2.8503  1.3098  3.1306
 8802SOL    HW237869   1.028   4.560  13.370 -1.9170 -2.2128  0.4320
 8803SOL     OW37870   4.098   0.341   1.793 -0.5160 -0.0097  0.2280
 8803SOL    HW137871   4.059   0.395   1.724 -1.5737 -1.4767 -0.3304
 8803SOL    HW237872   4.147   0.406   1.843 -1.9319  1.6697 -0.5790
 8804SOL     OW37873   4.585   0.434   5.050 -0.2092  0.0233 -0.2724
 8804SOL    HW137874   4.552   0.523   5.061  1.3997  0.6933 -0.9325
 8804SOL    HW237875   4.553   0.406   5.136 -0.1153 -2.1539 -0.9232
 8805SOL     OW37876   4.034   3.178   7.897 -0.2625 -0.0941  0.6319
 8805SOL    HW137877   4.029   3.234   7.820 -0.5276 -0.3758  0.4491
 8805SOL    HW237878   4.002   3.230   7.971 -0.3020 -0.3553  0.7965
 8806SOL     OW37879   4.714   3.943   1.954  0.5713 -0.2617  0.2403
 8806SOL    HW137880   0.009   3.849   1.966  1.0789 -0.4112 -1.6237
 8806SOL    HW237881   4.665   3.934   1.873  0.1677 -1.0414  0.5606
 8807SOL     OW37882   1.000   4.413   2.300 -0.5157 -0.7296  0.3124
 8807SOL    HW137883   1.079   4.399   2.352  0.0780  2.2336  0.2047
 8807SOL    HW237884   1.036   4.409   2.211  1.0915 -0.2954  0.9397
 8808SOL     OW37885   4.305   1.540   2.340  0.5813  0.0654  0.0759
 8808SOL    HW137886   4.311   1.497   2.254  1.1424  0.2257  0.0375
 8808SOL    HW237887   4.385   1.592   2.336  0.8117 -0.2474  0.7820
 8809SOL     OW37888   0.641   0.834   8.228 -0.1989 -0.0279  0.2591
 8809SOL    HW137889   0.692   0.907   8.263 -0.5437  0.5407 -0.4250
 8809SOL    HW237890   0.692   0.756   8.253  0.6277  1.2487  2.5539
 8810SOL     OW37891   3.846   2.637   9.142  0.1859 -0.3330  0.1790
 8810SOL    HW137892   3.763   2.648   9.187 -1.5288 -3.5723 -2.1544
 8810SOL    HW237893   3.884   2.725   9.146 -0.0695 -0.1659 -1.0798
 8811SOL     OW37894   1.016   4.075   6.023  0.1273  0.4069 -0.2987
 8811SOL    HW137895   0.920   4.072   6.019  0.0573 -1.2476  2.4275
 8811SOL    HW237896   1.027   4.053   6.116 -1.5465 -0.0923 -0.2190
 8812SOL     OW37897   0.576   2.542   5.125 -0.1026  0.3144 -0.5119
 8812SOL    HW137898   0.505   2.478   5.127  1.3097 -1.3235 -2.3194
 8812SOL    HW237899   0.536   2.621   5.162  1.7015  1.4379 -0.9725
 8813SOL     OW37900   3.867   0.514   5.606  0.2017 -0.3366  0.0945
 8813SOL    HW137901   3.851   0.598   5.563 -1.5155 -2.6988 -3.8807
 8813SOL    HW237902   3.897   0.460   5.532 -1.4102 -0.9404 -0.1140
 8814SOL     OW37903   1.602   0.663  13.753 -0.0908  0.3624 -0.9503
 8814SOL    HW137904   1.645   0.748  13.768 -0.2810  0.4262 -0.7585
 8814SOL    HW237905   1.626   0.609  13.828  0.0211 -2.5148 -3.1030
 8815SOL     OW37906   2.196   3.537   6.215  0.7932 -0.5740  0.0632
 8815SOL    HW137907   2.141   3.608   6.248  0.5861 -0.0520 -1.4346
 8815SOL    HW237908   2.169   3.543   6.124  1.6609 -0.1672 -0.1695
 8816SOL     OW37909   1.009   1.616  15.059 -0.2697  0.2439 -0.6336
 8816SOL    HW137910   0.989   1.536  15.011  0.9959 -0.3779 -0.1179
 8816SOL    HW237911   0.997   1.598  15.152 -0.4143  3.4270 -0.0353
 8817SOL     OW37912   0.361   0.452   4.311  0.0236  0.4631 -0.0112
 8817SOL    HW137913   0.287   0.510   4.329 -0.7113  0.0257 -1.6020
 8817SOL    HW237914   0.353   0.387   4.380  1.2677  1.3801  1.0031
 8818SOL     OW37915   0.920   2.237   8.246 -0.0832 -0.4972 -0.1549
 8818SOL    HW137916   0.954   2.185   8.319  0.0930 -0.9338 -0.5509
 8818SOL    HW237917   1.002   2.280   8.222  0.5912 -1.8866 -0.3253
 8819SOL     OW37918   0.676   3.272  13.458  0.4199  0.0805  0.2110
 8819SOL    HW137919   0.616   3.344  13.477 -2.3468 -1.7801 -1.4333
 8819SOL    HW237920   0.620   3.196  13.473 -2.6823  2.5636  1.0604
 8820SOL     OW37921   3.801   1.169   1.402  0.3511 -0.3168 -0.3732
 8820SOL    HW137922   3.712   1.148   1.432  0.4267  0.1942  0.2018
 8820SOL    HW237923   3.800   1.121   1.319 -0.7746  0.3622 -0.7597
 8821SOL     OW37924   3.839   2.883  14.355  0.1075  0.2406 -0.0448
 8821SOL    HW137925   3.913   2.940  14.373 -0.8885  1.1763  1.0977
 8821SOL    HW237926   3.772   2.950  14.343  1.2421  1.3171 -0.3583
 8822SOL     OW37927   2.551   3.804   3.031  0.2716  0.2066  0.2433
 8822SOL    HW137928   2.522   3.895   3.030 -0.2279  0.0565  1.9791
 8822SOL    HW237929   2.620   3.812   2.965 -0.4090  2.3667 -0.2269
 8823SOL     OW37930   1.993   2.473  16.618 -0.1435  0.2210  0.4576
 8823SOL    HW137931   2.063   2.529  16.651  0.1754  0.0287  0.1146
 8823SOL    HW237932   1.917   2.510  16.662 -2.0575 -2.9521 -0.1705
 8824SOL     OW37933   2.729   0.246   6.775 -0.4654 -0.7204 -0.0888
 8824SOL    HW137934   2.777   0.282   6.851  0.7915 -0.5026 -0.9852
 8824SOL    HW237935   2.791   0.255   6.703 -0.3216 -1.7974 -0.0931
 8825SOL     OW37936   3.772   1.789   0.055 -0.3445  0.2355 -0.2177
 8825SOL    HW137937   3.815   1.741  17.676 -0.1164 -1.1732  0.8892
 8825SOL    HW237938   3.851   1.840   0.073  0.0742  1.2452 -5.0668
 8826SOL     OW37939   4.522   3.308   6.549  0.0417  0.3929 -0.4317
 8826SOL    HW137940   4.576   3.304   6.470 -0.2306 -0.2842 -0.5812
 8826SOL    HW237941   4.501   3.401   6.541  0.5537  0.3827 -1.9567
 8827SOL     OW37942   2.097   4.563   3.792 -0.2825 -0.2589 -0.3141
 8827SOL    HW137943   2.056   4.488   3.749  0.9790 -0.9356 -0.3382
 8827SOL    HW237944   2.029   4.629   3.779 -0.7786 -1.0124 -1.5810
 8828SOL     OW37945   0.622   1.186   5.355 -0.1972 -0.3201  0.3255
 8828SOL    HW137946   0.681   1.147   5.419 -1.0673 -0.7606  0.8658
 8828SOL    HW237947   0.684   1.230   5.297  0.0334 -1.4040 -0.2646
 8829SOL     OW37948   0.902   3.504   4.447  0.6101 -0.3812 -0.3273
 8829SOL    HW137949   0.930   3.582   4.399 -0.4829  1.2674  1.6819
 8829SOL    HW237950   0.982   3.491   4.497  1.1200 -2.6013 -1.7284
 8830SOL     OW37951   3.758   3.412   9.791  0.4401  0.2967 -0.0299
 8830SOL    HW137952   3.737   3.437   9.881 -1.2529 -1.2604 -0.0081
 8830SOL    HW237953   3.701   3.337   9.776  1.3966 -0.5700  0.7208
 8831SOL     OW37954   1.804   1.775   7.033 -0.6541 -0.2125 -0.0478
 8831SOL    HW137955   1.752   1.846   7.072  1.4213  0.9111  0.6690
 8831SOL    HW237956   1.777   1.697   7.081 -2.1741  1.4951  1.8539
 8832SOL     OW37957   4.190   3.283   4.914 -0.4192 -0.0936  0.4931
 8832SOL    HW137958   4.166   3.358   4.860  3.1686 -0.2079 -1.2220
 8832SOL    HW237959   4.123   3.218   4.892  0.9901 -1.7618  1.0886
 8833SOL     OW37960   2.378   1.003   5.682 -0.0027 -0.3941  0.3499
 8833SOL    HW137961   2.285   0.981   5.695 -0.3504 -0.2341 -1.9576
 8833SOL    HW237962   2.392   0.938   5.613  0.3799 -0.4169  0.4500
 8834SOL     OW37963   1.084   4.697   5.105  0.1592  0.4294  0.2019
 8834SOL    HW137964   1.119   0.054   5.064 -0.4006  1.6208  2.0308
 8834SOL    HW237965   1.161   4.646   5.128 -0.0815 -0.6743 -1.3781
 8835SOL     OW37966   3.570   3.702   6.519  0.4216 -0.5666  0.1146
 8835SOL    HW137967   3.558   3.615   6.559 -0.8210 -0.0473  0.8742
 8835SOL    HW237968   3.613   3.760   6.582  0.5108 -0.4740 -0.0316
 8836SOL     OW37969   2.742   3.490  11.588 -0.4225  1.0631  0.5120
 8836SOL    HW137970   2.786   3.411  11.557 -1.2916  1.0417 -0.6855
 8836SOL    HW237971   2.661   3.473  11.540  0.8943 -3.5280 -0.0989
 8837SOL     OW37972   2.617   1.355   8.690 -0.2449  0.0097 -0.6256
 8837SOL    HW137973   2.680   1.341   8.620  1.4966  1.4398  0.6753
 8837SOL    HW237974   2.634   1.266   8.722  0.4053  0.1191 -0.6696
 8838SOL     OW37975   3.642   1.838   5.856  0.2187 -0.4647 -0.5267
 8838SOL    HW137976   3.683   1.757   5.825 -0.5829 -0.6414 -1.1093
 8838SOL    HW237977   3.709   1.854   5.924  0.4616 -0.2178 -0.8233
 8839SOL     OW37978   2.673   0.853   2.598 -0.6700  0.1388 -0.6230
 8839SOL    HW137979   2.596   0.893   2.558 -1.2577 -2.3947 -2.0430
 8839SOL    HW237980   2.658   0.759   2.613 -0.7021 -0.1290 -2.2994
 8840SOL     OW37981   2.881   1.476   4.513 -0.2692  0.1983 -0.2654
 8840SOL    HW137982   2.888   1.439   4.425  3.7544  1.0699 -0.2958
 8840SOL    HW237983   2.834   1.403   4.553 -1.3365  1.2401  0.3938
 8841SOL     OW37984   2.494   2.826  17.119  0.3525 -0.2253  0.0483
 8841SOL    HW137985   2.405   2.845  17.147  0.5963 -1.1767  1.5113
 8841SOL    HW237986   2.538   2.902  17.157 -2.0101  0.3829  1.5116
 8842SOL     OW37987   0.246   2.299  16.731 -0.7796  0.5476  0.7313
 8842SOL    HW137988   0.323   2.328  16.683 -0.5873 -1.6557 -0.2875
 8842SOL    HW237989   0.173   2.326  16.674  0.4700  1.3622 -0.4823
 8843SOL     OW37990   0.047   1.098   2.359 -0.0698  0.1029  0.4033
 8843SOL    HW137991   0.007   1.184   2.345 -0.5937 -0.0361  0.9804
 8843SOL    HW237992   0.130   1.116   2.316  0.4534  0.6697  1.6572
 8844SOL     OW37993   1.687   3.963   8.115 -0.3876 -0.4199  0.0488
 8844SOL    HW137994   1.642   4.047   8.110  0.4387 -0.0210 -0.5453
 8844SOL    HW237995   1.701   3.939   8.024  2.4352  0.1686  0.3301
 8845SOL     OW37996   2.582   0.976  10.667  0.3908  0.1485 -0.1394
 8845SOL    HW137997   2.511   0.913  10.673  0.8822 -0.4376 -0.4741
 8845SOL    HW237998   2.535   1.053  10.699  4.5965  0.9723  4.0444
 8846SOL     OW37999   1.956   3.554   1.640  0.0877  0.5602 -0.2148
 8846SOL    HW138000   2.045   3.584   1.662 -0.1380  0.8328  0.3132
 8846SOL    HW238001   1.980   3.462   1.628 -0.7403  0.5384 -1.7580
 8847SOL     OW38002   4.088   2.519  10.593 -0.4519 -0.5594 -0.0560
 8847SOL    HW138003   4.080   2.613  10.577 -0.8286 -0.2784  1.7651
 8847SOL    HW238004   4.165   2.504  10.537  0.1350  1.0682  0.3143
 8848SOL     OW38005   2.579   0.313   3.872 -0.1180  0.0244 -0.3595
 8848SOL    HW138006   2.648   0.348   3.928  0.2658 -0.0349 -0.7937
 8848SOL    HW238007   2.584   0.375   3.799 -0.8168  0.2062 -0.2512
 8849SOL     OW38008   4.275   0.523   5.204 -0.1186 -0.2199 -0.4398
 8849SOL    HW138009   4.345   0.583   5.178 -0.2964  0.0730 -0.2288
 8849SOL    HW238010   4.315   0.482   5.281 -0.8974  1.2309  0.7135
 8850SOL     OW38011   1.349   1.319   1.860  0.4777 -0.2174 -0.3726
 8850SOL    HW138012   1.428   1.264   1.859 -0.2608 -1.3130  1.2541
 8850SOL    HW238013   1.330   1.324   1.767  0.5017 -0.2001 -0.3768
 8851SOL     OW38014   0.888   4.450   8.840  0.3123  0.2177  0.4581
 8851SOL    HW138015   0.880   4.412   8.927  2.7839  1.8229  1.3733
 8851SOL    HW238016   0.802   4.431   8.803 -0.5387 -3.2726  4.2991
 8852SOL     OW38017   3.620   4.650   7.266  0.2946 -0.2908  0.1725
 8852SOL    HW138018   3.633   4.559   7.293  2.5352  0.7793  2.6333
 8852SOL    HW238019   3.671   4.646   7.185 -1.0650  0.3722 -0.7140
 8853SOL     OW38020   2.628   3.635   3.251  0.2634  0.7011 -0.7202
 8853SOL    HW138021   2.622   3.699   3.180  0.1977  1.7883  0.2689
 8853SOL    HW238022   2.716   3.606   3.224 -0.0890 -1.9156  0.9873
 8854SOL     OW38023   1.978   0.683   8.222 -0.1617  0.8729  0.5134
 8854SOL    HW138024   1.900   0.630   8.242  0.6421  0.3998  2.4240
 8854SOL    HW238025   1.978   0.748   8.292 -1.1565 -2.5013  3.6481
 8855SOL     OW38026   4.374   4.027  13.031  0.7241 -0.2705 -0.4176
 8855SOL    HW138027   4.382   3.938  12.997 -0.7319 -0.5698  0.0067
 8855SOL    HW238028   4.281   4.052  13.032  0.4861 -1.1665  0.0669
 8856SOL     OW38029   3.422   0.530   5.679  0.1798 -0.4713  0.7568
 8856SOL    HW138030   3.421   0.576   5.763 -0.3650  0.1520  0.4077
 8856SOL    HW238031   3.432   0.605   5.621  0.3137 -1.0610  0.0138
 8857SOL     OW38032   4.516   1.554  17.147  0.0407 -0.1223 -0.2530
 8857SOL    HW138033   4.562   1.603  17.079  0.2444  1.0978  0.7733
 8857SOL    HW238034   4.490   1.623  17.208 -0.1556 -1.1509  0.8299
 8858SOL     OW38035   2.081   3.572  10.416 -0.3856  0.4530  0.3465
 8858SOL    HW138036   2.118   3.623  10.488  2.5161 -0.8735 -0.1693
 8858SOL    HW238037   2.141   3.497  10.423  1.6359  1.9965 -0.2340
 8859SOL     OW38038   0.340   2.932   5.034 -0.5798  0.3870  0.2910
 8859SOL    HW138039   0.308   2.984   5.108 -1.8786 -3.6846  2.5975
 8859SOL    HW238040   0.385   3.003   4.989  3.7621 -1.6599  1.3988
 8860SOL     OW38041   2.984   2.318  11.972 -0.6942 -0.4956 -0.7054
 8860SOL    HW138042   3.024   2.382  12.030 -0.4519 -0.4991 -0.8682
 8860SOL    HW238043   2.954   2.250  12.032  0.1926 -0.9785 -0.8075
 8861SOL     OW38044   4.019   0.618  17.580 -0.5207  0.5832 -0.2640
 8861SOL    HW138045   4.095   0.570  17.613 -0.4630  0.5245 -0.4827
 8861SOL    HW238046   3.950   0.557  17.605 -0.6643  0.2540 -1.4466
 8862SOL     OW38047   1.910   2.940   2.272  0.1298 -0.0563  0.2309
 8862SOL    HW138048   1.988   2.989   2.295 -0.0231 -0.1522  0.9800
 8862SOL    HW238049   1.882   2.998   2.201  0.3955 -1.1500 -0.7759
 8863SOL     OW38050   1.505   2.106   3.835  0.2121  0.2352  0.1483
 8863SOL    HW138051   1.455   2.149   3.904 -2.0681  0.7527 -1.8441
 8863SOL    HW238052   1.592   2.115   3.874 -0.0133 -0.3297  0.7813
 8864SOL     OW38053   3.735   3.800   8.247  0.0166 -0.4645  0.4212
 8864SOL    HW138054   3.684   3.767   8.321  0.6593  1.6084  1.7854
 8864SOL    HW238055   3.822   3.794   8.286  0.4633 -1.8086 -0.8133
 8865SOL     OW38056   0.649   2.303   2.475  0.1844 -0.0855 -0.2354
 8865SOL    HW138057   0.561   2.340   2.479  0.4335  0.4658  0.1024
 8865SOL    HW238058   0.696   2.377   2.439 -4.1306  2.5049 -0.4844
 8866SOL     OW38059   3.768   4.006   4.896  0.0624  0.3611 -0.2907
 8866SOL    HW138060   3.796   4.094   4.918  0.5892  0.2206 -0.3709
 8866SOL    HW238061   3.722   3.974   4.973  0.5989  3.3860  1.2827
 8867SOL     OW38062   2.941   4.260   1.185 -0.0464 -0.3818 -0.3472
 8867SOL    HW138063   3.015   4.235   1.129 -1.0743 -0.6725 -1.5984
 8867SOL    HW238064   2.968   4.207   1.260 -1.3040  2.9412  2.4264
 8868SOL     OW38065   4.563   0.073   6.829  0.2015 -0.0207 -0.2568
 8868SOL    HW138066   4.557   4.719   6.888 -0.5802 -0.1829 -0.5555
 8868SOL    HW238067   4.596   0.142   6.886  1.4728 -0.9507  0.1538
 8869SOL     OW38068   3.005   3.039   7.182 -0.7846  0.2965  0.1265
 8869SOL    HW138069   3.008   3.016   7.274 -0.4633 -0.3635 -0.0495
 8869SOL    HW238070   3.073   3.107   7.172  1.0337 -1.4531  0.6077
 8870SOL     OW38071   1.903   2.003   9.122  0.2482  0.2125 -0.3342
 8870SOL    HW138072   1.838   1.992   9.192  0.4354 -0.0840 -0.2079
 8870SOL    HW238073   1.842   2.000   9.049  1.4938 -3.3057 -1.2303
 8871SOL     OW38074   2.426   1.407   1.622 -0.2064 -0.0848 -0.3408
 8871SOL    HW138075   2.341   1.371   1.596 -0.9629 -0.9285  3.3135
 8871SOL    HW238076   2.482   1.339   1.586  0.7230  0.4121  0.1749
 8872SOL     OW38077   2.498   3.576   2.511 -0.5596  0.0398 -0.0908
 8872SOL    HW138078   2.471   3.629   2.436 -1.8400  0.1388  0.4408
 8872SOL    HW238079   2.524   3.644   2.573 -1.2555  0.6176 -0.4358
 8873SOL     OW38080   4.481   1.072   6.004 -0.3297  0.4958  0.6169
 8873SOL    HW138081   4.507   1.024   6.083  0.5632 -0.1963 -0.0946
 8873SOL    HW238082   4.527   1.012   5.945  0.7564  1.6485  0.2971
 8874SOL     OW38083   4.583   0.587   1.804 -0.2440 -0.5306  0.2288
 8874SOL    HW138084   4.504   0.539   1.781 -0.3924 -1.1678  2.0428
 8874SOL    HW238085   4.644   0.548   1.742 -0.3634  0.1963 -0.3471
 8875SOL     OW38086   1.890   2.990  10.999 -0.2229 -0.0329 -0.0273
 8875SOL    HW138087   1.976   2.962  10.968  0.6461  2.0566  0.5001
 8875SOL    HW238088   1.905   3.028  11.086 -0.3075  1.4697 -0.6704
 8876SOL     OW38089   0.504   3.901  10.485  0.1469 -0.1243  0.0176
 8876SOL    HW138090   0.421   3.864  10.513 -0.6537  1.1582 -0.6787
 8876SOL    HW238091   0.552   3.887  10.567  1.0576  0.8658 -0.3479
 8877SOL     OW38092   2.404   4.450   8.992 -0.1669 -0.2992 -0.1460
 8877SOL    HW138093   2.349   4.450   9.070 -2.6744  1.5724 -1.8944
 8877SOL    HW238094   2.492   4.452   9.029  0.4658 -1.0062 -1.6036
 8878SOL     OW38095   4.471   3.914  16.855 -0.2345 -0.1508  0.2435
 8878SOL    HW138096   4.446   3.864  16.932 -0.3493 -0.8134 -0.2265
 8878SOL    HW238097   4.521   3.847  16.808  1.3025  0.2858  1.2734
 8879SOL     OW38098   1.758   2.357   8.136 -0.0535  0.1364  0.0802
 8879SOL    HW138099   1.713   2.399   8.209 -0.0040 -0.6349  0.5629
 8879SOL    HW238100   1.689   2.315   8.084  0.1361  0.7099 -0.6284
 8880SOL     OW38101   1.183   2.320   5.206 -0.0982  0.0516  0.7083
 8880SOL    HW138102   1.193   2.246   5.266 -1.2061 -0.0268  0.7998
 8880SOL    HW238103   1.215   2.281   5.125  0.1254 -1.5755  1.5797
 8881SOL     OW38104   1.567   2.231  16.786  0.2491  0.1563  0.6368
 8881SOL    HW138105   1.563   2.168  16.858 -0.7393  2.2871  2.4496
 8881SOL    HW238106   1.566   2.315  16.833  0.6272  0.3145  0.3613
 8882SOL     OW38107   1.023   2.478   5.900  0.2425  0.6521 -0.0223
 8882SOL    HW138108   1.098   2.464   5.842 -0.8741 -0.4172 -1.2108
 8882SOL    HW238109   1.005   2.571   5.885  0.2449  0.7380  0.5159
 8883SOL     OW38110   3.990   0.309   0.726  0.4069  0.2138 -0.0678
 8883SOL    HW138111   3.908   0.306   0.676  0.2460 -1.3159  0.2815
 8883SOL    HW238112   4.013   0.217   0.721 -2.8168 -0.6233  0.1959
 8884SOL     OW38113   0.197   4.692   4.959  0.2671 -0.1424  0.1624
 8884SOL    HW138114   0.193   0.057   4.921  1.9816 -0.2050 -0.1979
 8884SOL    HW238115   0.239   4.703   5.044 -3.9825  2.1790  1.9109
 8885SOL     OW38116   4.238   3.844   7.325  0.1966  0.0105  0.9341
 8885SOL    HW138117   4.290   3.768   7.297 -0.9633 -1.0552  1.6711
 8885SOL    HW238118   4.318   3.885   7.357  3.0339 -2.8617 -2.3947
 8886SOL     OW38119   0.807   3.514   5.986  0.3250 -0.1562  0.5582
 8886SOL    HW138120   0.791   3.607   5.969 -0.4414 -0.2899  0.5372
 8886SOL    HW238121   0.770   3.507   6.074  0.4002  1.0652  0.6809
 8887SOL     OW38122   2.970   3.007  17.173  0.6272 -0.2805 -0.0822
 8887SOL    HW138123   3.050   3.012  17.122  1.2480 -2.6314  0.6752
 8887SOL    HW238124   2.964   3.099  17.199 -1.6840 -0.7402  1.0576
 8888SOL     OW38125   4.111   3.868   7.856  0.1361  0.0226  0.8289
 8888SOL    HW138126   4.077   3.791   7.811 -1.5208  1.0408  0.3680
 8888SOL    HW238127   4.150   3.913   7.782 -0.0840 -0.6010  0.3351
 8889SOL     OW38128   2.370   0.613  10.293  0.4140  0.6200 -0.0412
 8889SOL    HW138129   2.447   0.604  10.237  1.6423 -1.2414  1.9071
 8889SOL    HW238130   2.408   0.633  10.379 -0.2231  0.5351  0.2601
 8890SOL     OW38131   1.527   1.891   4.765  0.6196 -0.4847 -0.1428
 8890SOL    HW138132   1.466   1.858   4.699  0.7017  2.6702 -1.8107
 8890SOL    HW238133   1.591   1.820   4.761 -0.1310 -1.0116 -2.8267
 8891SOL     OW38134   0.127   3.596   4.916  0.4004 -0.6154 -0.4427
 8891SOL    HW138135   0.186   3.625   4.847  0.2035  0.3487 -0.2150
 8891SOL    HW238136   0.066   3.538   4.870 -0.5989 -0.0485  0.1616
 8892SOL     OW38137   3.484   3.702  13.305 -0.5132  0.2688  0.4472
 8892SOL    HW138138   3.573   3.694  13.338 -1.3819 -1.3535  2.4160
 8892SOL    HW238139   3.449   3.616  13.329  0.6941 -0.8489 -1.8000
 8893SOL     OW38140   3.378   4.089  15.333 -0.1222  0.0493 -0.1187
 8893SOL    HW138141   3.323   4.022  15.374  0.3882  0.4435  1.2164
 8893SOL    HW238142   3.321   4.164  15.348  0.0906  0.0785  0.5636
 8894SOL     OW38143   2.280   1.703   5.514  0.1222  0.2236  0.1819
 8894SOL    HW138144   2.253   1.753   5.591  1.3194 -3.2044  2.8480
 8894SOL    HW238145   2.344   1.644   5.554  0.6741 -0.0613 -1.1233
 8895SOL     OW38146   3.820   1.697  14.047  0.0169 -0.2536 -0.4569
 8895SOL    HW138147   3.876   1.647  14.106 -0.7455  0.2394  0.6904
 8895SOL    HW238148   3.759   1.633  14.010 -2.8984  1.6684  0.9981
 8896SOL     OW38149   3.299   0.932   7.547 -0.2340  0.7260  0.2851
 8896SOL    HW138150   3.305   0.990   7.623  1.2336  0.9382  0.0185
 8896SOL    HW238151   3.370   0.975   7.500  1.1602 -0.3141  1.4426
 8897SOL     OW38152   3.467   1.878  10.249 -0.8248  0.4724  0.0191
 8897SOL    HW138153   3.424   1.851  10.169 -1.5249  0.4655  0.3982
 8897SOL    HW238154   3.452   1.799  10.301 -2.4102  1.9506  1.8343
 8898SOL     OW38155   3.073   0.655   9.763 -0.1271  0.1470  0.0095
 8898SOL    HW138156   3.125   0.718   9.714  0.6750 -0.3785  0.1959
 8898SOL    HW238157   3.035   0.589   9.704  0.4967 -0.6748  0.5297
 8899SOL     OW38158   1.905   3.038   5.595 -0.1613 -0.3458  0.0302
 8899SOL    HW138159   1.957   2.997   5.526 -1.5960  0.1114 -1.3314
 8899SOL    HW238160   1.934   3.129   5.590  1.5952 -0.8094  2.0172
 8900SOL     OW38161   1.527   2.370   3.296 -0.2602 -0.4546  0.0253
 8900SOL    HW138162   1.575   2.399   3.219  0.6772 -1.8729  0.0903
 8900SOL    HW238163   1.438   2.347   3.267 -0.6237  2.4378 -1.1355
 8901SOL     OW38164   3.030   2.401  13.503 -0.0480  0.6383 -0.1498
 8901SOL    HW138165   3.097   2.361  13.557 -0.7235 -1.7474 -1.0510
 8901SOL    HW238166   3.078   2.415  13.421 -0.0789 -1.8851 -0.6082
 8902SOL     OW38167   0.877   4.320   9.087  0.0660  0.0326 -0.1898
 8902SOL    HW138168   0.881   4.230   9.120  1.8808  0.3549  0.4680
 8902SOL    HW238169   0.940   4.363   9.144 -1.8567  1.6446  0.7328
 8903SOL     OW38170   4.683   2.677   6.827 -0.5004  0.4065  0.4825
 8903SOL    HW138171   4.660   2.734   6.754  0.6599  0.6008  0.2720
 8903SOL    HW238172   4.678   2.592   6.783 -0.5145  0.0289  1.2146
 8904SOL     OW38173   0.998   2.631   8.237  0.0241 -1.0316  0.0100
 8904SOL    HW138174   1.073   2.679   8.203 -0.0306 -0.0987  1.2276
 8904SOL    HW238175   0.942   2.706   8.256  0.7939  0.7272 -4.7487
 8905SOL     OW38176   0.659   3.741   8.803 -0.0161  0.5961 -0.0636
 8905SOL    HW138177   0.745   3.767   8.770 -0.8192  0.4253 -2.2833
 8905SOL    HW238178   0.655   3.652   8.768  0.2546  0.5491  0.0277
 8906SOL     OW38179   4.431   0.283   8.826 -0.5140 -0.1802  0.3215
 8906SOL    HW138180   4.448   0.312   8.915  1.9963  0.0794 -0.2342
 8906SOL    HW238181   4.408   0.190   8.828 -2.3251  0.3125  1.5774
 8907SOL     OW38182   3.318   1.257   2.015  0.0988  0.1294 -0.6851
 8907SOL    HW138183   3.310   1.205   1.935 -0.8117 -0.4282 -0.2294
 8907SOL    HW238184   3.408   1.233   2.033 -1.2225 -2.0994  2.9527
 8908SOL     OW38185   3.546   2.369   6.107 -0.4076  0.2887 -0.1027
 8908SOL    HW138186   3.585   2.327   6.183 -1.5818  0.5891  0.6609
 8908SOL    HW238187   3.524   2.282   6.072  0.3444  0.4444 -0.9502
 8909SOL     OW38188   3.288   4.061   4.103 -0.5843 -0.3640  0.5594
 8909SOL    HW138189   3.307   3.974   4.068 -0.5906 -0.1880  0.1241
 8909SOL    HW238190   3.306   4.123   4.032 -0.1743  1.1319  1.9563
 8910SOL     OW38191   3.785   3.242   9.017  0.3858  0.5000 -0.1881
 8910SOL    HW138192   3.868   3.195   9.008  0.4200  1.1057 -3.1726
 8910SOL    HW238193   3.811   3.329   8.985 -1.1840  0.5252 -1.3957
 8911SOL     OW38194   0.516   1.440  11.334  0.0551  0.4170 -0.0898
 8911SOL    HW138195   0.491   1.524  11.295  0.3018 -0.3030 -1.7975
 8911SOL    HW238196   0.525   1.465  11.426 -2.5708 -0.8305  0.5157
 8912SOL     OW38197   2.904   2.254   6.115  0.4237  0.2355  0.0345
 8912SOL    HW138198   2.862   2.322   6.063  1.0905  0.4348 -0.2549
 8912SOL    HW238199   2.939   2.194   6.049 -2.3892 -0.4532 -0.7918
 8913SOL     OW38200   2.615   0.869   0.250  0.4403 -0.0724 -0.2630
 8913SOL    HW138201   2.603   0.939   0.314  1.0028  0.3604 -0.6313
 8913SOL    HW238202   2.638   0.793   0.304  1.2338  1.0865  1.0265
 8914SOL     OW38203   0.101   2.279   4.341 -0.3670 -0.6498 -0.1257
 8914SOL    HW138204   0.146   2.320   4.415 -0.0359  0.4342 -0.9364
 8914SOL    HW238205   0.013   2.308   4.367  0.4860  0.9953  0.9917
 8915SOL     OW38206   2.306   2.301   2.005 -0.2198  0.0704  0.1613
 8915SOL    HW138207   2.255   2.382   2.010 -3.0600 -1.8196  1.6465
 8915SOL    HW238208   2.369   2.326   2.074 -1.0417  1.5407  0.3601
 8916SOL     OW38209   3.231   1.865   7.307  0.4391  0.3017  0.0681
 8916SOL    HW138210   3.274   1.925   7.368  1.4848  0.0689 -0.4570
 8916SOL    HW238211   3.139   1.891   7.316  0.1600 -1.1682  1.4452
 8917SOL     OW38212   3.342   2.862   8.701  0.3575 -0.1537  0.2092
 8917SOL    HW138213   3.386   2.940   8.667 -0.0261 -0.4490 -0.9667
 8917SOL    HW238214   3.382   2.850   8.788 -2.6357 -0.0444  1.5881
 8918SOL     OW38215   1.042   2.267  12.164 -0.0028  0.4543  0.4906
 8918SOL    HW138216   1.058   2.193  12.104  0.2853  0.9990 -0.1042
 8918SOL    HW238217   0.967   2.301  12.115  0.2752  0.2500 -0.0892
 8919SOL     OW38218   1.220   4.096  15.591  0.4831  0.0294  0.5537
 8919SOL    HW138219   1.195   4.187  15.575  2.7737  0.8695  1.6433
 8919SOL    HW238220   1.207   4.085  15.686 -1.4508  3.6996  0.7421
 8920SOL     OW38221   0.021   1.936   2.686  0.0913 -0.4731  0.7713
 8920SOL    HW138222   0.054   1.855   2.645  0.2178 -0.4364  0.7996
 8920SOL    HW238223   4.697   1.980   2.614 -0.6891 -2.3784  0.0913
 8921SOL     OW38224   1.183   1.078   3.429 -0.1679 -0.0027  0.4906
 8921SOL    HW138225   1.149   1.128   3.503 -0.6052 -1.4723  1.2554
 8921SOL    HW238226   1.105   1.089   3.375 -1.4165 -0.6148  2.2255
 8922SOL     OW38227   4.680   1.593   5.545  0.2065  0.2136  0.5832
 8922SOL    HW138228   4.669   1.643   5.626  1.0156  1.6024 -0.1565
 8922SOL    HW238229   0.051   1.598   5.526  0.1400 -0.3080  0.1089
 8923SOL     OW38230   0.375   4.676   9.250  0.9500 -0.0338 -0.3151
 8923SOL    HW138231   0.422   0.030   9.214 -0.5592  1.0111 -0.0699
 8923SOL    HW238232   0.387   4.681   9.345 -0.3332 -0.8686 -0.1071
 8924SOL     OW38233   0.840   0.220   1.690 -0.3410 -0.1478 -0.8475
 8924SOL    HW138234   0.858   0.182   1.604  0.0534  0.0149 -0.8341
 8924SOL    HW238235   0.779   0.157   1.728  0.4272 -0.7776 -0.6624
 8925SOL     OW38236   0.137   0.569   4.981 -0.0545 -0.0066 -0.6562
 8925SOL    HW138237   0.064   0.524   5.023  1.0148 -2.2531 -1.1979
 8925SOL    HW238238   0.186   0.580   5.063  3.7460  1.2249 -3.0659
 8926SOL     OW38239   1.320   0.144   9.582  0.0609  0.9128  0.0171
 8926SOL    HW138240   1.262   0.078   9.619  0.0387  1.0586  0.2434
 8926SOL    HW238241   1.261   0.168   9.511  1.3720  1.7747 -0.7879
 8927SOL     OW38242   0.561   2.501   0.078  0.1425  0.3840 -0.0161
 8927SOL    HW138243   0.473   2.483   0.045  0.3943  2.2136 -1.6564
 8927SOL    HW238244   0.552   2.577   0.134  2.0257 -1.0065  2.2015
 8928SOL     OW38245   1.669   1.333   6.980 -0.2823 -0.4095  0.1437
 8928SOL    HW138246   1.729   1.383   6.926 -0.5884  0.8596  0.9873
 8928SOL    HW238247   1.723   1.257   7.001  0.6025  0.4290  0.8811
 8929SOL     OW38248   0.640   1.918   7.470  0.1094  0.4393  0.0314
 8929SOL    HW138249   0.699   1.880   7.405 -0.9337  0.9489 -1.2048
 8929SOL    HW238250   0.599   1.986   7.416 -2.5446 -1.0276  0.2156
 8930SOL     OW38251   4.531   4.645   4.279  0.3109 -0.1761 -0.0919
 8930SOL    HW138252   4.463   4.699   4.318  0.6210  0.2190 -0.0913
 8930SOL    HW238253   4.502   4.635   4.188 -1.1291 -1.0725  0.4894
 8931SOL     OW38254   1.170   0.262  11.400  0.3779 -0.0909  0.2564
 8931SOL    HW138255   1.262   0.280  11.383  0.0492  1.8489  0.4670
 8931SOL    HW238256   1.139   0.252  11.310  2.5627 -1.4256 -0.3440
 8932SOL     OW38257   4.141   0.558   2.617  0.0443 -0.6852 -0.1458
 8932SOL    HW138258   4.143   0.633   2.556  0.4131 -0.0245  0.6748
 8932SOL    HW238259   4.147   0.606   2.700  2.4264  0.6397 -1.0724
 8933SOL     OW38260   2.872   4.051  11.471  0.0369  0.0364 -0.1135
 8933SOL    HW138261   2.930   4.033  11.545  1.6457 -0.7231 -1.5290
 8933SOL    HW238262   2.940   4.064  11.404 -0.7075  0.3888 -0.7999
 8934SOL     OW38263   4.358   1.815   3.482  0.6529 -0.2207 -0.2909
 8934SOL    HW138264   4.353   1.811   3.386  2.7909  0.8275 -0.4271
 8934SOL    HW238265   4.309   1.894   3.503 -0.3363 -0.5360 -1.3710
 8935SOL     OW38266   1.004   1.101   2.699  0.2631  0.0629 -0.6394
 8935SOL    HW138267   1.015   1.022   2.645  0.8371 -1.1881  1.2845
 8935SOL    HW238268   0.914   1.122   2.675  0.6106  2.1676 -0.0787
 8936SOL     OW38269   2.245   4.352   3.186 -0.0494 -0.2158  0.1382
 8936SOL    HW138270   2.197   4.370   3.267 -0.3860 -0.1930 -0.0674
 8936SOL    HW238271   2.278   4.440   3.168 -2.3803  0.4642 -0.8280
 8937SOL     OW38272   3.099   4.110  16.079  0.7227  0.0162 -0.1746
 8937SOL    HW138273   3.037   4.075  16.143  1.0838 -1.7578 -0.7943
 8937SOL    HW238274   3.043   4.106  16.001  0.8152  0.4232 -0.2642
 8938SOL     OW38275   3.536   2.738   5.858 -0.1263 -0.7130 -0.5511
 8938SOL    HW138276   3.595   2.737   5.782 -0.3957 -0.7729 -0.7582
 8938SOL    HW238277   3.594   2.709   5.929 -0.7597 -0.9534 -0.1399
 8939SOL     OW38278   2.949   3.341   7.212  0.2337  0.1505  0.3953
 8939SOL    HW138279   2.917   3.395   7.140 -4.7816 -1.0616  1.6851
 8939SOL    HW238280   3.036   3.377   7.227  1.0923 -1.5702 -0.5387
 8940SOL     OW38281   2.081   3.574   5.977  0.2645  0.3299  0.0467
 8940SOL    HW138282   2.060   3.486   5.948  3.8142 -0.9237  1.3144
 8940SOL    HW238283   2.119   3.623   5.904 -2.8216  0.4827 -1.4166
 8941SOL     OW38284   0.521   2.006   7.035 -0.3110 -0.0374  0.1252
 8941SOL    HW138285   0.507   2.042   7.122 -2.4247 -1.4142  0.3761
 8941SOL    HW238286   0.475   1.922   7.046  1.1618 -0.8049  0.3461
 8942SOL     OW38287   3.060   4.016   9.056 -0.4529 -0.3072  0.8893
 8942SOL    HW138288   3.038   3.937   9.106 -1.0890 -0.1609  0.8327
 8942SOL    HW238289   3.049   3.988   8.965  0.2727  0.4597  0.5633
 8943SOL     OW38290   1.997   0.341   3.476 -0.0119  0.4075  0.0276
 8943SOL    HW138291   1.948   0.395   3.538 -1.2854 -2.4427  1.5071
 8943SOL    HW238292   2.087   0.333   3.509  1.1126  1.5277 -2.7888
 8944SOL     OW38293   2.350   3.593   0.402  0.0246  0.7564 -0.0739
 8944SOL    HW138294   2.356   3.520   0.339 -2.3343 -0.3281  0.9490
 8944SOL    HW238295   2.440   3.624   0.406 -0.5457  2.2920  0.9054
 8945SOL     OW38296   3.807   3.959   3.202  0.3777  0.1186  0.4296
 8945SOL    HW138297   3.815   3.864   3.192  0.7298  0.0938  0.9356
 8945SOL    HW238298   3.877   4.001   3.152 -0.7700  0.7493 -0.6340
 8946SOL     OW38299   1.281   4.316   3.560  0.3066 -0.1767  0.4898
 8946SOL    HW138300   1.271   4.341   3.651 -1.0731  0.9157  0.0347
 8946SOL    HW238301   1.354   4.370   3.528  0.4421 -0.1781  0.8003
 8947SOL     OW38302   1.184   1.506  10.446  0.5832 -0.0424 -0.2299
 8947SOL    HW138303   1.275   1.504  10.417  0.9784 -0.4455  1.0541
 8947SOL    HW238304   1.165   1.412  10.448  1.4527 -0.2136 -0.1474
 8948SOL     OW38305   2.048   3.675   9.541 -0.3905 -0.2083 -0.6392
 8948SOL    HW138306   2.121   3.697   9.598 -2.1798  1.4233  1.0289
 8948SOL    HW238307   2.038   3.582   9.559  1.0713 -0.2678 -0.1308
 8949SOL     OW38308   4.690   3.494   5.210  0.3897 -0.0705  0.2123
 8949SOL    HW138309   0.005   3.406   5.204  0.4277 -0.0305 -0.1525
 8949SOL    HW238310   0.047   3.546   5.221  1.4033 -1.0645 -2.2992
 8950SOL     OW38311   2.499   2.159   0.066 -0.4414  0.6037  0.4042
 8950SOL    HW138312   2.554   2.084   0.090  2.7564  2.5562 -0.8163
 8950SOL    HW238313   2.432   2.109   0.018  0.0028  1.3679 -0.9850
 8951SOL     OW38314   2.731   3.295   6.490 -0.2927  0.5353  0.4726
 8951SOL    HW138315   2.658   3.275   6.430  1.3969 -1.8678 -0.7551
 8951SOL    HW238316   2.776   3.211   6.491 -1.7244 -0.1920  2.3822
 8952SOL     OW38317   4.536   4.007  11.057  0.1640 -0.0185  0.4486
 8952SOL    HW138318   4.482   3.995  11.135  0.9022 -0.8035  0.8383
 8952SOL    HW238319   4.598   4.073  11.089 -1.3581  1.1986  0.8643
 8953SOL     OW38320   3.328   1.099   1.787 -1.0027 -0.3589 -0.4192
 8953SOL    HW138321   3.273   1.044   1.843 -3.2666  3.5622  1.1463
 8953SOL    HW238322   3.297   1.071   1.701 -0.3256 -0.5867 -0.5905
 8954SOL     OW38323   0.117   3.840   6.727  0.6614  0.0420 -0.1307
 8954SOL    HW138324   0.144   3.867   6.639  2.2604  0.5426  0.5158
 8954SOL    HW238325   0.090   3.750   6.707 -2.2978  1.2063 -1.2334
 8955SOL     OW38326   2.118   3.986   5.009 -0.1762  0.1422  0.3816
 8955SOL    HW138327   2.151   4.063   4.964 -1.2682  1.0474  1.1378
 8955SOL    HW238328   2.203   3.944   5.022  0.6702  1.7109 -0.0504
 8956SOL     OW38329   0.515   3.677   9.567  0.0753  0.0682  0.5414
 8956SOL    HW138330   0.512   3.582   9.557 -1.0167  0.2984 -1.3555
 8956SOL    HW238331   0.420   3.686   9.575  0.3159  1.6907  1.5887
 8957SOL     OW38332   3.983   2.049   7.243 -0.1671  0.3705  0.3245
 8957SOL    HW138333   4.005   1.985   7.176 -2.4288  2.0285 -1.9998
 8957SOL    HW238334   4.053   2.113   7.235  0.9394 -0.5941  2.2587
 8958SOL     OW38335   4.129   2.776   7.815  0.5022 -0.1917 -0.5483
 8958SOL    HW138336   4.175   2.694   7.829 -0.3060 -0.5664 -0.1152
 8958SOL    HW238337   4.038   2.765   7.843 -0.2691  2.5313 -1.9680
 8959SOL     OW38338   4.031   2.532   3.929 -0.4858 -0.1663 -0.0711
 8959SOL    HW138339   4.063   2.554   4.016 -0.8382  0.6238 -0.1390
 8959SOL    HW238340   3.936   2.546   3.920 -0.0051  1.5954 -2.4070
 8960SOL     OW38341   1.309   2.509   3.612 -0.0319  0.1542  0.8763
 8960SOL    HW138342   1.241   2.520   3.546  0.7519  0.3860  0.1057
 8960SOL    HW238343   1.387   2.523   3.559 -1.1912 -0.1871 -0.9160
 8961SOL     OW38344   3.487   0.779   9.769 -0.0739  0.4464 -0.3997
 8961SOL    HW138345   3.393   0.777   9.748 -0.0601  0.1351 -0.4413
 8961SOL    HW238346   3.477   0.781   9.864 -0.6081  1.7453 -0.4828
 8962SOL     OW38347   3.127   0.542   8.024  0.0241 -0.5492  0.8912
 8962SOL    HW138348   3.158   0.453   8.007 -1.9963 -1.1340  0.3680
 8962SOL    HW238349   3.032   0.533   8.019 -0.1430  0.3470  2.4924
 8963SOL     OW38350   0.826   0.503   7.411  0.1474  0.4308  0.0335
 8963SOL    HW138351   0.763   0.434   7.392  0.8502 -0.1643 -0.1096
 8963SOL    HW238352   0.849   0.522   7.320 -0.8115 -1.6419 -0.6210
 8964SOL     OW38353   3.172   0.889   0.671  0.4055 -0.1881 -0.4067
 8964SOL    HW138354   3.091   0.897   0.619  0.6670  1.9784 -0.4979
 8964SOL    HW238355   3.214   0.970   0.644  0.6613 -0.0617  0.3628
 8965SOL     OW38356   1.583   3.139   2.043  0.2927  0.2578  0.1548
 8965SOL    HW138357   1.626   3.139   1.957 -0.2635 -0.2291 -0.1289
 8965SOL    HW238358   1.491   3.132   2.016 -0.3215  0.2459  2.3109
 8966SOL     OW38359   4.609   1.903   7.937  0.2196 -0.2755 -0.3829
 8966SOL    HW138360   4.660   1.920   7.857  1.4126  4.6740  1.4620
 8966SOL    HW238361   4.684   1.910   7.996 -1.1890  0.6571  1.2655
 8967SOL     OW38362   2.512   2.597   6.468 -0.2518 -0.9286 -0.3651
 8967SOL    HW138363   2.449   2.652   6.422  1.0904 -0.0232 -1.1146
 8967SOL    HW238364   2.454   2.547   6.525 -1.7354 -0.7040 -1.6740
 8968SOL     OW38365   1.025   1.096   4.952 -0.3857  0.4649 -0.1859
 8968SOL    HW138366   1.004   1.010   4.990  0.2686  0.2356 -0.3537
 8968SOL    HW238367   1.048   1.083   4.860  0.9671  3.2702 -0.2289
 8969SOL     OW38368   1.977   3.607   0.564  0.0033 -0.1651  0.0867
 8969SOL    HW138369   1.987   3.558   0.645  2.0452  2.1666  1.2472
 8969SOL    HW238370   1.930   3.535   0.523 -1.0830  0.9547 -0.6434
 8970SOL     OW38371   1.053   0.341   2.351 -0.3750  0.6791  0.2667
 8970SOL    HW138372   1.071   0.404   2.281  0.8043  0.0725  0.0315
 8970SOL    HW238373   0.970   0.379   2.382 -0.7796  0.7263 -0.8739
 8971SOL     OW38374   0.304   1.061  11.729  0.1849 -0.8586  0.2065
 8971SOL    HW138375   0.291   1.046  11.823 -0.9233  1.8378  0.4815
 8971SOL    HW238376   0.398   1.048  11.715  0.6917 -1.5016  4.1405
 8972SOL     OW38377   1.906   2.771   1.834 -0.1639  0.2502  0.2860
 8972SOL    HW138378   1.906   2.866   1.827  1.4296  0.1814 -0.6425
 8972SOL    HW238379   1.934   2.757   1.925 -0.0099  0.6753  0.3039
 8973SOL     OW38380   3.236   4.493   3.283 -0.1667  0.4718 -0.6745
 8973SOL    HW138381   3.143   4.488   3.262  0.0004  0.8387 -1.5142
 8973SOL    HW238382   3.255   4.400   3.298 -0.4689  0.2817 -1.4740
 8974SOL     OW38383   0.061   4.625  10.977 -0.6294  0.0920 -0.3720
 8974SOL    HW138384   0.146   4.580  10.973 -1.7685 -2.0305 -0.8368
 8974SOL    HW238385   0.078   4.710  11.016  1.1485 -0.4709  0.0935
 8975SOL     OW38386   2.501   1.964   5.030 -0.5813  0.1260 -0.0288
 8975SOL    HW138387   2.524   2.033   4.968  1.4495 -1.6490 -1.2227
 8975SOL    HW238388   2.546   1.884   5.004  1.6210  1.1125  0.7171
 8976SOL     OW38389   4.341   3.905   4.859  0.8481  0.1039  0.5009
 8976SOL    HW138390   4.317   3.965   4.788 -1.1880  0.0901  1.1511
 8976SOL    HW238391   4.266   3.904   4.919  1.1639 -0.6560  0.8787
 8977SOL     OW38392   1.785   2.088  15.343 -0.1886  0.2454  0.8565
 8977SOL    HW138393   1.693   2.073  15.365 -0.7937  1.9554 -0.5136
 8977SOL    HW238394   1.804   2.177  15.375  0.2996  0.3445  0.3019
 8978SOL     OW38395   0.982   0.870   6.732 -0.5158  0.3943  0.4204
 8978SOL    HW138396   1.035   0.943   6.700 -0.6383 -0.2284 -1.2405
 8978SOL    HW238397   0.902   0.883   6.682  1.9839  3.7551 -2.6741
 8979SOL     OW38398   4.537   4.241   6.793  0.3882  0.2107 -0.1968
 8979SOL    HW138399   4.480   4.225   6.718 -0.3527  1.5043  0.0851
 8979SOL    HW238400   4.563   4.150   6.800  0.6171  0.1978 -1.1926
 8980SOL     OW38401   2.247   0.840  10.229 -0.2715  0.1319 -0.1348
 8980SOL    HW138402   2.181   0.822  10.296 -0.7030 -0.0621 -0.6065
 8980SOL    HW238403   2.297   0.759  10.215  1.3696  0.9947  0.7664
 8981SOL     OW38404   4.566   2.796   8.368  0.0479  0.2745 -0.0960
 8981SOL    HW138405   4.519   2.820   8.288 -0.5433  1.7575  0.6998
 8981SOL    HW238406   4.517   2.727   8.412 -0.1952  1.6318  1.7428
 8982SOL     OW38407   0.625   4.062   3.454  0.9170 -0.7474  0.6537
 8982SOL    HW138408   0.623   4.035   3.362 -2.7144 -0.4635  0.6315
 8982SOL    HW238409   0.557   4.001   3.482 -0.1175  2.4496  5.0368
 8983SOL     OW38410   2.404   4.111   9.294  0.6626  0.5564  0.3562
 8983SOL    HW138411   2.422   4.192   9.341 -0.1332  0.9321  0.0060
 8983SOL    HW238412   2.489   4.092   9.253  0.3781  0.9461 -0.4001
 8984SOL     OW38413   4.291   3.977   8.019 -0.0925  0.8958  0.1216
 8984SOL    HW138414   4.304   3.936   8.105  0.1102 -1.6945 -1.1618
 8984SOL    HW238415   4.221   3.928   7.977  1.6792 -0.7091 -0.9911
 8985SOL     OW38416   3.546   1.134   1.457 -0.6502  0.2166 -0.5812
 8985SOL    HW138417   3.454   1.119   1.436 -0.9293 -1.9287  2.1622
 8985SOL    HW238418   3.540   1.174   1.543  4.2323 -3.4921  1.5193
 8986SOL     OW38419   3.198   2.091   6.361  0.3875  0.7501 -0.0188
 8986SOL    HW138420   3.107   2.076   6.337  0.4614 -2.0701  1.4686
 8986SOL    HW238421   3.213   2.142   6.281 -0.4644  1.4442  0.2707
 8987SOL     OW38422   4.526   3.288  14.056  0.0686  0.0228 -0.5452
 8987SOL    HW138423   4.588   3.319  13.991  0.1968  1.3356  0.2103
 8987SOL    HW238424   4.465   3.361  14.061 -0.0153 -0.1267  0.5932
 8988SOL     OW38425   0.093   2.767  15.148  0.1034 -0.8058  0.0350
 8988SOL    HW138426   0.095   2.859  15.177  0.6715  0.0653 -2.7995
 8988SOL    HW238427   0.013   2.776  15.095 -0.0844  1.3158  0.6889
 8989SOL     OW38428   4.205   0.861  12.720 -0.4054  0.2970  0.8345
 8989SOL    HW138429   4.170   0.887  12.635 -0.3222  0.1237  0.7481
 8989SOL    HW238430   4.277   0.920  12.743 -0.4448  0.1856  1.2552
 8990SOL     OW38431   3.330   4.378   4.945  0.0492  0.4859  0.0625
 8990SOL    HW138432   3.414   4.420   4.958 -0.2571  1.9740 -2.7852
 8990SOL    HW238433   3.283   4.445   4.895 -0.9873 -1.5105 -1.6669
 8991SOL     OW38434   1.691   0.009   4.169 -0.0119 -0.4564 -0.0004
 8991SOL    HW138435   1.602   0.041   4.165 -0.4155 -1.4126  1.2131
 8991SOL    HW238436   1.681   4.655   4.227 -0.0918  0.0521  0.6506
 8992SOL     OW38437   4.433   3.386   7.200 -0.9762 -0.5297  1.0408
 8992SOL    HW138438   4.474   3.358   7.118 -2.2897 -0.0440  0.2350
 8992SOL    HW238439   4.407   3.302   7.238 -0.3095 -0.6005  1.3390
 8993SOL     OW38440   4.525   2.698   7.416  0.0915 -0.4996 -0.4161
 8993SOL    HW138441   4.595   2.762   7.409 -0.5378  0.2004 -0.3323
 8993SOL    HW238442   4.573   2.620   7.444 -2.7970 -2.6324 -1.3301
 8994SOL     OW38443   0.386   3.105   3.362 -0.3046  0.0623  0.4240
 8994SOL    HW138444   0.337   3.176   3.320 -1.2967 -0.4795  0.6583
 8994SOL    HW238445   0.308   3.077   3.412  0.6035 -0.9098  1.2917
 8995SOL     OW38446   2.252   1.201   3.168  0.2055 -0.2004 -0.2167
 8995SOL    HW138447   2.311   1.151   3.225 -0.1441  0.0314  0.3433
 8995SOL    HW238448   2.250   1.140   3.094  2.6942 -0.9256  0.2983
 8996SOL     OW38449   1.982   3.164  13.076  0.5021 -0.6274  0.0236
 8996SOL    HW138450   1.988   3.112  12.996  1.3515 -0.3802 -0.0773
 8996SOL    HW238451   2.018   3.097  13.133  0.7956 -0.3472  0.1685
 8997SOL     OW38452   3.920   0.051   2.909 -0.3227 -0.1334 -0.5710
 8997SOL    HW138453   3.995   0.045   2.968 -0.7320 -2.6447 -0.2806
 8997SOL    HW238454   3.856   0.105   2.956 -0.1228  1.0300 -1.6508
 8998SOL     OW38455   3.559   0.884   2.889  0.1546  0.2873 -0.0210
 8998SOL    HW138456   3.631   0.830   2.854  1.2262  0.6147  1.6865
 8998SOL    HW238457   3.547   0.943   2.815  2.3703 -0.1394 -0.7319
 8999SOL     OW38458   1.781   3.065  13.279  0.0356 -0.1175  0.3830
 8999SOL    HW138459   1.867   3.077  13.238 -0.6314 -1.4231 -1.3627
 8999SOL    HW238460   1.797   3.036  13.369  0.0093  0.6713  0.6441
 9000SOL     OW38461   1.980   2.525   4.603 -0.4241  0.1706 -0.5175
 9000SOL    HW138462   1.884   2.531   4.600 -0.5728 -1.9861  0.4156
 9000SOL    HW238463   2.003   2.543   4.694  0.5311 -2.1063 -0.3190
 9001SOL     OW38464   2.897   0.420   8.310  0.3853 -0.4334 -0.6415
 9001SOL    HW138465   2.957   0.349   8.328 -0.1301 -1.2617 -2.1778
 9001SOL    HW238466   2.818   0.390   8.355  0.3334  0.6798  0.0319
 9002SOL     OW38467   1.916   3.574   3.069  0.3459  0.3560  0.0113
 9002SOL    HW138468   1.959   3.495   3.101  0.0702  0.0050 -0.4983
 9002SOL    HW238469   1.995   3.627   3.056 -0.0038  0.7523 -0.5168
 9003SOL     OW38470   3.145   1.698   3.893 -0.0753  0.3950  1.0431
 9003SOL    HW138471   3.203   1.625   3.918  0.2892 -0.1726 -1.4954
 9003SOL    HW238472   3.202   1.764   3.854 -1.5671  0.4375 -1.0305
 9004SOL     OW38473   3.209   0.035   9.172  0.1551 -0.0514  0.5020
 9004SOL    HW138474   3.241   0.123   9.152  1.3672 -0.6489 -0.1945
 9004SOL    HW238475   3.117   0.046   9.198  0.4154  0.0455  1.3675
 9005SOL     OW38476   2.519   1.232  12.275  0.0675  0.2991  0.7853
 9005SOL    HW138477   2.608   1.204  12.253  0.5200  0.4946  2.4128
 9005SOL    HW238478   2.480   1.146  12.290  1.4096 -0.4200  0.1848
 9006SOL     OW38479   3.804   0.351   2.597  0.6510 -0.2217 -0.0328
 9006SOL    HW138480   3.712   0.368   2.619  0.1981 -0.1796 -1.9497
 9006SOL    HW238481   3.846   0.372   2.680 -0.8428 -1.2416  0.9662
 9007SOL     OW38482   3.071   2.913  14.353 -0.1250  0.0352 -0.4226
 9007SOL    HW138483   3.018   2.901  14.431 -1.4182  1.4676 -1.0660
 9007SOL    HW238484   3.152   2.870  14.379 -0.1538  1.4688  2.0214
 9008SOL     OW38485   3.291   2.205   5.861  0.1069 -0.3885 -0.4576
 9008SOL    HW138486   3.362   2.148   5.833  0.1688 -1.4159  1.7808
 9008SOL    HW238487   3.286   2.192   5.955  1.3854  0.7155 -0.2404
 9009SOL     OW38488   4.493   2.030   7.509  0.2267  0.5829  0.3629
 9009SOL    HW138489   4.458   2.069   7.428  0.1388 -0.6757 -0.1963
 9009SOL    HW238490   4.572   2.082   7.526 -1.1514  3.3300 -1.5207
 9010SOL     OW38491   0.539   2.549   4.649  1.0059  0.8684  0.0780
 9010SOL    HW138492   0.496   2.608   4.712  0.1304 -0.4020  0.6806
 9010SOL    HW238493   0.625   2.590   4.640  0.2642  1.8738 -2.3562
 9011SOL     OW38494   2.356   0.826   8.678  0.1996 -0.6301 -0.0938
 9011SOL    HW138495   2.292   0.781   8.623 -0.9919 -0.6632  1.3131
 9011SOL    HW238496   2.349   0.916   8.646  0.1313 -0.2217  1.0648
 9012SOL     OW38497   4.564   1.159   5.657  0.5493 -0.1474 -0.8285
 9012SOL    HW138498   4.604   1.100   5.594 -0.0347 -1.2615 -0.1567
 9012SOL    HW238499   4.614   1.131   5.734  0.8090  0.8629 -0.6343
 9013SOL     OW38500   0.077   2.849   8.475 -0.2336 -0.2475 -0.1956
 9013SOL    HW138501   0.133   2.771   8.484  0.6884  0.4296 -0.1196
 9013SOL    HW238502   4.714   2.815   8.448  0.5486 -0.6526 -2.1763
 9014SOL     OW38503   2.654   3.005   6.309  0.7469 -0.1868  0.4686
 9014SOL    HW138504   2.699   2.933   6.353  2.5199  1.0056  0.6069
 9014SOL    HW238505   2.612   3.056   6.379  1.6661 -0.6722  1.3654
 9015SOL     OW38506   0.650   0.286   6.725  0.1573 -0.3324 -0.6809
 9015SOL    HW138507   0.706   0.323   6.793 -1.1541 -1.3453  0.9595
 9015SOL    HW238508   0.684   0.198   6.711 -0.9070 -0.8044 -0.3223
 9016SOL     OW38509   0.448   2.832  14.549 -0.5696 -0.6010  0.0288
 9016SOL    HW138510   0.405   2.764  14.601  0.5483 -0.4004  1.2104
 9016SOL    HW238511   0.471   2.790  14.466 -0.5288 -1.3203  0.4085
 9017SOL     OW38512   0.575   0.389  10.084  0.6571 -0.2472 -0.1852
 9017SOL    HW138513   0.501   0.449  10.086 -1.7085 -3.2537  0.8249
 9017SOL    HW238514   0.650   0.449  10.089 -0.0577  0.8661 -2.6003
 9018SOL     OW38515   3.485   0.024   4.805  0.5573 -0.6314 -0.1879
 9018SOL    HW138516   3.396   0.057   4.792  0.1316 -1.4989  0.5132
 9018SOL    HW238517   3.515   0.010   4.716 -0.0026  0.4395 -0.5450
 9019SOL     OW38518   1.180   3.785   8.223  0.2492  0.7159 -0.3128
 9019SOL    HW138519   1.150   3.798   8.313  1.2687 -1.4590  0.3503
 9019SOL    HW238520   1.248   3.720   8.244 -0.9966 -0.3491  0.4369
 9020SOL     OW38521   4.613   0.859  11.421 -0.3067 -1.2862 -0.5390
 9020SOL    HW138522   4.698   0.857  11.465 -1.2355  1.6670  1.3377
 9020SOL    HW238523   4.632   0.902  11.337  0.2031 -0.1396  0.1698
 9021SOL     OW38524   3.084   0.958   2.560 -0.0287 -0.1269 -0.1805
 9021SOL    HW138525   3.145   0.892   2.528  1.4800  1.3076 -0.2575
 9021SOL    HW238526   3.015   0.942   2.496 -0.2248 -1.8507  0.4493
 9022SOL     OW38527   4.291   3.264   9.081 -0.6021 -0.1581  0.3594
 9022SOL    HW138528   4.243   3.338   9.042  1.3661  0.8792 -0.0897
 9022SOL    HW238529   4.281   3.199   9.012  0.4225 -1.2538  1.2533
 9023SOL     OW38530   1.315   3.858   2.695  0.3806  0.0274  0.0114
 9023SOL    HW138531   1.226   3.828   2.713  0.3675  0.1343  0.1267
 9023SOL    HW238532   1.343   3.814   2.614  1.2603 -1.0478  0.8952
 9024SOL     OW38533   2.317   3.181   4.087 -0.3735 -0.3332 -0.1334
 9024SOL    HW138534   2.237   3.194   4.037 -2.2231 -1.3620  2.5517
 9024SOL    HW238535   2.365   3.128   4.024 -2.4614 -2.0069 -0.3136
 9025SOL     OW38536   4.116   3.696   4.120 -0.5640 -0.4338 -0.1048
 9025SOL    HW138537   4.107   3.646   4.039  1.9096  0.7467 -1.0996
 9025SOL    HW238538   4.034   3.680   4.166 -0.4440 -2.6059 -0.6534
 9026SOL     OW38539   0.479   3.479   0.805 -0.0700  0.2055 -0.0750
 9026SOL    HW138540   0.389   3.456   0.782 -0.5986  1.3389  0.8313
 9026SOL    HW238541   0.492   3.562   0.760 -0.1611 -0.2368 -0.9128
 9027SOL     OW38542   1.508   3.956   9.927 -0.1306 -0.2198  0.3988
 9027SOL    HW138543   1.525   4.033   9.981  2.4863  0.1986 -1.0487
 9027SOL    HW238544   1.598   3.927   9.915  0.3075  1.2967 -0.0316
 9028SOL     OW38545   0.964   1.963   8.098 -0.1292  0.1201 -0.3114
 9028SOL    HW138546   0.876   1.961   8.135 -1.0530 -0.1977 -2.5364
 9028SOL    HW238547   0.944   2.012   8.019  0.3072 -0.3173 -0.6920
 9029SOL     OW38548   4.573   2.337   2.351 -0.4489  0.2084  0.2419
 9029SOL    HW138549   4.617   2.304   2.272 -2.3213 -1.0162 -0.3037
 9029SOL    HW238550   4.604   2.425   2.370 -2.3785  0.5147  1.9367
 9030SOL     OW38551   2.975   0.997   3.381  0.0240  0.2520 -0.2070
 9030SOL    HW138552   3.051   1.055   3.373  0.1151  0.2973  1.0338
 9030SOL    HW238553   2.973   0.947   3.299 -0.2264 -1.3307  0.7848
 9031SOL     OW38554   3.171   1.361   7.561  0.0827  0.5054  0.4552
 9031SOL    HW138555   3.136   1.436   7.513 -1.5076  0.0330  0.8709
 9031SOL    HW238556   3.102   1.346   7.625 -0.9355  0.1577 -0.7364
 9032SOL     OW38557   4.344   2.669  16.096  0.5317 -0.0451  0.2719
 9032SOL    HW138558   4.356   2.658  16.190 -2.5664  0.5473  0.7540
 9032SOL    HW238559   4.329   2.764  16.092  1.8465  0.1277 -0.4460
 9033SOL     OW38560   0.988   1.217   3.606 -0.3508 -0.2127  0.1154
 9033SOL    HW138561   1.012   1.146   3.665  0.3118  0.6747  0.9035
 9033SOL    HW238562   0.894   1.200   3.605  0.0178 -2.2019 -1.0784
 9034SOL     OW38563   2.524   0.126   7.419  0.0286  0.3899 -0.3190
 9034SOL    HW138564   2.557   0.071   7.348  1.9910 -1.1941  1.8079
 9034SOL    HW238565   2.463   0.185   7.376  0.0194  0.3882 -0.3085
 9035SOL     OW38566   2.485   4.251  12.728 -0.7649 -0.4284 -0.7092
 9035SOL    HW138567   2.574   4.218  12.713 -1.0946 -0.4116 -2.6177
 9035SOL    HW238568   2.470   4.294  12.644 -0.1998  0.7418 -0.2112
 9036SOL     OW38569   1.002   1.706   7.914  0.7288 -0.3212 -0.3336
 9036SOL    HW138570   1.052   1.784   7.938 -2.2661  1.2189  0.7400
 9036SOL    HW238571   0.915   1.744   7.906  1.9792  1.9267 -3.5328
 9037SOL     OW38572   2.367   1.463   8.670  0.0127  0.5893 -0.6976
 9037SOL    HW138573   2.355   1.535   8.731  1.0053 -0.6787  0.9906
 9037SOL    HW238574   2.451   1.430   8.702 -0.3941 -0.1724 -0.4037
 9038SOL     OW38575   0.550   4.137  10.256 -0.3224  0.2778 -0.1780
 9038SOL    HW138576   0.635   4.094  10.246 -0.3193  0.3051 -0.2765
 9038SOL    HW238577   0.506   4.063  10.298  1.0404 -0.6842 -0.4457
 9039SOL     OW38578   1.925   4.111   0.310 -0.2887  0.2756  0.1065
 9039SOL    HW138579   1.941   4.024   0.274 -0.8666 -0.1254  0.8385
 9039SOL    HW238580   1.987   4.168   0.262  0.2253  1.2917  1.9842
 9040SOL     OW38581   0.212   4.530  15.579 -0.3614  0.0521 -0.6001
 9040SOL    HW138582   0.301   4.559  15.564  1.2089 -3.4485  1.9137
 9040SOL    HW238583   0.184   4.601  15.637  1.0192 -1.6072  2.1132
 9041SOL     OW38584   1.375   0.426   0.793  0.2428 -0.1009 -0.2391
 9041SOL    HW138585   1.397   0.333   0.785 -1.1022 -0.3820 -0.7607
 9041SOL    HW238586   1.369   0.458   0.703  0.8135  1.2971  0.2230
 9042SOL     OW38587   3.846   3.454  16.881  0.4992 -0.8592 -0.0491
 9042SOL    HW138588   3.859   3.432  16.789  0.7177 -0.9139 -0.0067
 9042SOL    HW238589   3.807   3.541  16.884 -1.1069 -1.5593 -0.5097
 9043SOL     OW38590   3.851   2.098   3.295  0.0359  0.0025  0.2419
 9043SOL    HW138591   3.812   2.027   3.243  1.5559 -0.9748  0.4494
 9043SOL    HW238592   3.849   2.066   3.385  1.9658 -2.8728 -0.7343
 9044SOL     OW38593   4.131   4.284  15.330  0.1297 -0.3599  0.1838
 9044SOL    HW138594   4.055   4.240  15.292 -1.1239  0.6109  1.5940
 9044SOL    HW238595   4.152   4.318  15.243 -2.5093 -0.9319 -0.6591
 9045SOL     OW38596   2.083   3.151   6.287  0.1554 -0.0355 -0.5169
 9045SOL    HW138597   2.082   3.184   6.198  1.0201  0.4728 -0.3343
 9045SOL    HW238598   2.151   3.207   6.323 -0.4807 -0.6013  1.6006
 9046SOL     OW38599   3.593   0.314   0.755 -0.0375 -0.4665 -0.1332
 9046SOL    HW138600   3.599   0.221   0.777  1.7073 -0.4903 -0.7511
 9046SOL    HW238601   3.510   0.324   0.802  0.0688  0.9470 -0.2438
 9047SOL     OW38602   0.374   1.399  15.205  0.9586 -0.1396  0.3509
 9047SOL    HW138603   0.320   1.329  15.241 -0.7396  0.2076 -1.5457
 9047SOL    HW238604   0.359   1.386  15.112 -0.7486  0.9788  0.4545
 9048SOL     OW38605   4.071   3.860   5.962 -0.3574 -0.4144  0.0504
 9048SOL    HW138606   4.006   3.818   6.019  0.6019  0.3900  1.7679
 9048SOL    HW238607   4.044   3.834   5.874 -1.3431  0.7739 -0.0018
 9049SOL     OW38608   1.814   0.744  15.119 -0.4713  0.3859  0.1496
 9049SOL    HW138609   1.903   0.778  15.136  0.7174 -2.2899 -0.7364
 9049SOL    HW238610   1.777   0.757  15.206  0.6863  0.0701  0.6971
 9050SOL     OW38611   0.935   1.921   1.466 -0.1311 -0.5356 -0.1909
 9050SOL    HW138612   0.935   1.944   1.559 -1.7225  0.5818 -0.4684
 9050SOL    HW238613   0.883   1.840   1.465 -1.1571  0.1310  0.2001
 9051SOL     OW38614   3.729   0.653   4.719 -0.3478  0.9368 -0.2352
 9051SOL    HW138615   3.717   0.689   4.631 -0.6070 -0.1924 -0.6632
 9051SOL    HW238616   3.819   0.685   4.731 -0.9870  1.6444  2.7152
 9052SOL     OW38617   2.451   3.000  11.946 -0.3778  0.2505  0.4802
 9052SOL    HW138618   2.511   3.062  11.987 -0.7289  1.6690 -1.1569
 9052SOL    HW238619   2.389   3.043  11.887  0.5128  3.4310  1.8717
 9053SOL     OW38620   0.128   0.355  12.624 -0.3795  0.3533 -0.0105
 9053SOL    HW138621   0.104   0.265  12.600  0.3192 -0.1003  1.0064
 9053SOL    HW238622   0.222   0.355  12.609 -0.4367  0.6845 -0.3552
 9054SOL     OW38623   1.019   2.641  17.431  0.8654 -0.0261  0.5557
 9054SOL    HW138624   0.929   2.646  17.401  0.9348 -0.5666  0.2515
 9054SOL    HW238625   1.014   2.713  17.493 -2.6880 -0.7494  1.0807
 9055SOL     OW38626   4.041   3.620   9.210 -0.1611 -0.4924  0.2215
 9055SOL    HW138627   4.118   3.577   9.249  0.9951  0.1319 -1.3800
 9055SOL    HW238628   3.979   3.548   9.222 -1.1211 -0.2369 -3.1829
 9056SOL     OW38629   1.106   4.400  12.773  0.2925 -0.4913 -0.7224
 9056SOL    HW138630   1.096   4.412  12.867 -3.0396  1.2059 -1.2639
 9056SOL    HW238631   1.025   4.355  12.749  0.2251 -0.2801 -0.8958
 9057SOL     OW38632   4.342   0.367  15.407 -0.2150 -0.5176 -0.0990
 9057SOL    HW138633   4.333   0.443  15.464 -0.4458  0.6273 -1.6617
 9057SOL    HW238634   4.253   0.333  15.417  0.6348 -2.4052  1.1705
 9058SOL     OW38635   2.269   3.470   8.524  0.3728 -0.0972 -0.0894
 9058SOL    HW138636   2.342   3.490   8.464 -1.1635 -0.5037 -2.1058
 9058SOL    HW238637   2.210   3.440   8.454  0.3449 -1.5755  0.5605
 9059SOL     OW38638   1.619   0.441   9.551 -0.6177  0.2129  0.2047
 9059SOL    HW138639   1.600   0.368   9.610 -1.8870 -0.5505 -1.1445
 9059SOL    HW238640   1.643   0.509   9.615 -0.3795  0.2306  0.0939
 9060SOL     OW38641   0.759   3.690   3.607 -0.0479 -0.0900  0.6678
 9060SOL    HW138642   0.749   3.783   3.627 -1.5266  0.2224 -1.6107
 9060SOL    HW238643   0.845   3.679   3.648  0.7155 -4.8738 -2.2745
 9061SOL     OW38644   0.917   4.042  15.556 -0.4319  0.3489 -0.0708
 9061SOL    HW138645   0.903   3.971  15.618 -0.5614 -0.1683 -0.6998
 9061SOL    HW238646   1.006   4.074  15.574 -0.2364  1.1677 -2.3912
 9062SOL     OW38647   2.552   2.501   3.286 -0.1341  0.0203  0.3323
 9062SOL    HW138648   2.473   2.551   3.305 -0.4940 -0.3392 -0.2174
 9062SOL    HW238649   2.536   2.455   3.204  2.7259 -0.1929 -0.1055
 9063SOL     OW38650   2.243   1.665   0.760  0.2926  0.8819 -0.1618
 9063SOL    HW138651   2.195   1.624   0.688  0.6084 -0.8916  0.6495
 9063SOL    HW238652   2.214   1.756   0.748  0.6875  1.0451  0.1139
 9064SOL     OW38653   4.605   4.482   5.299  0.0875 -0.0737 -0.0722
 9064SOL    HW138654   4.635   4.548   5.362  0.0771 -0.5913  0.4687
 9064SOL    HW238655   4.510   4.493   5.304 -0.2606 -2.2592 -2.1609
 9065SOL     OW38656   2.900   0.029   2.526 -0.2196  0.4664 -0.1395
 9065SOL    HW138657   2.837   4.682   2.547 -2.5699  2.6326  0.0575
 9065SOL    HW238658   2.941   4.717   2.447 -2.7089 -0.8312 -0.8595
 9066SOL     OW38659   0.324   4.069   7.420  0.3705 -0.3842 -0.3644
 9066SOL    HW138660   0.314   4.035   7.509  1.1760 -0.3034 -0.2410
 9066SOL    HW238661   0.331   4.160   7.447  0.6678 -0.3714 -0.4852
 9067SOL     OW38662   0.802   2.756  14.558  0.1934  0.3377  0.2625
 9067SOL    HW138663   0.739   2.711  14.614  1.4773  0.1874  1.5918
 9067SOL    HW238664   0.856   2.678  14.543 -0.6328  0.0733 -1.3129
 9068SOL     OW38665   3.676   0.054   0.663  0.2815  0.0435  0.0733
 9068SOL    HW138666   3.755   4.722   0.671 -0.5186 -1.4200 -1.9185
 9068SOL    HW238667   3.711   0.112   0.596  0.3346 -0.2664 -0.1680
 9069SOL     OW38668   2.863   1.109  15.610  0.6173 -0.0386 -0.4967
 9069SOL    HW138669   2.949   1.072  15.591 -0.4019 -1.6001 -2.1754
 9069SOL    HW238670   2.885   1.182  15.667 -0.6861  0.4537 -0.6198
 9070SOL     OW38671   0.245   3.937   6.470  0.4709 -0.1514 -0.1310
 9070SOL    HW138672   0.326   3.914   6.425  0.6542  1.0478 -0.3943
 9070SOL    HW238673   0.194   3.976   6.400 -2.1393 -0.6883  1.4971
 9071SOL     OW38674   1.899   1.035   2.794 -0.2386 -0.6400 -0.0124
 9071SOL    HW138675   1.809   1.068   2.795 -0.0255 -0.0956  1.3945
 9071SOL    HW238676   1.891   0.975   2.721  4.0164 -0.8712 -0.3222
 9072SOL     OW38677   4.210   0.755  15.892 -0.2908 -0.2623  0.4374
 9072SOL    HW138678   4.174   0.827  15.840  0.1681  0.2792  0.8767
 9072SOL    HW238679   4.257   0.810  15.954  2.1102 -2.4574  0.5725
 9073SOL     OW38680   3.306   2.936   5.856 -0.2524  0.1938  0.6858
 9073SOL    HW138681   3.400   2.933   5.876 -0.1746  0.8375  0.4051
 9073SOL    HW238682   3.275   2.875   5.923  1.0592 -1.2984 -0.0645
 9074SOL     OW38683   0.563   3.575   2.166  0.5043 -0.2723 -0.4838
 9074SOL    HW138684   0.596   3.531   2.087  1.0886 -0.3346 -0.1993
 9074SOL    HW238685   0.583   3.667   2.148 -1.0521  0.2251  0.3242
 9075SOL     OW38686   0.338   2.165   8.228  0.4443  0.1925  0.0666
 9075SOL    HW138687   0.347   2.077   8.191  0.4354 -0.3165  1.2662
 9075SOL    HW238688   0.430   2.175   8.253  0.6250  1.0503 -0.9864
 9076SOL     OW38689   2.123   0.401   7.059  0.2937 -0.0284 -0.8420
 9076SOL    HW138690   2.122   0.484   7.105  1.7001  0.8537 -2.3869
 9076SOL    HW238691   2.208   0.361   7.074  0.9021  0.5489 -2.7379
 9077SOL     OW38692   2.469   0.917   7.616 -0.2298 -0.4119 -0.4585
 9077SOL    HW138693   2.431   0.940   7.701  1.1426  0.0583  0.0369
 9077SOL    HW238694   2.522   0.996   7.603 -0.2160 -1.0197 -3.8979
 9078SOL     OW38695   4.721   3.885   7.755 -0.2099 -0.0488 -0.4901
 9078SOL    HW138696   0.025   3.967   7.797 -0.7560 -1.0764  1.8369
 9078SOL    HW238697   0.073   3.877   7.694 -0.2384 -0.1152 -0.5157
 9079SOL     OW38698   2.787   1.161   4.547 -0.1063  0.2951  0.2066
 9079SOL    HW138699   2.729   1.157   4.624 -1.7796  0.0431 -1.0681
 9079SOL    HW238700   2.792   1.070   4.519  1.8770  0.1719  0.9457
 9080SOL     OW38701   3.594   0.985   6.591  0.0510 -0.0559 -0.6155
 9080SOL    HW138702   3.522   0.922   6.590 -0.4988  0.5947 -2.8610
 9080SOL    HW238703   3.547   1.068   6.604  1.8344  0.7768  0.4973
 9081SOL     OW38704   3.449   2.459   2.238  0.1896 -0.4936 -0.0541
 9081SOL    HW138705   3.494   2.421   2.162 -1.4016 -0.3674 -1.0651
 9081SOL    HW238706   3.465   2.385   2.296 -0.4392 -1.9754 -1.7602
 9082SOL     OW38707   3.264   2.763   8.984 -0.9898 -0.1362  0.1254
 9082SOL    HW138708   3.271   2.667   8.985  2.0225  0.1074  1.9208
 9082SOL    HW238709   3.174   2.781   9.010 -1.5603 -0.0464 -1.9353
 9083SOL     OW38710   1.376   2.978  10.844  0.1551  0.0906  0.0426
 9083SOL    HW138711   1.440   3.048  10.831  0.2565  0.2553  1.4183
 9083SOL    HW238712   1.389   2.943  10.756 -1.1109  0.5164 -0.3228
 9084SOL     OW38713   1.105   2.772   0.403 -0.0943 -0.5378 -0.1291
 9084SOL    HW138714   1.103   2.797   0.310  0.1188 -0.3334 -0.0799
 9084SOL    HW238715   1.079   2.681   0.390  1.6062 -1.2992  1.7716
 9085SOL     OW38716   0.040   0.281   3.901 -0.2436 -0.6226 -0.1171
 9085SOL    HW138717   0.038   0.377   3.899 -1.4112 -0.6399  0.1815
 9085SOL    HW238718   4.673   0.253   3.880  0.4944 -1.7601 -1.7471
 9086SOL     OW38719   4.004   0.213   8.391 -0.4351  0.1176 -0.1563
 9086SOL    HW138720   3.963   0.133   8.359  2.0545 -1.4974  0.7043
 9086SOL    HW238721   4.021   0.254   8.307  0.5169  3.1915  1.5176
 9087SOL     OW38722   4.297   1.270   1.891 -0.2947  0.0967  0.5018
 9087SOL    HW138723   4.236   1.241   1.824 -0.7535  0.3591  0.8009
 9087SOL    HW238724   4.367   1.205   1.887  0.7723  1.4444 -2.1830
 9088SOL     OW38725   0.360   3.764  16.459  0.2532  0.2538 -0.0597
 9088SOL    HW138726   0.397   3.749  16.546  1.1329 -0.4612 -0.5466
 9088SOL    HW238727   0.293   3.695  16.457  0.4065  0.0457  1.7463
 9089SOL     OW38728   4.159   2.348  15.931 -0.5175 -0.0142 -0.2856
 9089SOL    HW138729   4.202   2.377  15.851 -0.3906 -3.3486 -1.4093
 9089SOL    HW238730   4.079   2.401  15.936 -0.8215 -0.3613 -1.5021
 9090SOL     OW38731   0.197   0.972   3.288  0.2282 -0.8722 -0.0799
 9090SOL    HW138732   0.241   1.030   3.227 -1.1933  0.1854 -0.1090
 9090SOL    HW238733   0.269   0.922   3.326  2.1559  1.6271 -0.4705
 9091SOL     OW38734   3.649   1.732   5.326 -0.0832 -0.1879  0.5404
 9091SOL    HW138735   3.607   1.735   5.240  0.3372 -1.2789  0.3044
 9091SOL    HW238736   3.668   1.823   5.348 -1.4521  0.0629  0.6776
 9092SOL     OW38737   4.363   2.324  17.026 -0.1014  0.1207 -0.1171
 9092SOL    HW138738   4.438   2.329  17.086 -0.1325 -0.4439 -0.0237
 9092SOL    HW238739   4.318   2.240  17.037 -2.1914  1.0313 -1.8560
 9093SOL     OW38740   1.154   0.456   4.297 -0.3248  0.2558 -0.0375
 9093SOL    HW138741   1.095   0.436   4.225 -2.8341  0.5911  1.9042
 9093SOL    HW238742   1.204   0.524   4.252 -1.3404 -0.3383 -2.0485
 9094SOL     OW38743   0.399   4.612   6.481 -0.1924  0.2308  0.1953
 9094SOL    HW138744   0.312   4.653   6.489 -0.2576  0.4213 -1.5214
 9094SOL    HW238745   0.447   4.687   6.444 -1.1284  0.4227 -0.6290
 9095SOL     OW38746   0.201   0.815   1.969  0.3205 -0.1058 -0.2652
 9095SOL    HW138747   0.192   0.778   2.057 -2.9991 -0.1952 -0.6240
 9095SOL    HW238748   0.278   0.774   1.930  0.3450 -1.3833  1.1249
 9096SOL     OW38749   0.140   3.902  15.661  0.4627 -0.9614  0.7083
 9096SOL    HW138750   0.081   3.967  15.699  1.2334 -1.2519  2.3810
 9096SOL    HW238751   0.145   3.925  15.568  1.1735  1.5618  1.3780
 9097SOL     OW38752   2.956   3.171   2.792 -0.1555 -0.6756 -0.3253
 9097SOL    HW138753   2.988   3.124   2.716 -0.3769 -1.4705  0.0781
 9097SOL    HW238754   2.920   3.251   2.754  2.6984  1.3636  1.2282
 9098SOL     OW38755   2.242   0.229   5.517 -0.0009  0.7890  0.3738
 9098SOL    HW138756   2.292   0.192   5.590 -0.3941  2.9138  1.7281
 9098SOL    HW238757   2.244   0.322   5.538  0.5985  0.9247 -0.2647
 9099SOL     OW38758   0.567   1.936   5.669 -0.0047 -0.3271  0.0481
 9099SOL    HW138759   0.563   1.985   5.587 -0.2029 -2.7330 -1.3734
 9099SOL    HW238760   0.659   1.945   5.694  0.1867  1.1914 -1.2041
 9100SOL     OW38761   3.641   0.648   7.400  0.2185  0.0522 -0.2227
 9100SOL    HW138762   3.683   0.569   7.366 -2.1766 -1.3903  0.1521
 9100SOL    HW238763   3.566   0.614   7.449  0.5777  1.8140  1.5153
 9101SOL     OW38764   1.594   0.454   7.281 -0.1860 -0.0029 -0.2806
 9101SOL    HW138765   1.638   0.479   7.362  2.7231  1.0181 -2.1982
 9101SOL    HW238766   1.504   0.472   7.308 -0.1334 -1.3764  0.8079
 9102SOL     OW38767   4.665   2.203   1.540  0.0317  0.5237 -0.2312
 9102SOL    HW138768   4.571   2.190   1.548  0.0878 -0.5640 -1.4756
 9102SOL    HW238769   4.677   2.270   1.608  1.5467 -1.4282  1.4447
 9103SOL     OW38770   3.821   3.804  11.541  0.0837 -0.4341 -0.4986
 9103SOL    HW138771   3.905   3.837  11.572 -1.9612  1.9314  2.5112
 9103SOL    HW238772   3.826   3.831  11.449 -2.4126 -0.7197 -0.7155
 9104SOL     OW38773   2.010   1.193   9.998 -0.2920  0.3873 -0.5247
 9104SOL    HW138774   1.953   1.123  10.031 -0.7619  2.1081  2.2985
 9104SOL    HW238775   2.086   1.150  10.036 -0.2277  1.5601  0.6529
 9105SOL     OW38776   2.452   1.086  17.557  0.0184 -0.4074 -0.6466
 9105SOL    HW138777   2.514   1.109  17.626 -0.2751  0.4682 -0.6772
 9105SOL    HW238778   2.374   1.066  17.610  0.8051  1.9017  1.3249
 9106SOL     OW38779   2.790   2.338   8.429 -0.3523 -0.1110 -0.2198
 9106SOL    HW138780   2.701   2.370   8.445  0.2635  1.5059  0.0283
 9106SOL    HW238781   2.801   2.360   8.336  2.5130  0.5619  0.2576
 9107SOL     OW38782   2.436   1.441   8.139  0.5527 -0.6129 -0.2291
 9107SOL    HW138783   2.434   1.537   8.134  1.3785 -0.5619  0.3558
 9107SOL    HW238784   2.427   1.425   8.233 -2.1559 -1.6866 -0.6691
 9108SOL     OW38785   4.082   4.411   4.157  0.2410 -0.0374 -0.4758
 9108SOL    HW138786   4.174   4.410   4.182  0.1071  0.3690  0.0412
 9108SOL    HW238787   4.094   4.418   4.063 -2.4362  1.6438 -0.7068
 9109SOL     OW38788   0.976   2.113   8.794  0.4665  0.5454 -0.2454
 9109SOL    HW138789   1.016   2.187   8.748 -1.4417  0.5519 -1.9124
 9109SOL    HW238790   1.047   2.083   8.851  1.8873  1.4869 -1.5262
 9110SOL     OW38791   2.646   4.158   2.057  1.0321 -0.1269  0.0800
 9110SOL    HW138792   2.562   4.187   2.091  0.7481 -0.3621 -0.4150
 9110SOL    HW238793   2.681   4.231   2.006 -1.6772  1.6517  0.7521
 9111SOL     OW38794   3.957   3.472  16.367 -0.4302 -0.7038  0.2428
 9111SOL    HW138795   4.002   3.405  16.316  0.3149  0.4079 -0.5534
 9111SOL    HW238796   4.013   3.546  16.343  1.3482 -1.5026  2.0010
 9112SOL     OW38797   1.532   1.545   4.572 -0.1751 -0.2856 -0.2794
 9112SOL    HW138798   1.459   1.555   4.511  0.4255  0.4592 -0.8821
 9112SOL    HW238799   1.497   1.503   4.650  1.1551 -1.3714 -0.2611
 9113SOL     OW38800   4.174   4.707  15.821  0.3727  0.3739 -0.7895
 9113SOL    HW138801   4.132   4.689  15.736  2.3381 -0.4725 -1.5748
 9113SOL    HW238802   4.178   0.078  15.799 -1.6393  0.4036 -1.0083
 9114SOL     OW38803   0.943   1.847  10.845 -0.9461 -0.0129  0.3655
 9114SOL    HW138804   0.922   1.831  10.937 -1.3847  0.0259  0.2749
 9114SOL    HW238805   0.874   1.908  10.818 -1.3257 -1.6692 -2.4302
 9115SOL     OW38806   1.646   3.110  10.869  0.1727 -0.0350  0.2886
 9115SOL    HW138807   1.602   3.131  10.952  0.2446  1.1961  0.0191
 9115SOL    HW238808   1.736   3.103  10.900  0.3526  0.8698 -0.0364
 9116SOL     OW38809   2.455   1.394   6.924  0.3523  0.6321 -0.5907
 9116SOL    HW138810   2.460   1.381   7.019  0.3668 -0.6607 -0.7777
 9116SOL    HW238811   2.383   1.458   6.927 -0.0040  0.2694 -1.5011
 9117SOL     OW38812   2.359   0.129   3.859  0.5355 -0.0260 -0.4548
 9117SOL    HW138813   2.319   0.149   3.775  0.2646 -0.5283 -0.4449
 9117SOL    HW238814   2.433   0.189   3.867  0.5783 -0.3839  1.8913
 9118SOL     OW38815   1.706   2.468   2.384 -0.1045 -0.4308 -0.4643
 9118SOL    HW138816   1.686   2.464   2.477 -0.8442 -0.7698 -0.6380
 9118SOL    HW238817   1.784   2.413   2.377  0.1973  0.0756 -1.1236
 9119SOL     OW38818   2.331   3.876   4.803 -0.0284 -0.2784  0.0056
 9119SOL    HW138819   2.378   3.926   4.869  0.0549 -0.4468  0.0759
 9119SOL    HW238820   2.323   3.787   4.838  0.6829  0.0610  1.0485
 9120SOL     OW38821   2.184   2.512   2.380  0.1242 -0.2788  0.1509
 9120SOL    HW138822   2.129   2.556   2.446  0.4173  1.8476 -1.0314
 9120SOL    HW238823   2.253   2.576   2.364 -0.0483  0.2305  1.3725
 9121SOL     OW38824   2.162   1.921   8.220 -0.5851 -1.1442 -0.2817
 9121SOL    HW138825   2.223   1.958   8.156 -1.1000 -0.2533 -0.2609
 9121SOL    HW238826   2.110   2.000   8.234  0.5360 -0.2126 -1.2986
 9122SOL     OW38827   4.684   3.559   1.238  1.1750  0.6626 -0.1543
 9122SOL    HW138828   0.036   3.609   1.272  0.7396  2.4480 -1.8323
 9122SOL    HW238829   0.005   3.476   1.219  2.3179  0.7859  1.9112
 9123SOL     OW38830   4.592   3.836  10.851  0.1241 -0.4550 -0.7521
 9123SOL    HW138831   4.496   3.836  10.843  0.2731  1.2106 -2.5232
 9123SOL    HW238832   4.602   3.909  10.912 -2.0551 -0.2914 -0.5777
 9124SOL     OW38833   1.898   4.639  12.441 -0.3651  0.1607 -0.4168
 9124SOL    HW138834   1.989   4.610  12.444  0.1970  2.1106  1.1650
 9124SOL    HW238835   1.904   4.721  12.393  0.9438  1.0265  1.2363
 9125SOL     OW38836   2.680   0.009   5.572 -0.0721  0.5143  0.0963
 9125SOL    HW138837   2.615   0.014   5.642  1.1023  1.1958  1.1195
 9125SOL    HW238838   2.710   4.642   5.591 -2.5735 -0.4171 -0.1916
 9126SOL     OW38839   1.194   3.459   5.621  0.0449 -1.0830 -0.5694
 9126SOL    HW138840   1.167   3.522   5.688  0.3044 -1.2624 -0.2992
 9126SOL    HW238841   1.168   3.505   5.542  2.1570  1.2280  0.0964
 9127SOL     OW38842   2.575   1.070  16.919 -0.5787 -0.7699 -0.3757
 9127SOL    HW138843   2.517   1.108  16.853 -1.0349 -0.4309  0.2227
 9127SOL    HW238844   2.650   1.077  16.861  0.3872  2.1559  1.2352
 9128SOL     OW38845   0.468   3.833   5.654 -0.2299 -0.0687  0.0337
 9128SOL    HW138846   0.524   3.793   5.721  0.1459 -1.6294 -1.2044
 9128SOL    HW238847   0.528   3.842   5.579 -0.8243  1.3849 -0.2630
 9129SOL     OW38848   2.210   0.691   4.264  0.1302  0.3532  0.2179
 9129SOL    HW138849   2.158   0.760   4.305  0.7749 -1.1404  3.5594
 9129SOL    HW238850   2.202   0.622   4.330 -1.4092 -0.9403 -1.2939
 9130SOL     OW38851   0.533   1.869  16.695 -0.2231 -0.5401  0.1611
 9130SOL    HW138852   0.478   1.923  16.752  0.7204  0.1056  0.4549
 9130SOL    HW238853   0.618   1.906  16.719 -0.9042  0.9103  0.3227
 9131SOL     OW38854   2.325   2.359  10.203  0.2870 -0.2703  0.0980
 9131SOL    HW138855   2.382   2.312  10.143  0.2918 -0.4981  0.2816
 9131SOL    HW238856   2.378   2.424  10.250 -0.1041  0.1870 -0.0843
 9132SOL     OW38857   2.015   0.240   4.562  0.1956  0.1214 -0.1364
 9132SOL    HW138858   2.082   0.219   4.497  2.1150 -3.2773  2.9043
 9132SOL    HW238859   2.059   0.202   4.638  0.3635 -1.3673 -0.9843
 9133SOL     OW38860   1.056   1.898   6.217 -0.4084  0.4324 -0.3840
 9133SOL    HW138861   1.087   1.988   6.225 -4.2808  1.6439  1.0908
 9133SOL    HW238862   1.009   1.899   6.134  1.6360 -2.3939 -1.5839
 9134SOL     OW38863   0.340   3.505   2.319 -0.8090  0.3885 -0.1336
 9134SOL    HW138864   0.404   3.540   2.257 -0.3806 -0.5711 -0.2298
 9134SOL    HW238865   0.393   3.474   2.392  0.0238  0.3508 -0.7632
 9135SOL     OW38866   0.709   0.500   3.333  0.2024 -0.0757  0.2053
 9135SOL    HW138867   0.785   0.540   3.374  0.8252 -0.3946 -0.6419
 9135SOL    HW238868   0.730   0.527   3.243  2.4504 -1.1165  0.4394
 9136SOL     OW38869   4.597   2.450  16.191  0.4843  0.1129 -0.5598
 9136SOL    HW138870   4.519   2.475  16.239 -0.5714  0.2226 -2.3349
 9136SOL    HW238871   4.549   2.442  16.108 -1.1128 -0.1800  0.3976
 9137SOL     OW38872   2.168   0.414  13.136 -0.3930  0.6729 -0.4275
 9137SOL    HW138873   2.140   0.361  13.062 -1.6014 -1.6524  1.7133
 9137SOL    HW238874   2.164   0.505  13.105 -0.8662  1.5113  2.1121
 9138SOL     OW38875   1.292   2.998  15.367 -0.5037 -0.3393  0.0697
 9138SOL    HW138876   1.314   2.915  15.409 -0.8049 -0.1548  0.5846
 9138SOL    HW238877   1.366   3.006  15.306 -0.6042  0.2971  0.0390
 9139SOL     OW38878   1.977   4.580   0.900  0.4674  0.3417  0.4319
 9139SOL    HW138879   2.019   4.495   0.910 -0.0698  0.1479  0.9902
 9139SOL    HW238880   1.901   4.572   0.957 -0.0776  0.9503 -0.2122
 9140SOL     OW38881   2.830   4.485   3.030  0.2053 -0.6500 -0.0391
 9140SOL    HW138882   2.880   4.565   3.047 -1.9614  0.7528 -0.3093
 9140SOL    HW238883   2.803   4.460   3.119  0.2005 -0.7066 -0.0564
 9141SOL     OW38884   2.828   3.703  15.546 -0.3869 -0.0021 -0.3002
 9141SOL    HW138885   2.872   3.640  15.488  0.1409 -0.8130  0.9867
 9141SOL    HW238886   2.834   3.782  15.492  0.1915  2.0100  2.7324
 9142SOL     OW38887   4.070   2.651  10.141 -0.4254 -0.5314  0.0126
 9142SOL    HW138888   3.988   2.613  10.109 -0.3416 -1.1409  0.5317
 9142SOL    HW238889   4.022   2.733  10.156  1.7549  0.9647 -1.1491
 9143SOL     OW38890   2.036   2.746  12.005  0.2106  0.3336  0.7296
 9143SOL    HW138891   1.960   2.745  11.946  0.5502 -2.2860  0.3267
 9143SOL    HW238892   2.084   2.820  11.969 -1.4885 -0.0346 -2.3542
 9144SOL     OW38893   0.244   0.962   7.198 -0.0462  0.3867  0.2754
 9144SOL    HW138894   0.208   1.025   7.260 -1.4175 -1.1078  1.0066
 9144SOL    HW238895   0.171   0.909   7.166  1.4347 -2.4059  1.5356
 9145SOL     OW38896   1.133   3.494   6.600  0.1985  0.1586 -0.4442
 9145SOL    HW138897   1.107   3.482   6.691 -1.9890  0.2394 -1.0560
 9145SOL    HW238898   1.049   3.524   6.564 -1.6619  0.5374  4.1691
 9146SOL     OW38899   3.730   1.366  14.178  0.6103  0.1382  0.2525
 9146SOL    HW138900   3.667   1.437  14.163 -1.1864 -2.0852 -2.7943
 9146SOL    HW238901   3.805   1.424  14.189  0.8917 -0.1365 -0.2635
 9147SOL     OW38902   1.336   0.537   5.994  0.2729  0.0336  0.2670
 9147SOL    HW138903   1.275   0.466   5.973 -0.8498  1.3697 -0.9940
 9147SOL    HW238904   1.298   0.606   5.939  1.2308  0.6975  0.4458
 9148SOL     OW38905   2.507   0.458   4.469  0.4605  0.5525 -0.1637
 9148SOL    HW138906   2.592   0.467   4.512 -0.2727  0.1219  1.3511
 9148SOL    HW238907   2.483   0.378   4.515 -0.2062 -0.3230 -2.0327
 9149SOL     OW38908   3.694   0.469  13.271  0.2740  0.0559 -0.0965
 9149SOL    HW138909   3.742   0.532  13.217 -2.5306  0.0180 -2.5763
 9149SOL    HW238910   3.766   0.406  13.275 -0.8097 -1.3652 -3.9476
 9150SOL     OW38911   0.850   3.442   3.160 -0.1293 -0.3902 -0.7371
 9150SOL    HW138912   0.825   3.529   3.192  2.7058 -0.4276  1.5741
 9150SOL    HW238913   0.897   3.403   3.233  0.1530  2.0723  0.4259
 9151SOL     OW38914   0.426   1.362   5.464 -0.2038 -0.2110 -0.2853
 9151SOL    HW138915   0.502   1.322   5.421  1.7629  1.2251  1.7958
 9151SOL    HW238916   0.453   1.355   5.556 -1.3352 -2.7709 -0.1553
 9152SOL     OW38917   2.437   3.346   7.445  0.0055 -0.4258  0.5720
 9152SOL    HW138918   2.394   3.424   7.409  0.4496 -1.2789 -1.8161
 9152SOL    HW238919   2.406   3.288   7.375 -1.2419 -1.6831  2.1639
 9153SOL     OW38920   2.782   2.635   2.694 -0.1941  0.1958  0.0523
 9153SOL    HW138921   2.721   2.646   2.621  0.4614  2.0643 -0.2214
 9153SOL    HW238922   2.867   2.647   2.650  1.3200 -2.9437  2.1551
 9154SOL     OW38923   1.857   1.534   8.561 -0.3880 -0.5932  0.4355
 9154SOL    HW138924   1.844   1.528   8.467  1.5538 -0.5780  0.1813
 9154SOL    HW238925   1.952   1.535   8.562 -0.3846  0.1493 -0.4889
 9155SOL     OW38926   1.559   2.273  14.076  0.7451 -0.6810 -0.2781
 9155SOL    HW138927   1.541   2.302  13.986 -0.9180  2.0139  0.9342
 9155SOL    HW238928   1.640   2.224  14.062 -0.1252 -1.1481 -3.6881
 9156SOL     OW38929   0.022   3.609  10.924  0.4946  0.3074  0.7658
 9156SOL    HW138930   4.679   3.667  10.884  2.4369  0.2833 -2.4440
 9156SOL    HW238931   0.099   3.663  10.939  1.0374 -0.5927  1.2398
 9157SOL     OW38932   3.104   1.392   3.466  0.3157  0.1594  0.3148
 9157SOL    HW138933   3.139   1.316   3.419 -0.6031  0.3125 -0.6072
 9157SOL    HW238934   3.058   1.346   3.536  0.8114  0.6391  0.9523
 9158SOL     OW38935   0.741   2.313   3.176  0.5302 -0.5972 -0.0935
 9158SOL    HW138936   0.731   2.246   3.243  3.2608  0.2336  1.1523
 9158SOL    HW238937   0.837   2.314   3.170  0.5327 -0.6928 -0.0699
 9159SOL     OW38938   3.235   4.054  10.115  0.1645 -0.5730  0.0012
 9159SOL    HW138939   3.262   4.070  10.205  1.0762  2.3136 -0.7973
 9159SOL    HW238940   3.316   4.070  10.066  0.6176 -0.8829  0.6582
 9160SOL     OW38941   2.890   2.048   6.289  0.3159 -0.4823  0.6920
 9160SOL    HW138942   2.893   2.119   6.225  1.7238 -0.6533  0.5820
 9160SOL    HW238943   2.891   1.974   6.230 -1.1565  0.2577 -0.2606
 9161SOL     OW38944   2.140   4.322  16.816 -0.1427  0.1025 -0.0363
 9161SOL    HW138945   2.088   4.289  16.743  0.4147  0.2935 -0.5273
 9161SOL    HW238946   2.082   4.371  16.874  1.8006  2.8264 -0.4044
 9162SOL     OW38947   0.135   1.870   3.198  0.2732  0.0196 -0.2098
 9162SOL    HW138948   0.216   1.919   3.189  0.3992 -0.1384  0.0764
 9162SOL    HW238949   0.102   1.887   3.110  0.5866 -2.0714 -0.7363
 9163SOL     OW38950   0.938   3.700   8.055 -0.1382 -0.2270 -0.1582
 9163SOL    HW138951   0.926   3.777   7.999 -0.5510  0.5079  0.9510
 9163SOL    HW238952   1.016   3.729   8.104 -0.1441 -1.3207  0.4890
 9164SOL     OW38953   1.948   1.899   1.532  0.0645 -0.6610  0.3646
 9164SOL    HW138954   2.001   1.976   1.514 -1.8304  0.5933  0.1815
 9164SOL    HW238955   1.936   1.913   1.626 -1.7898  1.5574 -0.2064
 9165SOL     OW38956   0.088   2.052   5.623  0.3132 -0.0193 -0.0002
 9165SOL    HW138957   0.136   2.058   5.706 -3.5445  2.6467  2.0683
 9165SOL    HW238958   0.155   2.062   5.555  0.7313 -0.3345  0.3608
 9166SOL     OW38959   4.058   3.368   2.454 -0.3979 -0.2052  0.6213
 9166SOL    HW138960   4.045   3.294   2.395  1.1000  1.6505 -2.0530
 9166SOL    HW238961   4.008   3.444   2.424 -1.0713 -0.0070  2.2526
 9167SOL     OW38962   2.999   3.968  14.528 -0.4990  0.0049 -0.2226
 9167SOL    HW138963   3.033   4.047  14.571 -1.1453 -0.4794  1.1808
 9167SOL    HW238964   2.927   3.945  14.587  1.0586  1.0898  2.1144
 9168SOL     OW38965   3.505   1.113   2.714 -0.2727  0.4676  0.2973
 9168SOL    HW138966   3.559   1.155   2.648  0.6932  0.2237  0.9423
 9168SOL    HW238967   3.420   1.146   2.685 -1.6339 -1.7134  1.7639
 9169SOL     OW38968   1.915   1.227   3.812 -0.4068 -0.7546 -0.5329
 9169SOL    HW138969   1.921   1.296   3.878  1.3380 -0.9575 -0.4805
 9169SOL    HW238970   1.980   1.254   3.748  1.0688 -3.0050  0.0123
 9170SOL     OW38971   1.129   2.729   5.095 -0.0812  0.1472 -0.5355
 9170SOL    HW138972   1.047   2.693   5.128  0.5555  0.9830  1.9683
 9170SOL    HW238973   1.098   2.820   5.091  1.7133  0.8819  1.6727
 9171SOL     OW38974   3.501   3.132   8.295  0.3313 -0.2389 -0.4441
 9171SOL    HW138975   3.460   3.047   8.312  1.1512 -0.3246  1.0532
 9171SOL    HW238976   3.570   3.103   8.235 -1.2325  0.5351 -2.6267
 9172SOL     OW38977   4.461   2.203   8.737 -0.0323  0.1170  0.4959
 9172SOL    HW138978   4.372   2.168   8.727  0.7748 -1.7101 -0.3277
 9172SOL    HW238979   4.465   2.265   8.664 -2.7421  0.9622  1.0602
 9173SOL     OW38980   1.741   4.240   3.504  0.2089  0.4660  0.7324
 9173SOL    HW138981   1.690   4.168   3.541  1.5692 -1.1533 -0.5266
 9173SOL    HW238982   1.673   4.306   3.493  1.3125  1.4539 -0.0736
 9174SOL     OW38983   0.306   4.072  12.898  0.4416 -0.5202 -0.2284
 9174SOL    HW138984   0.342   4.130  12.832  0.0943 -1.3423 -1.1505
 9174SOL    HW238985   0.370   4.001  12.893  1.7151  0.7568 -1.6600
 9175SOL     OW38986   3.613   0.325   5.885  0.1395 -0.4240  0.1717
 9175SOL    HW138987   3.582   0.383   5.815  1.6496  0.1998  0.0247
 9175SOL    HW238988   3.534   0.326   5.940 -0.1875  1.5421 -0.3229
 9176SOL     OW38989   3.463   1.317  17.658 -0.2707  0.2962 -0.1720
 9176SOL    HW138990   3.536   1.263  17.687 -1.7863 -1.3440  0.6023
 9176SOL    HW238991   3.474   1.301  17.564  0.6520  3.8335 -0.6714
 9177SOL     OW38992   2.260   2.125  14.733  0.1605 -0.7772 -0.0040
 9177SOL    HW138993   2.183   2.085  14.775 -0.0185  0.0330  0.4395
 9177SOL    HW238994   2.227   2.179  14.662  0.0389  0.6553  1.1522
 9178SOL     OW38995   3.929   3.960   2.324  0.0636  0.1758 -0.7241
 9178SOL    HW138996   3.845   3.962   2.277  0.1465 -1.0049 -0.9236
 9178SOL    HW238997   3.955   4.051   2.310 -1.1043  0.4194 -1.3499
 9179SOL     OW38998   0.846   0.502   7.705  0.2253 -0.0956  0.2298
 9179SOL    HW138999   0.787   0.559   7.755  0.8369  2.1806 -1.6860
 9179SOL    HW239000   0.795   0.487   7.626 -0.2920  2.0348  0.1660
 9180SOL     OW39001   0.634   3.692  10.326  0.2404 -0.1027 -0.4159
 9180SOL    HW139002   0.665   3.744  10.252  0.7470 -1.2116 -0.9818
 9180SOL    HW239003   0.578   3.760  10.366  1.0749  0.7650 -0.7174
 9181SOL     OW39004   0.790   3.197   2.752 -0.6561 -0.1631 -0.2606
 9181SOL    HW139005   0.863   3.229   2.803 -0.0835 -0.7872 -0.6827
 9181SOL    HW239006   0.729   3.173   2.822 -0.0607  2.2240  1.0468
 9182SOL     OW39007   2.420   4.182   6.757  0.3368 -0.4261  0.5453
 9182SOL    HW139008   2.362   4.136   6.818 -2.0105  1.7218 -0.0337
 9182SOL    HW239009   2.510   4.164   6.783  1.1863  0.1276 -1.9425
 9183SOL     OW39010   1.082   4.188   8.115  0.1333  0.2051  0.7405
 9183SOL    HW139011   1.162   4.153   8.076 -0.4684 -0.7682  0.3757
 9183SOL    HW239012   1.083   4.149   8.202  0.9571 -2.3421 -0.4159
 9184SOL     OW39013   3.953   3.946   5.326  0.1346  0.5443 -0.0794
 9184SOL    HW139014   3.991   3.948   5.414  1.3230 -0.4758 -0.5580
 9184SOL    HW239015   3.879   3.886   5.333  0.7154 -0.2084 -0.2532
 9185SOL     OW39016   4.355   3.106  15.410 -0.3620 -0.0585  0.1799
 9185SOL    HW139017   4.426   3.043  15.395 -0.6974 -0.1793 -0.9544
 9185SOL    HW239018   4.282   3.048  15.389 -0.4632 -0.3591  1.3985
 9186SOL     OW39019   4.502   0.939  14.198 -0.8830  0.3356  0.0568
 9186SOL    HW139020   4.568   0.886  14.243  0.5042  1.1871 -0.9843
 9186SOL    HW239021   4.554   0.994  14.140 -2.2002 -1.2321 -2.5736
 9187SOL     OW39022   3.333   1.116  13.153 -0.0689 -0.1735  0.5762
 9187SOL    HW139023   3.377   1.176  13.213 -1.4130  0.9264  0.4445
 9187SOL    HW239024   3.365   1.153  13.071 -2.0455 -1.5055 -0.8091
 9188SOL     OW39025   2.750   3.873   2.846  0.0373 -0.6188  0.1297
 9188SOL    HW139026   2.796   3.917   2.917  0.8593  4.0589 -3.2694
 9188SOL    HW239027   2.818   3.811   2.820 -0.9675 -0.6500 -2.4866
 9189SOL     OW39028   3.753   1.460  15.710  0.7968  0.2009 -0.1546
 9189SOL    HW139029   3.681   1.405  15.741  0.4518 -0.0840 -1.4799
 9189SOL    HW239030   3.810   1.392  15.675 -1.3362 -0.7997 -1.7272
 9190SOL     OW39031   0.280   4.434   8.747 -0.3169 -0.1120  0.0061
 9190SOL    HW139032   0.283   4.483   8.830  0.6572 -1.3586  0.7178
 9190SOL    HW239033   0.302   4.498   8.679 -0.1807 -0.6994 -0.4978
 9191SOL     OW39034   3.470   2.619  12.392 -0.2882 -0.5079  0.4180
 9191SOL    HW139035   3.405   2.595  12.326 -0.3570 -0.7359  0.5654
 9191SOL    HW239036   3.452   2.713  12.389 -0.0340 -0.4927 -0.4386
 9192SOL     OW39037   4.273   0.718  17.401  0.1279 -0.1454 -0.5037
 9192SOL    HW139038   4.258   0.629  17.432 -0.4908  0.1069 -0.0639
 9192SOL    HW239039   4.349   0.733  17.457 -0.6220 -0.5866  0.6544
 9193SOL     OW39040   4.081   2.732   8.163 -0.4288  0.4183 -0.3031
 9193SOL    HW139041   4.070   2.664   8.097 -1.6152  1.8374 -1.5501
 9193SOL    HW239042   4.163   2.773   8.135 -0.9660  1.1318 -0.8063
 9194SOL     OW39043   1.049   2.978   2.002 -0.2455  0.0550 -0.5378
 9194SOL    HW139044   0.973   3.006   1.951 -1.8218 -0.7662  1.3831
 9194SOL    HW239045   1.013   2.980   2.090  3.6455  0.9376  1.0201
 9195SOL     OW39046   1.267   3.807   0.883 -0.5245  0.3516 -0.5000
 9195SOL    HW139047   1.234   3.847   0.802  0.1157 -0.4954 -1.1768
 9195SOL    HW239048   1.194   3.749   0.905  1.0030 -1.5273 -0.3502
 9196SOL     OW39049   1.802   2.856   2.528 -0.2542  0.6817 -0.9315
 9196SOL    HW139050   1.818   2.875   2.436  1.0528  0.9858 -0.6389
 9196SOL    HW239051   1.771   2.943   2.554  1.8257  0.4791  2.2700
 9197SOL     OW39052   4.225   4.248  13.283  0.6639 -0.0438 -0.1678
 9197SOL    HW139053   4.269   4.174  13.326 -0.2080  0.0069  0.8080
 9197SOL    HW239054   4.304   4.296  13.255 -0.3070  1.1289 -0.8950
 9198SOL     OW39055   3.515   4.330   5.711  0.0398 -0.0223  0.1214
 9198SOL    HW139056   3.456   4.397   5.679 -0.6410 -1.9680 -2.6539
 9198SOL    HW239057   3.579   4.385   5.757 -0.2337  1.9999 -1.9209
 9199SOL     OW39058   1.754   3.850   9.913 -0.2128 -0.7346 -0.0124
 9199SOL    HW139059   1.825   3.875   9.972  0.5467 -2.5292 -0.1506
 9199SOL    HW239060   1.789   3.829   9.827 -1.3279  1.7648 -1.0484
 9200SOL     OW39061   4.489   3.647  13.132 -0.5831 -0.2987  0.6753
 9200SOL    HW139062   4.441   3.710  13.186  0.1775  0.7757  0.0888
 9200SOL    HW239063   4.503   3.692  13.049 -2.2823 -1.7775 -0.4003
 9201SOL     OW39064   3.904   2.872  12.774  0.0984 -0.0262  0.3242
 9201SOL    HW139065   3.975   2.852  12.835  0.0939 -2.1237 -0.3483
 9201SOL    HW239066   3.848   2.794  12.781  0.0513  0.0455  0.7790
 9202SOL     OW39067   3.582   1.446   2.126 -0.1199  0.4568 -0.1333
 9202SOL    HW139068   3.526   1.483   2.057 -1.3668 -0.8101  0.2096
 9202SOL    HW239069   3.567   1.352   2.119 -0.9667  0.8268 -3.5060
 9203SOL     OW39070   0.617   2.200   1.607 -0.4740  0.3278 -0.2432
 9203SOL    HW139071   0.603   2.142   1.533  1.7931 -0.8220  0.2392
 9203SOL    HW239072   0.623   2.136   1.678  1.4814  1.6390  0.7807
 9204SOL     OW39073   0.816   3.025   1.790 -0.0299 -0.4136 -0.1343
 9204SOL    HW139074   0.723   3.016   1.811  0.2836 -3.8227 -0.3136
 9204SOL    HW239075   0.815   3.018   1.694  0.0302  0.0721 -0.1701
 9205SOL     OW39076   1.332   1.845   3.746  0.1872  0.2276  0.4002
 9205SOL    HW139077   1.386   1.916   3.782  1.9172 -0.8141 -0.1823
 9205SOL    HW239078   1.328   1.791   3.825 -2.1075  0.2899  0.3373
 9206SOL     OW39079   4.380   2.464  12.255 -0.6966 -0.3081  0.1991
 9206SOL    HW139080   4.288   2.446  12.276 -0.0709 -2.6609  0.9286
 9206SOL    HW239081   4.423   2.381  12.274 -0.1541 -0.3430 -1.2295
 9207SOL     OW39082   1.798   0.944   7.953  0.1012 -0.2506 -0.0509
 9207SOL    HW139083   1.763   0.998   7.882 -0.7982 -0.5159  0.1903
 9207SOL    HW239084   1.758   0.860   7.931 -1.9668  1.2093 -1.7737
 9208SOL     OW39085   2.475   2.755   4.969 -0.8885  0.1855 -0.1060
 9208SOL    HW139086   2.430   2.799   5.042  2.0893  2.4581  0.3500
 9208SOL    HW239087   2.420   2.678   4.957  0.2634 -0.6126 -0.2540
 9209SOL     OW39088   0.677   2.763   6.857  0.0667 -0.5895  0.2918
 9209SOL    HW139089   0.696   2.699   6.925 -1.0424  1.7271  2.7714
 9209SOL    HW239090   0.706   2.715   6.780  1.1997 -1.7798  1.4587
 9210SOL     OW39091   2.779   2.396  13.391 -0.4462 -0.5707  0.1722
 9210SOL    HW139092   2.868   2.400  13.428 -0.7956 -0.1695  0.9608
 9210SOL    HW239093   2.777   2.303  13.367  0.2350 -0.5259 -0.0730
 9211SOL     OW39094   3.903   3.612   3.484 -0.0475 -0.3231  0.0070
 9211SOL    HW139095   3.858   3.695   3.497 -0.2905 -0.7288  1.7388
 9211SOL    HW239096   3.845   3.559   3.538  0.0436  1.0500  1.4356
 9212SOL     OW39097   4.289   0.257   4.576 -0.1124  0.7164 -0.1010
 9212SOL    HW139098   4.213   0.307   4.605 -0.8544 -0.6128  0.2387
 9212SOL    HW239099   4.358   0.321   4.560  2.2769 -2.1843 -1.5337
 9213SOL     OW39100   0.720   2.485  16.716 -0.3729 -0.3398 -0.2949
 9213SOL    HW139101   0.811   2.463  16.695 -0.8123  0.2748 -2.8342
 9213SOL    HW239102   0.674   2.500  16.634  0.6077 -0.9606 -0.9561
 9214SOL     OW39103   2.761   4.180   2.321  0.5986  0.6604  0.4354
 9214SOL    HW139104   2.765   4.275   2.312  2.3021  0.5556  0.1125
 9214SOL    HW239105   2.748   4.150   2.231  2.8866 -0.5824  0.5234
 9215SOL     OW39106   1.460   0.985   1.815  0.0815 -0.0001  0.1084
 9215SOL    HW139107   1.443   0.894   1.791  0.5409  0.4513 -1.9451
 9215SOL    HW239108   1.399   1.030   1.757 -0.6082 -1.4708 -0.3247
 9216SOL     OW39109   0.384   1.735  12.492 -0.0311 -0.0383  0.1519
 9216SOL    HW139110   0.315   1.674  12.522 -0.2226  0.3183  0.4395
 9216SOL    HW239111   0.424   1.669  12.435 -0.7790  2.4705 -3.2113
 9217SOL     OW39112   2.023   4.564   4.265  0.9191  0.8457  0.3151
 9217SOL    HW139113   2.047   4.557   4.357  0.4522  0.7634  0.4309
 9217SOL    HW239114   2.072   4.491   4.228 -2.9229 -0.6937 -1.7911
 9218SOL     OW39115   4.154   1.042   5.155 -0.0720 -0.3236  0.2332
 9218SOL    HW139116   4.225   1.104   5.142 -0.5050  0.4184  1.3726
 9218SOL    HW239117   4.091   1.062   5.086 -0.6605 -1.8953  0.3044
 9219SOL     OW39118   3.354   4.692   5.769 -0.4776 -0.0979  0.6898
 9219SOL    HW139119   3.277   4.635   5.771 -1.8697  1.8446  2.6742
 9219SOL    HW239120   3.372   4.683   5.676 -1.9885  0.5794  0.3366
 9220SOL     OW39121   0.996   1.329   4.293  0.1931 -0.4936 -0.2978
 9220SOL    HW139122   1.030   1.267   4.357  0.2790  0.0391  0.1793
 9220SOL    HW239123   0.910   1.300   4.265  0.0648 -0.9147  0.5481
 9221SOL     OW39124   0.929   3.856  14.957  0.2079  0.4005  0.5222
 9221SOL    HW139125   0.943   3.844  14.863  1.1411  0.0038  0.7070
 9221SOL    HW239126   0.975   3.939  14.963 -0.2367  0.8025 -1.7935
 9222SOL     OW39127   4.434   0.711   2.909 -0.2624 -0.3698  0.5404
 9222SOL    HW139128   4.422   0.616   2.906 -2.0332 -0.1017 -1.2601
 9222SOL    HW239129   4.524   0.724   2.878 -0.7015 -0.8454 -0.9227
 9223SOL     OW39130   2.719   1.763   3.164 -0.2208  0.0045 -0.1216
 9223SOL    HW139131   2.735   1.808   3.247  1.9350 -0.0141 -0.5201
 9223SOL    HW239132   2.624   1.751   3.170 -0.2658  0.8646  0.8513
 9224SOL     OW39133   1.355   1.332   8.543 -0.0895  0.0530 -0.3865
 9224SOL    HW139134   1.300   1.257   8.521 -1.3767  0.8287  0.2064
 9224SOL    HW239135   1.365   1.368   8.455 -1.7861 -1.5615 -1.2326
 9225SOL     OW39136   0.198   4.092  14.120  0.2093 -0.1810 -0.0073
 9225SOL    HW139137   0.181   4.143  14.041 -0.7585  1.6569  1.4123
 9225SOL    HW239138   0.143   4.136  14.184 -0.7990 -0.4018 -0.7272
 9226SOL     OW39139   1.742   0.859   4.642  0.0244  0.5146  0.1470
 9226SOL    HW139140   1.686   0.844   4.718  0.3580 -0.3856  0.2102
 9226SOL    HW239141   1.822   0.816   4.674  0.1617 -1.8872 -3.4839
 9227SOL     OW39142   4.464   2.992   8.609  0.1320 -0.6831 -0.3698
 9227SOL    HW139143   4.480   2.906   8.649  0.8175  0.4910  1.8933
 9227SOL    HW239144   4.499   2.980   8.521  3.4863 -0.7670  0.9748
 9228SOL     OW39145   1.563   0.538   5.252 -0.4228  0.3384  0.1608
 9228SOL    HW139146   1.576   0.496   5.337 -2.0161 -1.6397 -0.5657
 9228SOL    HW239147   1.648   0.581   5.256  1.0925 -2.6501  0.5232
 9229SOL     OW39148   2.076   3.889   0.673  0.3618 -0.2757 -0.5039
 9229SOL    HW139149   2.101   3.850   0.589 -1.2211 -1.2816 -0.5096
 9229SOL    HW239150   2.036   3.971   0.642 -0.8999 -0.2993  1.0639
 9230SOL     OW39151   4.319   2.947   4.663  0.2864 -0.1653 -0.0533
 9230SOL    HW139152   4.386   2.905   4.608  0.2828 -1.9907  1.3486
 9230SOL    HW239153   4.316   3.040   4.642 -1.6585  0.9113  4.9302
 9231SOL     OW39154   3.034   4.688   2.981 -0.2372  0.5459 -0.1312
 9231SOL    HW139155   3.087   0.002   3.052  0.9496 -1.7809  0.1619
 9231SOL    HW239156   3.069   0.018   2.909  0.0673  0.5018 -0.0153
 9232SOL     OW39157   1.241   4.719   2.355 -0.2031  0.1586  0.3289
 9232SOL    HW139158   1.156   0.035   2.332 -0.0662 -0.0864 -0.5559
 9232SOL    HW239159   1.218   4.675   2.437  2.1712 -0.9702  0.3783
 9233SOL     OW39160   0.026   2.326   3.467  0.0754  0.1500  0.1699
 9233SOL    HW139161   4.679   2.285   3.416  0.9467 -1.5672  0.3708
 9233SOL    HW239162   0.020   2.276   3.549  0.5089 -0.3060 -0.0792
 9234SOL     OW39163   0.873   4.274   7.067  0.2277 -0.8154  0.4056
 9234SOL    HW139164   0.781   4.254   7.055  0.2703 -1.4631  1.1676
 9234SOL    HW239165   0.874   4.370   7.060  1.6618 -0.9270 -0.9676
 9235SOL     OW39166   1.269   4.246   7.767  0.0532 -0.1329  0.3807
 9235SOL    HW139167   1.240   4.268   7.678 -1.6485 -1.2698  0.6465
 9235SOL    HW239168   1.191   4.290   7.802 -0.7850 -0.5692 -0.9115
 9236SOL     OW39169   0.736   2.923  11.520 -0.1338 -0.1559  0.5186
 9236SOL    HW139170   0.661   2.977  11.495  1.3485  1.8866  0.4338
 9236SOL    HW239171   0.809   2.979  11.494  0.0587 -0.0386  1.2981
 9237SOL     OW39172   1.355   3.607   9.753 -0.7066  0.0413 -0.8047
 9237SOL    HW139173   1.285   3.545   9.772 -0.1098 -0.1113  0.9073
 9237SOL    HW239174   1.319   3.684   9.797 -0.5882 -0.4563  0.1775
 9238SOL     OW39175   3.189   0.481   6.130  0.1228 -0.4275 -0.4315
 9238SOL    HW139176   3.281   0.467   6.109 -0.2206 -0.2193 -2.0612
 9238SOL    HW239177   3.136   0.444   6.059 -0.0573 -2.7334  0.9120
 9239SOL     OW39178   3.925   0.096  12.013  0.1592 -0.3280 -0.2559
 9239SOL    HW139179   3.890   0.145  11.939  0.9718  0.4028 -0.1609
 9239SOL    HW239180   4.018   0.116  12.002  0.3510 -0.9830  0.1673
 9240SOL     OW39181   0.097   4.103   4.767 -0.0522  0.0140  0.2853
 9240SOL    HW139182   0.156   4.147   4.828 -0.9991 -2.3028  2.8652
 9240SOL    HW239183   0.034   4.056   4.822  0.9581  0.2594  1.6678
 9241SOL     OW39184   1.119   1.967   1.111 -0.1382  0.1381  0.5300
 9241SOL    HW139185   1.075   2.030   1.167 -0.0594  0.5109  0.1661
 9241SOL    HW239186   1.185   1.944   1.177 -1.9269 -0.5153  2.1052
 9242SOL     OW39187   3.977   3.250   4.605  0.0307  1.1615 -0.1883
 9242SOL    HW139188   3.962   3.201   4.686  0.7075  1.1366 -0.0714
 9242SOL    HW239189   4.020   3.323   4.651  3.2812 -2.0397  1.8869
 9243SOL     OW39190   0.767   3.396  16.667 -0.8229 -0.0154 -0.0550
 9243SOL    HW139191   0.828   3.460  16.702 -2.4394  2.9428 -2.6927
 9243SOL    HW239192   0.827   3.341  16.616 -0.7629  0.4431 -0.4692
 9244SOL     OW39193   4.099   2.154  15.090  0.5226 -0.4257  0.6948
 9244SOL    HW139194   4.042   2.147  15.167  0.2519 -0.4705  0.4924
 9244SOL    HW239195   4.037   2.167  15.018  1.3815  0.1019  0.0486
 9245SOL     OW39196   1.946   0.357   6.193 -0.5891 -0.7513 -0.6687
 9245SOL    HW139197   2.001   0.385   6.266 -0.6844  1.0982 -1.2951
 9245SOL    HW239198   1.921   0.268   6.217 -1.4648 -0.3380 -0.0300
 9246SOL     OW39199   2.949   0.447  16.159 -0.4650 -0.1253  0.3069
 9246SOL    HW139200   2.914   0.533  16.136  1.2106  1.0425  2.1475
 9246SOL    HW239201   3.035   0.472  16.193 -0.5975 -1.2425  1.4973
 9247SOL     OW39202   2.689   3.208   7.160  0.1311  0.0701  0.3816
 9247SOL    HW139203   2.658   3.250   7.080 -3.2603 -1.0675  1.1303
 9247SOL    HW239204   2.781   3.234   7.172 -0.5841  2.3802  0.9424
 9248SOL     OW39205   4.331   0.532  16.552  0.9036 -0.0017  0.2375
 9248SOL    HW139206   4.330   0.444  16.589 -0.0650  0.4363  1.2493
 9248SOL    HW239207   4.332   0.506  16.460  0.3598 -0.8352  0.4730
 9249SOL     OW39208   0.955   2.412  17.600 -0.3062  0.1550 -0.4389
 9249SOL    HW139209   0.962   2.434   0.002 -0.3747 -0.1009 -0.3725
 9249SOL    HW239210   1.026   2.456  17.554  2.4797 -2.0329  1.8001
 9250SOL     OW39211   1.273   4.688   8.982  0.7257 -0.3838  0.4758
 9250SOL    HW139212   1.353   4.663   9.029  0.0781 -0.4372  1.5566
 9250SOL    HW239213   1.246   0.051   9.016 -3.2665 -1.7830  0.8655
 9251SOL     OW39214   3.935   3.073   4.803 -0.0245  0.0404 -0.1768
 9251SOL    HW139215   3.851   3.049   4.841  0.3204 -2.2560 -0.8653
 9251SOL    HW239216   3.965   2.982   4.803  0.4544  0.2189  1.9711
 9252SOL     OW39217   0.679   2.279   7.020  0.3216 -0.0997 -0.2298
 9252SOL    HW139218   0.643   2.191   7.031 -0.0202 -0.0023 -0.5837
 9252SOL    HW239219   0.650   2.305   6.933 -0.4316 -0.7053 -0.1547
 9253SOL     OW39220   0.176   3.183   8.031  0.1262  0.3497  0.0256
 9253SOL    HW139221   0.269   3.203   8.031  0.6329 -1.9747 -1.2297
 9253SOL    HW239222   0.155   3.171   7.938  0.3794 -0.7374  0.1037
 9254SOL     OW39223   3.208   0.588   4.452 -0.3359 -0.0239 -1.0613
 9254SOL    HW139224   3.214   0.601   4.547 -0.4245 -3.0083 -0.6590
 9254SOL    HW239225   3.268   0.651   4.413  0.9656  0.2830  1.3878
 9255SOL     OW39226   1.422   1.654   3.332  0.3624  0.2660 -0.4766
 9255SOL    HW139227   1.410   1.588   3.400 -0.2705 -0.9455 -1.7447
 9255SOL    HW239228   1.442   1.731   3.385  1.9843 -0.0017 -0.7081
 9256SOL     OW39229   1.021   3.489  14.058 -0.1862 -0.2336 -0.4075
 9256SOL    HW139230   1.109   3.523  14.073  0.7062 -1.9569 -1.6237
 9256SOL    HW239231   1.001   3.415  14.116 -1.8997  0.3537 -0.2401
 9257SOL     OW39232   2.174   3.051   3.010 -0.0758 -0.6624 -0.0161
 9257SOL    HW139233   2.185   3.138   2.970 -0.5368 -0.4549  0.3087
 9257SOL    HW239234   2.118   3.068   3.086  1.0369  1.8878  0.2288
 9258SOL     OW39235   2.494   3.421   3.018 -0.2014  0.2575  0.0673
 9258SOL    HW139236   2.586   3.439   2.997 -0.6848  1.1656 -1.2648
 9258SOL    HW239237   2.471   3.475   3.093  3.2142  1.0433  0.5433
 9259SOL     OW39238   2.904   3.182   1.783  0.3353  0.2609  0.2187
 9259SOL    HW139239   2.830   3.181   1.844  0.5568  0.9918  0.5092
 9259SOL    HW239240   2.924   3.275   1.772 -2.2245  0.6118 -1.3780
 9260SOL     OW39241   0.292   2.044   1.057 -0.1433  0.1936 -0.2499
 9260SOL    HW139242   0.308   1.978   0.989  0.3490 -0.0018  0.0567
 9260SOL    HW239243   0.234   2.105   1.012 -2.2970 -0.6665  1.3703
 9261SOL     OW39244   1.251   3.759   0.356  0.0136 -0.1349  0.2807
 9261SOL    HW139245   1.298   3.683   0.322  1.3570  1.4887 -1.5355
 9261SOL    HW239246   1.173   3.774   0.303 -0.3781  0.5854  1.0546
 9262SOL     OW39247   0.965   3.315   9.918  0.5215 -0.4695  0.1121
 9262SOL    HW139248   0.903   3.249   9.889  0.5390 -0.4852  0.1107
 9262SOL    HW239249   0.977   3.290  10.009  0.9721  1.2800  0.5420
 9263SOL     OW39250   1.455   1.170   4.628 -0.0358 -0.0701 -0.1422
 9263SOL    HW139251   1.413   1.246   4.669  0.1115  0.9832 -1.9754
 9263SOL    HW239252   1.472   1.132   4.714  2.6451  0.3115 -0.4751
 9264SOL     OW39253   2.469   0.385  12.920  0.1537 -0.1248 -0.2891
 9264SOL    HW139254   2.385   0.387  12.875 -0.8611  2.2749  1.7286
 9264SOL    HW239255   2.475   0.295  12.951  0.0024 -0.6492 -1.7709
 9265SOL     OW39256   4.593   1.165   1.099 -0.1436  0.6206 -0.4835
 9265SOL    HW139257   4.533   1.239   1.088  0.6804  1.1584 -1.4025
 9265SOL    HW239258   4.667   1.206   1.143 -1.9317  0.8187  2.3002
 9266SOL     OW39259   2.578   0.414   5.818  0.1648 -0.0144  0.0944
 9266SOL    HW139260   2.661   0.369   5.802  2.4968  3.6525  1.7903
 9266SOL    HW239261   2.595   0.502   5.783 -1.1812  0.3077  0.2596
 9267SOL     OW39262   4.421   4.641  16.579  0.1718  0.1048  0.2011
 9267SOL    HW139263   4.385   4.558  16.611  1.1963  0.1796  1.5174
 9267SOL    HW239264   4.388   4.656  16.490  1.0161 -0.8877 -0.2642
 9268SOL     OW39265   1.363   4.254   8.295 -0.1737 -0.7091 -0.6458
 9268SOL    HW139266   1.319   4.171   8.276 -0.9031 -0.5587  0.4025
 9268SOL    HW239267   1.293   4.319   8.290 -1.9324 -2.5671 -0.0610
 9269SOL     OW39268   0.917   2.500  14.452 -0.0735  0.5396  0.1134
 9269SOL    HW139269   1.005   2.467  14.433  0.6023  3.8733 -2.3869
 9269SOL    HW239270   0.884   2.417  14.487  1.5433 -0.0921  0.1786
 9270SOL     OW39271   3.369   0.079   5.469 -0.6326 -0.0543  0.2562
 9270SOL    HW139272   3.373   0.130   5.389  0.6627 -1.8323 -0.8174
 9270SOL    HW239273   3.279   0.046   5.476 -0.9265  0.8302  0.6602
 9271SOL     OW39274   3.886   0.534  14.264 -0.2579  0.6765  0.2078
 9271SOL    HW139275   3.888   0.599  14.335  1.4088  0.8575 -0.0090
 9271SOL    HW239276   3.980   0.522  14.247 -0.2842  0.2712  0.3464
 9272SOL     OW39277   2.878   1.782   6.169 -0.1128  0.6313  0.1846
 9272SOL    HW139278   2.790   1.809   6.140 -0.6251 -1.9180 -0.6270
 9272SOL    HW239279   2.855   1.689   6.171 -0.1547  0.5883 -2.7528
 9273SOL     OW39280   0.436   0.557   5.388  0.3459  0.1594  0.5603
 9273SOL    HW139281   0.486   0.636   5.406  0.6802 -0.4425  2.3186
 9273SOL    HW239282   0.486   0.485   5.426 -2.3368 -2.2513 -0.4522
 9274SOL     OW39283   0.241   1.536   2.173 -0.1002  0.5167  0.0531
 9274SOL    HW139284   0.331   1.510   2.150  0.4790  1.8255  0.8799
 9274SOL    HW239285   0.254   1.629   2.189 -2.9290  0.8680  0.3021
 9275SOL     OW39286   2.455   2.987   0.013  0.0266 -0.0960  0.2577
 9275SOL    HW139287   2.379   2.970  17.647  0.3706  2.2230 -0.8507
 9275SOL    HW239288   2.500   3.057  17.658 -0.6427  1.0632  1.3893
 9276SOL     OW39289   3.373   4.008   3.450 -0.3042  0.3544  0.4625
 9276SOL    HW139290   3.336   3.944   3.390  1.3568  0.5886 -0.7888
 9276SOL    HW239291   3.451   4.011   3.395 -2.2048  3.9866 -2.0561
 9277SOL     OW39292   0.017   4.149   0.871  0.3843 -0.0440 -0.4622
 9277SOL    HW139293   0.046   4.238   0.894 -1.3968  0.5471 -0.4965
 9277SOL    HW239294   4.689   4.159   0.790  0.8725 -0.4090 -0.8088
 9278SOL     OW39295   0.570   0.043  10.559  0.1312  0.0881  0.1858
 9278SOL    HW139296   0.650   0.071  10.513 -1.4837 -0.5228 -2.9978
 9278SOL    HW239297   0.612   4.715  10.628 -0.1551  0.2167  0.4531
 9279SOL     OW39298   1.412   1.280   4.179  0.3100  0.8976  0.5518
 9279SOL    HW139299   1.502   1.300   4.204 -0.1614  2.0417  1.3606
 9279SOL    HW239300   1.361   1.308   4.256 -0.4849 -0.2045  0.4316
 9280SOL     OW39301   0.048   3.398   3.030 -0.1411 -0.2932 -0.3483
 9280SOL    HW139302   4.679   3.392   3.001 -0.1464  2.0211 -0.8299
 9280SOL    HW239303   0.095   3.459   2.972  1.2871 -2.5754 -1.6096
 9281SOL     OW39304   2.015   3.019   8.446  0.0127 -0.3247  0.1404
 9281SOL    HW139305   1.997   2.971   8.527  0.1220 -0.8472 -0.1431
 9281SOL    HW239306   1.943   3.081   8.455  0.2752 -0.5061  3.4787
 9282SOL     OW39307   1.763   2.168   2.242 -0.0311  0.2449  0.2631
 9282SOL    HW139308   1.824   2.228   2.285  0.3158  0.2746 -0.2740
 9282SOL    HW239309   1.828   2.099   2.237 -2.9060 -2.3213 -1.4917
 9283SOL     OW39310   1.139   2.518   7.799  0.2199 -0.6173 -0.1604
 9283SOL    HW139311   1.214   2.515   7.739 -0.4359  0.3287 -1.0222
 9283SOL    HW239312   1.089   2.441   7.773  0.9679 -1.4327  0.8053
 9284SOL     OW39313   3.053   0.871   8.389  0.1109 -0.0524 -0.5218
 9284SOL    HW139314   3.013   0.891   8.305 -0.5740  2.2695  0.3736
 9284SOL    HW239315   3.070   0.776   8.385 -0.3359 -0.1035 -1.2494
 9285SOL     OW39316   1.639   2.227  11.032 -0.1109  0.3146  0.7708
 9285SOL    HW139317   1.697   2.172  10.980 -0.3102  0.4048  0.4537
 9285SOL    HW239318   1.665   2.318  11.017  0.7924 -0.2979 -1.3544
 9286SOL     OW39319   3.704   3.597   5.235  0.5340 -0.4543 -0.4200
 9286SOL    HW139320   3.732   3.534   5.169  1.0082  0.7103 -1.3479
 9286SOL    HW239321   3.631   3.560   5.284  0.5876  0.7181  0.5421
 9287SOL     OW39322   3.545   4.424   8.332  0.2937 -0.1627 -0.4651
 9287SOL    HW139323   3.582   4.336   8.333  2.4797  0.7531 -1.1882
 9287SOL    HW239324   3.565   4.461   8.418  3.7450 -0.5768 -1.1161
 9288SOL     OW39325   0.932   2.891   3.906 -0.0617  0.4652 -0.2663
 9288SOL    HW139326   0.854   2.859   3.860 -0.1614  0.1846  0.0922
 9288SOL    HW239327   0.909   2.983   3.922  1.3537  0.7132  0.2812
 9289SOL     OW39328   4.229   0.530   6.268  0.1746  0.1318  0.1797
 9289SOL    HW139329   4.145   0.574   6.255  0.9734  1.1689 -1.4823
 9289SOL    HW239330   4.194   0.443   6.284  1.1600 -0.3459 -0.2600
 9290SOL     OW39331   3.545   2.123   7.631  0.3047 -0.2339 -0.5250
 9290SOL    HW139332   3.458   2.084   7.629  0.0195  0.3604  0.4808
 9290SOL    HW239333   3.545   2.176   7.711  1.2955  0.8895 -1.2547
 9291SOL     OW39334   3.859   0.826   7.370  0.3416  0.2292  0.4934
 9291SOL    HW139335   3.856   0.851   7.462  0.2385 -0.6329  0.7197
 9291SOL    HW239336   3.784   0.767   7.369  0.8411 -0.4178  0.5764
 9292SOL     OW39337   1.748   4.680   8.045  0.1163 -0.0034  0.0742
 9292SOL    HW139338   1.773   4.587   8.047  1.9623  0.4803 -1.0428
 9292SOL    HW239339   1.698   4.686   8.126 -1.0381  0.5466 -0.6853
 9293SOL     OW39340   4.696   2.880  12.185 -0.0136 -0.0717 -0.1596
 9293SOL    HW139341   0.007   2.895  12.096 -1.7784  1.1783 -0.6144
 9293SOL    HW239342   4.636   2.808  12.170 -0.2093  0.6791 -3.1198
 9294SOL     OW39343   2.810   3.537  10.774 -0.0006 -0.5521  0.1559
 9294SOL    HW139344   2.839   3.490  10.852  1.8949  2.3124  1.1788
 9294SOL    HW239345   2.841   3.626  10.791 -1.4518  0.0423 -0.3235
 9295SOL     OW39346   2.930   0.301   6.569 -0.2664 -0.3924 -0.1007
 9295SOL    HW139347   2.985   0.223   6.561  1.1774  0.8678 -2.4761
 9295SOL    HW239348   2.973   0.371   6.521 -0.5819  1.7096  2.6802
 9296SOL     OW39349   4.479   0.766  16.295 -0.0666 -0.1648 -0.5526
 9296SOL    HW139350   4.573   0.769  16.312 -0.3851 -1.0292  1.4104
 9296SOL    HW239351   4.463   0.672  16.292 -1.4683  0.1116 -1.7833
 9297SOL     OW39352   0.773   2.485   9.127  0.5992  0.1716  0.0591
 9297SOL    HW139353   0.814   2.507   9.211  0.3668  0.3452  0.1265
 9297SOL    HW239354   0.816   2.547   9.068 -2.9286  1.5460 -1.0162
 9298SOL     OW39355   0.056   2.914   3.767 -0.0083  0.1565 -0.2909
 9298SOL    HW139356   0.061   2.879   3.678 -2.3959 -3.4501  1.0298
 9298SOL    HW239357   4.709   2.979   3.754 -1.3180 -0.8939  1.4584
 9299SOL     OW39358   2.001   0.108   6.858  0.1595  0.2592 -0.3099
 9299SOL    HW139359   2.025   0.122   6.950 -0.9212 -0.6372  0.1207
 9299SOL    HW239360   2.002   0.198   6.826 -0.4914  0.9551  1.6226
 9300SOL     OW39361   4.677   1.460   2.783 -0.1942  0.1547 -0.0137
 9300SOL    HW139362   4.716   1.456   2.696  0.8474 -0.1569  0.4647
 9300SOL    HW239363   4.613   1.530   2.773  0.2410  0.6087  0.3872
 9301SOL     OW39364   1.690   1.291   2.956 -0.1277  0.1352  0.0000
 9301SOL    HW139365   1.649   1.239   3.025 -0.5604 -0.0607 -0.4069
 9301SOL    HW239366   1.778   1.294   2.996 -0.9115 -1.5826  1.8559
 9302SOL     OW39367   4.392   3.733  10.697 -0.4306  0.3898 -0.2909
 9302SOL    HW139368   4.307   3.752  10.657 -0.2815 -1.7492 -1.6454
 9302SOL    HW239369   4.455   3.744  10.625 -1.9266  1.6700 -1.3917
 9303SOL     OW39370   4.669   4.504   9.158 -0.5456  0.7060 -0.2815
 9303SOL    HW139371   4.662   4.590   9.198 -1.2908 -0.4439  2.0612
 9303SOL    HW239372   0.003   4.461   9.223  0.6665  1.3386 -0.9193
 9304SOL     OW39373   4.103   4.646   2.086  0.2796 -0.3411 -0.0382
 9304SOL    HW139374   4.036   4.703   2.127 -0.7157 -2.8013  1.7685
 9304SOL    HW239375   4.169   4.652   2.155  1.3028  0.5157 -1.0919
 9305SOL     OW39376   3.862   4.614   8.381 -0.0152  0.2943 -0.4966
 9305SOL    HW139377   3.813   4.612   8.463  0.9823  0.9454  0.1097
 9305SOL    HW239378   3.811   4.685   8.340  0.0167  0.0455 -0.9635
 9306SOL     OW39379   3.673   3.163   4.122 -0.3372 -0.5157 -0.1364
 9306SOL    HW139380   3.702   3.170   4.213 -1.7880  0.1814  0.2653
 9306SOL    HW239381   3.585   3.197   4.109  0.0581  0.8170  0.6715
 9307SOL     OW39382   0.493   2.129   4.392  0.1121 -0.1006 -0.1111
 9307SOL    HW139383   0.506   2.223   4.392 -0.0342 -0.0817  0.4684
 9307SOL    HW239384   0.546   2.108   4.469  0.3203  1.5600  0.1828
 9308SOL     OW39385   3.532   1.681   3.420 -0.1824 -0.3902 -0.3876
 9308SOL    HW139386   3.618   1.663   3.458 -1.1762  1.0155  2.5353
 9308SOL    HW239387   3.522   1.606   3.362  1.1656 -1.8025  1.2011
 9309SOL     OW39388   3.312   1.409   7.114  0.0495 -0.2600  0.0108
 9309SOL    HW139389   3.307   1.371   7.202  2.3316  1.1401  0.7632
 9309SOL    HW239390   3.391   1.463   7.123  0.5273 -1.1169  0.9087
 9310SOL     OW39391   0.808   2.901   2.537 -0.0338 -0.4462 -0.6426
 9310SOL    HW139392   0.891   2.865   2.507 -1.0409 -1.5468 -2.0995
 9310SOL    HW239393   0.837   2.911   2.628 -2.0590 -1.6218  0.1224
 9311SOL     OW39394   4.684   2.298  13.433  0.4784 -0.3828 -0.5666
 9311SOL    HW139395   0.034   2.328  13.377 -0.2028  0.7700 -0.8140
 9311SOL    HW239396   4.611   2.339  13.387  0.2629  0.1233  0.2325
 9312SOL     OW39397   0.647   0.628   7.919  0.3325 -0.1373 -0.4462
 9312SOL    HW139398   0.637   0.553   7.977 -0.3703  1.6271  1.7232
 9312SOL    HW239399   0.588   0.599   7.850 -0.3765  0.5774 -0.1324
 9313SOL     OW39400   0.582   1.821   8.772  0.0650  0.1967 -0.2421
 9313SOL    HW139401   0.534   1.761   8.715 -1.5938  1.1712  0.1357
 9313SOL    HW239402   0.510   1.837   8.833 -0.1530  2.4277 -1.0647
 9314SOL     OW39403   2.300   1.165  13.830  0.1918 -0.1176  0.1429
 9314SOL    HW139404   2.226   1.105  13.829 -0.6989  1.0289 -1.8462
 9314SOL    HW239405   2.321   1.171  13.923 -0.0314 -0.9342  0.2488
 9315SOL     OW39406   0.537   2.280  15.809 -0.8372  0.0916  0.5432
 9315SOL    HW139407   0.487   2.241  15.738 -0.0831 -2.0542  1.1994
 9315SOL    HW239408   0.620   2.233  15.805 -0.7139  0.3506  0.0188
 9316SOL     OW39409   0.541   0.324   9.086  0.0097  0.8546 -0.0880
 9316SOL    HW139410   0.516   0.259   9.020 -1.6355  0.0370  1.3638
 9316SOL    HW239411   0.458   0.326   9.133 -0.5383  0.3346 -1.0302
 9317SOL     OW39412   0.525   4.383   0.189 -0.4101  0.0579 -0.3849
 9317SOL    HW139413   0.583   4.454   0.215 -1.4605  1.2621 -1.3361
 9317SOL    HW239414   0.540   4.328   0.265  1.7996 -1.5829 -2.0004
 9318SOL     OW39415   3.793   3.420  14.421  0.3747  0.1072 -0.4900
 9318SOL    HW139416   3.715   3.403  14.368  1.7729 -2.3652 -1.7871
 9318SOL    HW239417   3.767   3.482  14.489 -0.1588 -1.4508  0.7359
 9319SOL     OW39418   0.466   3.360   2.515  0.1287 -0.1592  0.0254
 9319SOL    HW139419   0.383   3.317   2.494  0.3510 -0.1449 -0.8841
 9319SOL    HW239420   0.529   3.287   2.508  0.9944  0.5905 -0.0461
 9320SOL     OW39421   1.762   2.753   4.097 -0.1858 -0.1990 -0.1096
 9320SOL    HW139422   1.742   2.784   4.185  0.0808  1.7645 -0.7361
 9320SOL    HW239423   1.718   2.668   4.100  1.6736 -1.0945  2.0697
 9321SOL     OW39424   2.935   2.835  14.617 -0.1058 -0.5231  0.3338
 9321SOL    HW139425   2.960   2.923  14.647  1.2477 -0.1529 -1.8638
 9321SOL    HW239426   2.950   2.794  14.701 -2.5042 -2.5561 -0.2282
 9322SOL     OW39427   2.493   3.408  17.461 -0.5417 -0.0760  0.2776
 9322SOL    HW139428   2.475   3.331  17.514  1.1422 -0.1517  0.7469
 9322SOL    HW239429   2.506   3.371  17.374  0.3845  0.6568  0.0959
 9323SOL     OW39430   3.715   1.019   3.938 -0.0594 -0.4172  0.1150
 9323SOL    HW139431   3.757   1.097   3.905 -0.0217  0.4407  2.1650
 9323SOL    HW239432   3.760   1.015   4.023  1.4050 -1.1531 -0.6944
 9324SOL     OW39433   4.014   3.374  10.265  0.4552  0.2598  0.0279
 9324SOL    HW139434   4.053   3.454  10.298  1.4266  0.5072 -1.6997
 9324SOL    HW239435   3.924   3.387  10.295  1.5204  3.2828  1.8284
 9325SOL     OW39436   0.614   1.921   4.244 -0.4488  0.9380 -0.3071
 9325SOL    HW139437   0.639   1.999   4.293  2.1445  0.0579 -0.1996
 9325SOL    HW239438   0.519   1.921   4.247 -0.4245  2.1495  0.4964
 9326SOL     OW39439   0.696   3.520   9.320  0.0869  0.3698 -0.4358
 9326SOL    HW139440   0.713   3.426   9.311  0.2120  0.3544 -0.0245
 9326SOL    HW239441   0.740   3.528   9.405 -1.5037  0.0038  0.4194
 9327SOL     OW39442   4.510   0.294   9.077  0.6031  0.4771  0.0691
 9327SOL    HW139443   4.561   0.334   9.148 -0.9793  0.3122  1.2963
 9327SOL    HW239444   4.469   0.220   9.120 -1.7821  2.1072  0.6190
 9328SOL     OW39445   1.638   0.527  14.002 -0.3171  0.5784 -0.3525
 9328SOL    HW139446   1.645   0.581  14.081  0.7598  1.6132 -1.1499
 9328SOL    HW239447   1.560   0.485  14.039  0.0999 -1.5485 -1.9422
 9329SOL     OW39448   2.129   1.257   2.828  0.1668 -0.2228 -0.7920
 9329SOL    HW139449   2.072   1.202   2.773 -1.1741 -1.1756  1.5680
 9329SOL    HW239450   2.212   1.220   2.795  0.9917 -0.3443  1.4309
 9330SOL     OW39451   4.143   1.251   5.866  0.0458 -0.1532  0.1900
 9330SOL    HW139452   4.066   1.209   5.827  1.1938 -1.3175 -0.8085
 9330SOL    HW239453   4.206   1.229   5.797 -0.0344  0.6204 -0.1322
 9331SOL     OW39454   3.383   1.999   5.256 -0.5305  0.0256 -0.0249
 9331SOL    HW139455   3.321   2.068   5.235  0.7972  0.5885 -2.1339
 9331SOL    HW239456   3.324   1.941   5.304 -1.2501 -0.5817 -1.6328
 9332SOL     OW39457   3.117   2.447   8.616  0.3506  0.7795  0.2589
 9332SOL    HW139458   3.049   2.505   8.581 -1.1532 -0.5714  0.8879
 9332SOL    HW239459   3.193   2.502   8.635  0.1351  0.7064  1.3147
 9333SOL     OW39460   0.144   3.747   2.377  0.4102  0.3194  0.9308
 9333SOL    HW139461   0.177   3.809   2.313  3.2173 -1.8003  0.3266
 9333SOL    HW239462   0.212   3.680   2.380  0.1764 -0.0114 -0.9419
 9334SOL     OW39463   0.985   2.446   8.892  0.3419 -0.0881 -0.0987
 9334SOL    HW139464   0.982   2.518   8.828 -0.5522 -0.2830 -0.2793
 9334SOL    HW239465   0.978   2.373   8.830  1.2929 -1.0842  0.9732
 9335SOL     OW39466   0.054   1.232   6.387  0.1474 -0.2700 -0.0328
 9335SOL    HW139467   0.117   1.242   6.458  0.0382 -0.4034  0.0809
 9335SOL    HW239468   4.697   1.238   6.440  0.4198  0.7557  0.2616
 9336SOL     OW39469   3.316   3.697   7.645 -0.3359 -0.5475  0.2657
 9336SOL    HW139470   3.223   3.682   7.630 -0.2970 -0.3008 -0.2169
 9336SOL    HW239471   3.315   3.715   7.739 -3.3433 -0.8373  0.2912
 9337SOL     OW39472   1.241   0.137  16.826  0.3464  0.1175 -0.2826
 9337SOL    HW139473   1.326   0.129  16.870  0.8386 -0.9433 -1.4444
 9337SOL    HW239474   1.222   0.228  16.850  0.6120  0.1519 -0.1989
 9338SOL     OW39475   3.522   0.484   2.150  0.1852  0.4043  0.2549
 9338SOL    HW139476   3.504   0.522   2.236 -1.5797  0.1833 -0.0278
 9338SOL    HW239477   3.532   0.391   2.171  1.2850  0.4664  0.0509
 9339SOL     OW39478   4.622   3.298   6.990 -0.6016  0.4437 -0.4535
 9339SOL    HW139479   4.555   3.303   6.922 -1.4658 -2.7521  0.1635
 9339SOL    HW239480   4.671   3.378   6.971  2.0181 -0.6975  1.5116
 9340SOL     OW39481   2.630   3.084   8.795  0.4338  0.2894  0.0727
 9340SOL    HW139482   2.569   3.134   8.849  1.7789  0.9710  0.9572
 9340SOL    HW239483   2.712   3.115   8.834 -0.3336 -2.6650  4.0335
 9341SOL     OW39484   2.274   1.957  15.009 -0.3222 -0.1602  0.0516
 9341SOL    HW139485   2.364   1.969  15.041 -0.5651  0.5358  0.4552
 9341SOL    HW239486   2.293   1.900  14.935  1.0376 -0.9882  1.0283
 9342SOL     OW39487   0.450   4.550   3.429  0.0001  0.5292 -0.3538
 9342SOL    HW139488   0.523   4.488   3.425  0.5633  1.1508  0.1921
 9342SOL    HW239489   0.382   4.484   3.422  0.8369 -0.3633 -0.0027
 9343SOL     OW39490   2.238   2.259  17.546 -0.0021  0.3296  0.1565
 9343SOL    HW139491   2.264   2.170  17.570 -0.8663  0.3530  1.2324
 9343SOL    HW239492   2.207   2.282  17.634  0.9238  1.8328  0.0990
 9344SOL     OW39493   1.376   0.713  17.039  0.6402  0.3563  0.0025
 9344SOL    HW139494   1.463   0.712  17.080  0.1188  2.1104  1.1471
 9344SOL    HW239495   1.377   0.623  17.006  1.0036  0.9373 -1.6036
 9345SOL     OW39496   0.512   3.723   4.384  0.1806 -0.5027 -0.4089
 9345SOL    HW139497   0.477   3.800   4.427  1.7994 -0.1079  0.2181
 9345SOL    HW239498   0.516   3.754   4.293 -1.0742 -0.4040 -0.4223
 9346SOL     OW39499   2.815   3.507   3.943  0.1631 -0.1962 -0.0218
 9346SOL    HW139500   2.738   3.563   3.948 -0.7194 -1.4946  0.9400
 9346SOL    HW239501   2.875   3.572   3.907 -1.2197  0.6296 -0.7976
 9347SOL     OW39502   3.409   2.487  14.052 -0.9961 -0.4652  0.7156
 9347SOL    HW139503   3.324   2.492  14.095 -1.1821 -1.0817  0.4141
 9347SOL    HW239504   3.431   2.575  14.021 -0.1917 -0.3559  1.5858
 9348SOL     OW39505   0.464   2.415   1.577  0.0513 -0.7051  0.0159
 9348SOL    HW139506   0.521   2.339   1.580 -0.1200 -0.7605  1.3998
 9348SOL    HW239507   0.525   2.475   1.619  0.0528 -0.0974 -0.8435
 9349SOL     OW39508   1.816   3.535  12.494  0.1300  0.1167 -0.0637
 9349SOL    HW139509   1.788   3.475  12.424  0.3403  0.1436 -0.1685
 9349SOL    HW239510   1.747   3.521  12.559  3.1246 -0.2505  2.9686
 9350SOL     OW39511   0.772   0.503  10.455 -0.2880  0.4012 -0.2955
 9350SOL    HW139512   0.867   0.512  10.462 -0.0642 -0.8301 -1.6229
 9350SOL    HW239513   0.759   0.591  10.418 -1.6452  0.5903  0.6630
 9351SOL     OW39514   0.839   1.297  16.408 -0.6946  0.2502  0.3038
 9351SOL    HW139515   0.790   1.378  16.399 -0.0070  0.6694  0.2905
 9351SOL    HW239516   0.765   1.236  16.402 -0.4614  0.0043 -0.0614
 9352SOL     OW39517   3.165   2.271  17.486 -0.1109  0.5689  0.0836
 9352SOL    HW139518   3.240   2.330  17.487 -0.2594  0.7797 -1.3559
 9352SOL    HW239519   3.198   2.186  17.514  0.5060  1.2637  1.4684
 9353SOL     OW39520   0.263   0.464  14.287 -0.9196 -0.2174 -0.6912
 9353SOL    HW139521   0.246   0.555  14.262  0.2666  0.0986 -0.3490
 9353SOL    HW239522   0.358   0.458  14.299 -0.9728  1.7406  0.7309
 9354SOL     OW39523   3.116   1.930  10.606 -0.1554 -0.1102  0.0637
 9354SOL    HW139524   3.138   1.843  10.636  1.4831 -0.5903 -2.5733
 9354SOL    HW239525   3.153   1.981  10.678 -2.8886 -0.4227  1.6951
 9355SOL     OW39526   3.181   4.201   2.657  0.1275 -0.2945  0.2162
 9355SOL    HW139527   3.173   4.283   2.608 -3.6781 -0.7496  0.0253
 9355SOL    HW239528   3.090   4.178   2.677  0.4410 -3.0353 -1.3805
 9356SOL     OW39529   4.086   2.974  10.309  0.1726  0.1390 -0.5195
 9356SOL    HW139530   4.168   2.938  10.275  1.2760  0.9189  1.2918
 9356SOL    HW239531   4.111   3.049  10.363 -2.4819  0.6397  0.0276
 9357SOL     OW39532   1.540   0.759  13.074 -0.4536  0.0019  0.1750
 9357SOL    HW139533   1.480   0.809  13.129 -1.1174 -0.1704 -0.3907
 9357SOL    HW239534   1.567   0.689  13.133 -1.4435 -0.0522  0.5623
 9358SOL     OW39535   0.488   1.605   6.295 -0.0740  0.2422 -0.4397
 9358SOL    HW139536   0.540   1.587   6.373  2.3359  0.9439 -1.8923
 9358SOL    HW239537   0.405   1.639   6.328 -0.4076 -3.8610  2.9002
 9359SOL     OW39538   1.374   1.352   4.842 -0.6504 -0.3869  0.4356
 9359SOL    HW139539   1.370   1.306   4.926  2.8517 -2.3197 -0.4834
 9359SOL    HW239540   1.435   1.425   4.855 -0.9536 -0.1338  0.4587
 9360SOL     OW39541   3.996   0.155   9.742  0.1286  0.0941 -0.2668
 9360SOL    HW139542   3.952   0.072   9.761  1.1119 -0.3226  0.2293
 9360SOL    HW239543   3.937   0.186   9.674  0.7187 -0.0725 -0.8550
 9361SOL     OW39544   3.166   0.627   6.924  0.0349  0.5439 -0.4243
 9361SOL    HW139545   3.166   0.537   6.956  0.6406  0.7791  0.2152
 9361SOL    HW239546   3.182   0.689   6.995  1.5192 -0.9146  0.4881
 9362SOL     OW39547   3.694   0.918   7.603  0.6034  0.6924  0.0748
 9362SOL    HW139548   3.702   0.997   7.656 -2.8801  0.7907  0.4902
 9362SOL    HW239549   3.623   0.956   7.551  1.7537  1.1116 -1.1758
 9363SOL     OW39550   3.193   0.827   6.727  0.2759  0.1972 -0.4429
 9363SOL    HW139551   3.180   0.776   6.807  1.9361  0.9240  0.2722
 9363SOL    HW239552   3.224   0.910   6.763 -1.5666 -0.1807  2.0095
 9364SOL     OW39553   3.742   3.400   7.564 -0.0074  0.0164  0.2172
 9364SOL    HW139554   3.656   3.433   7.591  0.8268  0.4490  2.3654
 9364SOL    HW239555   3.734   3.441   7.479  0.0944 -0.1550  0.1249
 9365SOL     OW39556   3.878   3.661   1.642  0.3141 -0.0330 -0.7323
 9365SOL    HW139557   3.971   3.683   1.634  0.4326 -0.8693 -1.6493
 9365SOL    HW239558   3.859   3.610   1.563  3.2648  1.4285 -2.4023
 9366SOL     OW39559   0.284   4.354   6.149 -0.5909 -0.0117  0.4263
 9366SOL    HW139560   0.353   4.344   6.214  0.9932  1.4601 -1.0371
 9366SOL    HW239561   0.278   4.261   6.124  1.1571  0.4473 -1.7247
 9367SOL     OW39562   3.820   0.293   3.775  0.0195 -0.6898  0.1575
 9367SOL    HW139563   3.804   0.327   3.863 -1.2769 -0.8583 -0.0192
 9367SOL    HW239564   3.845   0.369   3.722  1.4127 -1.4078 -0.1994
 9368SOL     OW39565   0.441   3.810   6.872  0.3299  0.7114  0.2681
 9368SOL    HW139566   0.500   3.780   6.941 -0.8383 -2.0625  0.0508
 9368SOL    HW239567   0.488   3.891   6.848  1.3114  0.0967  0.1195
 9369SOL     OW39568   1.351   0.672   8.598  0.1088 -0.1828  0.0961
 9369SOL    HW139569   1.402   0.668   8.517  0.0113 -1.4840  0.1078
 9369SOL    HW239570   1.416   0.692   8.665 -2.0520  2.6936  1.3520
 9370SOL     OW39571   2.798   3.273   7.547 -0.0823  0.8532  0.1878
 9370SOL    HW139572   2.750   3.209   7.495  0.1775  1.6531 -1.0468
 9370SOL    HW239573   2.874   3.286   7.491  1.2079  0.8297  1.9303
 9371SOL     OW39574   4.084   3.678   6.764  0.1404 -0.0456  0.1941
 9371SOL    HW139575   4.154   3.721   6.814  0.5553 -0.5594  0.0456
 9371SOL    HW239576   4.022   3.666   6.836 -1.9804 -2.4247 -2.0543
 9372SOL     OW39577   4.458   2.227   6.812  0.2286  0.1024 -0.3095
 9372SOL    HW139578   4.386   2.172   6.845 -0.1645  0.1731 -1.0567
 9372SOL    HW239579   4.514   2.162   6.771 -0.5674 -1.6568  1.3781
 9373SOL     OW39580   0.290   1.721   2.917  0.4178 -0.7276 -0.1720
 9373SOL    HW139581   0.206   1.736   2.873 -0.1584 -1.4772  0.6642
 9373SOL    HW239582   0.332   1.676   2.844  1.6918 -0.7425  0.5547
 9374SOL     OW39583   0.833   2.625   3.974  0.6688  0.4863  0.0695
 9374SOL    HW139584   0.806   2.677   3.899 -0.6960 -1.7233 -0.9864
 9374SOL    HW239585   0.873   2.549   3.931  1.9761  0.3789  1.4736
 9375SOL     OW39586   3.027   2.635   5.054 -0.1582 -0.2001  0.4001
 9375SOL    HW139587   3.041   2.730   5.062 -0.3953 -0.1017 -0.4067
 9375SOL    HW239588   3.024   2.637   4.959  0.0625 -0.9449  0.3800
 9376SOL     OW39589   3.861   2.035   5.389 -0.1224 -0.1767  0.6227
 9376SOL    HW139590   3.947   1.998   5.406  0.0951  0.0256 -0.0515
 9376SOL    HW239591   3.879   2.068   5.301  0.4630 -0.9170  0.4653
 9377SOL     OW39592   1.152   4.144   9.730  0.3047  0.0808 -0.3697
 9377SOL    HW139593   1.113   4.062   9.760  1.9919 -0.5706  0.0307
 9377SOL    HW239594   1.113   4.144   9.642 -3.4637  0.4595  1.3172
 9378SOL     OW39595   1.277   2.306   3.231 -0.1440 -0.0019  0.3829
 9378SOL    HW139596   1.256   2.215   3.252  1.4416 -0.1980  1.1861
 9378SOL    HW239597   1.230   2.347   3.304 -2.1377 -0.7875 -0.4682
 9379SOL     OW39598   0.551   3.163   8.463  0.1141  0.5057 -0.3256
 9379SOL    HW139599   0.549   3.157   8.367 -3.2698 -0.0461 -0.2226
 9379SOL    HW239600   0.504   3.244   8.482 -0.6287 -0.1866  0.7502
 9380SOL     OW39601   3.541   1.476  17.284 -0.4203 -0.3110 -0.0036
 9380SOL    HW139602   3.510   1.385  17.282 -0.5685 -0.3017  1.7321
 9380SOL    HW239603   3.475   1.528  17.330  0.2181  0.6261 -0.1385
 9381SOL     OW39604   0.395   3.949  11.994 -0.0464  0.1982 -0.3678
 9381SOL    HW139605   0.403   3.930  12.088 -0.4782  1.1450 -0.1369
 9381SOL    HW239606   0.485   3.926  11.969 -0.2997 -1.3553  0.1658
 9382SOL     OW39607   3.365   4.702   7.951  0.2564 -0.0440 -0.0805
 9382SOL    HW139608   3.459   4.705   7.966  0.1169  2.1394  0.4160
 9382SOL    HW239609   3.333   0.010   8.036  1.0398 -1.4011  0.6932
 9383SOL     OW39610   1.056   1.571   2.353 -0.1892 -0.2484  0.9616
 9383SOL    HW139611   1.100   1.509   2.295 -0.4310 -0.2343  0.7618
 9383SOL    HW239612   1.107   1.650   2.338  0.6288 -1.0592 -0.5404
 9384SOL     OW39613   3.186   4.223  13.953  0.1358 -0.1728 -0.4087
 9384SOL    HW139614   3.173   4.288  14.022 -0.3795  0.9946 -1.6022
 9384SOL    HW239615   3.126   4.261  13.888 -0.2872 -0.1520 -0.0108
 9385SOL     OW39616   4.598   0.055   9.256  0.0529  0.5110  0.4742
 9385SOL    HW139617   4.507   0.042   9.227  0.8102 -3.3680 -0.1414
 9385SOL    HW239618   4.577   0.070   9.348 -0.5370 -1.0305  0.6021
 9386SOL     OW39619   2.440   4.310   1.352 -0.4308  0.0914  0.3089
 9386SOL    HW139620   2.505   4.361   1.304 -0.2955 -0.3874 -0.0159
 9386SOL    HW239621   2.434   4.235   1.294  1.3665  0.2342 -0.0634
 9387SOL     OW39622   4.144   4.035   4.447 -0.0617 -0.5248 -0.3776
 9387SOL    HW139623   4.139   4.031   4.351  0.7545  1.7393 -0.5267
 9387SOL    HW239624   4.052   4.043   4.471 -0.1639  0.9057 -1.1955
 9388SOL     OW39625   1.416   2.441   4.825  0.8708 -0.1047 -0.5447
 9388SOL    HW139626   1.348   2.508   4.824 -1.3559 -2.3246 -1.5598
 9388SOL    HW239627   1.440   2.434   4.732 -1.0438  0.6811 -1.1088
 9389SOL     OW39628   0.501   0.377   8.152  0.1155  0.1843 -0.3042
 9389SOL    HW139629   0.580   0.419   8.185 -0.9785  1.2191  0.9815
 9389SOL    HW239630   0.531   0.386   8.061  1.0930  0.1834  0.0205
 9390SOL     OW39631   0.606   0.474   3.967  0.5026  0.1895  0.4295
 9390SOL    HW139632   0.624   0.458   4.059  3.3649  1.1618  0.0364
 9390SOL    HW239633   0.629   0.390   3.928 -4.2102 -0.5410 -0.8823
 9391SOL     OW39634   4.526   3.151   2.766  0.4391  0.0550  0.2924
 9391SOL    HW139635   4.529   3.236   2.810  0.5728  1.2355 -1.9720
 9391SOL    HW239636   4.617   3.122   2.775  0.8139  0.7561 -1.2369
 9392SOL     OW39637   0.052   1.342   9.132  0.1816  0.2908 -0.4701
 9392SOL    HW139638   0.104   1.282   9.185  0.7475 -0.8962 -2.3645
 9392SOL    HW239639   0.026   1.276   9.067 -0.7273  1.3862 -1.2165
 9393SOL     OW39640   4.262   1.561   3.293  0.2802  0.0849  0.7259
 9393SOL    HW139641   4.281   1.562   3.387 -0.8476  1.7270  0.9331
 9393SOL    HW239642   4.342   1.598   3.256 -1.0035 -0.1859 -2.2931
 9394SOL     OW39643   1.939   4.285  16.620  0.1454  0.1770  0.4709
 9394SOL    HW139644   1.928   4.380  16.612 -0.4754 -0.0421 -1.1633
 9394SOL    HW239645   1.895   4.258  16.540  2.0093 -2.9605  0.4799
 9395SOL     OW39646   4.695   3.828   8.426  0.4481 -0.1262 -0.3016
 9395SOL    HW139647   4.624   3.771   8.455 -1.5764  2.3072 -0.5616
 9395SOL    HW239648   4.704   3.893   8.495  0.4866 -1.8246  1.2961
 9396SOL     OW39649   1.613   2.949  12.255  0.1659 -0.7205  0.0621
 9396SOL    HW139650   1.699   2.960  12.296 -1.1837  0.4859  2.5231
 9396SOL    HW239651   1.637   2.913  12.170 -1.9930 -1.0784 -0.3851
 9397SOL     OW39652   0.955   0.048   7.226 -0.3172 -0.2728  0.3963
 9397SOL    HW139653   0.927   0.123   7.174  0.8104  0.9642  1.5683
 9397SOL    HW239654   0.966   0.095   7.309  0.0570 -0.5850  0.5246
 9398SOL     OW39655   4.095   1.990   4.663 -0.3505  0.4399 -0.2385
 9398SOL    HW139656   4.122   1.904   4.629 -1.2193  0.8501 -1.9611
 9398SOL    HW239657   4.038   2.030   4.597 -0.6857  0.6976  0.2054
 9399SOL     OW39658   2.272   0.667  15.932  0.4735 -0.4922  0.5205
 9399SOL    HW139659   2.331   0.713  15.992  0.7118  0.2238 -0.2656
 9399SOL    HW239660   2.218   0.744  15.913  1.9059  0.7791  1.5182
 9400SOL     OW39661   0.965   2.079   3.511 -0.2972  0.3483  0.2384
 9400SOL    HW139662   1.030   2.014   3.539 -1.3715 -0.4353  0.9375
 9400SOL    HW239663   0.995   2.140   3.578 -1.3719  0.7673  0.3389
 9401SOL     OW39664   2.322   0.408   9.750  0.2001  0.0539  0.8326
 9401SOL    HW139665   2.254   0.342   9.739 -0.3308  0.4426  1.7989
 9401SOL    HW239666   2.278   0.479   9.702  0.5335 -1.6273 -1.9674
 9402SOL     OW39667   4.262   1.971  15.209 -0.0912 -0.2144  0.1163
 9402SOL    HW139668   4.225   2.048  15.164  1.2659  0.0373 -0.5650
 9402SOL    HW239669   4.208   1.899  15.176 -0.1976 -0.7528  1.4963
 9403SOL     OW39670   1.661   1.092   5.630 -0.3318 -0.2155 -0.2766
 9403SOL    HW139671   1.721   1.160   5.662 -1.7106  0.7050  0.3165
 9403SOL    HW239672   1.583   1.136   5.596  1.0732  1.7459 -1.0322
 9404SOL     OW39673   3.351   4.018  11.983 -0.3650 -0.0034  0.6995
 9404SOL    HW139674   3.320   4.100  11.944  1.4819  0.2290 -0.2636
 9404SOL    HW239675   3.302   3.950  11.937  1.6081  1.7719 -3.9413
 9405SOL     OW39676   2.816   3.879   3.217 -0.1122  0.0309  0.0699
 9405SOL    HW139677   2.897   3.858   3.171  0.4666  1.3113  0.5316
 9405SOL    HW239678   2.790   3.961   3.174 -0.9598 -0.4104 -0.2726
 9406SOL     OW39679   3.875   1.288   0.347 -0.1210 -0.8800 -0.9078
 9406SOL    HW139680   3.928   1.240   0.284 -0.2933 -2.1889 -0.0559
 9406SOL    HW239681   3.817   1.216   0.371  1.0933 -0.9000  2.0032
 9407SOL     OW39682   4.509   1.244   2.683 -0.1891  0.2058 -0.1733
 9407SOL    HW139683   4.426   1.224   2.726  0.5787 -0.4705  0.9959
 9407SOL    HW239684   4.536   1.327   2.722  0.1287 -0.3478  0.7726
 9408SOL     OW39685   0.511   2.186   1.135 -0.1797 -0.3960 -0.3909
 9408SOL    HW139686   0.426   2.163   1.098 -0.5560  0.1489  0.1423
 9408SOL    HW239687   0.485   2.255   1.195  0.8264  1.3474 -1.9540
 9409SOL     OW39688   4.517   3.584  15.649 -0.5014 -0.0804 -0.2857
 9409SOL    HW139689   4.511   3.611  15.558  0.6866  1.4209  0.0773
 9409SOL    HW239690   4.426   3.578  15.677  0.4613  0.9287  3.0947
 9410SOL     OW39691   2.607   2.961  15.113  0.0204  0.4767  0.3980
 9410SOL    HW139692   2.698   2.990  15.121  0.3006 -0.1594 -0.4548
 9410SOL    HW239693   2.587   3.007  15.032 -1.0204  0.0908  0.4407
 9411SOL     OW39694   1.093   0.786   7.520 -0.2473  0.4211 -0.0981
 9411SOL    HW139695   1.062   0.804   7.608 -0.7904  0.6545 -0.3375
 9411SOL    HW239696   1.111   0.692   7.529 -0.5927  0.4084  0.4198
 9412SOL     OW39697   0.440   2.320   4.797 -0.0725  0.4670  0.1420
 9412SOL    HW139698   0.379   2.392   4.785  1.7039  2.1485  1.2100
 9412SOL    HW239699   0.514   2.357   4.749 -0.4070 -0.9127 -1.4423
 9413SOL     OW39700   4.395   0.438   2.661  0.2686 -0.0664  0.0135
 9413SOL    HW139701   4.306   0.432   2.626  0.7742 -2.1641 -0.9171
 9413SOL    HW239702   4.403   0.533   2.660 -0.7419  0.0006 -1.7609
 9414SOL     OW39703   3.147   2.658   3.390 -0.5783  0.7068  0.3007
 9414SOL    HW139704   3.137   2.630   3.481  0.6025  2.1304  0.8633
 9414SOL    HW239705   3.097   2.588   3.348 -0.3602 -0.1405  1.4645
 9415SOL     OW39706   0.061   4.287   9.349 -0.5850 -0.2069 -0.0464
 9415SOL    HW139707   0.137   4.282   9.291 -0.8625  1.1195 -0.5312
 9415SOL    HW239708   0.104   4.244   9.423  1.7172 -0.2179 -1.3698
 9416SOL     OW39709   2.813   4.571   4.678  0.4286 -0.1316  0.0625
 9416SOL    HW139710   2.775   4.498   4.629  0.9037 -0.8126  0.7080
 9416SOL    HW239711   2.762   4.556   4.757  0.3057 -1.1535 -0.2187
 9417SOL     OW39712   2.983   4.140   8.394 -0.1717 -0.0308  0.0096
 9417SOL    HW139713   3.072   4.118   8.422 -0.7180 -3.4989 -0.9781
 9417SOL    HW239714   3.000   4.194   8.317  2.4648 -1.2234 -0.2167
 9418SOL     OW39715   1.551   0.635   0.857  0.7684  0.1089 -0.1244
 9418SOL    HW139716   1.497   0.557   0.847 -0.6787  0.8996  1.4391
 9418SOL    HW239717   1.574   0.631   0.950  0.2156 -0.3068 -0.0055
 9419SOL     OW39718   1.592   1.769   2.082  0.0236  0.6803  0.2346
 9419SOL    HW139719   1.585   1.842   2.020  1.7240  0.9838  0.3715
 9419SOL    HW239720   1.544   1.694   2.050 -1.2883  1.4645  0.3714
 9420SOL     OW39721   0.379   0.820   7.486 -0.2824 -0.0198 -0.1016
 9420SOL    HW139722   0.349   0.778   7.566  1.3240 -0.0340  0.5027
 9420SOL    HW239723   0.295   0.855   7.459 -1.1870 -0.7336  1.8059
 9421SOL     OW39724   2.641   2.948   7.055  0.3131 -0.3251 -0.1114
 9421SOL    HW139725   2.636   2.964   6.961  0.7251  0.5903  0.0216
 9421SOL    HW239726   2.652   3.039   7.084  2.2114 -1.0908  1.5683
 9422SOL     OW39727   2.216   0.685  14.941 -0.5686 -0.4375 -0.4964
 9422SOL    HW139728   2.158   0.731  15.001  0.1120 -1.6526  1.0840
 9422SOL    HW239729   2.286   0.669  15.005 -2.1709  0.5385  1.4748
 9423SOL     OW39730   2.480   4.614   5.756 -0.4677  0.4016  0.2507
 9423SOL    HW139731   2.404   4.556   5.757  0.1180 -0.3557  0.7745
 9423SOL    HW239732   2.545   4.552   5.722 -0.5778  0.2854  0.2554
 9424SOL     OW39733   2.436   2.124   1.407 -0.3827 -0.2446  0.2313
 9424SOL    HW139734   2.441   2.059   1.477 -0.5195  0.8364  1.2454
 9424SOL    HW239735   2.490   2.195   1.443 -0.4231 -0.9469  1.6656
 9425SOL     OW39736   3.623   2.294  17.656  0.2623 -0.1905 -0.5107
 9425SOL    HW139737   3.666   2.379  17.647  2.0395 -0.7039  3.5185
 9425SOL    HW239738   3.549   2.315  17.599 -0.1792  0.5602  0.3399
 9426SOL     OW39739   4.428   2.720   0.005  0.1172 -0.2139 -0.0936
 9426SOL    HW139740   4.488   2.758  17.631  0.3302 -1.1931 -0.4718
 9426SOL    HW239741   4.457   2.766   0.084  1.9110 -0.4568 -0.6252
 9427SOL     OW39742   3.607   1.227   8.483 -0.0552  0.7765  0.3135
 9427SOL    HW139743   3.591   1.187   8.568 -0.4620  0.7347  0.2134
 9427SOL    HW239744   3.571   1.151   8.438  1.3843  1.0162 -1.2572
 9428SOL     OW39745   0.719   3.171   9.495 -0.3036  0.0613  0.0969
 9428SOL    HW139746   0.627   3.169   9.469 -1.1192  1.3467  2.8845
 9428SOL    HW239747   0.736   3.082   9.527  0.8031  1.8231  4.4711
 9429SOL     OW39748   2.418   2.001   9.783  0.1275  0.3683 -0.2929
 9429SOL    HW139749   2.332   1.962   9.767 -0.4536  2.0540 -1.4121
 9429SOL    HW239750   2.465   1.933   9.831  0.5202  0.7199 -0.1770
 9430SOL     OW39751   4.058   3.734   2.346  0.0815  0.5350 -0.5816
 9430SOL    HW139752   4.148   3.764   2.360  0.5570 -0.2529 -2.0069
 9430SOL    HW239753   4.021   3.814   2.309 -1.6701 -0.2384 -0.5298
 9431SOL     OW39754   1.647   1.981   7.133 -0.0310  0.3498  0.2878
 9431SOL    HW139755   1.624   1.994   7.225  1.4198 -2.9283  1.1096
 9431SOL    HW239756   1.695   2.061   7.112  2.6132 -0.8916  1.6788
 9432SOL     OW39757   2.043   3.046   3.513  0.4146 -0.3337 -0.0873
 9432SOL    HW139758   2.116   3.081   3.563 -0.7845 -0.8967  2.0971
 9432SOL    HW239759   2.056   2.952   3.527  1.3802 -0.1821 -0.0162
 9433SOL     OW39760   0.131   2.488   5.817 -0.5330  0.0932  0.1635
 9433SOL    HW139761   0.218   2.500   5.855  0.0760  0.2490 -1.2953
 9433SOL    HW239762   0.089   2.548   5.878  0.9402  0.6335  0.6519
 9434SOL     OW39763   1.510   4.155   5.837 -0.6650 -0.4999 -0.2434
 9434SOL    HW139764   1.468   4.082   5.792 -1.2651 -2.1248  2.9094
 9434SOL    HW239765   1.580   4.174   5.776  2.3774  0.5884  3.5876
 9435SOL     OW39766   0.707   1.324   5.656  0.2306 -0.1094  0.4768
 9435SOL    HW139767   0.784   1.267   5.655  0.2632 -0.0905  1.9052
 9435SOL    HW239768   0.743   1.400   5.610  0.9805 -0.9803 -0.3729
 9436SOL     OW39769   3.139   2.718   1.739 -0.1140 -0.1312 -0.3151
 9436SOL    HW139770   3.080   2.787   1.769  0.6854  0.2210  0.4500
 9436SOL    HW239771   3.122   2.655   1.808  1.1175  0.9829  0.9965
 9437SOL     OW39772   2.622   2.701  15.977  0.2163 -0.3638  0.3373
 9437SOL    HW139773   2.530   2.681  15.958  0.1073  0.6073 -0.1609
 9437SOL    HW239774   2.643   2.640  16.048 -0.6225 -0.9136  0.1120
 9438SOL     OW39775   3.903   4.170   7.583  0.7409 -1.2345 -0.0945
 9438SOL    HW139776   3.864   4.110   7.647 -0.1127 -0.1021  0.4543
 9438SOL    HW239777   3.925   4.111   7.511 -0.7366  0.0729 -1.6290
 9439SOL     OW39778   3.563   3.308  14.873 -0.2163 -0.0982  0.0245
 9439SOL    HW139779   3.561   3.389  14.924 -1.5394 -0.1789  0.1109
 9439SOL    HW239780   3.643   3.263  14.901 -0.8325 -0.2119  1.5818
 9440SOL     OW39781   2.895   1.695   2.445 -0.0935 -0.4768  0.3388
 9440SOL    HW139782   2.841   1.620   2.421 -1.7667  1.0288 -0.5991
 9440SOL    HW239783   2.923   1.676   2.535 -2.6628  0.4690  1.3181
 9441SOL     OW39784   4.488   4.267   2.802  0.4289 -0.3887 -0.1430
 9441SOL    HW139785   4.416   4.203   2.798 -0.9261  1.0988  0.3959
 9441SOL    HW239786   4.521   4.259   2.713 -1.4238  3.1548 -1.1727
 9442SOL     OW39787   4.405   2.092   1.632  0.3790  0.8526 -0.2094
 9442SOL    HW139788   4.369   2.125   1.714 -0.6034 -0.1929 -0.2169
 9442SOL    HW239789   4.331   2.100   1.572  0.5637  0.2805 -0.5154
 9443SOL     OW39790   1.478   3.459   0.586 -0.2652 -0.1740 -0.2354
 9443SOL    HW139791   1.489   3.463   0.681 -0.0210  1.1797 -0.3225
 9443SOL    HW239792   1.501   3.551   0.576 -1.2546  0.0994 -0.0652
 9444SOL     OW39793   2.360   2.800   6.078 -0.4854  0.0948  0.6626
 9444SOL    HW139794   2.365   2.822   6.171 -2.2108  0.0057  0.7826
 9444SOL    HW239795   2.311   2.718   6.075  0.4450 -0.4175 -0.3955
 9445SOL     OW39796   2.515   3.640  14.392 -0.3388  0.3948 -1.1248
 9445SOL    HW139797   2.500   3.696  14.316  0.9094  1.0327 -0.9153
 9445SOL    HW239798   2.552   3.559  14.357 -1.8704 -0.6563 -0.2541
 9446SOL     OW39799   1.760   0.851  13.850 -0.1917  0.2048 -0.1735
 9446SOL    HW139800   1.813   0.889  13.920 -1.6828  2.3195 -0.1797
 9446SOL    HW239801   1.797   0.900  13.776  0.0222  1.9270  1.0620
 9447SOL     OW39802   0.216   3.624   3.891 -0.0262 -0.1429 -0.1036
 9447SOL    HW139803   0.199   3.589   3.978  1.1024  0.2716  0.2790
 9447SOL    HW239804   0.304   3.590   3.877 -0.1584  0.1632 -1.7145
 9448SOL     OW39805   0.258   4.245   8.163 -0.2271  0.4858  0.1333
 9448SOL    HW139806   0.348   4.218   8.149 -0.2510  1.0359 -1.0652
 9448SOL    HW239807   0.271   4.292   8.246  1.7794 -1.0420  0.6789
 9449SOL     OW39808   0.923   4.252   4.425  0.4920  0.3771  0.5133
 9449SOL    HW139809   0.886   4.330   4.466 -1.1807 -1.1863  2.0139
 9449SOL    HW239810   0.858   4.182   4.435 -0.2156  0.5719 -2.5805
 9450SOL     OW39811   1.414   1.722  11.634  0.5483  0.3887  0.4607
 9450SOL    HW139812   1.435   1.769  11.554  0.8989  2.3341  1.6860
 9450SOL    HW239813   1.336   1.766  11.669  0.1845 -0.0786  0.2431
 9451SOL     OW39814   0.075   0.379  15.819  0.0292  0.2127 -0.6072
 9451SOL    HW139815   0.058   0.293  15.858 -1.0322 -0.2763 -2.1386
 9451SOL    HW239816   0.077   0.352  15.727 -1.3340 -0.5483 -0.4237
 9452SOL     OW39817   3.323   4.483  11.762  0.2667 -0.0193  0.3796
 9452SOL    HW139818   3.258   4.547  11.733 -0.6928 -0.0897  2.3716
 9452SOL    HW239819   3.388   4.518  11.700  0.2816 -2.6213 -1.0646
 9453SOL     OW39820   0.281   3.902   2.168 -0.0449 -0.1172 -0.0061
 9453SOL    HW139821   0.263   3.827   2.111  1.2402  0.4719 -1.1998
 9453SOL    HW239822   0.375   3.908   2.149 -0.0067  1.3974  0.7087
 9454SOL     OW39823   0.501   3.484   8.862 -0.0910  0.3422  1.2411
 9454SOL    HW139824   0.467   3.406   8.904  0.8838 -1.1625 -0.7430
 9454SOL    HW239825   0.590   3.490   8.896  0.7655 -2.8169 -0.4426
 9455SOL     OW39826   0.224   2.443  11.427  0.1219  0.1556 -0.1722
 9455SOL    HW139827   0.157   2.390  11.385  1.3578 -2.0338  0.6216
 9455SOL    HW239828   0.278   2.382  11.477  1.0601  0.3170 -0.9884
 9456SOL     OW39829   2.221   3.506  17.226  0.3327  0.1733 -0.0251
 9456SOL    HW139830   2.127   3.506  17.212  0.9198 -1.5294 -3.8815
 9456SOL    HW239831   2.241   3.414  17.244  0.9996  0.0722 -1.3378
 9457SOL     OW39832   0.031   0.325   6.318 -0.4928  0.8827 -0.3898
 9457SOL    HW139833   0.009   0.234   6.297  0.2353  0.3816  0.9974
 9457SOL    HW239834   0.070   0.308   6.403 -1.3408  0.2869 -0.1189
 9458SOL     OW39835   2.852   3.561   7.043 -0.3492 -0.2779  0.1603
 9458SOL    HW139836   2.785   3.595   6.983  2.5466  1.1212 -2.3016
 9458SOL    HW239837   2.864   3.635   7.102  0.2251  0.5718 -1.0124
 9459SOL     OW39838   3.666   4.322   9.214 -0.3616 -0.3036  0.2173
 9459SOL    HW139839   3.633   4.407   9.184 -0.0372  0.1013  1.0012
 9459SOL    HW239840   3.752   4.345   9.248  0.1601 -1.3418 -0.3909
 9460SOL     OW39841   4.574   1.465  15.564 -0.1184  0.1626 -0.1478
 9460SOL    HW139842   4.489   1.497  15.533  0.3488  1.5928  0.0218
 9460SOL    HW239843   4.551   1.373  15.572 -0.3373  0.0277 -2.3472
 9461SOL     OW39844   1.910   4.110   3.344 -0.0164  0.2176 -0.2795
 9461SOL    HW139845   1.850   4.149   3.408  0.0394  2.1836 -1.4448
 9461SOL    HW239846   1.922   4.017   3.365 -1.0760 -0.4834 -2.7831
 9462SOL     OW39847   3.653   1.171   7.041  0.7960  0.4283 -0.0355
 9462SOL    HW139848   3.718   1.199   6.977  0.2051  2.2134  0.1488
 9462SOL    HW239849   3.675   1.080   7.021  0.0034 -0.0452  1.2499
 9463SOL     OW39850   2.395   1.530  10.976 -0.1468  0.3482  0.5069
 9463SOL    HW139851   2.402   1.460  10.911 -0.0577  0.6337  0.2061
 9463SOL    HW239852   2.325   1.493  11.030  0.5313 -0.2823  0.9552
 9464SOL     OW39853   2.045   0.517  15.174 -0.2793  0.4844 -0.6517
 9464SOL    HW139854   1.951   0.519  15.161 -0.5597  0.1628  1.2912
 9464SOL    HW239855   2.066   0.603  15.212  2.6099 -0.2781 -0.5272
 9465SOL     OW39856   4.016   1.377   7.968  0.3373 -0.0817 -0.6375
 9465SOL    HW139857   3.968   1.456   7.993  1.1428  0.7071 -1.5788
 9465SOL    HW239858   4.020   1.390   7.874  0.1951 -0.2785 -0.6681
 9466SOL     OW39859   2.507   3.845   8.397 -0.7516  0.2781  0.5473
 9466SOL    HW139860   2.503   3.910   8.467 -1.1371 -1.5864  2.2474
 9466SOL    HW239861   2.591   3.807   8.422 -0.0350  3.1058  2.5470
 9467SOL     OW39862   0.478   2.809   8.498  0.2526 -0.2224 -1.0752
 9467SOL    HW139863   0.453   2.884   8.553  0.0473 -0.2320 -1.1553
 9467SOL    HW239864   0.561   2.779   8.535  1.1349  0.8185 -2.1955
 9468SOL     OW39865   1.863   2.772  10.757  0.1550 -0.6274 -0.8139
 9468SOL    HW139866   1.876   2.678  10.742 -3.0685 -1.5189  2.0245
 9468SOL    HW239867   1.935   2.793  10.816 -1.1470  1.6118 -0.0398
 9469SOL     OW39868   4.410   1.237   2.425  0.1688  0.2363  0.1295
 9469SOL    HW139869   4.491   1.284   2.405 -0.4256  0.6009 -1.4617
 9469SOL    HW239870   4.421   1.236   2.520 -0.0376 -0.1676  0.1508
 9470SOL     OW39871   1.761   4.484   4.308  0.1656  0.0089  0.2981
 9470SOL    HW139872   1.846   4.526   4.294  1.1088 -1.9782  0.0280
 9470SOL    HW239873   1.773   4.472   4.402 -3.9477 -2.6787  0.4636
 9471SOL     OW39874   3.702   1.417   4.829 -0.2114  0.0990 -0.3171
 9471SOL    HW139875   3.666   1.337   4.867  1.1978 -0.8587 -0.9935
 9471SOL    HW239876   3.790   1.395   4.798 -0.6679 -3.1119  0.7301
 9472SOL     OW39877   0.105   4.261  10.904  0.4913 -0.0573  0.4417
 9472SOL    HW139878   0.036   4.326  10.892  1.2425  0.4380 -1.1681
 9472SOL    HW239879   0.056   4.182  10.881 -2.5827  1.7313  0.8579
 9473SOL     OW39880   4.501   2.863   6.698 -0.1550  0.7195 -0.4969
 9473SOL    HW139881   4.530   2.897   6.782  0.0188  0.3071 -0.3933
 9473SOL    HW239882   4.410   2.843   6.720  0.0026  1.8997  1.2011
 9474SOL     OW39883   0.545   2.853   8.828 -0.3030 -0.2020 -0.1552
 9474SOL    HW139884   0.466   2.903   8.847  0.6488  0.9062  0.8747
 9474SOL    HW239885   0.597   2.925   8.793  0.6875  0.2394  2.2795
 9475SOL     OW39886   0.183   1.542   3.872 -0.1300 -0.0783  0.6760
 9475SOL    HW139887   0.170   1.504   3.785 -0.3652 -1.1161  1.1718
 9475SOL    HW239888   0.099   1.588   3.875 -0.6106 -0.9980  1.1786
 9476SOL     OW39889   3.882   3.152   4.360 -0.0619 -0.1618  0.4517
 9476SOL    HW139890   3.908   3.064   4.389  1.1138 -0.3248 -1.0965
 9476SOL    HW239891   3.897   3.197   4.443  1.2290 -0.2940  0.2870
 9477SOL     OW39892   0.790   4.354  11.183 -0.0149  0.0811  0.5603
 9477SOL    HW139893   0.802   4.419  11.252 -0.2186  0.8344 -0.1130
 9477SOL    HW239894   0.699   4.326  11.195 -0.1893  0.2057 -0.4920
 9478SOL     OW39895   2.629   0.772   5.950 -0.8216 -0.0386 -0.0737
 9478SOL    HW139896   2.582   0.752   6.030  0.9943 -2.0319  0.4776
 9478SOL    HW239897   2.594   0.858   5.925  0.0969  0.3045 -0.1590
 9479SOL     OW39898   0.002   2.685   5.952 -0.6987  0.5980 -0.4372
 9479SOL    HW139899   4.637   2.678   5.991 -1.6011 -0.6274 -2.6581
 9479SOL    HW239900   0.026   2.777   5.954 -2.3479  1.0102  1.0251
 9480SOL     OW39901   0.463   1.775   6.724 -0.2044  0.0617 -0.4868
 9480SOL    HW139902   0.410   1.826   6.785  0.0086  1.1215 -1.1957
 9480SOL    HW239903   0.398   1.768   6.654 -0.3279  0.1177 -0.3769
 9481SOL     OW39904   0.199   3.750   7.306  0.0889 -0.0567  0.4781
 9481SOL    HW139905   0.269   3.686   7.298  1.6434  1.5563  1.0063
 9481SOL    HW239906   0.130   3.686   7.293 -0.1255 -0.1668  2.1561
 9482SOL     OW39907   3.618   2.640   4.652  0.1450 -0.5079  0.1789
 9482SOL    HW139908   3.595   2.682   4.735  1.9370 -2.3181  1.5820
 9482SOL    HW239909   3.646   2.719   4.607 -0.4781 -2.2205 -3.2081
 9483SOL     OW39910   0.494   2.322  17.153  0.4355  0.2046 -0.1798
 9483SOL    HW139911   0.505   2.231  17.179  0.2907  0.0885 -0.5309
 9483SOL    HW239912   0.467   2.319  17.061  0.7729  3.0438 -0.3937
 9484SOL     OW39913   4.417   0.464   2.167 -0.7983  0.5765 -0.3324
 9484SOL    HW139914   4.375   0.483   2.083  0.4120  0.7112 -0.9076
 9484SOL    HW239915   4.403   0.546   2.213 -0.1189 -0.4674  1.7386
 9485SOL     OW39916   1.620   3.184   7.727 -0.1791  0.2149  0.5265
 9485SOL    HW139917   1.697   3.240   7.733  0.2213 -0.4543  1.7229
 9485SOL    HW239918   1.571   3.230   7.659 -0.0306 -0.5851 -0.1205
 9486SOL     OW39919   4.694   0.475   4.273  0.0769 -0.8684 -0.1788
 9486SOL    HW139920   0.008   0.411   4.334  0.0733 -0.4879  0.2212
 9486SOL    HW239921   4.661   0.546   4.328  1.9733 -0.7125  0.7572
 9487SOL     OW39922   3.795   0.330  10.964  0.4551  0.4320 -0.1423
 9487SOL    HW139923   3.882   0.298  10.987  0.4994 -0.3364 -1.3689
 9487SOL    HW239924   3.768   0.388  11.035  0.3672  0.2336 -0.0134
 9488SOL     OW39925   0.027   0.909   4.506 -0.1519 -0.2107  0.8414
 9488SOL    HW139926   4.684   0.917   4.576  1.2461 -1.8241  2.2965
 9488SOL    HW239927   0.072   0.993   4.510  0.2191 -0.3777  0.1919
 9489SOL     OW39928   2.368   4.056  15.799 -0.4088  0.1720 -0.0914
 9489SOL    HW139929   2.378   3.991  15.868  0.2407  0.7322  0.3389
 9489SOL    HW239930   2.459   4.068  15.770 -0.2772  2.3452  1.3129
 9490SOL     OW39931   0.502   1.486   4.724  0.7071  0.3106 -0.2681
 9490SOL    HW139932   0.551   1.410   4.692  1.3630  0.0249  1.4571
 9490SOL    HW239933   0.484   1.468   4.816 -0.0844 -1.7445 -0.8253
 9491SOL     OW39934   0.385   0.495  10.394  0.3499 -0.3981  0.6857
 9491SOL    HW139935   0.379   0.534  10.307  1.9771  1.6223  1.4916
 9491SOL    HW239936   0.372   0.401  10.378 -1.4239  0.0071 -0.2663
 9492SOL     OW39937   2.818   1.902   6.725  0.1708  0.7440 -0.4662
 9492SOL    HW139938   2.806   1.950   6.643 -2.2970  2.3420  0.8118
 9492SOL    HW239939   2.815   1.816   6.684  1.7090  0.6765 -0.4279
 9493SOL     OW39940   1.419   3.920   5.685  0.0216 -0.2236 -0.5148
 9493SOL    HW139941   1.338   3.919   5.736 -0.1773  2.8692 -0.7665
 9493SOL    HW239942   1.429   3.827   5.662  0.7565 -0.5731  1.2361
 9494SOL     OW39943   1.884   4.073   2.543 -0.3510 -0.2448  0.4351
 9494SOL    HW139944   1.806   4.106   2.586 -0.3205 -0.9945  1.0466
 9494SOL    HW239945   1.961   4.110   2.587 -0.4183  0.0384  0.3143
 9495SOL     OW39946   0.838   3.183   8.051  0.4162  0.4478 -0.1055
 9495SOL    HW139947   0.903   3.120   8.020  0.0475 -0.5023  1.0631
 9495SOL    HW239948   0.880   3.210   8.132  1.8194 -0.2584 -0.6027
 9496SOL     OW39949   0.154   2.631   4.469  0.0986  0.0195 -0.2066
 9496SOL    HW139950   0.160   2.709   4.524  1.6334  1.3013 -2.1906
 9496SOL    HW239951   0.127   2.661   4.382 -0.1519 -0.8850 -0.4389
 9497SOL     OW39952   1.293   0.368   2.721 -0.0913 -0.2668  0.1769
 9497SOL    HW139953   1.367   0.398   2.669  0.3410  0.6430  1.3294
 9497SOL    HW239954   1.298   0.273   2.707  0.0133 -0.1237 -0.8024
 9498SOL     OW39955   1.238   2.511   5.618  0.3454 -0.2684  0.4100
 9498SOL    HW139956   1.333   2.510   5.607  0.6283  1.9595  2.5564
 9498SOL    HW239957   1.239   2.602   5.647  0.3435  0.1260 -0.8621
 9499SOL     OW39958   4.584   0.487   6.607  0.2440  0.5443  0.3530
 9499SOL    HW139959   4.535   0.536   6.542 -1.1640  0.9301  1.7097
 9499SOL    HW239960   4.649   0.556   6.621  3.7177 -2.4329 -0.8262
 9500SOL     OW39961   0.239   1.587   5.495  0.3649  0.2672  0.4754
 9500SOL    HW139962   0.300   1.514   5.487 -0.3216 -0.4031  1.3274
 9500SOL    HW239963   0.299   1.655   5.464  1.0902 -0.4927  0.2167
 9501SOL     OW39964   3.807   0.207   7.543  0.5743  0.3866  0.1785
 9501SOL    HW139965   3.874   0.141   7.526  0.0549  0.1781 -1.0625
 9501SOL    HW239966   3.744   0.150   7.587  2.0445  0.7792  2.8055
 9502SOL     OW39967   3.317   2.616   8.595  0.2730 -0.0286  0.6189
 9502SOL    HW139968   3.408   2.605   8.567  0.7338  0.5614  1.8833
 9502SOL    HW239969   3.325   2.698   8.643  0.0370 -0.0396  0.6736
 9503SOL     OW39970   2.593   4.562   8.641  0.4994 -0.2671  0.4069
 9503SOL    HW139971   2.675   4.611   8.640 -0.5298  1.4678  1.5250
 9503SOL    HW239972   2.566   4.577   8.731  0.7355 -1.4596  0.6729
 9504SOL     OW39973   4.672   0.709   0.195  0.0999 -0.0294 -0.3590
 9504SOL    HW139974   4.646   0.787   0.244 -0.8082 -0.4102 -0.2314
 9504SOL    HW239975   0.018   0.658   0.239  0.4278 -1.3805 -2.4268
 9505SOL     OW39976   2.924   2.896  11.078 -0.0911 -0.0438 -0.6451
 9505SOL    HW139977   2.942   2.987  11.056 -0.9320  1.2091  3.8269
 9505SOL    HW239978   2.946   2.898  11.171  1.1369 -1.4912 -0.9217
 9506SOL     OW39979   2.146   0.942   8.832 -0.3561  0.2553 -0.8763
 9506SOL    HW139980   2.112   1.015   8.883 -0.0794 -0.3141  0.1330
 9506SOL    HW239981   2.226   0.988   8.806 -0.3531 -0.3097 -1.8613
 9507SOL     OW39982   3.255   2.374   6.857 -0.7332 -0.2783 -0.2250
 9507SOL    HW139983   3.216   2.461   6.864 -0.8675 -0.3062 -0.6171
 9507SOL    HW239984   3.299   2.391   6.773  0.8231  1.9658  1.0415
 9508SOL     OW39985   2.703   0.765  10.463  0.4988  0.1011  0.3104
 9508SOL    HW139986   2.764   0.697  10.433  2.0617  2.7467 -2.5054
 9508SOL    HW239987   2.617   0.727  10.479 -0.5494  2.9108  1.4459
 9509SOL     OW39988   2.007   4.497   1.399 -0.0504 -0.0271 -0.1432
 9509SOL    HW139989   2.034   4.407   1.416 -1.8885 -0.7339 -0.9434
 9509SOL    HW239990   2.096   4.526   1.379 -0.3861  1.1231  0.0207
 9510SOL     OW39991   4.018   2.729   5.162  0.5940 -0.0075 -0.0134
 9510SOL    HW139992   4.082   2.703   5.229  1.3430  0.8687 -0.4050
 9510SOL    HW239993   3.968   2.647   5.163 -0.4662  0.6607  2.0351
 9511SOL     OW39994   1.983   2.067  13.780  0.4506  0.0325 -0.6932
 9511SOL    HW139995   1.923   2.083  13.708  1.2949  0.2173 -1.3517
 9511SOL    HW239996   1.988   1.971  13.781  1.5731  0.1027  1.4677
 9512SOL     OW39997   4.337   2.049   4.240  0.0826 -0.5936  0.7844
 9512SOL    HW139998   4.274   2.109   4.280  0.0633 -1.5431  2.1766
 9512SOL    HW239999   4.282   1.971   4.236 -0.5381 -0.0867 -0.5708
 9513SOL     OW40000   1.440   0.438  16.969  0.5169  0.0976  0.1992
 9513SOL    HW140001   1.432   0.342  16.966 -0.0559  0.0398  3.8075
 9513SOL    HW240002   1.534   0.447  16.954  0.1441 -0.1167 -2.2428
 9514SOL     OW40003   4.117   0.709   4.998  0.5851  1.1930 -0.4657
 9514SOL    HW140004   4.040   0.702   5.053 -0.0683  0.0246 -1.5308
 9514SOL    HW240005   4.181   0.673   5.060 -0.5622  1.2534  0.7354
 9515SOL     OW40006   3.058   1.965  17.493 -0.4245  0.0632 -0.0772
 9515SOL    HW140007   3.153   1.967  17.504 -0.5339 -0.2322  0.9391
 9515SOL    HW240008   3.048   1.884  17.442  1.7306 -1.2552  1.5894
 9516SOL     OW40009   2.014   2.866  17.328  0.0010 -0.8000 -0.3487
 9516SOL    HW140010   2.032   2.938  17.388  2.1479 -1.6023 -0.0452
 9516SOL    HW240011   1.985   2.793  17.384 -0.1781  0.0336  0.6505
 9517SOL     OW40012   1.658   3.431   8.407  0.0660 -0.1041 -0.0713
 9517SOL    HW140013   1.674   3.516   8.447 -0.1145  0.2230 -0.6961
 9517SOL    HW240014   1.594   3.455   8.340 -0.5882 -1.8471 -0.0801
 9518SOL     OW40015   1.957   1.635   4.613 -0.1079  0.2783  0.8802
 9518SOL    HW140016   2.039   1.599   4.647 -0.9047 -0.5077  1.9950
 9518SOL    HW240017   1.903   1.555   4.611  0.1342  0.2195 -3.4719
 9519SOL     OW40018   1.355   3.548   1.245  0.3309  0.1007 -0.4300
 9519SOL    HW140019   1.355   3.528   1.338 -1.5453  0.5088 -0.3223
 9519SOL    HW240020   1.328   3.460   1.219 -0.5125  0.1182  0.3897
 9520SOL     OW40021   4.535   3.134   4.800 -0.3485 -0.2742 -0.0110
 9520SOL    HW140022   4.606   3.115   4.738  0.0326 -1.9224  0.9318
 9520SOL    HW240023   4.511   3.224   4.779  2.4690  0.6646  0.8233
 9521SOL     OW40024   1.214   4.559   2.578 -0.1322  0.1125 -0.3612
 9521SOL    HW140025   1.243   4.469   2.595  2.4647  0.7953 -1.1049
 9521SOL    HW240026   1.156   4.564   2.654 -1.6406  0.1779 -1.5151
 9522SOL     OW40027   1.313   2.304  12.192 -0.2149 -0.2861  0.5443
 9522SOL    HW140028   1.329   2.264  12.277  0.7807 -0.4567  0.2775
 9522SOL    HW240029   1.220   2.284  12.180 -0.1002  0.6226 -1.9302
 9523SOL     OW40030   0.987   1.939   0.449 -0.0941  0.0984  0.0826
 9523SOL    HW140031   0.895   1.962   0.461 -0.0468  1.4846 -2.1524
 9523SOL    HW240032   1.016   1.958   0.539 -3.0210  1.0194  0.8413
 9524SOL     OW40033   2.930   0.068   9.174  0.1579 -0.0270 -0.5348
 9524SOL    HW140034   2.866   0.045   9.106  0.0229  1.1805 -0.8186
 9524SOL    HW240035   2.872   0.046   9.247  1.6080  1.2601  0.9935
 9525SOL     OW40036   2.447   4.061   8.234  0.2997  0.1329  0.0667
 9525SOL    HW140037   2.481   3.993   8.291  0.9067 -0.9812 -1.6322
 9525SOL    HW240038   2.527   4.112   8.247 -0.2245  1.3640 -1.4208
 9526SOL     OW40039   1.587   2.684   8.885  0.5276 -0.1337 -0.0925
 9526SOL    HW140040   1.543   2.610   8.927 -1.3722  0.9606 -0.1295
 9526SOL    HW240041   1.682   2.686   8.892  0.3981 -1.0377  1.8045
 9527SOL     OW40042   3.436   0.774  12.381  0.8078  0.0770 -0.0641
 9527SOL    HW140043   3.464   0.836  12.448  2.8555  0.1919 -1.0339
 9527SOL    HW240044   3.494   0.807  12.313  2.7170 -0.4122  1.3174
 9528SOL     OW40045   0.086   4.692   7.379 -0.3174  0.1189 -0.0517
 9528SOL    HW140046   0.079   4.633   7.454  1.9696  0.7996  0.6895
 9528SOL    HW240047   0.000   4.673   7.342 -0.2186 -1.1405  0.3470
 9529SOL     OW40048   0.661   0.224   3.930 -0.0511 -0.4108  0.2069
 9529SOL    HW140049   0.621   0.140   3.909 -2.3647 -0.1128  3.4712
 9529SOL    HW240050   0.737   0.236   3.873 -0.7164 -1.0539 -0.8180
 9530SOL     OW40051   3.454   1.240  12.962 -0.5605  0.3337 -0.1078
 9530SOL    HW140052   3.501   1.316  12.995 -0.2733  0.8150 -1.6270
 9530SOL    HW240053   3.530   1.197  12.923  0.2335  1.0142  0.6862
 9531SOL     OW40054   1.202   0.757   9.772  0.7730 -0.4591 -0.7085
 9531SOL    HW140055   1.246   0.694   9.714 -0.0084 -1.4679 -0.2053
 9531SOL    HW240056   1.196   0.834   9.715  1.2602 -1.0534 -1.5712
 9532SOL     OW40057   0.836   1.580  10.893 -0.0823  0.1303  0.1036
 9532SOL    HW140058   0.929   1.559  10.887  0.1594  1.0991  0.6438
 9532SOL    HW240059   0.813   1.620  10.809  0.9286  0.2686 -0.1076
 9533SOL     OW40060   4.001   0.466   3.652 -0.2469 -0.0466  0.6281
 9533SOL    HW140061   3.935   0.526   3.618 -1.7581 -0.6578  2.4638
 9533SOL    HW240062   4.043   0.530   3.710 -0.4596  2.4933 -1.9940
 9534SOL     OW40063   4.520   1.213  15.516  0.7101  0.3772 -0.0639
 9534SOL    HW140064   4.474   1.202  15.433  2.2342 -0.6856 -0.7602
 9534SOL    HW240065   4.523   1.126  15.556 -1.9593  0.0254 -0.6017
 9535SOL     OW40066   1.003   2.516  15.489 -0.0020  0.3870 -0.2377
 9535SOL    HW140067   0.955   2.573  15.427  0.3743  1.6501  0.6346
 9535SOL    HW240068   1.034   2.442  15.437  0.2947  1.0387 -0.9946
 9536SOL     OW40069   4.712   3.001   3.359 -0.8762  0.3512  0.3221
 9536SOL    HW140070   4.623   3.018   3.329 -1.5168 -2.4316  0.6298
 9536SOL    HW240071   0.044   3.062   3.310  1.1679 -3.2925 -1.9776
 9537SOL     OW40072   1.131   0.796   5.626 -0.4534  0.4746 -0.5942
 9537SOL    HW140073   1.125   0.888   5.598  2.1324  0.3312 -1.5864
 9537SOL    HW240074   1.168   0.759   5.546 -0.4646  0.5173 -0.6195
 9538SOL     OW40075   3.338   4.505   8.564  0.4233 -0.0176  0.0626
 9538SOL    HW140076   3.337   4.447   8.640 -0.7914  1.4431  1.1555
 9538SOL    HW240077   3.332   4.589   8.610 -1.2632 -1.0696  1.7616
 9539SOL     OW40078   3.928   2.962  12.502 -0.3712  0.0151 -0.4321
 9539SOL    HW140079   3.916   2.956  12.597 -0.9328  2.2227 -0.3670
 9539SOL    HW240080   3.927   3.057  12.489  2.0564  0.0847 -0.2261
 9540SOL     OW40081   4.157   4.590   4.455  0.0335 -0.4183  0.2056
 9540SOL    HW140082   4.212   4.660   4.419 -1.6769  0.5389 -0.4994
 9540SOL    HW240083   4.202   4.516   4.414 -0.2967 -0.3261 -0.3225
 9541SOL     OW40084   2.836   1.057   6.537 -0.2837 -0.1461 -0.1942
 9541SOL    HW140085   2.778   1.131   6.555  0.6429  0.2176  1.3086
 9541SOL    HW240086   2.905   1.077   6.601  0.4523  0.6213 -1.2137
 9542SOL     OW40087   3.812   1.488  17.296 -0.4511  0.3245  0.8497
 9542SOL    HW140088   3.795   1.414  17.354  0.6458 -1.3373 -0.9444
 9542SOL    HW240089   3.726   1.489  17.252  1.6084 -0.2169 -3.1695
 9543SOL     OW40090   2.249   0.180   7.312  0.5752 -0.2730 -0.1770
 9543SOL    HW140091   2.234   0.235   7.389 -0.0111 -0.1481 -0.3793
 9543SOL    HW240092   2.304   0.232   7.254 -1.5646  3.4253  1.1461
 9544SOL     OW40093   3.198   4.476   6.601 -0.0635  0.0615  0.2922
 9544SOL    HW140094   3.104   4.459   6.595  0.1928 -0.8829 -1.2141
 9544SOL    HW240095   3.208   4.527   6.681  0.0798  0.0596  0.2767
 9545SOL     OW40096   1.781   3.805   0.532  0.2465 -1.1176  0.0354
 9545SOL    HW140097   1.850   3.745   0.558  0.6225 -1.5805 -1.9988
 9545SOL    HW240098   1.790   3.804   0.436  0.5397 -1.9847  0.0767
 9546SOL     OW40099   3.324   2.290  15.645 -0.0570  0.6917 -0.3980
 9546SOL    HW140100   3.254   2.226  15.635  0.8294 -0.7178  2.3827
 9546SOL    HW240101   3.399   2.230  15.646 -2.0705 -1.8051 -0.6373
 9547SOL     OW40102   1.416   2.633   3.383  0.2876 -0.0613  0.3540
 9547SOL    HW140103   1.430   2.585   3.301  2.0787  1.9213 -0.5077
 9547SOL    HW240104   1.494   2.688   3.384 -0.5388  1.1634 -1.5428
 9548SOL     OW40105   1.824   0.986  13.134  0.0037 -0.2279  0.0028
 9548SOL    HW140106   1.868   0.943  13.060  1.2413 -1.0012  1.1860
 9548SOL    HW240107   1.762   0.918  13.159  2.2206 -2.5147 -0.7019
 9549SOL     OW40108   3.897   2.478   2.651  0.5141 -0.3222  0.4816
 9549SOL    HW140109   3.831   2.546   2.645 -0.4373 -1.0975  2.2350
 9549SOL    HW240110   3.924   2.472   2.743 -0.9743  1.1543  1.0180
 9550SOL     OW40111   3.286   1.218  16.286 -0.5308  0.0162  0.1728
 9550SOL    HW140112   3.346   1.150  16.254 -1.8571 -0.6454 -0.9254
 9550SOL    HW240113   3.241   1.152  16.339  0.8481 -1.5605 -0.6226
 9551SOL     OW40114   2.788   4.069   3.996 -0.4301 -0.0600 -0.6174
 9551SOL    HW140115   2.796   4.118   4.078 -0.0379 -2.3710  0.7031
 9551SOL    HW240116   2.693   4.082   3.987 -0.7067 -1.6287  0.1354
 9552SOL     OW40117   3.768   1.693   6.578 -0.1933  0.2424 -0.3180
 9552SOL    HW140118   3.773   1.679   6.484  1.0782  0.0933 -0.2391
 9552SOL    HW240119   3.701   1.761   6.588  0.3090  0.7787 -0.6066
 9553SOL     OW40120   0.437   2.141  13.564  0.3422 -0.7847  0.1841
 9553SOL    HW140121   0.402   2.057  13.595  0.4038 -0.7044  0.4763
 9553SOL    HW240122   0.501   2.163  13.632 -0.7279  0.8159  0.6662
 9554SOL     OW40123   2.021   4.049  12.277 -0.2041  0.9818  0.0855
 9554SOL    HW140124   1.934   4.080  12.254 -0.0443 -0.2543 -2.1784
 9554SOL    HW240125   1.991   4.025  12.364 -0.7336 -2.2962 -1.0312
 9555SOL     OW40126   1.129   2.475   3.396 -0.1118 -0.6979  0.2033
 9555SOL    HW140127   1.035   2.465   3.408 -0.0056 -1.0692  0.7309
 9555SOL    HW240128   1.118   2.533   3.321  2.4845  2.0877  1.9891
 9556SOL     OW40129   3.570   0.225  14.586 -0.6959  0.1040 -0.6812
 9556SOL    HW140130   3.527   0.311  14.587 -0.1239  0.3613  1.4128
 9556SOL    HW240131   3.626   0.237  14.509 -1.4202 -0.9568 -1.3758
 9557SOL     OW40132   2.261   0.119  11.763 -0.0051  0.4045  0.7562
 9557SOL    HW140133   2.354   0.108  11.781  0.0498  1.5409  1.1451
 9557SOL    HW240134   2.249   0.156  11.676  0.1711 -0.3218  0.4233
 9558SOL     OW40135   2.201   1.741   6.692 -0.0443  0.2181  0.1189
 9558SOL    HW140136   2.127   1.728   6.633  1.5616 -3.2619 -1.1270
 9558SOL    HW240137   2.271   1.761   6.631  1.8050  1.5480  2.6441
 9559SOL     OW40138   2.829   2.175   3.125 -0.2371  0.1072  0.5399
 9559SOL    HW140139   2.861   2.256   3.085  1.0935 -0.2101  0.9522
 9559SOL    HW240140   2.907   2.146   3.172  0.2455 -0.1656 -0.4328
 9560SOL     OW40141   3.470   3.731   9.434 -0.6426 -0.2381  0.4634
 9560SOL    HW140142   3.514   3.660   9.481 -1.0156 -0.8224 -0.0773
 9560SOL    HW240143   3.380   3.699   9.425 -0.6783 -0.1373  0.4541
 9561SOL     OW40144   4.371   3.672   2.052  0.4544  0.3907 -0.4042
 9561SOL    HW140145   4.465   3.684   2.042  0.9393 -1.7984  1.6265
 9561SOL    HW240146   4.332   3.756   2.079  0.0002 -0.1918  0.7463
 9562SOL     OW40147   4.508   0.192   3.851  0.7857 -0.1660  0.1379
 9562SOL    HW140148   4.513   0.185   3.755 -0.5656  1.8478 -0.0741
 9562SOL    HW240149   4.419   0.222   3.869 -0.5734 -2.2156 -3.0187
 9563SOL     OW40150   1.513   0.799   8.344  0.3159  0.1398 -0.2229
 9563SOL    HW140151   1.479   0.882   8.376 -0.3208 -0.6309  1.1424
 9563SOL    HW240152   1.583   0.825   8.285 -1.9506  0.7913 -2.6127
 9564SOL     OW40153   1.428   2.517   8.137  0.0421 -0.6389 -0.1942
 9564SOL    HW140154   1.386   2.557   8.061 -1.9998  1.4542  2.0144
 9564SOL    HW240155   1.471   2.439   8.102  1.8569  0.5091 -0.4742
 9565SOL     OW40156   1.872   2.668   7.439 -0.3219 -0.3510 -0.4683
 9565SOL    HW140157   1.829   2.748   7.468  0.2376 -0.3181  0.2725
 9565SOL    HW240158   1.849   2.608   7.510 -0.6631  1.1364  0.6744
 9566SOL     OW40159   1.696   4.308   7.750  0.0365 -0.0196  0.0281
 9566SOL    HW140160   1.614   4.291   7.797  0.2003 -0.7771  0.0415
 9566SOL    HW240161   1.749   4.244   7.798 -0.0690 -0.9289 -1.0850
 9567SOL     OW40162   3.128   3.155  12.636  0.1058  0.5463  0.2281
 9567SOL    HW140163   3.064   3.127  12.570  1.3300 -0.1667 -0.6554
 9567SOL    HW240164   3.085   3.113  12.710 -1.0616  1.2232 -0.0652
 9568SOL     OW40165   3.770   2.957   8.585 -0.3413  0.5433  0.3344
 9568SOL    HW140166   3.823   2.906   8.524 -0.2124  0.0645  0.8491
 9568SOL    HW240167   3.680   2.934   8.560 -0.2378  0.9536 -0.4197
   4.72213   4.72213  17.69065
