Membrane in water
40167
    1TCq1    O1    1   0.023   3.004  10.684 -0.1286  0.3822  0.0274
    1TCq1    C1    2   0.106   3.036  10.786 -0.3397 -0.0152 -0.1889
    1TCq1    O2    3   0.072   3.068  10.900  0.2954 -0.0636  0.2595
    1TCq1    C2    4   0.213   2.937  10.769 -0.4491 -0.4276  0.2332
    1TCq1    C3    5   0.278   2.923  10.654 -0.1308  1.2411 -0.4725
    1TCq1    C4    6   0.363   2.818  10.640 -0.4123  0.4126 -0.2373
    1TCq1    C5    7   0.377   2.726  10.738  0.3395 -1.0346  0.2253
    1TCq1    C6    8   0.321   2.747  10.865  0.2103  0.4389  0.3465
    1TCq1    C7    9   0.236   2.854  10.875 -0.6292 -1.0924 -0.7460
    1TCq1    C8   10   0.318   2.643  10.967 -0.0651 -0.0209  0.1961
    1TCq1    O4   11   0.225   2.655  11.049  0.1379 -0.0376  0.3434
    1TCq1    C9   12   0.440   2.800  10.516 -0.1047  1.2832  0.2393
    1TCq1    O5   13   0.444   2.900  10.435  0.2782  0.2801 -0.6157
    1TCq1    O6   14   0.500   2.687  10.502 -0.1741 -0.3706  0.8903
    1TCq1    H1   15   0.060   2.977  10.598  0.1003  1.8807 -0.3506
    1TCq1    H2   16   0.266   2.996  10.575  3.3650  1.2123 -1.0104
    1TCq1    H3   17   0.436   2.637  10.720  3.7963  1.2828  0.1244
    1TCq1    H4   18   0.195   2.876  10.973  0.5635  0.4934 -0.5955
    2MPD2     C   19   0.489   2.186  11.141 -0.6325  0.0786 -0.7863
    2MPD2    C1   20   0.377   2.269  11.189 -0.5057 -0.0764  0.7458
    2MPD2    C2   21   0.360   2.396  11.134  0.0493 -0.5699 -0.0317
    2MPD2    C3   22   0.436   2.425  11.024  0.2734 -0.4005  0.8613
    2MPD2    C4   23   0.546   2.351  10.978  0.2848  0.8490 -0.1425
    2MPD2    C5   24   0.569   2.232  11.043 -0.2051 -0.2918 -0.1302
    2MPD2     H   25   0.281   2.463  11.165  0.7766 -0.1470  0.9184
    2MPD2    H1   26   0.595   2.376  10.885 -1.2820 -0.7044 -1.3908
    2MPD2    H2   27   0.512   2.090  11.184 -0.3645  0.1925 -0.6709
    2MPD2    H3   28   0.652   2.171  11.009  0.7000  0.5306  0.5858
    2MPD2     N   29   0.416   2.544  10.948 -0.2366 -0.6701  0.2286
    2MPD2    H5   30   0.493   2.555  10.883 -0.9276  0.4056 -0.4051
    2MPD2    N1   31   0.296   2.235  11.289 -0.7210 -0.0710  0.1998
    2MPD2    H7   32   0.227   2.302  11.322  0.2999  1.8133 -1.4465
    3TCq1    O1   33   3.507   3.087  10.596  0.5714 -0.0237  0.0854
    3TCq1    C1   34   3.606   3.141  10.665 -0.0642 -0.3355 -1.0236
    3TCq1    O2   35   3.706   3.180  10.609 -0.1649  0.2261 -0.2694
    3TCq1    C2   36   3.537   3.242  10.739 -0.2046 -0.3893  0.2147
    3TCq1    C3   37   3.594   3.366  10.749  0.5093  1.0778 -0.0941
    3TCq1    C4   38   3.547   3.456  10.834 -0.2449  0.1934 -0.0109
    3TCq1    C5   39   3.433   3.422  10.912  0.0256 -0.0023  0.0601
    3TCq1    C6   40   3.372   3.301  10.903  0.4446 -0.1663  0.3118
    3TCq1    C7   41   3.423   3.210  10.814  0.3983  0.2993 -0.4008
    3TCq1    C8   42   3.259   3.264  10.996  0.6080  0.4692 -0.1404
    3TCq1    O4   43   3.200   3.158  10.977 -0.0756 -0.2521 -0.2068
    3TCq1    C9   44   3.609   3.583  10.849  0.7477 -0.4506  0.0010
    3TCq1    O5   45   3.724   3.597  10.798  0.5707  0.2501 -0.2819
    3TCq1    O6   46   3.542   3.666  10.916 -0.2543  0.2309  0.2195
    3TCq1    H1   47   3.471   3.009  10.643 -1.1463  1.1353  0.7089
    3TCq1    H2   48   3.686   3.393  10.699 -0.1414  2.2678 -0.6291
    3TCq1    H3   49   3.398   3.508  10.967  0.5954  0.3767 -0.1613
    3TCq1    H4   50   3.376   3.113  10.797  1.1170 -0.0772 -0.2421
    4MPD2     C   51   2.968   3.393  11.402  0.7950 -0.1479 -0.1002
    4MPD2    C1   52   3.043   3.505  11.364 -0.4231 -0.1854 -0.3378
    4MPD2    C2   53   3.138   3.490  11.260  0.4896  0.4748  0.2497
    4MPD2    C3   54   3.141   3.372  11.187 -0.8642 -0.0411 -0.0143
    4MPD2    C4   55   3.054   3.268  11.213 -0.1615  0.3489 -0.7200
    4MPD2    C5   56   2.975   3.280  11.324 -0.1076  0.5994 -0.1352
    4MPD2     H   57   3.201   3.572  11.228  0.5023 -0.0038 -0.9360
    4MPD2    H1   58   3.056   3.175  11.156  0.3791 -1.6461  2.5408
    4MPD2    H2   59   2.898   3.394  11.484 -0.1622 -2.1935 -0.9054
    4MPD2    H3   60   2.902   3.202  11.346  1.9992 -2.4827 -3.9993
    4MPD2     N   61   3.244   3.360  11.091  0.3103 -0.6474 -0.3766
    4MPD2    H5   62   3.310   3.435  11.078 -0.5710 -0.1194 -1.8389
    4MPD2    N1   63   3.041   3.625  11.437  1.0306  0.7349  0.5504
    4MPD2    H7   64   3.113   3.691  11.409  1.3355  0.3056  0.2986
    5TCq1    O1   65   4.027   0.921  11.727 -0.3688  0.1448 -0.0205
    5TCq1    C1   66   4.041   0.932  11.595 -0.1385  0.1188  0.4637
    5TCq1    O2   67   4.146   0.922  11.534 -0.4196  0.3132 -0.2932
    5TCq1    C2   68   3.924   0.872  11.542  0.6581  0.3376  0.7913
    5TCq1    C3   69   3.802   0.909  11.596 -0.5129 -0.8895  0.2900
    5TCq1    C4   70   3.697   0.829  11.559  0.3465 -0.2879  0.6429
    5TCq1    C5   71   3.707   0.720  11.475 -0.2854 -0.2943  0.6969
    5TCq1    C6   72   3.834   0.685  11.429  0.1763  0.0038 -0.0058
    5TCq1    C7   73   3.941   0.757  11.462 -0.1957  0.7011  0.0980
    5TCq1    C8   74   3.848   0.588  11.324 -0.0633  0.1253 -0.2802
    5TCq1    O4   75   3.955   0.543  11.290 -0.0518 -0.0035  0.3445
    5TCq1    C9   76   3.570   0.853  11.624 -0.1006 -0.0202  0.4263
    5TCq1    O5   77   3.487   0.759  11.608  0.2486  0.0280  0.0848
    5TCq1    O6   78   3.583   0.925  11.729 -0.1642  0.0901  0.4081
    5TCq1    H1   79   3.936   0.919  11.762  0.8860 -2.4621  3.0573
    5TCq1    H2   80   3.786   0.999  11.654 -1.5199 -0.6205 -0.4178
    5TCq1    H3   81   3.612   0.679  11.444 -1.4981  1.3588  2.2653
    5TCq1    H4   82   4.025   0.737  11.396  1.1045  0.7873  1.7084
    6MPD2     C   83   3.579   0.408  11.161  0.0579 -0.5109 -0.1862
    6MPD2    C1   84   3.708   0.449  11.172 -0.2399 -0.2006 -0.0909
    6MPD2    C2   85   3.803   0.393  11.088 -0.1021 -0.8334  0.5368
    6MPD2    C3   86   3.769   0.300  10.997 -0.7109 -0.0442 -0.4022
    6MPD2    C4   87   3.633   0.274  10.971  0.4202 -0.3452  0.0393
    6MPD2    C5   88   3.543   0.329  11.056 -0.0763 -0.9367 -0.4878
    6MPD2     H   89   3.908   0.408  11.109  0.0727  0.7239 -1.4054
    6MPD2    H1   90   3.605   0.204  10.893  0.5353 -0.4626  0.1041
    6MPD2    H2   91   3.509   0.473  11.212 -0.3772 -0.5452 -0.7364
    6MPD2    H3   92   3.438   0.315  11.033  0.4090 -3.9779 -0.9012
    6MPD2     N   93   3.873   0.233  10.927 -0.0142 -0.7592  0.6450
    6MPD2    H5   94   3.969   0.241  10.959  0.1996  0.9056 -0.4422
    6MPD2    N1   95   3.729   0.554  11.266 -0.5621 -0.6780 -0.6303
    6MPD2    H7   96   3.652   0.598  11.315 -0.9674 -1.7658 -0.2936
    7TCq1    O1   97   1.553   0.887  13.391 -0.0288 -0.0973  0.0562
    7TCq1    C1   98   1.643   0.783  13.417  0.5954 -0.2573 -0.6276
    7TCq1    O2   99   1.762   0.787  13.393 -0.3263  0.1272  0.4705
    7TCq1    C2  100   1.575   0.670  13.475  0.3664 -0.6313 -0.4216
    7TCq1    C3  101   1.460   0.623  13.419 -0.0230 -0.7297 -0.1191
    7TCq1    C4  102   1.430   0.493  13.450 -0.5285 -0.4146 -0.1844
    7TCq1    C5  103   1.507   0.415  13.537  0.7229 -0.8564  0.1464
    7TCq1    C6  104   1.625   0.470  13.580  0.0743 -0.1991 -0.3564
    7TCq1    C7  105   1.662   0.599  13.554  0.0986  0.3721  0.3156
    7TCq1    C8  106   1.738   0.393  13.642  0.1425  0.2026  0.3062
    7TCq1    O4  107   1.835   0.462  13.664  0.0175 -0.0305 -0.6668
    7TCq1    C9  108   1.316   0.429  13.392  0.4658 -0.2390  0.3924
    7TCq1    O5  109   1.307   0.303  13.412 -0.0172 -0.2451 -0.0649
    7TCq1    O6  110   1.251   0.490  13.305  0.3127  0.3482  0.4303
    7TCq1    H1  111   1.465   0.872  13.430 -0.8766  0.5976 -1.5894
    7TCq1    H2  112   1.410   0.671  13.335  0.1236  1.5236  1.0742
    7TCq1    H3  113   1.493   0.308  13.537  0.7579 -0.8626 -0.3060
    7TCq1    H4  114   1.745   0.642  13.610 -0.4237  1.5117  0.2320
    8MPD2     C  115   1.917   4.695  13.891  0.0792  0.2242  0.4041
    8MPD2    C1  116   1.819   4.655  13.803  0.1470  0.5410  0.1687
    8MPD2    C2  117   1.748   0.020  13.717  0.4366  0.0897 -0.4775
    8MPD2    C3  118   1.789   0.153  13.720  0.1848 -0.2882 -0.5295
    8MPD2    C4  119   1.883   0.198  13.814  0.4534  0.2608 -0.2552
    8MPD2    C5  120   1.943   0.104  13.894  0.6990  0.0714 -0.1462
    8MPD2     H  121   1.669   4.712  13.649  1.0148 -0.2965 -0.9638
    8MPD2    H1  122   1.918   0.300  13.821  0.7245  0.2574 -1.6254
    8MPD2    H2  123   1.971   4.621  13.950  0.8993  0.3645 -0.1682
    8MPD2    H3  124   2.020   0.141  13.961  0.4015 -1.7549  1.2242
    8MPD2     N  125   1.710   0.252  13.658 -0.1270 -0.4152  0.3840
    8MPD2    H5  126   1.628   0.217  13.610  0.4281 -0.1776 -0.7197
    8MPD2    N1  127   1.794   4.517  13.798 -0.1391 -0.0153 -0.6299
    8MPD2    H7  128   1.845   4.459  13.864 -2.3130 -0.4855  0.6667
    9TCq1    O1  129   4.029   4.310  11.077 -0.5882 -0.9378 -0.1087
    9TCq1    C1  130   3.945   4.261  11.168  0.3465  0.7002  0.3644
    9TCq1    O2  131   3.823   4.249  11.154 -0.4338 -0.1304  0.4918
    9TCq1    C2  132   4.024   4.185  11.266 -0.1373 -0.1097 -0.3204
    9TCq1    C3  133   4.144   4.224  11.315  0.3704 -0.4404  0.4827
    9TCq1    C4  134   4.213   4.134  11.399 -0.0881 -0.9724  0.3957
    9TCq1    C5  135   4.164   4.006  11.421 -0.2410 -0.3123 -0.6078
    9TCq1    C6  136   4.051   3.969  11.350  0.5322 -0.5508  0.2885
    9TCq1    C7  137   3.976   4.057  11.274 -0.2917 -0.1600 -1.0374
    9TCq1    C8  138   3.999   3.834  11.361  0.3892 -0.1202  0.2069
    9TCq1    O4  139   3.884   3.814  11.338  0.0196 -0.4402  0.8615
    9TCq1    C9  140   4.336   4.183  11.458  0.5540 -0.0050 -0.8392
    9TCq1    O5  141   4.378   4.296  11.417 -0.0506 -0.0691  0.6105
    9TCq1    O6  142   4.393   4.113  11.545 -0.9464 -0.7129  0.0908
    9TCq1    H1  143   4.123   4.300  11.103 -0.5403  1.4516  0.6766
    9TCq1    H2  144   4.178   4.324  11.291  0.0524  0.3845  3.5129
    9TCq1    H3  145   4.222   3.940  11.484  2.0538  2.9039  0.6442
    9TCq1    H4  146   3.887   4.034  11.217 -0.1892 -1.8950 -0.4821
   10MPD2     C  147   3.939   3.565  11.457 -0.1668  0.3555  0.2447
   10MPD2    C1  148   4.066   3.614  11.434  0.4285 -0.5053  0.8554
   10MPD2    C2  149   4.169   3.523  11.458 -0.4904 -0.0422 -0.3695
   10MPD2    C3  150   4.142   3.388  11.491  0.1889  0.5928  0.1747
   10MPD2    C4  151   4.013   3.341  11.516  0.2081 -0.0674 -0.4820
   10MPD2    C5  152   3.912   3.438  11.498 -0.1113 -0.6156 -0.8464
   10MPD2     H  153   4.269   3.558  11.436 -0.0319 -0.0322  1.8229
   10MPD2    H1  154   3.992   3.239  11.546  0.2918  0.2198  0.5585
   10MPD2    H2  155   3.849   3.625  11.464 -1.0040 -0.7670 -1.0622
   10MPD2    H3  156   3.807   3.412  11.505  0.1888 -1.0205  1.9218
   10MPD2     N  157   4.241   3.298  11.522  0.0561 -0.0767 -0.0108
   10MPD2    H5  158   4.210   3.201  11.531  2.6210 -0.8464  0.4896
   10MPD2    N1  159   4.092   3.746  11.404 -0.1561 -0.5387 -0.2754
   10MPD2    H7  160   4.188   3.778  11.394  0.2570 -1.4244  0.9228
   11TCq1    O1  161   0.709   4.068  14.175 -0.0192 -0.7132 -0.3350
   11TCq1    C1  162   0.588   4.119  14.144 -0.4903  0.1039  0.0996
   11TCq1    O2  163   0.534   4.087  14.038 -0.6145  0.6814  0.7320
   11TCq1    C2  164   0.518   4.137  14.266 -0.4498 -0.2860  0.3091
   11TCq1    C3  165   0.581   4.192  14.375  0.6184  0.9182 -0.2287
   11TCq1    C4  166   0.506   4.221  14.491  0.6331  0.6281  0.1277
   11TCq1    C5  167   0.372   4.190  14.492 -0.0098 -0.7377  0.5730
   11TCq1    C6  168   0.319   4.120  14.385 -0.8615 -0.1970 -0.3542
   11TCq1    C7  169   0.389   4.095  14.269  0.2790  0.5061 -0.5336
   11TCq1    C8  170   0.194   4.045  14.404  0.3003 -0.1256  0.2997
   11TCq1    O4  171   0.125   4.080  14.500 -0.3142 -0.5392  0.5392
   11TCq1    C9  172   0.563   4.279  14.612 -0.5426  0.3247  0.6406
   11TCq1    O5  173   0.483   4.324  14.699 -0.5314  0.5370 -0.0475
   11TCq1    O6  174   0.688   4.296  14.610  0.2919  0.8398 -0.1668
   11TCq1    H1  175   0.732   4.057  14.270 -4.4654  0.5248  0.8703
   11TCq1    H2  176   0.686   4.221  14.379  0.8262 -0.1159  1.5333
   11TCq1    H3  177   0.318   4.209  14.584 -1.8891  1.0490 -0.8739
   11TCq1    H4  178   0.335   4.066  14.180 -0.9194 -0.1117  0.3855
   12MPD2     C  179   4.658   3.899  14.367 -0.0059  0.3432 -0.2830
   12MPD2    C1  180   0.050   3.873  14.297 -0.4149 -0.8492 -0.4130
   12MPD2    C2  181   0.058   3.771  14.212 -0.0825  0.1243  0.2197
   12MPD2    C3  182   4.677   3.694  14.191  0.5190  0.2058 -0.3629
   12MPD2    C4  183   4.555   3.721  14.258 -0.0631 -1.0905  0.4639
   12MPD2    C5  184   4.547   3.813  14.353 -0.0562 -0.6801  0.7651
   12MPD2     H  185   0.147   3.745  14.155 -0.9681 -0.7470 -0.7691
   12MPD2    H1  186   4.460   3.674  14.231  0.0692 -0.6320 -0.7947
   12MPD2    H2  187   4.650   3.989  14.426 -1.6157 -0.7815  1.2385
   12MPD2    H3  188   4.462   3.823  14.419 -1.1312  0.7360 -0.8490
   12MPD2     N  189   4.692   3.579  14.109 -0.2828 -0.4621 -0.0805
   12MPD2    H5  190   0.055   3.575  14.061  0.3356 -1.5221  1.1609
   12MPD2    N1  191   0.169   3.949  14.307 -0.2065  0.1636 -0.4381
   12MPD2    H7  192   0.239   3.929  14.236 -0.3779  0.7917 -0.7870
   13TCq1    O1  193   4.368   2.125  11.286 -0.5482  0.2710  0.1880
   13TCq1    C1  194   4.409   2.187  11.398  0.0803  0.8557  0.5882
   13TCq1    O2  195   4.479   2.142  11.487  0.3897 -0.4610 -0.2573
   13TCq1    C2  196   4.365   2.327  11.393 -0.0772 -0.1877 -0.0485
   13TCq1    C3  197   4.465   2.419  11.382 -0.0665  0.3877  0.2317
   13TCq1    C4  198   4.423   2.552  11.376 -0.1299  0.6218  0.4939
   13TCq1    C5  199   4.296   2.585  11.407  0.3164 -0.5659 -0.1776
   13TCq1    C6  200   4.203   2.491  11.431 -0.0620 -0.0475  0.4706
   13TCq1    C7  201   4.234   2.361  11.415  0.8228  0.9990  0.6556
   13TCq1    C8  202   4.070   2.530  11.482  0.1265  0.1199 -0.2107
   13TCq1    O4  203   4.059   2.632  11.544  0.2208 -0.6629 -0.2938
   13TCq1    C9  204   4.513   2.652  11.340  0.2064  0.7923 -0.3000
   13TCq1    O5  205   4.472   2.766  11.304  0.7554  0.5606  1.0403
   13TCq1    O6  206   4.624   2.612  11.295 -1.0617 -0.3041 -0.0244
   13TCq1    H1  207   4.339   2.190  11.218 -2.4991 -1.5330 -0.6919
   13TCq1    H2  208   4.568   2.386  11.366 -1.0068 -2.0219 -0.8141
   13TCq1    H3  209   4.272   2.690  11.422  1.3962  0.1145 -3.3352
   13TCq1    H4  210   4.168   2.278  11.437 -0.5410  1.2074 -2.6250
   14MPD2     C  211   3.747   2.393  11.364  0.2139  0.0373 -0.0027
   14MPD2    C1  212   3.833   2.471  11.442  0.2629 -0.8029  0.2454
   14MPD2    C2  213   3.784   2.581  11.504  0.1931  0.0419 -0.3272
   14MPD2    C3  214   3.648   2.610  11.496  0.7711  0.0985  0.1826
   14MPD2    C4  215   3.562   2.529  11.430  0.2444 -0.9167  0.2349
   14MPD2    C5  216   3.613   2.427  11.361  0.6091 -0.5456 -0.3964
   14MPD2     H  217   3.844   2.655  11.555  1.4678 -0.1664 -1.5218
   14MPD2    H1  218   3.454   2.529  11.427  0.2218 -0.1934  0.9497
   14MPD2    H2  219   3.786   2.316  11.299  1.0150  1.3194 -1.0372
   14MPD2    H3  220   3.544   2.364  11.307 -0.3847 -1.5318  2.0085
   14MPD2     N  221   3.600   2.722  11.568  0.2941  0.2470 -0.6396
   14MPD2    H5  222   3.664   2.773  11.629 -2.5476  1.1277  1.6259
   14MPD2    N1  223   3.970   2.436  11.448  0.8707 -0.3455  0.4297
   14MPD2    H7  224   4.006   2.365  11.385 -1.1565 -1.5712  0.6649
   15TCq1    O1  225   1.124   3.116   2.152 -0.1413 -0.2291 -0.0046
   15TCq1    C1  226   1.165   3.053   2.034 -0.7199 -0.8383 -0.1654
   15TCq1    O2  227   1.110   3.067   1.925  0.1302  0.3069  0.0488
   15TCq1    C2  228   1.301   3.027   2.045  0.1266  0.2074  0.3382
   15TCq1    C3  229   1.357   3.001   2.171  0.0379 -0.1950 -0.0576
   15TCq1    C4  230   1.494   2.992   2.165  0.0950  0.4680 -0.1797
   15TCq1    C5  231   1.574   3.009   2.057  0.1298 -0.4861 -0.4274
   15TCq1    C6  232   1.517   3.043   1.938 -0.5832  0.2321  0.1485
   15TCq1    C7  233   1.381   3.059   1.938  0.2405  0.2554  0.0347
   15TCq1    C8  234   1.593   3.030   1.814 -0.5181  0.2137 -0.2194
   15TCq1    O4  235   1.687   2.957   1.832 -0.3339 -0.4462 -0.4403
   15TCq1    C9  236   1.559   2.961   2.288  0.6056 -0.7721  1.2597
   15TCq1    O5  237   1.484   2.927   2.387 -0.2399  0.0995 -0.3215
   15TCq1    O6  238   1.683   2.978   2.294 -0.1810 -0.4717 -0.1051
   15TCq1    H1  239   1.204   3.117   2.209 -0.5917 -1.5293  0.6601
   15TCq1    H2  240   1.303   2.961   2.257  0.6990 -0.0220  0.4398
   15TCq1    H3  241   1.682   3.009   2.066  0.0607 -0.2016  0.3603
   15TCq1    H4  242   1.337   3.052   1.839 -1.1547  0.5487  0.6283
   16MPD2     C  243   1.548   3.179   1.477  0.1267  0.1436  0.3240
   16MPD2    C1  244   1.608   3.104   1.579 -0.4474  0.2163 -0.5716
   16MPD2    C2  245   1.737   3.057   1.550 -0.0951  0.1089  0.4950
   16MPD2    C3  246   1.793   3.063   1.426 -0.5910 -0.0536  0.1236
   16MPD2    C4  247   1.719   3.120   1.327 -0.3930 -0.2264 -0.9960
   16MPD2    C5  248   1.607   3.191   1.354 -0.2056 -0.5687 -0.1905
   16MPD2     H  249   1.799   3.013   1.627 -1.2146 -0.2993  1.1719
   16MPD2    H1  250   1.739   3.111   1.220  1.0836  0.4532 -0.7726
   16MPD2    H2  251   1.450   3.226   1.478  0.6513  1.2280  0.5896
   16MPD2    H3  252   1.554   3.243   1.275 -0.3217 -0.0434  0.2322
   16MPD2     N  253   1.916   2.995   1.405  0.2770  0.1185  0.2612
   16MPD2    H5  254   1.941   2.949   1.492 -0.4394  1.3877  1.1371
   16MPD2    N1  255   1.539   3.087   1.703  0.2473  0.0140 -0.3004
   16MPD2    H7  256   1.446   3.128   1.706 -0.5573 -1.8889  1.0232
   17TCq1    O1  257   3.185   2.340  10.909 -0.3579  0.2195  0.1396
   17TCq1    C1  258   3.186   2.456  10.839 -0.0452  0.3261 -0.8387
   17TCq1    O2  259   3.135   2.560  10.880  0.2743  0.0132  0.5328
   17TCq1    C2  260   3.302   2.468  10.749  0.6091  0.1686 -0.0745
   17TCq1    C3  261   3.347   2.598  10.725  0.4174 -0.5457  0.4150
   17TCq1    C4  262   3.447   2.615  10.630  0.0788 -0.3624 -0.1295
   17TCq1    C5  263   3.495   2.512  10.556 -0.7105  0.2158  0.4579
   17TCq1    C6  264   3.450   2.384  10.583 -0.2710 -0.8481  0.3206
   17TCq1    C7  265   3.352   2.363  10.674  0.4174  0.4419  0.0664
   17TCq1    C8  266   3.496   2.272  10.499 -0.1055  0.1594  0.6161
   17TCq1    O4  267   3.427   2.174  10.486  0.7747  0.5662  0.8069
   17TCq1    C9  268   3.495   2.748  10.611  0.0099 -0.3934  0.3820
   17TCq1    O5  269   3.447   2.834  10.690  0.6608 -0.1809 -0.3773
   17TCq1    O6  270   3.606   2.764  10.552  0.4897  0.2207  0.1316
   17TCq1    H1  271   3.220   2.262  10.860  0.8526  1.7596 -1.4448
   17TCq1    H2  272   3.306   2.678  10.786  0.3929  0.8578 -1.4462
   17TCq1    H3  273   3.566   2.527  10.475 -0.7052  0.6351  0.5406
   17TCq1    H4  274   3.337   2.262  10.710 -0.6733 -0.4742 -3.0332
   18MPD2     C  275   3.669   2.065  10.365  0.6900 -0.7200  0.1079
   18MPD2    C1  276   3.696   2.201  10.379  0.0619 -0.3352 -0.5375
   18MPD2    C2  277   3.818   2.246  10.340  0.3309 -0.2977  0.5783
   18MPD2    C3  278   3.910   2.169  10.272 -0.0924 -0.0624 -0.3625
   18MPD2    C4  279   3.873   2.039  10.247  0.4591 -0.3490  0.3675
   18MPD2    C5  280   3.757   1.993  10.288  0.5315 -0.1657 -0.2514
   18MPD2     H  281   3.836   2.352  10.357 -1.6430  0.1625 -0.1113
   18MPD2    H1  282   3.938   1.975  10.188  1.0751 -0.4348  1.1448
   18MPD2    H2  283   3.576   2.019  10.397  0.8988 -1.0129  0.2938
   18MPD2    H3  284   3.740   1.886  10.277  0.6743 -0.2722  0.5705
   18MPD2     N  285   4.041   2.217  10.235  0.2192  0.2114 -0.5157
   18MPD2    H5  286   4.100   2.153  10.183 -0.6218  1.1491 -2.6314
   18MPD2    N1  287   3.611   2.300  10.436 -0.2216 -0.0769 -0.3974
   18MPD2    H7  288   3.644   2.396  10.444  0.4286 -0.2456 -1.1672
   19TMC2    C1  289   2.019   3.089  13.593 -0.4084  0.0016 -0.1392
   19TMC2    C2  290   2.109   3.019  13.510 -0.3182 -0.0602  0.2174
   19TMC2    C3  291   2.051   2.938  13.412 -0.5365  0.0980 -0.5935
   19TMC2    C4  292   1.885   3.089  13.575  0.0326  0.3535 -0.3268
   19TMC2    C5  293   1.841   3.001  13.483 -0.6227 -0.2795  0.3765
   19TMC2    C6  294   1.917   2.925  13.402 -0.4138 -0.0233 -0.8123
   19TMC2     C  295   2.072   3.169  13.696 -0.3990  0.0791  0.4287
   19TMC2     O  296   2.188   3.204  13.680  0.2793 -0.0402  0.2631
   19TMC2     H  297   2.216   3.024  13.520 -0.2156 -2.0893  0.2491
   19TMC2    H1  298   1.826   3.151  13.642 -0.4370 -0.2148 -0.2162
   19TMC2    H2  299   1.869   2.860  13.329 -1.1708 -1.0269  0.6003
   19TMC2    C7  300   1.702   2.989  13.505  0.5373 -0.1034 -0.4709
   19TMC2    C8  301   2.141   2.852  13.330  0.2945  0.2731 -0.3274
   19TMC2    O1  302   1.658   3.034  13.609 -0.8076  0.2979  0.4003
   19TMC2    O2  303   2.255   2.841  13.365 -0.2373 -0.5065 -0.0169
   19TMC2    O5  304   2.076   2.769  13.251  0.0807  0.0459  0.1764
   19TMC2    H5  305   1.996   2.808  13.210 -1.2094 -0.0354  2.6101
   20MPD2     C  306   2.162   3.313  13.938  0.8699 -0.2382  0.3611
   20MPD2    C1  307   2.033   3.262  13.925  0.1089  0.2634 -0.4616
   20MPD2    C2  308   1.947   3.257  14.037  0.4441 -0.1240 -0.5576
   20MPD2    C3  309   1.989   3.306  14.162  0.4142 -0.3701  0.4196
   20MPD2    C4  310   2.112   3.361  14.174  0.1367  0.5464 -0.6190
   20MPD2    C5  311   2.194   3.368  14.060 -0.5935  0.2857 -0.4292
   20MPD2     H  312   1.850   3.211  14.025 -0.8607  2.8648 -1.4728
   20MPD2    H1  313   2.151   3.393  14.271 -0.6819  0.7927 -0.3702
   20MPD2    H2  314   2.239   3.321  13.862 -0.5218  0.3530 -0.9962
   20MPD2    H3  315   2.288   3.420  14.072  0.4659 -1.3746 -1.5372
   20MPD2     N  316   1.910   3.291  14.279  0.8433 -0.0242  0.0508
   20MPD2    H5  317   1.950   3.323  14.366 -0.6447  0.0214  0.7045
   20MPD2    N1  318   1.995   3.191  13.806 -0.3117 -0.6306  0.9160
   20MPD2    H7  319   1.905   3.145  13.802 -0.0443 -1.1592  0.9737
   21MPD2     C  320   3.519   3.721  14.726  0.9582  0.1858 -0.3020
   21MPD2    C1  321   3.582   3.606  14.776 -0.2945  0.5549 -0.5744
   21MPD2    C2  322   3.515   3.506  14.840 -0.2248 -0.2602  0.0819
   21MPD2    C3  323   3.378   3.513  14.861 -0.5987 -0.1540  0.3088
   21MPD2    C4  324   3.322   3.632  14.812 -0.3345 -0.4622  0.2335
   21MPD2    C5  325   3.388   3.736  14.753 -0.6168 -0.4959 -0.7276
   21MPD2     H  326   3.568   3.421  14.882 -1.5561 -0.2565  1.7439
   21MPD2    H1  327   3.216   3.649  14.828 -0.0171  0.1934  1.5914
   21MPD2    H2  328   3.562   3.802  14.668 -0.4505  1.9153  1.0595
   21MPD2    H3  329   3.343   3.827  14.718 -1.9687 -0.1618  1.8442
   21MPD2     N  330   3.299   3.410  14.921 -0.9226  0.4397  0.4643
   21MPD2    H5  331   3.199   3.422  14.925 -1.3335 -2.9645  0.1624
   21MPD2    N1  332   3.721   3.578  14.758  0.9600 -0.0938  0.0494
   21MPD2    H7  333   3.762   3.504  14.814 -0.7452 -0.6503  0.5837
   22TCq2    C1  334   3.346   3.282  14.960 -0.7032  0.0163 -0.3035
   22TCq2    O2  335   3.461   3.234  14.972 -0.2791 -0.0446 -0.2027
   22TCq2    C2  336   3.243   3.194  15.011  0.4835 -0.0671  0.2715
   22TCq2    C3  337   3.278   3.085  15.086 -0.2594  0.3941 -0.5376
   22TCq2    C4  338   3.195   2.986  15.116 -0.0985  0.3898  0.0203
   22TCq2    C5  339   3.071   2.988  15.062  0.0417  0.1751  0.0978
   22TCq2    C6  340   3.034   3.096  14.983 -0.8833 -0.8496  0.0560
   22TCq2    C7  341   3.121   3.201  14.956 -0.3755  0.0217  0.1888
   22TCq2    C8  342   2.900   3.102  14.930 -0.1697  0.2811 -0.0109
   22TCq2    O4  343   2.836   2.999  14.934  0.3879  0.7033 -0.0389
   22TCq2    C9  344   3.239   2.870  15.184 -0.0801 -0.2968 -0.1110
   22TCq2    O5  345   3.348   2.820  15.155 -0.3237  0.0356 -0.2809
   22TCq2    O6  346   3.150   2.818  15.266  0.2342 -0.6454  0.0289
   22TCq2    H2  347   3.382   3.074  15.116 -0.2702 -1.8348 -1.3424
   22TCq2    H3  348   3.006   2.902  15.064 -0.1366  0.3499  1.6047
   22TCq2    H4  349   3.102   3.274  14.878 -2.5863 -0.8897 -0.1344
   23MPD2     C  350   0.424   0.272  15.225 -1.3258 -0.4164  0.6256
   23MPD2    C1  351   0.362   0.153  15.273  0.2664  0.8469  0.4468
   23MPD2    C2  352   0.233   0.137  15.234  0.2110  0.0032 -0.5699
   23MPD2    C3  353   0.156   0.232  15.156 -0.7308  0.2679 -0.6023
   23MPD2    C4  354   0.223   0.344  15.108  0.4153 -0.4496  0.8083
   23MPD2    C5  355   0.356   0.366  15.148  0.4312  0.2105 -0.1791
   23MPD2     H  356   0.191   0.045  15.272  2.9627 -0.6149  0.9783
   23MPD2    H1  357   0.169   0.413  15.045  0.7750 -0.4822  0.4659
   23MPD2    H2  358   0.524   0.299  15.255 -1.5486  0.3040  0.7151
   23MPD2    H3  359   0.412   0.453  15.114  1.7323 -0.7131 -0.4005
   23MPD2     N  360   0.024   0.207  15.107  0.0876  0.2930 -0.0551
   23MPD2    H5  361   4.712   0.271  15.037 -1.6429  0.6884  1.2271
   23MPD2    N1  362   0.433   0.052  15.347 -0.3088 -0.1975  1.0174
   23MPD2    H7  363   0.371   4.703  15.374 -0.4108  0.4858  2.6811
   24TCq2    C1  364   4.665   0.097  15.130 -0.1291  0.2620 -0.4742
   24TCq2    O2  365   4.693   4.723  15.190 -0.2986  0.8328 -0.0123
   24TCq2    C2  366   4.542   0.110  15.051  0.3967  0.2849 -0.2301
   24TCq2    C3  367   4.516   0.225  14.980 -0.1560 -0.0893  0.2286
   24TCq2    C4  368   4.397   0.232  14.916  0.3495 -0.6926  0.5412
   24TCq2    C5  369   4.302   0.133  14.912  0.5937 -0.0950 -0.2265
   24TCq2    C6  370   4.335   0.023  14.988  0.7302  0.5402  1.0841
   24TCq2    C7  371   4.454   0.009  15.056  0.4424 -0.3505 -0.2948
   24TCq2    C8  372   4.239   4.642  14.982 -0.7784 -0.1796 -0.4182
   24TCq2    O4  373   4.291   4.530  15.002  0.1475  0.7628  0.6829
   24TCq2    C9  374   4.382   0.357  14.836  0.1348  0.2462  0.7187
   24TCq2    O5  375   4.473   0.438  14.836 -0.4101  0.0564  0.4416
   24TCq2    O6  376   4.266   0.373  14.795 -0.2865 -0.0379  0.2143
   24TCq2    H2  377   4.585   0.309  14.970 -0.1335 -0.2889 -1.2621
   24TCq2    H3  378   4.218   0.151  14.846 -0.2146  1.2066  1.1559
   24TCq2    H4  379   4.471   4.657  15.130 -0.6579 -0.4701 -0.1702
   25TMC2    C1  380   3.750   1.585  11.517  0.1403  0.2827 -0.2965
   25TMC2    C2  381   3.621   1.619  11.495 -1.0287  0.1667 -0.3495
   25TMC2    C3  382   3.575   1.729  11.562  0.0147  0.1644 -0.2754
   25TMC2    C4  383   3.832   1.662  11.605  0.8643  0.1445 -0.4972
   25TMC2    C5  384   3.783   1.776  11.660 -0.7431  0.1116  0.4440
   25TMC2    C6  385   3.656   1.811  11.637 -0.5387 -0.1855 -0.0640
   25TMC2     C  386   3.811   1.459  11.461  0.1930  0.1455  0.0242
   25TMC2     O  387   3.932   1.443  11.450 -0.2056 -0.4260  0.4898
   25TMC2     H  388   3.558   1.569  11.423 -2.2650 -0.3898  1.1016
   25TMC2    H1  389   3.928   1.621  11.636  2.0804  1.5031 -2.4749
   25TMC2    H2  390   3.608   1.895  11.685  0.1065  0.2770 -0.2259
   25TMC2    C7  391   3.835   1.823  11.791  0.6828  0.4477 -0.1564
   25TMC2    C8  392   3.442   1.780  11.544  0.8067  0.2802  0.1708
   25TMC2    O1  393   3.745   1.859  11.866  0.2319 -0.1775  0.1129
   25TMC2    O2  394   3.412   1.894  11.572 -0.1669 -0.5373 -0.2865
   25TMC2    O5  395   3.363   1.675  11.509  0.0935  0.0436  0.0328
   25TMC2    H5  396   3.407   1.588  11.512  0.6979  0.3594  0.2738
   26MPD2     C  397   3.705   1.032  11.200  1.2655 -0.7505  0.1060
   26MPD2    C1  398   3.605   1.051  11.294  0.0521 -0.2968  0.0975
   26MPD2    C2  399   3.614   1.160  11.380  0.3385  0.2641  0.7124
   26MPD2    C3  400   3.721   1.245  11.380 -0.1491 -0.0776  0.1944
   26MPD2    C4  401   3.828   1.216  11.291  0.8333  1.0038  0.5229
   26MPD2    C5  402   3.812   1.118  11.193  0.2480 -0.1575  0.1259
   26MPD2     H  403   3.531   1.187  11.443 -1.5975 -0.5627 -1.4922
   26MPD2    H1  404   3.912   1.283  11.273  0.3535  1.5984  0.5296
   26MPD2    H2  405   3.704   0.950  11.128 -0.2230 -1.0711  0.4846
   26MPD2    H3  406   3.890   1.114  11.118 -0.4471 -2.2215 -0.4987
   26MPD2     N  407   3.715   1.363  11.461  0.0266 -0.3125  0.5751
   26MPD2    H5  408   3.626   1.370  11.509  1.2179 -1.2674  2.8640
   26MPD2    N1  409   3.485   0.973  11.286  0.0296 -0.3725  0.4486
   26MPD2    H7  410   3.475   0.908  11.209  2.7495 -0.6502  0.3280
   27TMC2    C1  411   2.633   3.890  12.380 -0.7039 -0.0736  0.1417
   27TMC2    C2  412   2.763   3.854  12.347  0.1913 -0.1163 -0.4471
   27TMC2    C3  413   2.845   3.947  12.286 -0.3607  0.2259 -0.8456
   27TMC2    C4  414   2.593   4.025  12.378  0.4230 -0.4947  0.2736
   27TMC2    C5  415   2.685   4.119  12.332  0.0695 -0.2202  0.4883
   27TMC2    C6  416   2.811   4.081  12.287 -0.5342 -0.3642  0.8871
   27TMC2     C  417   2.576   3.811  12.486  0.4510 -0.0897  0.6057
   27TMC2     O  418   2.635   3.704  12.507 -0.0140  0.2958  0.2184
   27TMC2     H  419   2.802   3.753  12.357  0.1915 -0.1421 -0.7035
   27TMC2    H1  420   2.491   4.053  12.402  0.7385 -1.1022  2.4253
   27TMC2    H2  421   2.882   4.158  12.261 -0.0692 -1.0072  0.2648
   27TMC2    C7  422   2.683   4.239  12.419 -0.0446 -0.0115  0.6382
   27TMC2    C8  423   2.991   3.937  12.279  0.3172 -0.6542  0.0723
   27TMC2    O1  424   2.728   4.343  12.375  0.3016  0.1405  0.5144
   27TMC2    O2  425   3.073   4.015  12.328  0.1142  0.7004 -0.4245
   27TMC2    O5  426   3.010   3.815  12.222 -0.0733  0.0588 -0.3040
   27TMC2    H5  427   2.929   3.764  12.199  0.0280  0.5066 -1.6344
   28MPD2     C  428   2.256   3.634  12.856 -0.3502 -0.8311 -0.5138
   28MPD2    C1  429   2.231   3.770  12.846 -0.4029  0.4841  0.9339
   28MPD2    C2  430   2.295   3.849  12.750 -0.1339  0.4308  0.5042
   28MPD2    C3  431   2.394   3.792  12.666 -0.8884  0.2505 -0.5305
   28MPD2    C4  432   2.410   3.652  12.685  0.9381 -0.2528  0.0738
   28MPD2    C5  433   2.335   3.576  12.764 -0.8922  0.1624 -0.2654
   28MPD2     H  434   2.262   3.950  12.731 -0.1213  0.3474  0.0535
   28MPD2    H1  435   2.482   3.594  12.629  1.5074  1.2376 -0.7576
   28MPD2    H2  436   2.196   3.567  12.917 -0.9543 -0.8544 -1.1331
   28MPD2    H3  437   2.364   3.472  12.769 -0.8038  0.2386  0.7265
   28MPD2     N  438   2.461   3.866  12.557  0.5268 -0.5304 -0.2608
   28MPD2    H5  439   2.427   3.959  12.536  2.5074  0.1804 -0.3543
   28MPD2    N1  440   2.123   3.806  12.926  0.2590 -0.1142  0.3724
   28MPD2    H7  441   2.076   3.735  12.981 -0.3152  0.7578  1.0163
   29MPD2     C  442   1.862   1.613  14.092  0.2263  0.3689  0.4307
   29MPD2    C1  443   1.988   1.644  14.133  0.3700  0.1218 -0.2620
   29MPD2    C2  444   2.033   1.777  14.131  0.6197  0.1426  0.0694
   29MPD2    C3  445   1.944   1.878  14.106 -0.1082  0.5363  0.3475
   29MPD2    C4  446   1.812   1.848  14.077  0.0927  0.0754  0.5452
   29MPD2    C5  447   1.774   1.718  14.066 -0.0744  0.1883  0.4703
   29MPD2     H  448   2.135   1.801  14.156  0.5561  2.0149 -1.4250
   29MPD2    H1  449   1.730   1.918  14.064  1.3456  1.5168  0.4244
   29MPD2    H2  450   1.829   1.511  14.074 -1.9075  1.2725 -0.7828
   29MPD2    H3  451   1.670   1.702  14.042  0.2921  0.4712 -1.3321
   29MPD2     N  452   1.975   2.015  14.133 -0.6264  0.6962  0.3293
   29MPD2    H5  453   1.896   2.078  14.126 -1.6613 -0.6496 -0.1242
   29MPD2    N1  454   2.091   1.546  14.126 -0.2888  0.2478  0.7411
   29MPD2    H7  455   2.183   1.579  14.154 -0.7973  1.8650  0.5058
   30TCq2    C1  456   2.098   2.065  14.160 -0.3757 -0.1130 -0.6887
   30TCq2    O2  457   2.212   2.026  14.124 -0.0638 -0.0623 -0.3533
   30TCq2    C2  458   2.083   2.194  14.209  0.1567  0.9628 -0.2628
   30TCq2    C3  459   1.958   2.238  14.253  0.0341 -0.0801 -0.5428
   30TCq2    C4  460   1.937   2.368  14.292  0.4084  0.4264 -0.5859
   30TCq2    C5  461   2.031   2.466  14.277 -0.8411  0.5596  0.4822
   30TCq2    C6  462   2.147   2.420  14.216 -0.2903  0.7257 -0.6768
   30TCq2    C7  463   2.173   2.291  14.181 -0.2880 -1.0700 -0.4126
   30TCq2    C8  464   2.241   2.520  14.187  0.1186  0.5252 -0.2755
   30TCq2    O4  465   2.360   2.489  14.174 -0.5094 -0.6548 -0.4034
   30TCq2    C9  466   1.804   2.396  14.341  0.2087 -0.0135  0.4189
   30TCq2    O5  467   1.799   2.503  14.412  0.2837 -0.4082  0.1024
   30TCq2    O6  468   1.708   2.330  14.307  0.6041  0.1415 -0.2162
   30TCq2    H2  469   1.875   2.170  14.269 -1.1679  1.0899 -1.8074
   30TCq2    H3  470   2.007   2.565  14.312 -2.2310  0.5939 -0.5641
   30TCq2    H4  471   2.273   2.272  14.143  0.0845 -0.3625  0.2056
   31MPD2     C  472   0.367   0.936  15.035  1.0926  0.5466 -0.0119
   31MPD2    C1  473   0.235   0.966  15.019 -0.0904 -0.3172 -0.0300
   31MPD2    C2  474   0.135   0.882  15.062 -0.4815 -0.1229 -0.5784
   31MPD2    C3  475   0.166   0.767  15.124  0.0597 -0.4535  0.0044
   31MPD2    C4  476   0.295   0.737  15.149 -0.2117  0.2628 -0.6422
   31MPD2    C5  477   0.390   0.821  15.104 -0.1574  1.0060 -0.8373
   31MPD2     H  478   0.033   0.919  15.055 -1.2090 -2.2694 -1.4343
   31MPD2    H1  479   0.323   0.651  15.209  1.6830 -0.8742 -3.1511
   31MPD2    H2  480   0.450   1.000  15.008  0.2766  1.3653 -0.5755
   31MPD2    H3  481   0.492   0.794  15.129 -0.9356 -0.2079  0.9665
   31MPD2     N  482   0.073   0.680  15.179  0.4009  0.1709 -0.0631
   31MPD2    H5  483   0.105   0.598  15.229 -0.0109  0.0032 -0.0744
   31MPD2    N1  484   0.207   1.091  14.958 -0.2021  0.1592  0.1440
   31MPD2    H7  485   0.287   1.141  14.919  1.0874 -1.4768  0.6954
   32TCq2    C1  486   4.670   0.679  15.144  0.8474  0.7389  0.8091
   32TCq2    O2  487   4.608   0.766  15.087 -0.1527 -0.7671 -0.5669
   32TCq2    C2  488   4.602   0.554  15.190  0.1436  0.2455 -0.4801
   32TCq2    C3  489   4.478   0.530  15.155  0.0984 -0.3756 -0.4278
   32TCq2    C4  490   4.411   0.422  15.203 -0.6013 -0.6495  0.4601
   32TCq2    C5  491   4.465   0.350  15.305  0.1065 -1.1726 -0.3300
   32TCq2    C6  492   4.594   0.375  15.339 -0.3219  0.0153 -0.0354
   32TCq2    C7  493   4.664   0.481  15.290 -0.4799  0.4855  0.0271
   32TCq2    C8  494   4.638   0.336  15.472  0.0636  0.2467 -0.2994
   32TCq2    O4  495   4.648   0.218  15.496  0.6571  0.2710 -0.3540
   32TCq2    C9  496   4.271   0.413  15.169  0.3156  0.4767  0.6511
   32TCq2    O5  497   4.232   0.465  15.062  0.3137  1.1785  0.4065
   32TCq2    O6  498   4.200   0.342  15.243 -0.3283  0.4326 -0.3610
   32TCq2    H2  499   4.412   0.582  15.086 -0.8870 -1.5667 -0.3897
   32TCq2    H3  500   4.403   0.271  15.347 -1.7256  0.5728  0.2531
   32TCq2    H4  501   0.031   0.504  15.341 -1.1723  2.4043  0.4358
   33MPD2     C  502   4.324   1.997   9.717  0.4296  0.7863  0.2047
   33MPD2    C1  503   4.407   2.073   9.790  0.4450  0.1688  0.3986
   33MPD2    C2  504   4.522   2.123   9.727 -0.5077  0.1364 -0.7824
   33MPD2    C3  505   4.559   2.073   9.601 -0.1591  0.2452  0.0048
   33MPD2    C4  506   4.474   1.995   9.530 -0.2165  0.1485  0.7570
   33MPD2    C5  507   4.358   1.960   9.591  0.3031  0.3469  0.9697
   33MPD2     H  508   4.586   2.193   9.779 -1.0693  0.0295  0.0580
   33MPD2    H1  509   4.501   1.950   9.434  0.1768  0.5564  0.6736
   33MPD2    H2  510   4.237   1.951   9.761  0.2204  0.1735 -0.8391
   33MPD2    H3  511   4.288   1.897   9.538 -0.9254  2.0488  0.5838
   33MPD2     N  512   4.684   2.105   9.539  0.6944  0.2048  0.3697
   33MPD2    H5  513   4.702   2.066   9.447  0.7625  0.1420  0.4088
   33MPD2    N1  514   4.380   2.107   9.921  0.2607  0.0534  1.3792
   33MPD2    H7  515   4.293   2.067   9.955 -0.5010 -1.1499 -1.9332
   34TCq2    C1  516   0.051   2.180   9.604 -0.4971  0.5651  0.4860
   34TCq2    O2  517   0.058   2.214   9.724  0.0896  0.2422  0.3374
   34TCq2    C2  518   0.165   2.212   9.517  0.7670 -0.5030 -0.3958
   34TCq2    C3  519   0.145   2.202   9.383 -0.1510 -0.0916 -0.3476
   34TCq2    C4  520   0.245   2.262   9.305 -0.3782  0.4706 -0.6171
   34TCq2    C5  521   0.365   2.303   9.357  0.2059 -0.3723  0.2730
   34TCq2    C6  522   0.384   2.309   9.495 -0.2641 -0.4050  0.4429
   34TCq2    C7  523   0.282   2.266   9.571 -0.8876  0.3660 -0.2491
   34TCq2    C8  524   0.462   2.427   9.545  0.1092  1.0290  0.4202
   34TCq2    O4  525   0.421   2.486   9.648  0.5501  0.9139  0.4162
   34TCq2    C9  526   0.218   2.274   9.167  0.3422  0.1444 -0.4229
   34TCq2    O5  527   0.100   2.247   9.131 -0.2292  0.6557 -0.3534
   34TCq2    O6  528   0.322   2.263   9.098  0.0158  0.4492  0.4809
   34TCq2    H2  529   0.055   2.166   9.335 -1.2687  1.8168  0.3011
   34TCq2    H3  530   0.436   2.353   9.292  0.4032  0.4371  1.1054
   34TCq2    H4  531   0.281   2.275   9.679  0.0934  2.4802 -0.4045
   35MPD2     C  532   1.518   4.590  12.095 -0.4745 -0.0640 -0.1735
   35MPD2    C1  533   1.546   4.453  12.102 -0.7018  1.0230 -0.4384
   35MPD2    C2  534   1.521   4.371  11.991 -0.0683  0.1937 -0.2132
   35MPD2    C3  535   1.476   4.423  11.871  0.6547  0.2257  0.3781
   35MPD2    C4  536   1.446   4.557  11.863  0.2869  0.2150  0.0475
   35MPD2    C5  537   1.464   4.635  11.978 -0.0626 -0.7155  0.3095
   35MPD2     H  538   1.544   4.265  11.989 -1.8812 -0.2163  0.6420
   35MPD2    H1  539   1.402   4.603  11.775 -1.2111  1.3502  1.3779
   35MPD2    H2  540   1.532   4.664  12.172  1.6298 -0.3332 -0.3040
   35MPD2    H3  541   1.447   0.015  11.960 -0.7535 -0.8375  0.2366
   35MPD2     N  542   1.452   4.332  11.764 -0.3830  0.9986 -0.0774
   35MPD2    H5  543   1.464   4.232  11.778 -0.6094  1.1651  1.3265
   35MPD2    N1  544   1.602   4.405  12.221  0.2842  0.4012 -0.1059
   35MPD2    H7  545   1.620   4.482  12.286 -0.2384 -0.0709  0.5961
   36TCq2    C1  546   1.409   4.375  11.644 -0.2782 -0.7320  0.1063
   36TCq2    O2  547   1.416   4.485  11.589 -0.3837  0.5351  0.3537
   36TCq2    C2  548   1.340   4.277  11.567  0.7402  0.2753 -0.4139
   36TCq2    C3  549   1.281   4.309  11.446 -0.6109  0.7879 -0.3586
   36TCq2    C4  550   1.213   4.211  11.374  0.5844  0.1936 -0.2488
   36TCq2    C5  551   1.184   4.089  11.416 -0.5399  0.5181  0.4049
   36TCq2    C6  552   1.237   4.054  11.539 -0.4031 -0.0237  0.5071
   36TCq2    C7  553   1.324   4.143  11.612 -0.0299 -0.5949 -0.0476
   36TCq2    C8  554   1.211   3.916  11.579 -0.3321 -0.1233  0.1834
   36TCq2    O4  555   1.121   3.865  11.513  0.5705 -0.3079 -0.4001
   36TCq2    C9  556   1.146   4.255  11.255  0.1699  0.6587 -0.4607
   36TCq2    O5  557   1.036   4.211  11.228 -0.0456 -0.1453 -0.1537
   36TCq2    O6  558   1.200   4.357  11.200 -0.0886 -0.3460 -0.4828
   36TCq2    H2  559   1.279   4.414  11.418 -0.3263  0.8789 -0.0359
   36TCq2    H3  560   1.122   4.025  11.355 -2.0373  0.7490  1.6721
   36TCq2    H4  561   1.360   4.111  11.709  0.2949 -0.4803 -0.1278
   37TMC2    C1  562   3.831   0.197  11.515 -0.6089 -0.3162  0.0717
   37TMC2    C2  563   3.876   0.163  11.389 -0.1424 -0.2956  0.0736
   37TMC2    C3  564   3.969   0.068  11.374  0.7931  0.3023 -0.0140
   37TMC2    C4  565   3.901   0.152  11.625 -0.0664 -0.1949 -0.0407
   37TMC2    C5  566   4.005   0.068  11.607 -0.0945  0.7471 -0.0733
   37TMC2    C6  567   4.034   0.018  11.484 -0.3325  0.7665  0.1670
   37TMC2     C  568   3.692   0.241  11.522 -0.0890 -0.0461  0.6068
   37TMC2     O  569   3.652   0.312  11.431  0.2684  0.5718  0.6138
   37TMC2     H  570   3.818   0.197  11.304  0.9871 -1.4825 -1.1700
   37TMC2    H1  571   3.887   0.197  11.723 -0.9108 -1.1022  0.2533
   37TMC2    H2  572   4.101   4.661  11.465  0.0911  1.6829 -2.2533
   37TMC2    C7  573   4.085   0.043  11.720 -0.2420 -0.4707 -0.4134
   37TMC2    C8  574   3.980   0.008  11.243 -0.0282 -0.3998  0.5882
   37TMC2    O1  575   4.039   0.088  11.827 -1.0956  0.4844  0.0994
   37TMC2    O2  576   4.017   4.616  11.226 -0.2026  0.0507  0.1686
   37TMC2    O5  577   4.025   0.109  11.167 -0.2001  0.7437  0.6229
   37TMC2    H5  578   4.050   0.186  11.221  0.7201  1.2766 -0.5584
   38MPD2     C  579   3.237   0.068  11.668  0.5011  0.1980 -0.5362
   38MPD2    C1  580   3.332   0.027  11.764  0.0896  0.0076 -0.0193
   38MPD2    C2  581   3.463   0.065  11.742 -0.1782 -0.3328 -0.6928
   38MPD2    C3  582   3.496   0.141  11.635  0.4161  0.3646 -1.1198
   38MPD2    C4  583   3.403   0.186  11.540  0.0943  0.0850  0.0812
   38MPD2    C5  584   3.274   0.145  11.561 -0.2080 -0.8493 -0.1746
   38MPD2     H  585   3.533   0.035  11.819  0.4039  0.2493 -0.9850
   38MPD2    H1  586   3.422   0.259  11.462 -0.7188 -1.0812 -1.2012
   38MPD2    H2  587   3.132   0.041  11.668  0.8862 -1.2861  0.6756
   38MPD2    H3  588   3.199   0.170  11.486  0.3459  1.5840  0.0723
   38MPD2     N  589   3.631   0.165  11.618  0.1271 -0.0978 -0.2020
   38MPD2    H5  590   3.693   0.112  11.678 -0.8687 -0.8348  0.1883
   38MPD2    N1  591   3.307   4.659  11.865 -0.1609 -0.2078 -0.6380
   38MPD2    H7  592   3.375   4.629  11.934  0.3646 -2.0665 -1.9842
   39MPD2     C  593   2.324   2.191   1.549  0.2524  0.2155 -0.1728
   39MPD2    C1  594   2.214   2.225   1.626  0.1411  0.3719 -0.2898
   39MPD2    C2  595   2.112   2.303   1.582 -0.3801 -0.7619 -0.2271
   39MPD2    C3  596   2.113   2.335   1.446  0.0552  0.4505  0.0561
   39MPD2    C4  597   2.219   2.295   1.362 -0.3288 -0.3556 -0.0475
   39MPD2    C5  598   2.324   2.222   1.410 -0.1080 -0.3630 -0.5373
   39MPD2     H  599   2.034   2.339   1.648  0.9871  0.6642  0.6210
   39MPD2    H1  600   2.217   2.322   1.257 -1.2102  0.9910  0.3117
   39MPD2    H2  601   2.399   2.129   1.596 -0.3452  0.6388  1.3447
   39MPD2    H3  602   2.405   2.186   1.349  0.3276 -0.2650 -0.0218
   39MPD2     N  603   2.010   2.418   1.384  0.6718 -0.0430  0.3477
   39MPD2    H5  604   2.010   2.440   1.285  0.8053  0.0964  0.3771
   39MPD2    N1  605   2.198   2.162   1.751  0.2646 -0.0590 -0.1016
   39MPD2    H7  606   2.272   2.104   1.790 -0.2405  0.2453  1.3422
   40TCq2    C1  607   2.078   2.153   1.827  0.0506 -0.0809  0.1605
   40TCq2    O2  608   1.960   2.169   1.788  0.1600  0.3693 -0.2323
   40TCq2    C2  609   2.100   2.089   1.954 -0.3990 -0.1469 -0.4060
   40TCq2    C3  610   2.007   2.006   2.010  0.1832 -0.4025  0.3229
   40TCq2    C4  611   1.991   1.991   2.141 -0.0129 -0.4353 -0.0880
   40TCq2    C5  612   2.072   2.059   2.224  0.6058 -0.0606 -0.7154
   40TCq2    C6  613   2.173   2.134   2.173 -0.5238 -0.3678 -0.4952
   40TCq2    C7  614   2.188   2.148   2.041  0.1030  0.5237 -0.0311
   40TCq2    C8  615   2.273   2.182   2.258  0.1635 -0.3388  0.8207
   40TCq2    O4  616   2.283   2.120   2.365 -0.3433  0.1608  0.4747
   40TCq2    C9  617   1.884   1.908   2.189  0.1407 -0.5677 -0.1292
   40TCq2    O5  618   1.898   1.877   2.310 -0.0934 -0.0387 -0.0529
   40TCq2    O6  619   1.810   1.848   2.105  0.3393  0.3952  0.1939
   40TCq2    H2  620   1.944   1.945   1.946  0.6478 -1.5993  1.0070
   40TCq2    H3  621   2.048   2.048   2.330  3.0037  2.0054  0.0353
   40TCq2    H4  622   2.267   2.203   1.992  0.4684 -0.8746 -1.0092
   41TMC2    C1  623   1.236   4.023  13.841 -0.2614  0.1333 -0.0940
   41TMC2    C2  624   1.212   3.910  13.766  0.2212 -0.5840  0.6076
   41TMC2    C3  625   1.140   3.934  13.652 -0.2512  0.5136  0.1323
   41TMC2    C4  626   1.192   4.146  13.812 -0.5882  0.2859  0.2141
   41TMC2    C5  627   1.118   4.162  13.694 -0.7526 -0.6108  0.0130
   41TMC2    C6  628   1.096   4.057  13.604  0.2266 -0.5155  0.4352
   41TMC2     C  629   1.331   4.004  13.947 -0.7759  0.3292 -0.2069
   41TMC2     O  630   1.396   3.902  13.943 -0.3227  0.6479  0.2925
   41TMC2     H  631   1.255   3.817  13.803  3.4070  0.7585  0.3011
   41TMC2    H1  632   1.212   4.234  13.872  0.5647  1.2245 -1.5425
   41TMC2    H2  633   1.053   4.060  13.505  0.8480  1.2157  0.2276
   41TMC2    C7  634   1.114   4.294  13.640 -0.6511 -0.3512 -0.1405
   41TMC2    C8  635   1.128   3.815  13.561  0.5759  0.0018 -0.0250
   41TMC2    O1  636   1.193   4.372  13.686  0.1093  0.0357  0.4167
   41TMC2    O2  637   1.104   3.833  13.443 -0.1991  0.4539 -0.3092
   41TMC2    O5  638   1.108   3.706  13.634  0.1679  0.0130 -0.0829
   41TMC2    H5  639   1.104   3.733  13.728  0.2653 -0.0319 -0.0658
   42MPD2     C  640   1.538   4.053  14.161 -0.1913 -0.1624  0.1120
   42MPD2    C1  641   1.424   4.120  14.141  0.4596  0.1044 -0.4125
   42MPD2    C2  642   1.394   4.214  14.234  0.8487 -0.4527  0.6134
   42MPD2    C3  643   1.465   4.224  14.354  0.0282  0.7097  0.5098
   42MPD2    C4  644   1.580   4.158  14.373 -0.2686 -1.0332  0.6920
   42MPD2    C5  645   1.611   4.072  14.272 -0.1383  0.1387  0.1404
   42MPD2     H  646   1.299   4.266  14.226  2.1691  1.5941 -1.6337
   42MPD2    H1  647   1.643   4.162  14.461  1.0203  0.4192 -0.2933
   42MPD2    H2  648   1.558   3.972  14.092 -1.6017  0.5790 -1.1756
   42MPD2    H3  649   1.699   4.008  14.274 -0.9991 -0.9885  1.3258
   42MPD2     N  650   1.430   4.308  14.462  0.3950 -0.2895  0.4696
   42MPD2    H5  651   1.497   4.318  14.537  0.6695  2.2593 -0.1327
   42MPD2    N1  652   1.329   4.103  14.034 -0.8649 -0.0878 -0.1281
   42MPD2    H7  653   1.248   4.165  14.036  0.4198  1.6063 -0.2880
   43MPD2     C  654   2.444   3.261   0.733  0.1351  0.2097  0.1972
   43MPD2    C1  655   2.533   3.267   0.830 -0.4900  0.5856  0.0408
   43MPD2    C2  656   2.506   3.340   0.944  0.3467  0.4594  0.0964
   43MPD2    C3  657   2.388   3.412   0.958 -0.3900 -0.8197  0.4683
   43MPD2    C4  658   2.302   3.409   0.850  0.0531 -0.4312  0.0869
   43MPD2    C5  659   2.328   3.332   0.739  0.3545 -0.3008 -0.6713
   43MPD2     H  660   2.572   3.322   1.029  1.1342  2.6811 -0.0318
   43MPD2    H1  661   2.211   3.467   0.865  1.0214  0.8477  1.0591
   43MPD2    H2  662   2.453   3.186   0.655  0.1635  0.5142 -0.0914
   43MPD2    H3  663   2.263   3.322   0.652 -0.4758 -0.3854 -0.0342
   43MPD2     N  664   2.348   3.500   1.065  0.2236 -0.4184 -0.3923
   43MPD2    H5  665   2.254   3.538   1.057  0.0877 -1.0296 -1.6763
   43MPD2    N1  666   2.660   3.203   0.829  0.0693 -0.2205  0.4531
   43MPD2    H7  667   2.711   3.202   0.916 -0.7142 -0.3745  0.9110
   44TCq2    C1  668   2.307   3.681   1.625 -0.8554  0.3131 -0.4466
   44TCq2    O2  669   2.392   3.597   1.648  0.5771 -0.8798 -0.1768
   44TCq2    C2  670   2.283   3.695   1.482  0.0215  0.9114 -0.5774
   44TCq2    C3  671   2.195   3.779   1.431 -0.2013 -0.3706  0.0228
   44TCq2    C4  672   2.187   3.792   1.290  0.1889  0.6674  0.4069
   44TCq2    C5  673   2.269   3.712   1.202 -0.2197 -0.4768 -0.6075
   44TCq2    C6  674   2.355   3.623   1.265 -0.8282  0.4649  0.5112
   44TCq2    C7  675   2.367   3.621   1.400 -0.1885  0.3161 -0.2299
   44TCq2    C8  676   2.409   3.514   1.184  0.7555  0.2579  0.3827
   44TCq2    O4  677   2.508   3.451   1.226  0.0731  0.0186  0.5716
   44TCq2    C9  678   2.088   3.874   1.247 -1.3379 -0.3858  0.2425
   44TCq2    O5  679   2.056   3.983   1.306 -0.6973 -0.1726 -0.9641
   44TCq2    O6  680   2.034   3.836   1.138 -0.0135  0.0127  0.0606
   44TCq2    H2  681   2.122   3.835   1.488 -1.8015 -0.2815 -2.0893
   44TCq2    H3  682   2.266   3.741   1.098  0.2226 -0.7839 -0.7071
   44TCq2    H4  683   2.442   3.553   1.440 -0.0255  1.7450  1.8778
   45TMC2    C1  684   2.455   4.105   9.758 -0.1119  0.0492  0.3548
   45TMC2    C2  685   2.559   4.029   9.729 -0.2174  0.5832  0.3437
   45TMC2    C3  686   2.680   4.065   9.779 -0.1536  0.1990 -0.0290
   45TMC2    C4  687   2.463   4.222   9.826 -0.6531  0.1292  0.3257
   45TMC2    C5  688   2.587   4.267   9.859 -0.1228 -0.3096  0.6517
   45TMC2    C6  689   2.692   4.186   9.843 -0.7652  0.2502  0.3680
   45TMC2     C  690   2.330   4.047   9.725 -0.4514 -0.5356 -0.3199
   45TMC2     O  691   2.329   3.924   9.728  0.0906  0.0776 -0.5479
   45TMC2     H  692   2.546   3.948   9.659  2.1596 -0.5384  1.2065
   45TMC2    H1  693   2.370   4.277   9.835  0.6542  2.0759  2.1068
   45TMC2    H2  694   2.796   4.213   9.861 -0.5624  0.7083 -1.5745
   45TMC2    C7  695   2.605   4.402   9.914 -0.5673  0.1868 -0.6210
   45TMC2    C8  696   2.793   3.976   9.771  0.0787 -0.0023 -0.0170
   45TMC2    O1  697   2.717   4.416   9.956  0.4935  0.1040  1.0492
   45TMC2    O2  698   2.851   3.951   9.667  0.1385  0.2297 -0.1704
   45TMC2    O5  699   2.844   3.987   9.891  0.0639  0.3239 -0.1687
   45TMC2    H5  700   2.781   4.008   9.962 -1.6919 -1.9530 -1.0577
   46MPD2     C  701   2.051   3.961   9.651 -0.1627  0.0456 -0.5210
   46MPD2    C1  702   2.088   4.096   9.657  0.4961 -0.3464 -0.5523
   46MPD2    C2  703   1.988   4.193   9.641  0.0182 -0.7584 -0.0255
   46MPD2    C3  704   1.863   4.153   9.611 -0.1123  0.4659  0.2904
   46MPD2    C4  705   1.827   4.025   9.581 -0.4946 -0.1039  0.2333
   46MPD2    C5  706   1.928   3.932   9.602 -0.1200 -0.3217  0.6614
   46MPD2     H  707   2.013   4.297   9.655 -2.8986 -0.2614  1.3745
   46MPD2    H1  708   1.731   3.993   9.540 -0.1106 -1.5487  0.4771
   46MPD2    H2  709   2.111   3.872   9.664 -0.4596 -0.0815 -0.0199
   46MPD2    H3  710   1.901   3.828   9.587 -1.7608 -0.0351  1.5151
   46MPD2     N  711   1.756   4.252   9.609 -0.1452 -0.3133  0.2301
   46MPD2    H5  712   1.785   4.347   9.628  2.1454 -0.7517 -1.0780
   46MPD2    N1  713   2.224   4.135   9.690 -0.3937  0.0975 -0.1819
   46MPD2    H7  714   2.255   4.230   9.677  0.0137 -0.1022 -0.6873
   47TMC2    C1  715   0.038   4.626   9.485  1.1792  0.5681 -0.3751
   47TMC2    C2  716   4.705   4.651   9.364 -0.7317  0.6990  0.5189
   47TMC2    C3  717   4.617   4.559   9.316 -0.3405  0.0830 -0.0150
   47TMC2    C4  718   0.015   4.519   9.563 -0.3478 -0.0192 -0.1974
   47TMC2    C5  719   4.646   4.427   9.516  0.8829 -0.1433 -0.3817
   47TMC2    C6  720   4.591   4.444   9.389 -0.4668 -0.9238 -0.4699
   47TMC2     C  721   0.153   4.704   9.531  0.9417 -0.0859 -0.2011
   47TMC2     O  722   0.143   0.105   9.522 -0.0421  0.5636  0.0321
   47TMC2     H  723   4.714   0.021   9.313  2.3187 -0.6066 -1.4338
   47TMC2    H1  724   0.054   4.509   9.664  1.6949  1.1564 -0.8683
   47TMC2    H2  725   4.519   4.377   9.343 -0.6219 -0.2103 -1.2763
   47TMC2    C7  726   4.564   4.369   9.620 -0.8772  0.2017  0.0859
   47TMC2    C8  727   4.581   4.565   9.179 -0.0350  0.2790  0.0813
   47TMC2    O1  728   4.503   4.269   9.582  0.4177  0.3947 -0.7296
   47TMC2    O2  729   4.568   4.466   9.106 -0.0720  0.0914  0.0079
   47TMC2    O5  730   4.547   4.689   9.143 -0.1538 -0.3848  0.3307
   47TMC2    H5  731   4.537   0.025   9.218 -0.1362  0.3494 -0.2716
   48MPD2     C  732   0.410   0.072   9.670 -0.1737 -0.2158 -0.4277
   48MPD2    C1  733   0.377   4.664   9.647 -0.2209  0.4332 -0.2340
   48MPD2    C2  734   0.458   4.567   9.693 -0.4561  0.5312 -0.0669
   48MPD2    C3  735   0.566   4.595   9.773  0.0731 -0.4528 -0.0596
   48MPD2    C4  736   0.604   0.004   9.792  1.3419 -0.4294 -0.2544
   48MPD2    C5  737   0.520   0.106   9.743 -0.1453  0.7324 -0.7095
   48MPD2     H  738   0.439   4.466   9.657 -0.7649 -0.3338  2.4902
   48MPD2    H1  739   0.691   0.034   9.848 -0.1487  1.3954  1.1020
   48MPD2    H2  740   0.334   0.137   9.629 -0.0789  0.5021  0.5402
   48MPD2    H3  741   0.545   0.208   9.770  0.8613  0.7218 -1.5841
   48MPD2     N  742   0.637   4.492   9.836  0.9918 -0.6103  0.5584
   48MPD2    H5  743   0.619   4.398   9.802  2.0194  0.1998 -2.2188
   48MPD2    N1  744   0.257   4.623   9.577 -0.5159 -0.3476  0.4611
   48MPD2    H7  745   0.246   4.523   9.560  2.0799 -0.6575  0.7308
   49MPD2     C  746   2.863   2.501  10.010 -0.5838 -0.5439  0.1497
   49MPD2    C1  747   2.986   2.447  10.037 -0.2564 -0.0208 -0.6273
   49MPD2    C2  748   3.006   2.335  10.114  0.1192  0.5766  0.2760
   49MPD2    C3  749   2.896   2.279  10.177 -0.0481  0.5164  0.7659
   49MPD2    C4  750   2.770   2.327  10.147  0.5130  0.1852 -0.2373
   49MPD2    C5  751   2.751   2.439  10.061  0.4391  0.2915  0.6278
   49MPD2     H  752   3.108   2.303  10.134 -0.4263  0.8107  3.5166
   49MPD2    H1  753   2.682   2.278  10.188  1.1541 -1.0985 -0.4004
   49MPD2    H2  754   2.838   2.574   9.934  2.9551 -0.0476 -0.5450
   49MPD2    H3  755   2.655   2.487  10.044 -0.2897 -1.8273 -1.3141
   49MPD2     N  756   2.912   2.180  10.275  0.2578 -0.1014  0.2560
   49MPD2    H5  757   2.835   2.115  10.288  0.6452 -0.6307 -0.0573
   49MPD2    N1  758   3.097   2.512   9.979  0.4375 -0.1052 -0.2965
   49MPD2    H7  759   3.188   2.469   9.989 -0.4937 -2.2730 -0.9216
   50TCq2    C1  760   3.100   2.640   9.932 -0.1120  0.3205 -0.5309
   50TCq2    O2  761   3.019   2.732   9.928 -0.2842 -0.8451 -0.2143
   50TCq2    C2  762   3.234   2.665   9.873 -0.1697  0.4197 -0.4932
   50TCq2    C3  763   3.306   2.556   9.830  0.2165 -0.0409  0.1003
   50TCq2    C4  764   3.428   2.581   9.778  0.9043 -0.4161  0.0465
   50TCq2    C5  765   3.471   2.712   9.754  0.4936  0.1727 -0.7918
   50TCq2    C6  766   3.398   2.823   9.798  1.3291  0.1307  0.4092
   50TCq2    C7  767   3.274   2.801   9.860 -1.5511 -0.0607 -0.1815
   50TCq2    C8  768   3.441   2.944   9.740  0.1863  0.6442  0.2377
   50TCq2    O4  769   3.560   2.957   9.720 -0.6307 -0.2403 -0.2286
   50TCq2    C9  770   3.508   2.474   9.727  0.3954 -0.0272 -0.0148
   50TCq2    O5  771   3.469   2.362   9.767 -0.0207  0.2208 -0.8120
   50TCq2    O6  772   3.613   2.506   9.663  0.6749  0.1490 -0.1713
   50TCq2    H2  773   3.273   2.454   9.839 -2.1051  0.7688  0.5411
   50TCq2    H3  774   3.568   2.729   9.709  0.9047  1.1275  0.4259
   50TCq2    H4  775   3.202   2.879   9.878 -1.5561 -0.2686  0.6846
   51MPD2     C  776   4.040   1.671   1.649 -0.2902  0.3221  0.9095
   51MPD2    C1  777   4.046   1.532   1.656  0.3711  0.0299  1.0618
   51MPD2    C2  778   4.095   1.484   1.775  0.3006  0.2538 -0.0834
   51MPD2    C3  779   4.130   1.573   1.878  0.0908 -0.4427  0.0913
   51MPD2    C4  780   4.117   1.712   1.868 -0.3987  0.7054  0.0086
   51MPD2    C5  781   4.081   1.756   1.747 -0.0473 -0.5585 -0.1249
   51MPD2     H  782   4.110   1.377   1.769  0.4032  0.2520  0.2538
   51MPD2    H1  783   4.131   1.770   1.958  1.2091  1.9549 -1.0515
   51MPD2    H2  784   3.995   1.725   1.566 -1.8782  0.6898  2.0133
   51MPD2    H3  785   4.074   1.863   1.727  1.9525 -0.2382  0.9533
   51MPD2     N  786   4.192   1.534   1.994 -0.7541  0.1515 -0.3247
   51MPD2    H5  787   4.244   1.612   2.033  0.3876 -0.7319 -0.0689
   51MPD2    N1  788   4.020   1.445   1.548  0.6263  0.3285  0.0593
   51MPD2    H7  789   4.042   1.348   1.569  0.2791  0.0813 -0.7142
   52TCq2    C1  790   4.230   1.410   2.025 -0.7833  0.3927 -0.3589
   52TCq2    O2  791   4.178   1.299   2.003 -0.0385 -0.3560  0.1443
   52TCq2    C2  792   4.339   1.410   2.131  0.0084  0.5858 -0.8269
   52TCq2    C3  793   4.382   1.285   2.161  0.1208 -0.2238 -0.0199
   52TCq2    C4  794   4.500   1.274   2.234  0.0635  0.0477 -0.5883
   52TCq2    C5  795   4.567   1.384   2.283 -0.2789 -0.2946  0.1246
   52TCq2    C6  796   4.521   1.510   2.249 -0.1264 -0.7543 -0.3369
   52TCq2    C7  797   4.410   1.520   2.171 -0.4840  0.0851 -0.7228
   52TCq2    C8  798   4.583   1.632   2.294  0.5349  0.0413 -0.5262
   52TCq2    O4  799   4.592   1.723   2.214 -0.3010 -0.1478  0.6367
   52TCq2    C9  800   4.562   1.146   2.255  1.0493  0.2407 -0.0320
   52TCq2    O5  801   4.513   1.051   2.194  0.6067  0.4685  0.7772
   52TCq2    O6  802   4.683   1.147   2.292 -0.3552  0.4195  0.2024
   52TCq2    H2  803   4.338   1.192   2.126 -0.3540 -0.0836  0.2068
   52TCq2    H3  804   4.649   1.363   2.351  0.9870  0.2154 -1.2321
   52TCq2    H4  805   4.367   1.618   2.153  1.3810  1.0821  0.2524
   53TMC2    C1  806   4.400   4.679  12.390 -0.3957  0.3172  0.1628
   53TMC2    C2  807   4.501   4.673  12.487 -0.5228  0.0137  0.0464
   53TMC2    C3  808   4.464   4.662  12.615 -0.4150 -0.1800  0.2229
   53TMC2    C4  809   4.270   4.669  12.414 -0.3081 -0.2291 -0.4917
   53TMC2    C5  810   4.237   4.656  12.552  0.4314 -0.1591 -0.8341
   53TMC2    C6  811   4.333   4.652  12.654 -0.3965  0.6696 -0.3345
   53TMC2     C  812   4.440   4.646  12.258 -0.0818 -0.2165  0.1856
   53TMC2     O  813   4.541   4.580  12.258 -0.4766 -0.2465 -0.0425
   53TMC2     H  814   4.606   4.689  12.464  0.1189 -1.5404  1.9898
   53TMC2    H1  815   4.200   4.659  12.332 -0.0769  0.6841 -0.7921
   53TMC2    H2  816   4.309   4.663  12.759 -0.4340 -0.2468 -0.2431
   53TMC2    C7  817   4.095   4.647  12.589 -0.9700  0.3931  0.1321
   53TMC2    C8  818   4.569   4.611  12.699  0.5900 -0.0059 -0.3503
   53TMC2    O1  819   4.021   4.692  12.497  0.1833  0.0923  0.2232
   53TMC2    O2  820   4.689   4.601  12.666  0.1011 -0.4328  0.1524
   53TMC2    O5  821   4.507   4.523  12.779 -0.0248  0.4964  0.0503
   53TMC2    H5  822   4.409   4.511  12.774  0.3785 -2.0524 -1.5892
   54MPD2     C  823   4.493   4.579  11.976 -0.0664  0.1896 -0.1372
   54MPD2    C1  824   4.383   4.652  12.020 -1.1030  0.3467  0.2955
   54MPD2    C2  825   4.289   4.687  11.926  0.3050  0.1496  0.1307
   54MPD2    C3  826   4.300   4.654  11.791 -0.4109 -0.2939  0.1260
   54MPD2    C4  827   4.408   4.583  11.750 -0.1599 -0.1650  0.0342
   54MPD2    C5  828   4.497   4.534  11.843  0.5167 -0.3862  0.8809
   54MPD2     H  829   4.203   0.016  11.960  0.7369  0.6144  0.4765
   54MPD2    H1  830   4.420   4.559  11.645 -0.7839  0.4488 -0.1742
   54MPD2    H2  831   4.575   4.547  12.039 -0.2699 -0.3839 -0.1621
   54MPD2    H3  832   4.583   4.482  11.803  1.9598  1.4723  1.5510
   54MPD2     N  833   4.203   4.700  11.691  0.0948 -0.5505 -0.1544
   54MPD2    H5  834   4.226   4.677  11.595  0.9047 -2.3126  0.4585
   54MPD2    N1  835   4.359   4.682  12.155 -0.1854  0.2894  0.1396
   54MPD2    H7  836   4.276   0.010  12.179  0.1984  0.2044  1.6555
   55MPD2     C  837   0.350   2.634   0.150 -0.8801  0.3947 -0.0105
   55MPD2    C1  838   0.357   2.595   0.284  0.1250 -0.9278  0.2966
   55MPD2    C2  839   0.317   2.689   0.380  0.1172  0.2795  0.0441
   55MPD2    C3  840   0.284   2.817   0.352  1.6466  0.0372  0.0075
   55MPD2    C4  841   0.306   2.863   0.222  0.4071 -0.4333 -0.0409
   55MPD2    C5  842   0.343   2.769   0.121  0.9330 -0.5243 -0.2799
   55MPD2     H  843   0.315   2.666   0.486  0.4245 -0.4131 -0.0999
   55MPD2    H1  844   0.306   2.966   0.189 -0.0949 -0.3978  0.0614
   55MPD2    H2  845   0.368   2.560   0.073  1.0966  0.1356  0.7132
   55MPD2    H3  846   0.346   2.818   0.025  0.6089  0.7584  0.3629
   55MPD2     N  847   0.224   2.904   0.450 -0.0027  0.6262 -0.2584
   55MPD2    H5  848   0.210   2.867   0.544 -0.0036 -0.0555 -0.5205
   55MPD2    N1  849   0.392   2.459   0.316  0.3882 -0.5086 -0.1963
   55MPD2    H7  850   0.409   2.397   0.237  0.5130 -0.5529 -0.1359
   56TCq2    C1  851   0.417   2.410   0.443 -0.2231  0.5526 -0.1907
   56TCq2    O2  852   0.402   2.467   0.553 -0.3789  0.5718  0.2400
   56TCq2    C2  853   0.505   2.297   0.443  0.0416  0.9002 -0.1680
   56TCq2    C3  854   0.519   2.226   0.332 -0.6426 -0.2785  0.3920
   56TCq2    C4  855   0.592   2.116   0.328  0.0623 -0.8645  0.2747
   56TCq2    C5  856   0.649   2.069   0.444  0.3069  0.2402 -1.1240
   56TCq2    C6  857   0.633   2.141   0.565 -0.5857 -0.4720  0.1944
   56TCq2    C7  858   0.552   2.253   0.566 -0.1614 -0.4328  0.2577
   56TCq2    C8  859   0.630   2.059   0.685  0.0462 -0.6917 -0.8814
   56TCq2    O4  860   0.705   1.965   0.707 -0.2793 -0.1609 -0.1829
   56TCq2    C9  861   0.613   2.047   0.207 -0.3604  0.3109 -0.4193
   56TCq2    O5  862   0.710   1.965   0.204 -0.8729 -0.2982 -0.3120
   56TCq2    O6  863   0.554   2.090   0.106 -0.4321  0.7423 -0.1247
   56TCq2    H2  864   0.488   2.269   0.237 -0.5138 -1.5430 -0.2214
   56TCq2    H3  865   0.691   1.969   0.440 -0.2019  0.0173 -0.9384
   56TCq2    H4  866   0.553   2.324   0.647 -1.9358 -0.8534  0.6573
   57TMC2    C1  867   4.323   3.340  13.292 -0.1740  0.3988  0.2130
   57TMC2    C2  868   4.454   3.357  13.295  0.3736  0.6457  0.0518
   57TMC2    C3  869   4.536   3.284  13.217 -0.4541  0.5095 -0.1953
   57TMC2    C4  870   4.271   3.222  13.231  0.4913  0.1774 -0.3140
   57TMC2    C5  871   4.354   3.137  13.165 -0.2391  0.2756 -0.0408
   57TMC2    C6  872   4.488   3.171  13.148 -1.1384 -0.1692  0.1171
   57TMC2     C  873   4.226   3.431  13.356 -0.4584  0.0641  0.8873
   57TMC2     O  874   4.274   3.490  13.450  0.3002  0.2828 -0.3072
   57TMC2     H  875   4.490   3.453  13.330  1.7170  0.4955 -0.8984
   57TMC2    H1  876   4.167   3.199  13.250  0.9865 -0.2949  1.9022
   57TMC2    H2  877   4.556   3.105  13.096  2.5473  4.2920 -0.8111
   57TMC2    C7  878   4.300   3.013  13.108 -0.7931  0.6856 -0.0603
   57TMC2    C8  879   4.684   3.307  13.218 -0.3593 -0.1507  0.3413
   57TMC2    O1  880   4.181   2.988  13.131 -0.5002  0.1257 -0.1221
   57TMC2    O2  881   0.025   3.298  13.319  0.5327  0.6194  0.4825
   57TMC2    O5  882   0.004   3.277  13.098 -0.2228  0.7822 -0.0206
   57TMC2    H5  883   4.673   3.280  13.018 -0.2493 -0.9919 -0.0621
   58MPD2     C  884   3.731   3.523  13.458 -0.3370 -0.5733 -0.9394
   58MPD2    C1  885   3.835   3.548  13.544 -0.9128 -0.7998  0.2641
   58MPD2    C2  886   3.966   3.530  13.489 -0.3037 -0.1666  0.0901
   58MPD2    C3  887   3.975   3.470  13.363  0.1314 -1.0082 -0.2822
   58MPD2    C4  888   3.871   3.449  13.277  0.0615 -0.0525  0.5234
   58MPD2    C5  889   3.752   3.488  13.328  0.1915 -0.1965 -0.2331
   58MPD2     H  890   4.055   3.543  13.549 -0.2937 -0.4769  0.1459
   58MPD2    H1  891   3.893   3.417  13.176  1.3464 -0.5549  0.9714
   58MPD2    H2  892   3.633   3.561  13.484 -0.3867 -0.0486 -1.8871
   58MPD2    H3  893   3.664   3.492  13.266  0.6280 -0.2510 -0.8589
   58MPD2     N  894   4.098   3.429  13.307 -0.5940  0.1639  0.0430
   58MPD2    H5  895   4.099   3.380  13.218 -2.0849  0.2845 -0.0307
   58MPD2    N1  896   3.818   3.591  13.681 -0.0289 -0.0371  0.1392
   58MPD2    H7  897   3.888   3.630  13.743 -1.8376  2.1568  0.7794
   59MPD2     C  898   1.755   3.393  13.550  0.3966  0.0204 -0.3530
   59MPD2    C1  899   1.860   3.404  13.464  0.0669 -0.4089  0.3120
   59MPD2    C2  900   1.977   3.472  13.516 -0.1218  0.2728 -0.1293
   59MPD2    C3  901   1.983   3.533  13.645 -0.6425 -0.9682 -0.2640
   59MPD2    C4  902   1.867   3.522  13.720  0.2357 -0.2061 -0.3416
   59MPD2    C5  903   1.761   3.446  13.676  0.3749 -0.1369  0.1942
   59MPD2     H  904   2.069   3.483  13.459  0.7811 -1.0248  1.0809
   59MPD2    H1  905   1.849   3.555  13.822 -1.4613  0.9724 -1.0163
   59MPD2    H2  906   1.664   3.340  13.525  0.0261  1.7718 -2.7718
   59MPD2    H3  907   1.675   3.438  13.741 -0.3872 -1.5978 -0.9781
   59MPD2     N  908   2.093   3.603  13.699 -0.0543  0.3493 -0.0237
   59MPD2    H5  909   2.076   3.646  13.789  0.6679  0.3943  0.0857
   59MPD2    N1  910   1.849   3.355  13.336 -0.1312 -0.3787 -0.0057
   59MPD2    H7  911   1.938   3.346  13.288 -1.3531 -0.6415 -2.1762
   60TCq2    C1  912   1.741   3.297  13.274  0.6429 -0.7709 -0.5425
   60TCq2    O2  913   1.636   3.254  13.321  0.0732 -0.2740  0.0806
   60TCq2    C2  914   1.793   3.245  13.141 -0.6936  0.5417  0.1503
   60TCq2    C3  915   1.813   3.114  13.122  0.4960 -0.0812 -0.6298
   60TCq2    C4  916   1.877   3.069  13.012 -0.0663 -0.4400  0.5497
   60TCq2    C5  917   1.917   3.155  12.910 -0.2650  0.3343 -0.3118
   60TCq2    C6  918   1.885   3.288  12.924  0.4425 -0.3873 -0.5173
   60TCq2    C7  919   1.829   3.337  13.042  0.0019  0.6304  0.3184
   60TCq2    C8  920   1.930   3.384  12.818 -0.7247 -0.1483 -0.2135
   60TCq2    O4  921   2.010   3.332  12.743  1.0496 -0.1884  0.4860
   60TCq2    C9  922   1.901   2.926  12.994 -0.6843 -0.4548  0.1422
   60TCq2    O5  923   1.886   2.850  13.097  0.2550 -0.1833 -0.2268
   60TCq2    O6  924   1.941   2.883  12.881 -0.2605  0.4171  0.3364
   60TCq2    H2  925   1.764   3.039  13.183  0.5443 -0.8748 -1.5653
   60TCq2    H3  926   1.950   3.102  12.821 -0.9333  0.0836 -0.4085
   60TCq2    H4  927   1.822   3.445  13.050 -1.1225  0.6857 -1.4279
   61MPD2     C  928   1.632   0.519  15.835  0.4904 -0.2779  0.3568
   61MPD2    C1  929   1.547   0.584  15.745 -0.7402 -0.3735 -0.0604
   61MPD2    C2  930   1.577   0.598  15.612  0.1227 -0.4745  0.1905
   61MPD2    C3  931   1.696   0.538  15.567  0.0185  0.3810  0.1192
   61MPD2    C4  932   1.781   0.467  15.655 -0.3440  0.0980 -0.1178
   61MPD2    C5  933   1.741   0.458  15.786  0.3733  0.2569  0.4421
   61MPD2     H  934   1.520   0.660  15.543  1.5279  0.1255 -0.4252
   61MPD2    H1  935   1.880   0.427  15.639  1.0762  3.8559 -0.6659
   61MPD2    H2  936   1.607   0.513  15.940 -2.5849 -1.0428 -0.4382
   61MPD2    H3  937   1.810   0.411  15.855  0.4059  0.0599  0.2753
   61MPD2     N  938   1.750   0.558  15.434 -0.2119  0.7948  0.2699
   61MPD2    H5  939   1.848   0.538  15.412  0.3443  2.4652  1.3027
   61MPD2    N1  940   1.436   0.661  15.785  0.4310 -0.8585  0.1375
   61MPD2    H7  941   1.395   0.718  15.712  1.4933  1.7051  1.5445
   62TCq2    C1  942   1.374   0.644  15.906 -0.0285  0.2807 -0.6459
   62TCq2    O2  943   1.390   0.570  16.004  0.4886 -0.1921  0.1235
   62TCq2    C2  944   1.247   0.717  15.917 -0.4395 -0.0508  0.4623
   62TCq2    C3  945   1.141   0.642  15.953 -0.5764 -0.5687 -0.3934
   62TCq2    C4  946   1.016   0.702  15.936 -0.2053 -0.5363 -0.0831
   62TCq2    C5  947   1.002   0.821  15.872  0.1029 -0.4192 -0.0736
   62TCq2    C6  948   1.118   0.898  15.839  0.0643  0.4202  0.3963
   62TCq2    C7  949   1.245   0.844  15.866 -0.1039  0.2588 -0.2620
   62TCq2    C8  950   1.111   1.015  15.755 -0.1553 -0.0257  0.0952
   62TCq2    O4  951   1.200   1.033  15.676 -0.2593  0.1705 -0.6446
   62TCq2    C9  952   0.887   0.637  15.972  0.1800 -0.4214 -0.2239
   62TCq2    O5  953   0.787   0.709  15.985 -0.0446 -0.1633 -0.2253
   62TCq2    O6  954   0.888   0.519  16.019 -0.0131  0.3253  0.4084
   62TCq2    H2  955   1.143   0.541  15.992  1.9838 -1.4546 -2.7541
   62TCq2    H3  956   0.903   0.859  15.850  0.3953 -0.6963 -1.9011
   62TCq2    H4  957   1.339   0.898  15.864  1.0820 -1.8147 -0.8054
   63TMC2    C1  958   0.530   0.027  10.955  0.6006  0.4982  0.4202
   63TMC2    C2  959   0.617   0.004  11.057 -0.2575  0.2766  0.2924
   63TMC2    C3  960   0.744   0.053  11.051 -0.3688  0.2299  0.3134
   63TMC2    C4  961   0.561   0.121  10.868 -0.2411  0.0667 -0.4290
   63TMC2    C5  962   0.685   0.174  10.867 -0.3377 -0.3846  0.3805
   63TMC2    C6  963   0.783   0.133  10.954  0.3818 -0.3429 -0.1710
   63TMC2     C  964   0.404   4.681  10.943 -0.4160 -0.2245 -0.0156
   63TMC2     O  965   0.334   0.001  10.858 -0.2502 -0.1569 -0.3119
   63TMC2     H  966   0.576   4.671  11.139  0.3006 -0.8892 -0.2679
   63TMC2    H1  967   0.488   0.157  10.797 -0.7735 -1.5356 -0.6863
   63TMC2    H2  968   0.886   0.164  10.943 -0.0398  0.5293 -1.6796
   63TMC2    C7  969   0.714   0.270  10.760  0.1970 -0.3694  0.3811
   63TMC2    C8  970   0.849   0.002  11.137  0.9028 -0.4559  0.4527
   63TMC2    O1  971   0.634   0.284  10.665  0.7529  0.6645  0.4976
   63TMC2    O2  972   0.970   0.001  11.108 -0.8076  0.1624  0.0312
   63TMC2    O5  973   0.784   4.700  11.252 -0.3021  0.2291 -0.0132
   63TMC2    H5  974   0.688   4.716  11.249 -0.5276 -0.9350  1.2251
   64MPD2     C  975   0.114   4.273  10.969 -0.3173  0.2241  0.1507
   64MPD2    C1  976   0.240   4.245  11.020 -0.5023  0.0146  0.9969
   64MPD2    C2  977   0.334   4.344  11.034 -0.3614 -0.0240  0.3454
   64MPD2    C3  978   0.296   4.472  11.005  0.5784  0.1085 -0.6846
   64MPD2    C4  979   0.170   4.504  10.965 -0.5860 -0.0127  0.7824
   64MPD2    C5  980   0.078   4.404  10.949  0.8775 -0.1472 -0.6716
   64MPD2     H  981   0.437   4.315  11.053  0.3915  1.0508 -1.9995
   64MPD2    H1  982   0.142   4.606  10.942  1.6008  0.1843 -1.1080
   64MPD2    H2  983   0.041   4.199  10.939 -1.7622  2.2183 -1.2865
   64MPD2    H3  984   4.704   4.426  10.911  1.3754 -0.5147 -2.1826
   64MPD2     N  985   0.401   4.561  11.008 -0.2415  0.5085  0.6727
   64MPD2    H5  986   0.491   4.524  11.038  0.4002  0.4023 -1.3905
   64MPD2    N1  987   0.285   4.112  11.040 -0.9226  0.4711 -0.1123
   64MPD2    H7  988   0.379   4.099  11.076 -0.5787  1.1872 -0.7498
   65MPD2     C  989   2.212   4.487  15.774  0.3903 -0.1898  0.8420
   65MPD2    C1  990   2.135   4.547  15.672 -0.2980  0.9443  0.0158
   65MPD2    C2  991   2.010   4.498  15.654 -0.4156  0.3959  0.7153
   65MPD2    C3  992   1.962   4.385  15.719 -0.8551  1.0220 -0.1451
   65MPD2    C4  993   2.038   4.326  15.813  0.5502  0.4621  0.2756
   65MPD2    C5  994   2.165   4.369  15.836 -0.2396  0.9893 -0.3398
   65MPD2     H  995   1.960   4.534  15.565  0.7279  1.2170  0.4068
   65MPD2    H1  996   2.009   4.231  15.855 -1.4002  0.7061 -0.5479
   65MPD2    H2  997   2.312   4.520  15.801  1.7625 -2.2646 -1.6675
   65MPD2    H3  998   2.223   4.310  15.907 -0.0012  2.2009  0.4652
   65MPD2     N  999   1.833   4.332  15.701  0.0536 -0.7745  0.0639
   65MPD2    H5 1000   1.794   4.281  15.780  0.4911  0.5614  1.1358
   65MPD2    N1 1001   2.162   4.663  15.593  0.1012 -0.0086 -0.5220
   65MPD2    H7 1002   2.077   4.702  15.554  0.9662  1.8688 -0.5275
   66TCq2    C1 1003   2.285   0.004  15.594 -0.0739 -0.0125 -0.1988
   66TCq2    O2 1004   2.392   4.687  15.635  0.4920  0.4074 -0.8593
   66TCq2    C2 1005   2.273   0.147  15.547 -0.0646 -0.1306 -0.6447
   66TCq2    C3 1006   2.175   0.188  15.460 -1.0606 -0.4557 -0.1004
   66TCq2    C4 1007   2.151   0.326  15.452  0.5401 -0.2391 -0.0000
   66TCq2    C5 1008   2.232   0.417  15.517  0.2306  0.7259 -0.9521
   66TCq2    C6 1009   2.331   0.369  15.598 -0.4797  0.1064  0.2409
   66TCq2    C7 1010   2.357   0.233  15.613 -0.1357 -0.1901 -0.4046
   66TCq2    C8 1011   2.372   0.448  15.709  0.0271 -0.7720 -0.1523
   66TCq2    O4 1012   2.484   0.437  15.753  0.1337 -0.7665  0.4124
   66TCq2    C9 1013   2.029   0.368  15.398 -0.6079  0.3299 -1.0634
   66TCq2    O5 1014   2.012   0.493  15.376 -1.0014  0.5127  0.7560
   66TCq2    O6 1015   1.929   0.289  15.405  0.3192 -0.4272 -0.7656
   66TCq2    H2 1016   2.117   0.127  15.392 -1.9595  1.7960 -1.3508
   66TCq2    H3 1017   2.205   0.522  15.516  1.6530  1.0962 -0.4612
   66TCq2    H4 1018   2.420   0.203  15.696 -0.4802  1.3442  0.4173
   67MPD2     C 1019   1.844   3.637  14.257 -0.5899 -0.4088 -0.3633
   67MPD2    C1 1020   1.784   3.711  14.354 -0.1819  0.0150  0.3614
   67MPD2    C2 1021   1.648   3.731  14.337 -0.2759 -1.0121  0.5832
   67MPD2    C3 1022   1.578   3.688  14.228  0.4536 -0.6656  0.8012
   67MPD2    C4 1023   1.646   3.615  14.133 -0.0383 -0.3877 -0.3911
   67MPD2    C5 1024   1.778   3.587  14.153 -1.0054 -0.8633 -0.1485
   67MPD2     H 1025   1.595   3.796  14.405 -0.1657  0.1132 -0.4185
   67MPD2    H1 1026   1.600   3.564  14.050 -1.4059 -2.0595  1.4198
   67MPD2    H2 1027   1.952   3.630  14.266 -0.9200 -1.7747  2.2726
   67MPD2    H3 1028   1.836   3.543  14.073  0.8040 -0.0791  0.7319
   67MPD2     N 1029   1.439   3.717  14.206 -0.2366  0.0492 -0.4638
   67MPD2    H5 1030   1.408   3.680  14.116  0.8925 -0.9678 -0.4284
   67MPD2    N1 1031   1.850   3.766  14.466 -0.0454  0.0254  0.3832
   67MPD2    H7 1032   1.795   3.813  14.536 -0.1027  0.8559 -0.2222
   68TCq2    C1 1033   1.980   3.746  14.507 -1.0374 -0.3415  0.6571
   68TCq2    O2 1034   2.078   3.696  14.454 -0.2823  0.5358  0.3892
   68TCq2    C2 1035   2.004   3.824  14.638  0.4953  0.2487 -0.1003
   68TCq2    C3 1036   1.922   3.929  14.670  0.3928  0.8343 -0.6233
   68TCq2    C4 1037   1.926   3.978  14.797  0.8636 -0.0494 -0.0341
   68TCq2    C5 1038   2.016   3.933  14.887  0.1117  1.0153 -0.5259
   68TCq2    C6 1039   2.112   3.839  14.845  0.3957  0.6954 -0.2777
   68TCq2    C7 1040   2.114   3.792  14.717  0.1787  0.8190 -0.3895
   68TCq2    C8 1041   2.224   3.794  14.929  0.3263  0.4854  0.1618
   68TCq2    O4 1042   2.297   3.713  14.874 -0.2265  0.8197 -0.2468
   68TCq2    C9 1043   1.821   4.065  14.845 -0.8643  0.2863 -0.4045
   68TCq2    O5 1044   1.730   4.088  14.760 -0.3317 -0.0928 -0.9447
   68TCq2    O6 1045   1.837   4.118  14.963  0.2505 -0.4694  0.2292
   68TCq2    H2 1046   1.842   3.967  14.608  0.2869  2.3328  0.4243
   68TCq2    H3 1047   2.002   3.967  14.989 -2.3849 -1.2939 -0.0687
   68TCq2    H4 1048   2.185   3.725  14.670  0.6611  1.8694 -1.1476
   69TMC2    C1 1049   3.843   0.328  12.695 -0.0808 -0.0292 -0.4123
   69TMC2    C2 1050   3.774   0.440  12.744 -0.3935 -0.4118  0.2832
   69TMC2    C3 1051   3.735   0.538  12.648 -0.1197  0.8351 -0.4197
   69TMC2    C4 1052   3.878   0.319  12.560  0.2585  0.4615  0.2756
   69TMC2    C5 1053   3.828   0.415  12.475  0.0662 -0.6025 -0.5631
   69TMC2    C6 1054   3.753   0.521  12.519  0.1849  0.1411  0.3090
   69TMC2     C 1055   3.923   0.268  12.798  0.4318 -0.9827  0.3122
   69TMC2     O 1056   3.865   0.241  12.909  0.1972  0.5105  0.0552
   69TMC2     H 1057   3.782   0.467  12.848  1.9273 -2.3427  0.5834
   69TMC2    H1 1058   3.929   0.230  12.527  0.4855  0.4324  0.7072
   69TMC2    H2 1059   3.720   0.600  12.451 -0.5005 -0.0756  0.3894
   69TMC2    C7 1060   3.886   0.421  12.343  0.1519  0.4022  0.4363
   69TMC2    C8 1061   3.725   0.679  12.682 -0.2812 -0.3437 -0.3607
   69TMC2    O1 1062   3.987   0.353  12.332 -0.5843  0.1603  0.0383
   69TMC2    O2 1063   3.729   0.776  12.603 -0.2755 -0.7427 -0.4844
   69TMC2    O5 1064   3.678   0.692  12.809 -0.2871 -0.6350  0.1738
   69TMC2    H5 1065   3.640   0.608  12.843 -2.2358 -0.1213 -0.7210
   70MPD2     C 1066   4.288   0.223  12.805  0.0310 -0.6728  0.3940
   70MPD2    C1 1067   4.161   0.208  12.852 -0.6375  0.2819  0.2544
   70MPD2    C2 1068   4.141   0.145  12.972 -0.2068 -0.0816  0.5493
   70MPD2    C3 1069   4.243   0.082  13.034 -0.1035  0.7182  0.0682
   70MPD2    C4 1070   4.371   0.087  12.987  0.0055  0.0076 -0.4214
   70MPD2    C5 1071   4.397   0.166  12.877 -0.3437 -0.1401  0.3309
   70MPD2     H 1072   4.047   0.155  13.025 -0.0177  1.4265  0.6006
   70MPD2    H1 1073   4.456   0.034  13.028 -0.2906  0.1348  0.3649
   70MPD2    H2 1074   4.314   0.293  12.726 -2.1473  2.4074  2.3586
   70MPD2    H3 1075   4.496   0.188  12.839  0.3400  0.1898  2.3173
   70MPD2     N 1076   4.231   4.720  13.140  0.3638 -0.8833  0.4023
   70MPD2    H5 1077   4.316   4.672  13.166  2.1110  2.9845  1.8111
   70MPD2    N1 1078   4.057   0.260  12.772 -0.3208 -0.3377  0.6760
   70MPD2    H7 1079   4.087   0.296  12.682 -5.1094 -1.4515 -1.3550
   71TMC2    C1 1080   2.586   1.614   1.429  1.0741 -0.0807  0.4449
   71TMC2    C2 1081   2.707   1.676   1.428 -0.8130  0.0208 -0.9523
   71TMC2    C3 1082   2.780   1.676   1.549  0.5543  0.5524  0.4248
   71TMC2    C4 1083   2.521   1.580   1.544 -0.3259 -0.2299 -0.1252
   71TMC2    C5 1084   2.595   1.588   1.670  0.4237 -0.4120 -0.1595
   71TMC2    C6 1085   2.723   1.639   1.671 -0.4707  0.0868 -0.5891
   71TMC2     C 1086   2.508   1.618   1.313 -0.0029  0.0518 -0.3433
   71TMC2     O 1087   2.547   1.692   1.226  0.0982 -0.3049  0.0633
   71TMC2     H 1088   2.763   1.702   1.339 -1.7137  3.1130 -0.6251
   71TMC2    H1 1089   2.422   1.537   1.544 -0.4135 -0.0565  1.6464
   71TMC2    H2 1090   2.772   1.668   1.764 -2.0740  1.6936 -0.2490
   71TMC2    C7 1091   2.530   1.605   1.801  0.0638 -0.1796  0.2559
   71TMC2    C8 1092   2.911   1.742   1.546  0.0508 -0.1451  0.0505
   71TMC2    O1 1093   2.594   1.620   1.905  0.3758  0.3636 -0.0376
   71TMC2    O2 1094   2.938   1.836   1.468 -0.0032 -0.0145 -0.4416
   71TMC2    O5 1095   2.983   1.680   1.643  0.0920  0.1315 -0.1311
   71TMC2    H5 1096   2.949   1.594   1.676 -0.7471  0.0433 -1.2478
   72MPD2     C 1097   2.128   1.463   1.006  0.5496 -0.5033 -0.0047
   72MPD2    C1 1098   2.187   1.587   1.016  0.5133 -0.3602  0.0192
   72MPD2    C2 1099   2.291   1.603   1.112 -0.6892 -0.5104  0.7549
   72MPD2    C3 1100   2.321   1.503   1.197  0.2102 -0.1976  0.4903
   72MPD2    C4 1101   2.257   1.377   1.188  0.0136 -0.5268 -0.1265
   72MPD2    C5 1102   2.169   1.359   1.089 -0.1552 -0.3985 -0.2787
   72MPD2     H 1103   2.349   1.694   1.105 -1.1986 -0.3035 -0.7928
   72MPD2    H1 1104   2.276   1.296   1.258  1.1577 -0.1908 -0.0449
   72MPD2    H2 1105   2.041   1.456   0.941  0.5076 -1.9881  0.2122
   72MPD2    H3 1106   2.107   1.270   1.077 -0.9346  0.1437 -0.2965
   72MPD2     N 1107   2.422   1.517   1.302 -0.2896  0.3411  0.5987
   72MPD2    H5 1108   2.440   1.445   1.371 -1.4225  2.8363  3.5096
   72MPD2    N1 1109   2.159   1.695   0.924 -0.3271 -0.9808 -0.3516
   72MPD2    H7 1110   2.196   1.785   0.955  0.4543 -0.3636 -3.1082
   73TMC2    C1 1111   1.456   2.684  13.776  0.6285 -0.3188  0.1766
   73TMC2    C2 1112   1.399   2.646  13.899 -0.4712  0.5308 -0.5681
   73TMC2    C3 1113   1.450   2.706  14.011 -0.4994  0.1954 -0.1183
   73TMC2    C4 1114   1.534   2.801  13.773  0.5192  0.2046 -0.2255
   73TMC2    C5 1115   1.588   2.860  13.887  0.3531 -0.4566  0.3809
   73TMC2    C6 1116   1.545   2.803  14.003  0.2208 -0.2913 -0.8363
   73TMC2     C 1117   1.502   2.580  13.688  0.2551 -0.0971  0.2326
   73TMC2     O 1118   1.609   2.612  13.647  0.1130 -0.1494  0.2335
   73TMC2     H 1119   1.338   2.556  13.902 -1.8686  1.6243  3.5875
   73TMC2    H1 1120   1.563   2.845  13.679  1.1348  0.6457  0.1695
   73TMC2    H2 1121   1.569   2.847  14.100  0.0064 -0.8425 -0.5343
   73TMC2    C7 1122   1.737   2.872  13.879  0.6116 -0.0999 -0.1388
   73TMC2    C8 1123   1.387   2.702  14.140  0.1611 -0.4544  0.2353
   73TMC2    O1 1124   1.793   2.922  13.974  0.1887  0.4819  0.2445
   73TMC2    O2 1125   1.369   2.805  14.201  0.4333 -0.3736 -0.2638
   73TMC2    O5 1126   1.322   2.579  14.166 -0.1969 -0.3190  0.1359
   73TMC2    H5 1127   1.359   2.511  14.106  1.0763  0.6310 -0.1521
   74MPD2     C 1128   1.590   2.116  13.476 -0.4825  0.0799 -0.1292
   74MPD2    C1 1129   1.667   2.226  13.497 -0.2473  0.4824 -0.1096
   74MPD2    C2 1130   1.613   2.339  13.548 -0.1654  0.1724  0.2204
   74MPD2    C3 1131   1.484   2.357  13.585  0.7212 -0.2084 -0.1450
   74MPD2    C4 1132   1.401   2.251  13.568 -0.0112 -0.1363  0.2277
   74MPD2    C5 1133   1.455   2.125  13.523  0.4751 -0.1652  0.3140
   74MPD2     H 1134   1.684   2.420  13.565 -0.8613  0.7999  0.1596
   74MPD2    H1 1135   1.294   2.257  13.581 -0.0442  2.0197 -0.9981
   74MPD2    H2 1136   1.632   2.023  13.441  0.9270 -0.0236  1.8323
   74MPD2    H3 1137   1.374   2.057  13.498  1.3071 -1.0587  0.0797
   74MPD2     N 1138   1.426   2.467  13.657  0.2904  0.0591 -0.3069
   74MPD2    H5 1139   1.331   2.451  13.689  0.0145 -0.4322 -1.3717
   74MPD2    N1 1140   1.806   2.212  13.463 -0.2557  0.2675  0.8672
   74MPD2    H7 1141   1.844   2.124  13.429  0.8378  0.4836  1.5134
   75TCq2    C1 1142   1.349   3.750  14.307  0.0588  0.2172  0.3237
   75TCq2    O2 1143   1.370   3.754  14.430 -0.8126  0.3781 -0.0940
   75TCq2    C2 1144   1.216   3.786  14.262 -0.2702  0.5849 -0.0628
   75TCq2    C3 1145   1.139   3.847  14.360  0.4614  0.1897 -0.2423
   75TCq2    C4 1146   1.002   3.855  14.353 -0.0734 -0.2228  0.0053
   75TCq2    C5 1147   0.937   3.817  14.234  0.1092 -0.3374  0.3094
   75TCq2    C6 1148   1.020   3.760  14.137 -0.1161  0.0781  0.2215
   75TCq2    C7 1149   1.151   3.734  14.152 -0.0546  0.5885 -0.5524
   75TCq2    C8 1150   0.980   3.781  13.997  0.0550  0.0344 -0.6896
   75TCq2    O4 1151   1.019   3.715  13.903  0.4622  0.1485 -0.0909
   75TCq2    C9 1152   0.927   3.936  14.449 -0.5175  0.1307 -0.2475
   75TCq2    O5 1153   0.831   3.998  14.400  0.0733 -0.2635 -0.2810
   75TCq2    O6 1154   0.983   3.972  14.555  0.4035  0.5146  0.2830
   75TCq2    H2 1155   1.180   3.871  14.457 -0.7099  2.3881 -0.3020
   75TCq2    H3 1156   0.831   3.838  14.225  0.9020  2.4310 -2.5164
   75TCq2    H4 1157   1.200   3.687  14.067 -0.3228  1.4435 -1.1862
   76MPD2     C 1158   0.107   0.035  12.105  0.7750  0.1129  0.2387
   76MPD2    C1 1159   0.080   0.011  11.967 -0.3049 -0.0495  0.9571
   76MPD2    C2 1160   0.145   4.625  11.911 -0.3397 -0.3262 -0.4379
   76MPD2    C3 1161   0.241   4.554  11.988 -0.1884 -0.4152 -0.3462
   76MPD2    C4 1162   0.267   4.583  12.122  0.4643 -0.2608 -0.0566
   76MPD2    C5 1163   0.196   4.693  12.177  0.3276  1.1577  0.0401
   76MPD2     H 1164   0.118   4.599  11.809  0.2906  1.2049 -0.9865
   76MPD2    H1 1165   0.349   4.539  12.177 -0.3849  1.4796  2.6508
   76MPD2    H2 1166   0.063   0.122  12.152  0.8974  0.7539 -0.8490
   76MPD2    H3 1167   0.218   4.718  12.281  2.2643 -1.1659  0.2027
   76MPD2     N 1168   0.333   4.462  11.943  0.3233 -0.2280 -0.0627
   76MPD2    H5 1169   0.377   4.402  12.011 -3.0282 -1.2809  1.1932
   76MPD2    N1 1170   4.714   0.075  11.880 -0.4327 -0.1142  0.0037
   76MPD2    H7 1171   4.689   0.037  11.790 -0.3143 -3.2668  1.3039
   77TCq2    C1 1172   0.354   4.417  11.813 -0.3303 -0.0467  0.1724
   77TCq2    O2 1173   0.290   4.447  11.715  0.5710  0.0670 -0.3037
   77TCq2    C2 1174   0.436   4.297  11.808  0.4735  0.3623  0.6998
   77TCq2    C3 1175   0.427   4.212  11.700  0.5241  0.0171 -0.0960
   77TCq2    C4 1176   0.531   4.121  11.684  0.1688  0.2332  0.1287
   77TCq2    C5 1177   0.632   4.106  11.778  0.5947 -0.2777  0.1927
   77TCq2    C6 1178   0.630   4.188  11.890  0.5978  0.6381 -0.0491
   77TCq2    C7 1179   0.536   4.286  11.899  0.5266 -0.4380 -0.1647
   77TCq2    C8 1180   0.748   4.196  11.972  0.7831  0.2319  0.3055
   77TCq2    O4 1181   0.852   4.171  11.920  0.4973 -0.2823  0.2483
   77TCq2    C9 1182   0.521   4.031  11.574  0.1176 -0.0978  0.0357
   77TCq2    O5 1183   0.610   3.948  11.571 -0.0567  0.1700 -0.1766
   77TCq2    O6 1184   0.446   4.066  11.480 -0.9671 -0.0540 -0.8125
   77TCq2    H2 1185   0.341   4.217  11.634 -0.4809 -0.9231  1.1488
   77TCq2    H3 1186   0.719   4.041  11.763  0.2487 -0.2043 -2.2328
   77TCq2    H4 1187   0.553   4.355  11.980  2.1424 -1.3601  0.2921
   78MPD1     C 1188   3.285   3.539   2.495 -0.3371 -0.0256 -0.2474
   78MPD1    C1 1189   3.300   3.560   2.627 -0.3511  0.5221  0.7593
   78MPD1    C2 1190   3.285   3.692   2.670 -0.3413  0.3762 -0.0103
   78MPD1    C3 1191   3.272   3.801   2.580  0.3735  1.2013 -0.7100
   78MPD1    C4 1192   3.268   3.770   2.444 -0.2298  0.3330 -0.7406
   78MPD1    C5 1193   3.282   3.640   2.405 -0.3738  0.5234  0.5037
   78MPD1     H 1194   3.296   3.708   2.777  0.4921 -1.3739  0.1562
   78MPD1    H1 1195   3.250   3.838   2.361  1.4079  0.2052 -1.2089
   78MPD1    H2 1196   3.286   3.440   2.449  3.4015  0.3815 -1.1034
   78MPD1    H3 1197   3.277   3.609   2.301 -3.2004  1.4657  0.3462
   78MPD1     N 1198   3.256   3.936   2.614  0.5190  1.0029 -0.0033
   78MPD1    H5 1199   3.260   4.005   2.540  1.1560  0.3025 -0.6223
   78MPD1    N1 1200   3.298   3.462   2.730 -0.5524  0.1130  0.4133
   78MPD1    H6 1201   3.335   3.373   2.699 -2.0050 -0.1844 -0.4712
   78MPD1    H7 1202   3.350   3.500   2.809  1.1493  0.9313 -1.0948
   79TCq2    C1 1203   3.254   3.976   2.747  0.0287 -0.1609  0.4566
   79TCq2    O2 1204   3.272   3.912   2.849  0.0759 -0.4049 -0.2917
   79TCq2    C2 1205   3.228   4.112   2.762  0.2333  0.7601  0.0909
   79TCq2    C3 1206   3.256   4.169   2.881  0.0088 -0.2922 -0.1229
   79TCq2    C4 1207   3.232   4.301   2.892  0.3545 -0.2685 -0.0516
   79TCq2    C5 1208   3.195   4.383   2.790  0.0683 -0.1082 -0.1460
   79TCq2    C6 1209   3.162   4.321   2.673  0.5002  0.7348  0.9213
   79TCq2    C7 1210   3.177   4.185   2.657  0.9967  0.1602 -0.1837
   79TCq2    C8 1211   3.181   4.404   2.553 -0.2264  0.0029 -0.3494
   79TCq2    O4 1212   3.249   4.507   2.562  0.0523  0.1617  0.2451
   79TCq2    C9 1213   3.254   4.359   3.021  0.0204 -0.6936 -0.6545
   79TCq2    O5 1214   3.218   4.480   3.034  0.3457 -0.3968 -0.3945
   79TCq2    O6 1215   3.295   4.282   3.112 -0.0351  0.3048 -0.5138
   79TCq2    H2 1216   3.290   4.113   2.968 -0.1132 -0.1375  0.0254
   79TCq2    H3 1217   3.180   4.489   2.807 -0.8070 -0.1223 -0.8583
   79TCq2    H4 1218   3.154   4.145   2.559  0.0205 -2.1563  1.0065
   80MPD2     C 1219   3.757   4.278  12.623  0.4468 -0.2866 -0.2878
   80MPD2    C1 1220   3.784   4.314  12.490  0.3392 -0.2766  0.4226
   80MPD2    C2 1221   3.674   4.342  12.409 -0.2561 -0.0187 -0.5182
   80MPD2    C3 1222   3.543   4.319  12.447 -0.8825 -0.9966  0.8059
   80MPD2    C4 1223   3.519   4.270  12.574  0.7336 -0.6413  0.1213
   80MPD2    C5 1224   3.625   4.263  12.662  0.7715  0.5938  0.3216
   80MPD2     H 1225   3.689   4.375  12.306  0.3370  0.1765 -0.3673
   80MPD2    H1 1226   3.420   4.252  12.613  0.2632  0.9952 -0.3036
   80MPD2    H2 1227   3.833   4.258  12.698 -0.2213 -3.6562 -0.4992
   80MPD2    H3 1228   3.600   4.233  12.763 -2.0944 -0.1117 -0.5773
   80MPD2     N 1229   3.434   4.352  12.365 -0.3686  1.1532  0.7271
   80MPD2    H5 1230   3.341   4.320  12.388  0.1897 -0.1633  1.1520
   80MPD2    N1 1231   3.904   4.318  12.433  0.1724  0.1743  0.1287
   80MPD2    H7 1232   3.905   4.323  12.331  1.2437 -2.3130  0.0019
   81TCq2    C1 1233   4.028   4.306  12.494  0.1124  0.0541 -0.2172
   81TCq2    O2 1234   4.056   4.258  12.605 -0.0560  0.3215 -0.0351
   81TCq2    C2 1235   4.142   4.322  12.400 -1.0583 -0.0965 -0.2736
   81TCq2    C3 1236   4.253   4.252  12.428  0.0039  0.5295 -0.3463
   81TCq2    C4 1237   4.336   4.233  12.323  0.0230 -0.1230 -0.7726
   81TCq2    C5 1238   4.322   4.300  12.202  0.2651 -0.3826 -0.8974
   81TCq2    C6 1239   4.214   4.383  12.192 -0.5325  0.5068 -0.3435
   81TCq2    C7 1240   4.127   4.398  12.294  0.4934 -0.6724  0.1203
   81TCq2    C8 1241   4.151   4.400  12.060 -0.7203  0.2420 -0.4143
   81TCq2    O4 1242   4.085   4.500  12.037  0.8186 -0.4021  0.0130
   81TCq2    C9 1243   4.441   4.139  12.348 -0.1537 -0.0724  0.2035
   81TCq2    O5 1244   4.452   4.093  12.461  0.0741  0.3125  0.2762
   81TCq2    O6 1245   4.521   4.111  12.256 -0.1778 -0.0773  0.2891
   81TCq2    H2 1246   4.265   4.196  12.521 -1.0209  0.9488  0.0485
   81TCq2    H3 1247   4.390   4.277  12.121  1.0626 -0.2013 -0.2757
   81TCq2    H4 1248   4.038   4.457  12.279  1.3173  0.6559  0.4999
   82MPD2     C 1249   2.561   3.570  10.991  0.6371 -1.1014 -0.1838
   82MPD2    C1 1250   2.468   3.475  10.973  0.4141 -0.5896 -0.0058
   82MPD2    C2 1251   2.506   3.347  10.950 -0.4696  0.2707 -0.9706
   82MPD2    C3 1252   2.636   3.313  10.947  0.2944 -1.1574 -0.3384
   82MPD2    C4 1253   2.731   3.415  10.952 -0.3268  0.1425  0.5119
   82MPD2    C5 1254   2.692   3.541  10.978 -0.8011  0.2405  0.6937
   82MPD2     H 1255   2.428   3.271  10.946 -0.5867  0.4200 -1.5839
   82MPD2    H1 1256   2.835   3.387  10.956 -0.4078  0.2173  3.1533
   82MPD2    H2 1257   2.532   3.671  11.019  0.2910 -1.2358 -0.0667
   82MPD2    H3 1258   2.769   3.617  10.985 -1.5996  1.1593 -0.3617
   82MPD2     N 1259   2.682   3.176  10.958 -0.1983 -0.1100  0.0836
   82MPD2    H5 1260   2.782   3.163  10.968 -0.1089 -0.9127 -1.9613
   82MPD2    N1 1261   2.335   3.511  10.982  0.4911  0.2168 -0.3231
   82MPD2    H7 1262   2.318   3.611  10.977 -1.4860 -0.1505 -1.0309
   83TCq2    C1 1263   2.605   3.063  10.955  0.0005  0.1231 -0.2825
   83TCq2    O2 1264   2.493   3.058  10.906 -0.2342 -0.6534 -0.5363
   83TCq2    C2 1265   2.664   2.939  11.005  0.1433  0.4765 -0.4249
   83TCq2    C3 1266   2.791   2.940  11.051 -0.0054 -0.2124  0.1579
   83TCq2    C4 1267   2.809   2.879  11.175  0.1528  0.2800 -0.5010
   83TCq2    C5 1268   2.713   2.796  11.235 -0.0340 -0.6462  0.4015
   83TCq2    C6 1269   2.592   2.790  11.172 -0.3630 -0.1407 -0.2556
   83TCq2    C7 1270   2.566   2.861  11.053 -0.1630  0.1655 -1.1474
   83TCq2    C8 1271   2.480   2.736  11.249 -0.3261  0.3281 -0.6693
   83TCq2    O4 1272   2.503   2.689  11.361 -0.1428  0.2817 -0.7238
   83TCq2    C9 1273   2.944   2.870  11.223 -0.0135 -1.0682  0.2211
   83TCq2    O5 1274   3.033   2.933  11.157 -0.4316  0.2290  0.1296
   83TCq2    O6 1275   2.975   2.784  11.305 -0.2580 -0.0441  0.1263
   83TCq2    H2 1276   2.863   3.005  11.005  0.0289 -0.2182  0.2032
   83TCq2    H3 1277   2.733   2.740  11.325 -0.7865 -1.9857 -0.2740
   83TCq2    H4 1278   2.485   2.832  10.987 -2.8332  2.1050  1.3124
   84TCq2    C1 1279   3.029   2.165  10.348 -0.2838  0.3835 -0.3246
   84TCq2    O2 1280   3.131   2.234  10.348  0.1148 -0.7926  0.1517
   84TCq2    C2 1281   3.029   2.053  10.438 -0.2630 -0.2335  0.2396
   84TCq2    C3 1282   2.967   1.936  10.400  0.3844  0.0803 -0.3280
   84TCq2    C4 1283   2.983   1.825  10.487  0.2747  0.1286  0.0020
   84TCq2    C5 1284   3.053   1.833  10.607 -0.2087 -0.1360  0.1131
   84TCq2    C6 1285   3.107   1.954  10.637 -0.3643 -0.9327 -0.1529
   84TCq2    C7 1286   3.103   2.062  10.555  0.1018  1.1246 -0.3359
   84TCq2    C8 1287   3.150   1.991  10.774  0.8541 -0.3318  0.7129
   84TCq2    O4 1288   3.197   2.099  10.799 -0.2557 -0.5291 -0.0936
   84TCq2    C9 1289   2.903   1.706  10.457  0.1594  0.5413  0.1398
   84TCq2    O5 1290   2.893   1.627  10.556  0.3819  0.0244  0.2362
   84TCq2    O6 1291   2.860   1.686  10.339 -0.3097 -0.6071  0.5187
   84TCq2    H2 1292   2.914   1.926  10.305  1.6918 -1.0483 -0.9338
   84TCq2    H3 1293   3.041   1.751  10.676 -0.8515  1.4373  1.8677
   84TCq2    H4 1294   3.149   2.157  10.580 -0.2626  2.0022 -2.9445
   85MPD2     C 1295   4.053   1.155  16.377  1.3507  0.6090 -0.2097
   85MPD2    C1 1296   4.026   1.081  16.267  0.6221 -0.2669 -0.3024
   85MPD2    C2 1297   4.033   1.134  16.147  0.2170  0.1000 -0.5217
   85MPD2    C3 1298   4.079   1.259  16.120  0.0601 -0.4722 -0.1339
   85MPD2    C4 1299   4.114   1.333  16.228 -0.6552 -0.4803  0.0752
   85MPD2    C5 1300   4.098   1.287  16.359 -0.1951 -0.2687  0.0764
   85MPD2     H 1301   4.006   1.072  16.062  0.8630  1.1089 -1.4595
   85MPD2    H1 1302   4.158   1.432  16.218  0.9541 -1.3490 -1.6259
   85MPD2    H2 1303   4.030   1.114  16.474  1.4078  0.2893 -0.3316
   85MPD2    H3 1304   4.128   1.346  16.445 -2.4662  0.1333  0.6065
   85MPD2     N 1305   4.086   1.309  15.985 -0.1395 -0.5319 -0.5792
   85MPD2    H5 1306   4.044   1.258  15.908 -1.0947 -0.4910 -0.0791
   85MPD2    N1 1307   3.965   0.950  16.276 -0.1346  0.2089 -0.0105
   85MPD2    H7 1308   3.907   0.920  16.199 -1.1655 -0.4939  1.0326
   86TCq2    C1 1309   4.150   1.426  15.940  0.8149  0.1304  0.5180
   86TCq2    O2 1310   4.200   1.511  16.007 -0.2305 -0.1243 -0.2742
   86TCq2    C2 1311   4.172   1.435  15.795 -0.2176 -0.2462 -0.3804
   86TCq2    C3 1312   4.196   1.561  15.744  0.0802 -0.1324  0.3795
   86TCq2    C4 1313   4.238   1.572  15.614 -1.1485 -0.0669 -0.9633
   86TCq2    C5 1314   4.241   1.468  15.530 -0.1768 -0.3279  0.1662
   86TCq2    C6 1315   4.219   1.348  15.587  0.4890 -0.0229  0.6399
   86TCq2    C7 1316   4.183   1.325  15.714  0.7565  0.0695 -0.3436
   86TCq2    C8 1317   4.253   1.241  15.506  0.4732  0.2548 -0.0402
   86TCq2    O4 1318   4.308   1.155  15.566  0.6470 -0.2321 -0.6875
   86TCq2    C9 1319   4.291   1.694  15.565 -0.2466  0.3826 -0.3448
   86TCq2    O5 1320   4.260   1.797  15.627 -0.1393  0.1174  0.1771
   86TCq2    O6 1321   4.334   1.689  15.448  0.1389 -0.0603 -0.5900
   86TCq2    H2 1322   4.184   1.647  15.810  1.5623  0.9653 -0.7871
   86TCq2    H3 1323   4.278   1.472  15.428  0.9442  0.7005  0.6175
   86TCq2    H4 1324   4.161   1.225  15.752 -0.2745 -0.8507 -3.3800
   87MPD2     C 1325   1.810   4.716   1.480 -0.1815 -0.0762  0.4696
   87MPD2    C1 1326   1.880   0.111   1.463 -0.4211  0.5342 -0.2724
   87MPD2    C2 1327   1.820   0.229   1.426 -0.9664 -0.0197 -0.6265
   87MPD2    C3 1328   1.687   0.229   1.397  0.1816  0.0325  0.4630
   87MPD2    C4 1329   1.618   0.108   1.407 -0.1411  0.3940  0.0964
   87MPD2    C5 1330   1.677   4.716   1.452 -0.8217  0.2958 -0.3881
   87MPD2     H 1331   1.876   0.319   1.400  2.1882 -1.3824  1.4554
   87MPD2    H1 1332   1.512   0.096   1.388 -0.2025 -3.1180  2.4659
   87MPD2    H2 1333   1.855   4.626   1.520  0.3881  0.3937  0.8807
   87MPD2    H3 1334   1.618   4.626   1.463 -0.5453 -0.0446 -1.6531
   87MPD2     N 1335   1.607   0.341   1.357  0.4270 -0.3042 -0.7436
   87MPD2    H5 1336   1.508   0.332   1.337  0.3931 -1.3766 -0.0861
   87MPD2    N1 1337   2.019   0.092   1.477  0.5059 -0.6590 -0.7412
   87MPD2    H7 1338   2.055   4.724   1.492 -0.3103 -0.7223  0.8122
   88TCq2    C1 1339   2.115   0.191   1.479 -0.1029 -0.6236 -0.0720
   88TCq2    O2 1340   2.100   0.312   1.508 -0.1551  0.2522  0.2105
   88TCq2    C2 1341   2.247   0.137   1.471 -0.4957  0.8576 -0.3411
   88TCq2    C3 1342   2.345   0.217   1.517  0.3293  0.8818 -0.0793
   88TCq2    C4 1343   2.465   0.202   1.458 -0.5083  0.2775 -0.2747
   88TCq2    C5 1344   2.492   0.097   1.372  0.4858 -0.4231 -0.3601
   88TCq2    C6 1345   2.393   0.019   1.331 -0.2829  0.5373  0.2414
   88TCq2    C7 1346   2.269   0.034   1.382 -0.2067 -0.3314  0.2221
   88TCq2    C8 1347   2.432   4.639   1.239  0.1767  0.1750  0.0659
   88TCq2    O4 1348   2.541   4.647   1.182  0.1819 -0.2322 -0.4399
   88TCq2    C9 1349   2.574   0.286   1.516 -0.5501 -0.6283 -0.3072
   88TCq2    O5 1350   2.555   0.334   1.626  0.2301  0.2233 -1.0034
   88TCq2    O6 1351   2.665   0.314   1.429 -0.0092 -0.1490  0.5231
   88TCq2    H2 1352   2.330   0.290   1.596  3.1756 -1.3006  2.4981
   88TCq2    H3 1353   2.596   0.077   1.347  0.0226 -1.3564 -1.5140
   88TCq2    H4 1354   2.195   4.725   1.311 -0.3855 -1.0522  0.7528
   89MPD2     C 1355   2.537   2.269   2.371  0.1373  0.3439  0.1967
   89MPD2    C1 1356   2.475   2.324   2.261 -0.0682  0.2723  0.2496
   89MPD2    C2 1357   2.538   2.426   2.193 -0.1141  0.6177  0.7175
   89MPD2    C3 1358   2.671   2.458   2.228 -0.1710 -0.1328 -0.3154
   89MPD2    C4 1359   2.732   2.393   2.333  0.2335 -0.2146 -0.0538
   89MPD2    C5 1360   2.664   2.304   2.405 -0.0488 -0.8310 -0.0729
   89MPD2     H 1361   2.490   2.485   2.116  1.0033  5.5115  3.7796
   89MPD2    H1 1362   2.834   2.419   2.362  0.1841 -0.0802 -0.0016
   89MPD2    H2 1363   2.497   2.182   2.421  1.9198  0.7198  2.3021
   89MPD2    H3 1364   2.714   2.249   2.484  0.9170 -1.2778 -0.9974
   89MPD2     N 1365   2.733   2.573   2.164  0.1701 -0.1914  0.1888
   89MPD2    H5 1366   2.675   2.622   2.097 -0.5946  0.1260  1.0855
   89MPD2    N1 1367   2.352   2.281   2.211  0.9593  0.1555 -0.1503
   89MPD2    H7 1368   2.319   2.323   2.124  0.0010 -0.2436  0.0205
   90TCq2    C1 1369   2.864   2.606   2.171 -0.0504 -0.8669  0.0127
   90TCq2    O2 1370   2.951   2.538   2.218 -0.0045  0.4756 -0.4132
   90TCq2    C2 1371   2.905   2.700   2.066  0.0403 -0.0990 -0.1153
   90TCq2    C3 1372   3.023   2.769   2.089 -0.3804  0.0080  0.6286
   90TCq2    C4 1373   3.054   2.878   2.016  0.6437  0.1366  0.4371
   90TCq2    C5 1374   2.977   2.918   1.914 -0.7154 -0.0492 -0.0077
   90TCq2    C6 1375   2.878   2.830   1.880  0.1629  0.1107  0.4173
   90TCq2    C7 1376   2.822   2.737   1.965  0.9956  0.2057 -0.5583
   90TCq2    C8 1377   2.786   2.877   1.786 -0.4674  0.2568  0.2244
   90TCq2    O4 1378   2.668   2.850   1.803 -0.8813  0.1060 -0.1300
   90TCq2    C9 1379   3.161   2.961   2.061 -0.1621 -0.1324 -0.0537
   90TCq2    O5 1380   3.225   2.937   2.166 -0.7320  0.3726 -0.7151
   90TCq2    O6 1381   3.212   3.040   1.973  0.0396  0.0189  0.7634
   90TCq2    H2 1382   3.080   2.748   2.180  0.9789 -0.1081 -0.2504
   90TCq2    H3 1383   2.995   3.013   1.866  0.0931 -1.6830 -2.9190
   90TCq2    H4 1384   2.754   2.662   1.926  0.1213 -0.7250  2.7534
   91TMC2    C1 1385   4.068   2.404  16.667  0.0692 -0.0092  0.0351
   91TMC2    C2 1386   4.136   2.461  16.768  0.0730  0.0936  0.2468
   91TMC2    C3 1387   4.060   2.539  16.854 -0.3353  0.1093 -0.2496
   91TMC2    C4 1388   3.938   2.419  16.652 -0.2215 -0.5633  0.0163
   91TMC2    C5 1389   3.871   2.508  16.730  0.0409  0.3449 -0.1972
   91TMC2    C6 1390   3.929   2.571  16.831 -0.0814  0.4384  0.5498
   91TMC2     C 1391   4.142   2.327  16.565 -0.4948 -0.5746 -0.0011
   91TMC2     O 1392   4.075   2.239  16.512  0.6530 -0.0239  0.0196
   91TMC2     H 1393   4.239   2.438  16.791  0.9251  1.6034 -2.0776
   91TMC2    H1 1394   3.887   2.364  16.573  3.0795  0.3298 -2.7777
   91TMC2    H2 1395   3.875   2.635  16.900 -1.8466  1.2665 -1.5670
   91TMC2    C7 1396   3.738   2.553  16.692  0.4728 -0.2091 -0.1466
   91TMC2    C8 1397   4.136   2.606  16.963  0.3381 -0.1483 -0.0103
   91TMC2    O1 1398   3.668   2.602  16.783  0.2257 -0.0798 -0.0552
   91TMC2    O2 1399   4.254   2.627  16.950  0.1846  0.2555 -0.1637
   91TMC2    O5 1400   4.072   2.611  17.083 -0.0433 -0.3458 -0.1511
   91TMC2    H5 1401   3.980   2.575  17.085  0.6256 -2.0232 -0.1332
   92MPD2     C 1402   4.358   2.189  16.405  0.4281 -0.2791  1.1695
   92MPD2    C1 1403   4.373   2.313  16.465  0.6335  0.9516 -0.5079
   92MPD2    C2 1404   4.497   2.372  16.464  0.0492 -0.8414  0.4024
   92MPD2    C3 1405   4.601   2.310  16.399 -0.7068 -0.5982 -0.0354
   92MPD2    C4 1406   4.581   2.192  16.332  0.4601  0.3910  0.3403
   92MPD2    C5 1407   4.463   2.138  16.336  0.3346  0.1029  0.3038
   92MPD2     H 1408   4.506   2.464  16.520 -2.3915  0.2845 -1.0458
   92MPD2    H1 1409   4.657   2.140  16.276  0.3484 -0.7751  1.2644
   92MPD2    H2 1410   4.269   2.130  16.419  0.6930 -1.5272 -2.3936
   92MPD2    H3 1411   4.448   2.044  16.284 -1.1912 -0.7704  2.3201
   92MPD2     N 1412   0.002   2.375  16.411 -0.0361 -0.1571 -0.4047
   92MPD2    H5 1413   0.005   2.460  16.467 -2.5599 -0.6644  0.4675
   92MPD2    N1 1414   4.263   2.368  16.545 -0.4892 -0.0116 -0.3572
   92MPD2    H7 1415   4.286   2.460  16.581  0.2694 -1.5590  3.0783
   93MPD2     C 1416   1.090   1.669  14.109 -0.0514 -0.1955  0.5214
   93MPD2    C1 1417   1.101   1.775  14.017 -0.1932 -0.3764  0.4967
   93MPD2    C2 1418   0.987   1.843  13.979 -0.1376  0.4467  0.3773
   93MPD2    C3 1419   0.858   1.804  14.031  0.4056  0.1909  0.2051
   93MPD2    C4 1420   0.849   1.704  14.127  0.0832 -0.3806 -0.1681
   93MPD2    C5 1421   0.966   1.632  14.158  0.0084  0.4192  0.9711
   93MPD2     H 1422   0.992   1.930  13.916 -1.8909 -0.4361 -0.9960
   93MPD2    H1 1423   0.752   1.675  14.166  0.6081  0.8796  2.0905
   93MPD2    H2 1424   1.176   1.608  14.133 -0.1295 -1.3610 -2.1795
   93MPD2    H3 1425   0.950   1.557  14.234 -0.5224 -1.0633 -0.6054
   93MPD2     N 1426   0.738   1.867  13.990 -0.2787 -0.4351 -0.9647
   93MPD2    H5 1427   0.660   1.849  14.053 -2.3021 -1.3337 -3.7615
   93MPD2    N1 1428   1.222   1.837  13.974 -0.1601  0.2749  1.0892
   93MPD2    H7 1429   1.215   1.928  13.929 -1.7871 -0.5953 -0.4108
   94TCq2    C1 1430   1.354   1.805  14.002 -0.0960  0.0557 -0.5429
   94TCq2    O2 1431   1.404   1.698  14.038 -0.3404 -0.2575 -0.1888
   94TCq2    C2 1432   1.431   1.924  13.994  0.5002 -0.3599 -0.4995
   94TCq2    C3 1433   1.375   2.030  14.049 -0.2335  1.4269 -0.3399
   94TCq2    C4 1434   1.417   2.153  14.007  0.3860 -0.5253  0.5847
   94TCq2    C5 1435   1.509   2.165  13.909  0.8587 -0.6882 -1.2184
   94TCq2    C6 1436   1.558   2.051  13.855 -0.0594  0.4665  0.0235
   94TCq2    C7 1437   1.519   1.928  13.893 -0.2416 -0.3199 -0.1110
   94TCq2    C8 1438   1.690   2.049  13.794 -0.2263  0.0211 -0.0038
   94TCq2    O4 1439   1.735   1.951  13.738 -0.9703 -0.2120  0.1186
   94TCq2    C9 1440   1.352   2.270  14.063 -0.6314 -0.0892  0.3982
   94TCq2    O5 1441   1.269   2.247  14.154 -0.1141  0.5893 -0.3798
   94TCq2    O6 1442   1.407   2.379  14.049 -0.1575  0.0916 -0.6984
   94TCq2    H2 1443   1.310   2.023  14.136 -1.1745 -0.8762 -1.2426
   94TCq2    H3 1444   1.533   2.268  13.884  0.1579 -0.4023 -0.7034
   94TCq2    H4 1445   1.556   1.839  13.843 -1.4870 -0.2871 -1.0749
   95TMC2    C1 1446   1.201   3.406  15.857  0.6585 -0.0730  0.7073
   95TMC2    C2 1447   1.199   3.404  15.991  0.0006  0.1584  0.4461
   95TMC2    C3 1448   1.115   3.318  16.054  0.0682 -0.0905 -0.2801
   95TMC2    C4 1449   1.120   3.328  15.786 -0.3467  0.1658 -0.1321
   95TMC2    C5 1450   1.043   3.240  15.851 -0.0925  0.3609  0.0941
   95TMC2    C6 1451   1.033   3.233  15.987  0.5289  0.1740 -0.2668
   95TMC2     C 1452   1.256   3.525  15.795  0.1179 -0.5225 -1.0495
   95TMC2     O 1453   1.245   3.634  15.853  0.1458 -0.4968 -0.6944
   95TMC2     H 1454   1.270   3.459  16.052  0.1089  0.3897  0.1098
   95TMC2    H1 1455   1.107   3.346  15.680 -1.2859  0.3319  0.0082
   95TMC2    H2 1456   0.980   3.158  16.044  1.4424 -0.6695 -0.5450
   95TMC2    C7 1457   0.935   3.179  15.771 -0.5372  0.1194  0.2813
   95TMC2    C8 1458   1.124   3.312  16.194 -1.1829  0.1982 -0.4749
   95TMC2    O1 1459   0.950   3.175  15.651  0.2395 -0.1239  0.3094
   95TMC2    O2 1460   1.224   3.337  16.254 -0.0937  0.3133  0.1226
   95TMC2    O5 1461   0.996   3.312  16.243  0.1145  0.1736 -0.3960
   95TMC2    H5 1462   0.934   3.310  16.167 -2.4664 -1.3579  1.7538
   96MPD2     C 1463   1.573   3.745  15.457  0.1774  0.6920 -0.2367
   96MPD2    C1 1464   1.490   3.803  15.555 -0.6531 -0.5560  0.4201
   96MPD2    C2 1465   1.396   3.728  15.622  0.3122 -0.2302  0.1306
   96MPD2    C3 1466   1.391   3.594  15.595 -0.3357  0.6403  0.1077
   96MPD2    C4 1467   1.465   3.542  15.496  0.4507  0.4527  0.3981
   96MPD2    C5 1468   1.556   3.618  15.430  0.5146 -0.1481  0.4481
   96MPD2     H 1469   1.329   3.770  15.695  1.7241  3.7078 -0.8188
   96MPD2    H1 1470   1.460   3.438  15.466 -0.8485  0.8703 -0.8210
   96MPD2    H2 1471   1.654   3.805  15.417  0.5124  0.9349  0.7818
   96MPD2    H3 1472   1.620   3.569  15.357 -0.8467 -1.0076 -0.1627
   96MPD2     N 1473   1.315   3.500  15.672 -0.3796  0.2513 -0.7423
   96MPD2    H5 1474   1.326   3.403  15.646  2.4258  0.3913 -0.1445
   96MPD2    N1 1475   1.512   3.941  15.586  0.1032 -0.5554  0.2015
   96MPD2    H7 1476   1.581   3.993  15.533  0.0347 -0.8163 -0.1424
   97MPD2     C 1477   3.561   1.229   1.609 -0.5566  0.0749 -0.2087
   97MPD2    C1 1478   3.614   1.355   1.575  0.9468 -0.6537  1.0022
   97MPD2    C2 1479   3.618   1.389   1.444 -0.9275 -1.0324 -0.6950
   97MPD2    C3 1480   3.575   1.300   1.347 -0.7569  0.5594 -0.6757
   97MPD2    C4 1481   3.536   1.169   1.383 -0.1980  0.4532  0.2444
   97MPD2    C5 1482   3.530   1.133   1.514 -0.0005  0.2571  0.1758
   97MPD2     H 1483   3.638   1.490   1.411  1.0560 -0.7598  1.3537
   97MPD2    H1 1484   3.516   1.093   1.307  0.1194  0.8050 -0.1947
   97MPD2    H2 1485   3.550   1.190   1.709 -0.9518  4.0760  1.3210
   97MPD2    H3 1486   3.503   1.033   1.546 -1.4486 -0.5977 -3.6458
   97MPD2     N 1487   3.570   1.325   1.205 -0.2214  0.6762 -0.5129
   97MPD2    H5 1488   3.550   1.252   1.137 -1.0428  0.5791 -0.1649
   97MPD2    N1 1489   3.665   1.438   1.679  0.3553  0.0741 -0.0152
   97MPD2    H7 1490   3.660   1.403   1.774 -1.4939 -2.1652 -0.9674
   98TCq2    C1 1491   3.605   1.442   1.152 -0.0347 -0.1194  0.1161
   98TCq2    O2 1492   3.671   1.538   1.195  0.5954  0.1348 -0.2141
   98TCq2    C2 1493   3.562   1.450   1.018 -0.0548  0.3261  0.4113
   98TCq2    C3 1494   3.454   1.380   0.971  0.0189 -0.5253  0.2946
   98TCq2    C4 1495   3.420   1.393   0.835 -0.5539  0.6075 -0.4653
   98TCq2    C5 1496   3.491   1.482   0.754  0.3572  0.2164 -0.0272
   98TCq2    C6 1497   3.579   1.566   0.813  0.8792 -0.1013 -0.2439
   98TCq2    C7 1498   3.626   1.540   0.938  0.6468 -0.6351  0.1298
   98TCq2    C8 1499   3.651   1.669   0.739  0.6259  0.3475  0.2689
   98TCq2    O4 1500   3.708   1.747   0.818  0.3661  0.6627 -0.2059
   98TCq2    C9 1501   3.305   1.329   0.786 -0.4024 -0.4574 -0.3218
   98TCq2    O5 1502   3.273   1.339   0.665  0.0697  0.8034 -0.3884
   98TCq2    O6 1503   3.234   1.276   0.872  0.4141 -0.6420 -0.3534
   98TCq2    H2 1504   3.392   1.312   1.028 -1.6117 -0.1339 -1.0015
   98TCq2    H3 1505   3.458   1.496   0.651  0.2596 -0.8222 -0.1416
   98TCq2    H4 1506   3.715   1.590   0.974  0.5164 -0.9820  0.9239
   99MPD2     C 1507   2.202   3.751   2.126 -0.1161  0.6269  0.3016
   99MPD2    C1 1508   2.110   3.826   2.054 -0.3438 -0.2167 -0.2174
   99MPD2    C2 1509   2.112   3.822   1.915 -0.3555 -0.1538 -0.1283
   99MPD2    C3 1510   2.210   3.750   1.847  0.5417  0.0949  0.1781
   99MPD2    C4 1511   2.294   3.671   1.917 -0.6785  0.3495 -0.2028
   99MPD2    C5 1512   2.287   3.668   2.054  0.0712 -0.6157  0.1948
   99MPD2     H 1513   2.050   3.897   1.867 -0.4671  0.0915  0.4003
   99MPD2    H1 1514   2.373   3.608   1.879 -1.4595 -0.8281  0.1216
   99MPD2    H2 1515   2.199   3.756   2.234 -0.7121  1.1692  0.2601
   99MPD2    H3 1516   2.353   3.599   2.106  0.4262  0.3907  1.0790
   99MPD2     N 1517   2.228   3.758   1.707 -0.2873 -0.0778  0.0242
   99MPD2    H5 1518   2.167   3.823   1.659 -1.2616  1.3623  3.1931
   99MPD2    N1 1519   2.010   3.895   2.123 -0.5985 -0.0613  0.0877
   99MPD2    H7 1520   1.951   3.956   2.067 -0.3428  2.1772  2.2392
  100TCq2    C1 1521   1.992   3.883   2.261 -0.7995  0.6616  0.1103
  100TCq2    O2 1522   2.042   3.818   2.352 -0.0044 -0.2553  0.4247
  100TCq2    C2 1523   1.918   4.007   2.305 -0.4701  0.3300  0.8144
  100TCq2    C3 1524   1.963   4.070   2.411 -0.4066 -0.7191 -0.3258
  100TCq2    C4 1525   1.908   4.190   2.443  1.0129 -0.2091 -0.5691
  100TCq2    C5 1526   1.790   4.230   2.385  0.6139  0.0773  0.6690
  100TCq2    C6 1527   1.736   4.147   2.291  0.4543 -0.2760  0.8318
  100TCq2    C7 1528   1.805   4.044   2.245 -0.4124 -0.1447 -0.1202
  100TCq2    C8 1529   1.599   4.187   2.249  0.4186  0.6193 -0.9073
  100TCq2    O4 1530   1.568   4.305   2.272 -0.5097  0.0483  0.2415
  100TCq2    C9 1531   1.969   4.279   2.538  0.7544 -0.3975 -0.1888
  100TCq2    O5 1532   1.931   4.398   2.546  0.2125 -0.4005  0.3990
  100TCq2    O6 1533   2.071   4.233   2.599 -0.4270  0.6328  0.0888
  100TCq2    H2 1534   2.059   4.042   2.452 -1.1074 -0.3019  1.5666
  100TCq2    H3 1535   1.739   4.316   2.427  0.3393 -0.1646  0.8340
  100TCq2    H4 1536   1.761   3.976   2.172  0.5658 -2.6210  1.6041
  101MPD2     C 1537   2.698   4.353  13.258 -0.1403  0.0984  0.4227
  101MPD2    C1 1538   2.604   4.399  13.349 -0.0491 -0.1822 -0.3856
  101MPD2    C2 1539   2.537   4.313  13.436 -0.2708 -0.3199 -0.1904
  101MPD2    C3 1540   2.574   4.178  13.431 -0.1729  0.0645 -0.6572
  101MPD2    C4 1541   2.668   4.138  13.338  0.1527  0.0582 -0.5399
  101MPD2    C5 1542   2.722   4.227  13.251  0.1823  0.0272  0.2328
  101MPD2     H 1543   2.459   4.355  13.499  0.6818  0.8081  0.2395
  101MPD2    H1 1544   2.702   4.037  13.319 -0.2212 -0.4602  1.5675
  101MPD2    H2 1545   2.753   4.416  13.188  0.7348 -0.4388  0.6311
  101MPD2    H3 1546   2.807   4.202  13.188 -1.6912  1.4862 -2.8952
  101MPD2     N 1547   2.509   4.088  13.522 -0.0833 -0.3702  0.5569
  101MPD2    H5 1548   2.443   4.133  13.584  1.1516 -0.2044  1.7474
  101MPD2    N1 1549   2.574   4.536  13.336  0.6596  0.0732  0.2543
  101MPD2    H7 1550   2.633   4.587  13.272 -0.8818  1.1277 -0.3100
  102TCq2    C1 1551   2.621   0.121  13.010  0.2331  0.6641  0.4254
  102TCq2    O2 1552   2.735   0.083  13.030  0.3345  0.2019 -0.7006
  102TCq2    C2 1553   2.522   0.139  13.121 -0.5907  0.4682 -0.0323
  102TCq2    C3 1554   2.391   0.163  13.085  0.3979 -0.3606  0.7440
  102TCq2    C4 1555   2.292   0.124  13.166  0.4244  0.5434 -0.4169
  102TCq2    C5 1556   2.312   0.046  13.277 -0.6025 -0.1153 -0.6576
  102TCq2    C6 1557   2.445   0.010  13.300 -1.0047  0.2509  0.1366
  102TCq2    C7 1558   2.552   0.063  13.230  0.2950 -0.1941  0.1100
  102TCq2    C8 1559   2.465   4.607  13.379 -0.1294 -0.1232 -0.0513
  102TCq2    O4 1560   2.375   4.556  13.442 -0.7476 -0.0903  0.1853
  102TCq2    C9 1561   2.159   0.144  13.117 -1.2120  0.2448  0.0076
  102TCq2    O5 1562   2.144   0.228  13.027 -0.0749  0.5945  0.2213
  102TCq2    O6 1563   2.076   0.054  13.156  0.0032  0.3946 -0.8997
  102TCq2    H2 1564   2.372   0.230  13.001 -0.1631 -0.3199  0.9026
  102TCq2    H3 1565   2.229   0.025  13.344 -1.2707 -1.4199 -1.9253
  102TCq2    H4 1566   2.656   0.042  13.255  0.4031 -1.3418 -1.2687
  103TMC2    C1 1567   0.620   4.400  12.735  0.0827  0.5522 -0.3416
  103TMC2    C2 1568   0.595   4.529  12.720  0.6098  0.0306 -0.5124
  103TMC2    C3 1569   0.636   4.620  12.813  0.0357 -0.3680  0.3726
  103TMC2    C4 1570   0.687   4.353  12.848 -0.0455  0.2602  0.0343
  103TMC2    C5 1571   0.727   4.453  12.941  0.1032 -0.8561 -0.2078
  103TMC2    C6 1572   0.702   4.582  12.923 -0.7849  0.1462 -0.1690
  103TMC2     C 1573   0.647   4.336  12.601  0.2623  0.4150  0.1669
  103TMC2     O 1574   0.562   4.378  12.523 -0.2252  0.1834  0.6314
  103TMC2     H 1575   0.575   4.574  12.623  0.2041  1.4527  0.2270
  103TMC2    H1 1576   0.711   4.251  12.873 -2.3470  0.5195  3.2744
  103TMC2    H2 1577   0.705   4.651  13.007  2.4238  1.6192 -1.4984
  103TMC2    C7 1578   0.798   4.415  13.062 -0.3532  0.0925 -0.2117
  103TMC2    C8 1579   0.617   0.032  12.782 -0.9525  0.5050 -0.0816
  103TMC2    O1 1580   0.795   4.297  13.093 -0.0852  0.1417 -1.1863
  103TMC2    O2 1581   0.710   0.091  12.728 -0.6646 -0.4690 -0.4715
  103TMC2    O5 1582   0.485   0.046  12.748 -0.0543  0.1409  0.0543
  103TMC2    H5 1583   0.428   4.699  12.781  1.5311 -0.8832  0.5647
  104MPD2     C 1584   0.943   4.198  12.437  0.2949 -0.4153  0.2465
  104MPD2    C1 1585   0.820   4.251  12.457 -0.2881  0.1189 -0.0073
  104MPD2    C2 1586   0.742   4.258  12.342 -0.5367 -0.4022 -0.3100
  104MPD2    C3 1587   0.799   4.216  12.219 -0.5094 -0.0264 -0.2188
  104MPD2    C4 1588   0.920   4.156  12.212  0.0104  0.5259 -0.3054
  104MPD2    C5 1589   0.998   4.153  12.320  0.6579  0.0180  0.1448
  104MPD2     H 1590   0.636   4.284  12.341 -0.4224  0.0521 -2.8309
  104MPD2    H1 1591   0.959   4.122  12.117 -0.5119  1.2332 -0.7671
  104MPD2    H2 1592   1.009   4.194  12.524 -0.3073  1.2624  0.7670
  104MPD2    H3 1593   1.099   4.113  12.327  0.8238  0.7480  1.9239
  104MPD2     N 1594   0.717   4.228  12.103  0.1032 -0.0791 -0.2144
  104MPD2    H5 1595   0.620   4.249  12.122  0.1143 -1.2899  1.2327
  104MPD2    N1 1596   0.773   4.290  12.585 -0.0918  0.5447 -0.2319
  104MPD2    H7 1597   0.839   4.291  12.662 -0.9619 -0.2432  0.5221
  105MPD2     C 1598   2.937   3.819   0.075  0.1553 -0.4967 -0.4062
  105MPD2    C1 1599   2.885   3.950   0.087 -0.3960 -0.7355 -0.4694
  105MPD2    C2 1600   2.883   4.015   0.208  0.0050 -0.0229  0.4740
  105MPD2    C3 1601   2.917   3.950   0.323  0.1549  0.4706 -0.1194
  105MPD2    C4 1602   2.953   3.815   0.312  0.2338  0.4056 -0.3509
  105MPD2    C5 1603   2.951   3.745   0.193  0.2374  0.8738 -0.3490
  105MPD2     H 1604   2.857   4.120   0.209 -0.8382 -0.2123 -1.3246
  105MPD2    H1 1605   3.002   3.773   0.399  0.1409 -0.3069 -0.6476
  105MPD2    H2 1606   2.930   3.756  17.690 -2.9325  0.5573 -0.9117
  105MPD2    H3 1607   2.984   3.642   0.183 -1.9809 -0.0973  2.2142
  105MPD2     N 1608   2.904   4.012   0.449  0.0316 -0.0985 -0.0273
  105MPD2    H5 1609   2.909   4.113   0.444  1.9859 -0.0025  3.7991
  105MPD2    N1 1610   2.826   4.022  17.683 -0.2641 -0.5258  0.9237
  105MPD2    H7 1611   2.810   4.121  17.697  2.2963 -0.1653  1.2969
  106TCq2    C1 1612   2.898   3.962   0.578 -0.4498  0.4857 -0.1086
  106TCq2    O2 1613   2.871   3.846   0.611 -0.2233  0.8018  0.0541
  106TCq2    C2 1614   2.884   4.054   0.677 -0.7120 -0.0170 -0.1790
  106TCq2    C3 1615   2.951   4.177   0.665  0.1297  0.4073 -0.6874
  106TCq2    C4 1616   2.931   4.266   0.771  0.1516 -0.5467 -0.3953
  106TCq2    C5 1617   2.850   4.238   0.880 -0.4762 -0.4023 -0.0652
  106TCq2    C6 1618   2.799   4.114   0.890  0.1603  0.3273 -0.3486
  106TCq2    C7 1619   2.808   4.020   0.788 -0.0051 -0.4099  0.4377
  106TCq2    C8 1620   2.701   4.094   0.992  0.4012 -0.7005  0.2691
  106TCq2    O4 1621   2.674   3.981   1.026 -0.5350 -0.4202 -0.0323
  106TCq2    C9 1622   2.984   4.394   0.754  0.4235 -0.3058  0.3267
  106TCq2    O5 1623   3.073   4.407   0.666 -0.4048 -0.1393  0.9589
  106TCq2    O6 1624   2.969   4.478   0.848  0.3512 -0.3658  0.3842
  106TCq2    H2 1625   3.022   4.209   0.590  0.7855  2.3781  0.7898
  106TCq2    H3 1626   2.852   4.307   0.963  1.8126  1.2016 -1.4488
  106TCq2    H4 1627   2.751   3.928   0.790 -1.0231  0.2298  0.7001
  107TMC2    C1 1628   3.149   2.563  11.485 -0.1637  0.5445  0.0915
  107TMC2    C2 1629   3.183   2.628  11.371 -0.2670 -0.0422  0.0319
  107TMC2    C3 1630   3.202   2.553  11.259 -0.2531  0.0879  0.1052
  107TMC2    C4 1631   3.140   2.421  11.480  0.3376 -0.7025  0.2132
  107TMC2    C5 1632   3.182   2.352  11.372  0.1957 -0.0299  0.2571
  107TMC2    C6 1633   3.210   2.419  11.255  0.8238 -0.6799 -0.0799
  107TMC2     C 1634   3.104   2.627  11.608 -0.1967 -0.6918  0.1079
  107TMC2     O 1635   3.108   2.562  11.718 -0.1226 -0.3163 -0.2400
  107TMC2     H 1636   3.208   2.733  11.379 -0.2312 -0.1492  1.4479
  107TMC2    H1 1637   3.101   2.376  11.570  0.8083 -1.0979  0.2203
  107TMC2    H2 1638   3.252   2.365  11.171 -1.5249 -0.2566 -1.5113
  107TMC2    C7 1639   3.169   2.208  11.369  0.6534  0.0545  0.0780
  107TMC2    C8 1640   3.283   2.616  11.160  0.3794  0.0495 -0.2490
  107TMC2    O1 1641   3.175   2.150  11.476 -0.2652 -0.3514  0.6273
  107TMC2    O2 1642   3.358   2.566  11.078  0.2148 -0.2682  0.0961
  107TMC2    O5 1643   3.205   2.720  11.134 -0.3150  0.0235 -0.3798
  107TMC2    H5 1644   3.135   2.739  11.200 -1.1549 -3.1659 -0.3730
  108MPD2     C 1645   2.974   2.977  11.615 -0.1157  0.0544 -0.9587
  108MPD2    C1 1646   3.024   2.857  11.669 -1.0640  1.0688  0.6738
  108MPD2    C2 1647   3.039   2.844  11.810 -0.4595  0.1764  0.3984
  108MPD2    C3 1648   3.004   2.950  11.891  0.7752 -0.4504 -0.5621
  108MPD2    C4 1649   2.951   3.066  11.834  0.1492  0.1607 -0.3481
  108MPD2    C5 1650   2.935   3.081  11.700  0.7312  0.4372 -0.6481
  108MPD2     H 1651   3.075   2.749  11.847  0.2740  0.3944  0.2347
  108MPD2    H1 1652   2.916   3.149  11.893 -3.1141 -1.2051 -0.3475
  108MPD2    H2 1653   2.939   2.980  11.512 -0.9431  0.1481 -0.6778
  108MPD2    H3 1654   2.894   3.171  11.656  0.3636  1.0524  0.9371
  108MPD2     N 1655   3.017   2.952  12.031 -0.0963  0.4345 -0.6071
  108MPD2    H5 1656   2.996   3.041  12.075 -1.4667  0.5731 -1.5502
  108MPD2    N1 1657   3.061   2.759  11.579  0.9713  0.5654  0.1421
  108MPD2    H7 1658   3.051   2.782  11.481 -0.5912 -1.3419 -0.1434
  109MPD2     C 1659   3.680   0.421   2.601  0.4638  0.4491  0.1984
  109MPD2    C1 1660   3.719   0.448   2.472  0.8832  0.5755 -0.6949
  109MPD2    C2 1661   3.828   0.538   2.452  0.5079 -0.1692 -0.2234
  109MPD2    C3 1662   3.876   0.607   2.557 -0.0101 -0.0855 -0.3430
  109MPD2    C4 1663   3.843   0.580   2.688 -0.3857  0.3057  0.1482
  109MPD2    C5 1664   3.741   0.484   2.705 -0.2801  0.2629 -0.6850
  109MPD2     H 1665   3.853   0.567   2.351  0.7027 -0.4906 -0.2660
  109MPD2    H1 1666   3.886   0.627   2.776 -0.7193 -0.0720  0.5101
  109MPD2    H2 1667   3.600   0.349   2.613  0.2790  0.7059  0.5112
  109MPD2    H3 1668   3.712   0.463   2.807  3.8205 -1.5607  0.1239
  109MPD2     N 1669   3.967   0.703   2.529  0.2665  0.2670  0.0035
  109MPD2    H5 1670   3.976   0.736   2.433 -1.0249 -2.3245 -1.0207
  109MPD2    N1 1671   3.662   0.376   2.370 -0.4334 -0.3575  0.1469
  109MPD2    H7 1672   3.588   0.315   2.402 -1.1362  0.3303 -0.1662
  110TCq2    C1 1673   4.065   0.743   2.617  0.9640 -0.3272 -0.4342
  110TCq2    O2 1674   4.093   0.689   2.725 -0.1145 -0.0694  0.2754
  110TCq2    C2 1675   4.145   0.852   2.570  0.4651  0.4975 -0.2833
  110TCq2    C3 1676   4.267   0.868   2.627 -0.1154 -0.5157 -0.7135
  110TCq2    C4 1677   4.342   0.975   2.587 -0.4284  0.4933 -0.2351
  110TCq2    C5 1678   4.290   1.072   2.511  0.4224  0.1710 -0.5549
  110TCq2    C6 1679   4.156   1.060   2.468  0.4699 -0.1329  0.7280
  110TCq2    C7 1680   4.087   0.942   2.488 -0.8856  0.4649  0.8662
  110TCq2    C8 1681   4.091   1.182   2.422 -0.4091  0.2493  0.2458
  110TCq2    O4 1682   3.988   1.175   2.361 -0.2239  0.2872 -0.1883
  110TCq2    C9 1683   4.457   1.004   2.672 -0.2254 -0.2195 -0.8318
  110TCq2    O5 1684   4.487   0.921   2.758 -0.0850 -0.0804  0.2281
  110TCq2    O6 1685   4.536   1.097   2.635 -0.9348 -0.1116 -0.0387
  110TCq2    H2 1686   4.303   0.791   2.694  1.5804  2.4189  1.7186
  110TCq2    H3 1687   4.346   1.164   2.505 -0.2998  0.5759 -1.0418
  110TCq2    H4 1688   3.980   0.938   2.472 -0.8342  2.5227 -0.1148
  111TMC2    C1 1689   3.024   0.370  11.600 -0.7159  0.5414 -0.0999
  111TMC2    C2 1690   3.091   0.445  11.505  0.8967 -0.9764  0.5769
  111TMC2    C3 1691   3.202   0.510  11.543  0.1087 -0.4641 -0.4036
  111TMC2    C4 1692   3.059   0.368  11.735  0.5247 -0.3297 -0.6324
  111TMC2    C5 1693   3.178   0.433  11.764  0.0503 -0.4039 -0.0120
  111TMC2    C6 1694   3.255   0.503  11.666 -0.9979  0.2017  0.2965
  111TMC2     C 1695   2.905   0.306  11.559 -0.4631  0.2052  0.0335
  111TMC2     O 1696   2.883   0.292  11.441  0.2447  0.2230 -0.0872
  111TMC2     H 1697   3.051   0.465  11.407  0.9150  1.8318  1.1307
  111TMC2    H1 1698   3.020   0.292  11.801 -0.6086  2.2856  1.6913
  111TMC2    H2 1699   3.342   0.565  11.688 -2.1577  1.9740 -0.1282
  111TMC2    C7 1700   3.245   0.378  11.879 -0.0391  0.1852  0.7240
  111TMC2    C8 1701   3.287   0.528  11.432  1.1085 -0.4206 -0.0567
  111TMC2    O1 1702   3.175   0.332  11.967  0.4698 -0.2684 -0.2181
  111TMC2    O2 1703   3.262   0.461  11.331 -0.4960 -0.9477 -0.3682
  111TMC2    O5 1704   3.328   0.655  11.437  0.0980 -0.3456  0.6376
  111TMC2    H5 1705   3.356   0.694  11.522 -0.1079 -0.8149  0.9217
  112MPD2     C 1706   2.463   0.041  11.639 -0.8484 -0.4725  0.0714
  112MPD2    C1 1707   2.548   0.044  11.528 -0.5927  0.0772 -0.6123
  112MPD2    C2 1708   2.662   0.119  11.535 -0.2878  0.4464  0.0596
  112MPD2    C3 1709   2.703   0.179  11.651 -0.5387  0.4306 -0.5357
  112MPD2    C4 1710   2.626   0.167  11.764  0.0671  0.1331 -0.0561
  112MPD2    C5 1711   2.506   0.094  11.756 -0.7295  0.2796 -0.6378
  112MPD2     H 1712   2.717   0.137  11.443  0.6376 -2.0062  0.1267
  112MPD2    H1 1713   2.654   0.207  11.861 -2.1861 -0.9664  1.0441
  112MPD2    H2 1714   2.368   4.714  11.633 -0.8727 -0.5836  1.3246
  112MPD2    H3 1715   2.444   0.094  11.846  1.2768  0.4391  0.7389
  112MPD2     N 1716   2.820   0.264  11.663 -0.4394 -0.8995  0.7770
  112MPD2    H5 1717   2.841   0.306  11.753 -0.3189 -0.0374  0.3508
  112MPD2    N1 1718   2.498   4.725  11.406  0.1587  0.1311 -0.4477
  112MPD2    H7 1719   2.400   4.707  11.388 -0.0308  1.9737 -1.3199
  113MPD2     C 1720   1.288   3.649   1.464 -0.5505 -0.4295 -0.3928
  113MPD2    C1 1721   1.268   3.774   1.405  0.4699 -0.0106 -0.3691
  113MPD2    C2 1722   1.183   3.781   1.292 -0.2121 -0.5035 -0.0407
  113MPD2    C3 1723   1.118   3.671   1.241 -0.2497  0.0610  0.4007
  113MPD2    C4 1724   1.145   3.551   1.301  0.4116  0.3326 -0.9097
  113MPD2    C5 1725   1.226   3.540   1.406 -0.7235 -0.2855 -0.5380
  113MPD2     H 1726   1.152   3.878   1.255 -2.2406  0.2017  3.4994
  113MPD2    H1 1727   1.106   3.457   1.263  1.7495 -0.9466  0.8658
  113MPD2    H2 1728   1.359   3.632   1.543  1.3675 -0.8577 -2.2182
  113MPD2    H3 1729   1.243   3.443   1.451  1.0146 -0.7225 -2.1548
  113MPD2     N 1730   1.028   3.674   1.136 -0.8532  0.4924  0.3389
  113MPD2    H5 1731   0.993   3.586   1.100 -1.1610  0.6766  0.1911
  113MPD2    N1 1732   1.325   3.892   1.460  0.5900 -0.0483 -0.5703
  113MPD2    H7 1733   1.321   3.973   1.399 -2.0514 -0.9072 -1.5244
  114TCq2    C1 1734   0.983   3.782   1.070 -0.5596  0.3729  0.1880
  114TCq2    O2 1735   0.989   3.905   1.088 -0.6138  0.0703 -0.0941
  114TCq2    C2 1736   0.887   3.754   0.966 -0.5938 -0.2962  0.6474
  114TCq2    C3 1737   0.886   3.834   0.860 -0.3447 -0.7250  0.0265
  114TCq2    C4 1738   0.797   3.801   0.754  0.5318  0.5826 -0.1002
  114TCq2    C5 1739   0.726   3.687   0.750  0.2279  0.6938 -0.2876
  114TCq2    C6 1740   0.734   3.605   0.858 -0.0317  0.6137  0.2986
  114TCq2    C7 1741   0.817   3.636   0.971 -0.3058 -0.6415 -0.0856
  114TCq2    C8 1742   0.634   3.504   0.885  0.0137 -0.5256 -0.1956
  114TCq2    O4 1743   0.536   3.510   0.818  0.6462  0.9339 -0.4618
  114TCq2    C9 1744   0.791   3.886   0.638 -0.9425  0.2519 -0.1580
  114TCq2    O5 1745   0.721   3.850   0.542 -0.1155 -0.1211 -0.2345
  114TCq2    O6 1746   0.852   3.996   0.649  0.2017  0.8284  0.3489
  114TCq2    H2 1747   0.940   3.928   0.855  0.8724 -1.5640 -2.7357
  114TCq2    H3 1748   0.662   3.663   0.666 -0.2729  0.4813  0.1545
  114TCq2    H4 1749   0.806   3.584   1.066  1.0992  2.3073  1.6925
  115TMC2    C1 1750   2.491   1.320   0.836 -0.1206 -0.0038 -0.3787
  115TMC2    C2 1751   2.567   1.297   0.946 -0.1984  0.6089  0.3883
  115TMC2    C3 1752   2.640   1.389   1.007 -0.5060  0.3081 -0.0979
  115TMC2    C4 1753   2.477   1.448   0.796 -0.2854 -0.0060 -1.1543
  115TMC2    C5 1754   2.547   1.550   0.869  0.1396 -0.3458 -0.2200
  115TMC2    C6 1755   2.634   1.520   0.972  0.1794 -0.6166  0.7412
  115TMC2     C 1756   2.447   1.214   0.749 -0.7998  0.4740  0.3514
  115TMC2     O 1757   2.356   1.231   0.661 -0.5210 -0.3223  0.1056
  115TMC2     H 1758   2.574   1.202   0.997 -1.5119 -0.1539 -0.8588
  115TMC2    H1 1759   2.421   1.459   0.703  0.6173 -0.2043 -1.7192
  115TMC2    H2 1760   2.675   1.603   1.029 -0.8251 -1.3482  2.5278
  115TMC2    C7 1761   2.546   1.686   0.831  0.7624 -0.7785 -0.6700
  115TMC2    C8 1762   2.694   1.346   1.137  0.3211  0.0225 -0.0316
  115TMC2    O1 1763   2.545   1.773   0.916 -0.1521 -1.0960 -0.1383
  115TMC2    O2 1764   2.660   1.247   1.199  0.4331 -0.4403  0.0129
  115TMC2    O5 1765   2.777   1.437   1.182 -0.6246 -0.2150  0.4285
  115TMC2    H5 1766   2.819   1.502   1.122 -1.2358 -2.4473 -2.4499
  116MPD2     C 1767   2.470   0.706   0.648  0.4249 -0.4758 -0.0842
  116MPD2    C1 1768   2.365   0.793   0.639 -0.0858 -0.4383  0.3468
  116MPD2    C2 1769   2.388   0.925   0.673  0.2271  0.4275 -0.0674
  116MPD2    C3 1770   2.505   0.977   0.725 -0.3836 -0.2389 -0.1480
  116MPD2    C4 1771   2.613   0.889   0.725  0.0931  0.3242  0.0164
  116MPD2    C5 1772   2.588   0.758   0.693  0.3540  0.1882 -0.4431
  116MPD2     H 1773   2.304   0.993   0.666 -1.5749 -1.9048 -1.1261
  116MPD2    H1 1774   2.712   0.916   0.758  0.6423 -1.1177 -0.4570
  116MPD2    H2 1775   2.476   0.600   0.626  1.4751 -0.6704  1.1340
  116MPD2    H3 1776   2.671   0.689   0.704 -0.6630 -0.5791  2.4445
  116MPD2     N 1777   2.534   1.109   0.771 -0.1723 -0.0842 -0.4743
  116MPD2    H5 1778   2.619   1.128   0.822  0.4059 -3.2004 -0.2742
  116MPD2    N1 1779   2.249   0.735   0.588  0.7232 -0.4912 -0.2131
  116MPD2    H7 1780   2.259   0.642   0.549 -1.4879 -1.6583  1.9714
  117TMC2    C1 1781   0.923   2.969  13.916 -0.7844  0.1641 -0.7800
  117TMC2    C2 1782   0.912   3.095  13.977 -0.1074  1.3433  0.6883
  117TMC2    C3 1783   1.005   3.188  13.933  0.4914  0.7369 -0.6292
  117TMC2    C4 1784   1.022   2.922  13.830 -0.7868 -0.1010 -0.2413
  117TMC2    C5 1785   1.113   3.023  13.800 -0.8022  0.0725 -1.3427
  117TMC2    C6 1786   1.108   3.148  13.849  0.4410 -0.5796 -0.4842
  117TMC2     C 1787   0.802   2.896  13.909 -0.3127  0.2955  0.2103
  117TMC2     O 1788   0.823   2.777  13.880 -0.4311 -0.2663  0.0474
  117TMC2     H 1789   0.838   3.120  14.053 -1.0539  1.0161 -0.1206
  117TMC2    H1 1790   1.030   2.821  13.791  1.3512  0.1762 -0.5483
  117TMC2    H2 1791   1.178   3.225  13.820  0.0678 -0.5667 -1.3634
  117TMC2    C7 1792   1.218   3.013  13.700 -0.5949  0.0634  0.6729
  117TMC2    C8 1793   1.017   3.313  14.001  0.2068  0.2090  0.4471
  117TMC2    O1 1794   1.307   3.098  13.700 -0.1237  0.2211  0.1678
  117TMC2    O2 1795   1.126   3.349  14.043  0.2887  0.0190 -0.2120
  117TMC2    O5 1796   0.896   3.363  14.029 -0.1915  0.2719  0.1506
  117TMC2    H5 1797   0.816   3.317  13.995 -0.3794  1.5903 -1.1522
  118MPD2     C 1798   1.252   2.782  13.410 -0.4923  0.2681 -0.8330
  118MPD2    C1 1799   1.290   2.876  13.503  0.2643  0.3143  0.3156
  118MPD2    C2 1800   1.419   2.919  13.498 -0.4676 -0.4828 -0.1369
  118MPD2    C3 1801   1.511   2.871  13.409 -0.5384  1.0905  0.1941
  118MPD2    C4 1802   1.463   2.791  13.303  0.3752 -0.5601  0.2534
  118MPD2    C5 1803   1.335   2.742  13.306  0.4180 -0.4737 -0.0850
  118MPD2     H 1804   1.445   3.005  13.559 -0.4993 -0.4609 -0.1543
  118MPD2    H1 1805   1.533   2.762  13.226 -0.9783 -0.1179 -1.1226
  118MPD2    H2 1806   1.155   2.733  13.414  0.0485 -0.7842 -0.6247
  118MPD2    H3 1807   1.297   2.679  13.227  1.6484 -0.5649 -0.6165
  118MPD2     N 1808   1.643   2.920  13.405 -0.1324 -0.0150  0.2381
  118MPD2    H5 1809   1.701   2.867  13.340 -0.5231 -1.2551  0.8846
  118MPD2    N1 1810   1.197   2.922  13.600  0.2659 -0.5601 -0.0150
  118MPD2    H7 1811   1.106   2.877  13.605  1.1142 -2.4873 -2.0630
  119MPD2     C 1812   4.221   3.632  13.923 -0.6735  0.0852  0.0519
  119MPD2    C1 1813   4.115   3.714  13.957  0.1844  0.2097  0.6580
  119MPD2    C2 1814   4.069   3.796  13.859  0.1719 -0.3652  0.5332
  119MPD2    C3 1815   4.114   3.798  13.735 -0.2543  0.0191 -0.4179
  119MPD2    C4 1816   4.227   3.727  13.696 -0.2149 -0.0360 -0.0474
  119MPD2    C5 1817   4.281   3.646  13.800  0.4840  0.4280  0.0220
  119MPD2     H 1818   3.982   3.856  13.885  0.2529 -0.6482  1.4560
  119MPD2    H1 1819   4.275   3.745  13.600 -2.0724 -0.0464 -0.9865
  119MPD2    H2 1820   4.270   3.572  13.999 -1.4629 -1.8355 -0.9646
  119MPD2    H3 1821   4.370   3.594  13.767  0.2988 -0.0850  0.3468
  119MPD2     N 1822   4.040   3.854  13.628  0.3454 -0.2772 -0.4805
  119MPD2    H5 1823   4.082   3.855  13.536  2.4015 -2.0667  0.4527
  119MPD2    N1 1824   4.058   3.698  14.085  0.1341 -0.4267 -0.3592
  119MPD2    H7 1825   4.106   3.644  14.156  0.5483 -0.8654 -0.9790
  120TCq2    C1 1826   3.909   3.898  13.641 -0.2118 -0.3659 -0.2821
  120TCq2    O2 1827   3.834   3.903  13.735 -0.3639 -0.8021 -0.1555
  120TCq2    C2 1828   3.854   3.929  13.506  0.2372 -0.0989  0.1064
  120TCq2    C3 1829   3.924   3.932  13.386 -0.1307 -0.0939 -0.9621
  120TCq2    C4 1830   3.860   3.920  13.269  0.4775 -0.1501 -0.3865
  120TCq2    C5 1831   3.726   3.892  13.270 -0.4434  0.3535  0.0038
  120TCq2    C6 1832   3.655   3.898  13.387  0.1296  0.5137  0.0198
  120TCq2    C7 1833   3.720   3.927  13.504 -0.1259 -0.9796  0.6482
  120TCq2    C8 1834   3.525   3.839  13.392 -0.5955 -0.2747 -0.3182
  120TCq2    O4 1835   3.467   3.812  13.285 -0.1054  0.0365 -0.0316
  120TCq2    C9 1836   3.939   3.916  13.156  0.0542 -0.2006 -0.0918
  120TCq2    O5 1837   3.887   3.914  13.043  0.0181  0.2417  0.2290
  120TCq2    O6 1838   4.064   3.915  13.171  0.9291 -0.4351 -0.1472
  120TCq2    H2 1839   4.031   3.951  13.391  0.4249 -3.1822 -1.4353
  120TCq2    H3 1840   3.683   3.881  13.171 -0.5313 -1.3855  0.2512
  120TCq2    H4 1841   3.661   3.954  13.591 -0.7883  0.0390 -0.1197
  121TMC2    C1 1842   0.073   0.891  14.640 -0.0079 -0.2259  0.1014
  121TMC2    C2 1843   0.121   0.779  14.696  0.2540 -0.1562  0.3315
  121TMC2    C3 1844   0.035   0.690  14.751 -0.4119  0.2052  0.1195
  121TMC2    C4 1845   4.664   0.907  14.615 -0.1994  0.1973  0.1717
  121TMC2    C5 1846   4.583   0.804  14.671  0.2703  0.9001  0.5371
  121TMC2    C6 1847   4.633   0.713  14.755  0.2166 -0.5856 -0.0312
  121TMC2     C 1848   0.176   0.975  14.587 -0.0901  0.7610  0.4939
  121TMC2     O 1849   0.292   0.961  14.636 -0.2522 -0.8305  0.4391
  121TMC2     H 1850   0.227   0.764  14.714  0.3073 -1.4278 -1.0645
  121TMC2    H1 1851   4.630   1.000  14.571  0.6147 -2.0963 -5.2983
  121TMC2    H2 1852   4.563   0.650  14.809 -0.2191  0.7368  0.9480
  121TMC2    C7 1853   4.446   0.780  14.630 -0.8252  0.1499  0.2674
  121TMC2    C8 1854   0.096   0.586  14.835 -0.5601 -0.2681 -0.1832
  121TMC2    O1 1855   4.373   0.713  14.697 -0.2857 -1.2776 -0.7004
  121TMC2    O2 1856   0.218   0.590  14.854  0.2826 -0.5725  0.0373
  121TMC2    O5 1857   0.017   0.478  14.862 -0.3096 -0.1428 -0.5318
  121TMC2    H5 1858   4.648   0.463  14.842 -0.7105 -2.1209  2.7699
  122MPD2     C 1859   0.347   1.191  14.459  0.8048 -0.0586 -0.2301
  122MPD2    C1 1860   0.216   1.145  14.416  0.5686 -0.7369  0.3336
  122MPD2    C2 1861   0.174   1.206  14.300 -0.5966 -0.3439  0.5304
  122MPD2    C3 1862   0.248   1.301  14.222 -0.4157  0.7172 -0.6233
  122MPD2    C4 1863   0.363   1.351  14.283 -0.2776  0.5239 -0.6837
  122MPD2    C5 1864   0.418   1.285  14.392  0.1573 -0.0365  0.3002
  122MPD2     H 1865   0.074   1.180  14.267 -1.7947  3.3519  1.2771
  122MPD2    H1 1866   0.428   1.424  14.236  0.8250  0.0613  0.1048
  122MPD2    H2 1867   0.389   1.163  14.554  0.8474 -0.6154 -0.4122
  122MPD2    H3 1868   0.517   1.309  14.429  1.2994 -1.0656 -2.1330
  122MPD2     N 1869   0.206   1.359  14.100 -0.3835 -0.1341  0.1795
  122MPD2    H5 1870   0.256   1.437  14.061 -0.3156  0.1545  0.8455
  122MPD2    N1 1871   0.130   1.062  14.488  0.4548 -0.4776  0.5254
  122MPD2    H7 1872   0.045   1.044  14.435  0.2755  2.1325 -0.0521
  123MPD2     C 1873   2.552   4.422   9.481  0.5715  0.4292 -0.4347
  123MPD2    C1 1874   2.586   4.285   9.459 -0.0175  0.3883  1.0637
  123MPD2    C2 1875   2.708   4.236   9.503  1.0337  0.4382  0.1944
  123MPD2    C3 1876   2.791   4.318   9.576 -0.7353  0.0464  0.2153
  123MPD2    C4 1877   2.758   4.453   9.591 -0.0673 -0.3759  0.4881
  123MPD2    C5 1878   2.640   4.501   9.545  0.3839 -0.7366  0.1418
  123MPD2     H 1879   2.746   4.134   9.500  0.5815  0.3358 -2.2641
  123MPD2    H1 1880   2.821   4.526   9.642  1.7614  0.5862 -3.1729
  123MPD2    H2 1881   2.458   4.470   9.457 -0.5587 -1.3361  0.4325
  123MPD2    H3 1882   2.616   4.606   9.556  0.8073 -0.6995  0.7061
  123MPD2     N 1883   2.922   4.264   9.617  0.7714 -0.1298 -0.0802
  123MPD2    H5 1884   2.942   4.165   9.608 -0.7631 -0.4670  0.2105
  123MPD2    N1 1885   2.489   4.203   9.396  0.3339 -0.2352  0.0699
  123MPD2    H7 1886   2.407   4.248   9.358 -0.0552  0.6761  1.9798
  124TCq2    C1 1887   3.031   4.338   9.650  0.1811  0.2291  0.3184
  124TCq2    O2 1888   3.041   4.459   9.649 -0.3668  0.0572  0.3097
  124TCq2    C2 1889   3.149   4.268   9.665 -0.0571 -0.6577 -0.1741
  124TCq2    C3 1890   3.269   4.319   9.617 -0.5491  0.6243  0.0392
  124TCq2    C4 1891   3.378   4.240   9.615  0.0930 -0.2886 -0.1698
  124TCq2    C5 1892   3.378   4.110   9.648 -0.3467 -0.1807  0.6441
  124TCq2    C6 1893   3.255   4.064   9.688 -0.4458  0.1850 -0.0803
  124TCq2    C7 1894   3.138   4.136   9.703  0.1047  0.7696 -0.6063
  124TCq2    C8 1895   3.260   3.931   9.738 -0.1608 -0.5410  0.3333
  124TCq2    O4 1896   3.369   3.881   9.731 -0.1851  0.6800 -0.4348
  124TCq2    C9 1897   3.499   4.293   9.569  0.2582 -0.1994 -0.1839
  124TCq2    O5 1898   3.516   4.417   9.590 -0.1814 -0.3664  0.0222
  124TCq2    O6 1899   3.567   4.221   9.487  0.1505  0.3513  0.2789
  124TCq2    H2 1900   3.268   4.425   9.593  0.6559  0.4033 -1.0066
  124TCq2    H3 1901   3.467   4.049   9.639 -0.9380 -0.8604 -0.6139
  124TCq2    H4 1902   3.046   4.088   9.732  0.3124  1.0786  0.5948
  125TMC2    C1 1903   3.806   4.022   9.898 -0.4883 -0.8968  0.8623
  125TMC2    C2 1904   3.791   3.923   9.804 -0.1385  0.7071  0.4330
  125TMC2    C3 1905   3.894   3.905   9.712  0.3148  0.9595 -0.5290
  125TMC2    C4 1906   3.926   4.086   9.911  0.0363 -0.3736  0.4829
  125TMC2    C5 1907   4.016   4.071   9.812  0.5744  0.2098 -0.5120
  125TMC2    C6 1908   4.008   3.976   9.712 -0.0190 -0.3066  0.9868
  125TMC2     C 1909   3.689   4.094   9.944  0.1222 -0.6692 -0.2083
  125TMC2     O 1910   3.685   4.215   9.955  0.8175 -0.1968  0.0864
  125TMC2     H 1911   3.696   3.875   9.784  0.3195  0.5099 -1.2995
  125TMC2    H1 1912   3.931   4.170   9.980  3.9051 -1.4015  1.4733
  125TMC2    H2 1913   4.087   3.962   9.640 -0.0796 -1.4144  1.1318
  125TMC2    C7 1914   4.133   4.160   9.805  0.1905  0.2837 -0.5106
  125TMC2    C8 1915   3.858   3.824   9.593 -0.5033 -0.5447  0.4927
  125TMC2    O1 1916   4.195   4.157   9.701  0.1337 -0.2769  0.0723
  125TMC2    O2 1917   3.750   3.835   9.529 -0.4139  0.3429 -0.7411
  125TMC2    O5 1918   3.963   3.744   9.559 -0.2319  0.0943  0.2031
  125TMC2    H5 1919   4.027   3.733   9.632  1.3976  0.3894 -1.1938
  126MPD1     C 1920   3.190   4.070  10.057 -0.1384  0.2133 -0.2969
  126MPD1    C1 1921   3.244   3.942  10.075 -0.3814  0.3280 -0.0340
  126MPD1    C2 1922   3.382   3.935  10.057  0.3991 -0.1213 -0.5255
  126MPD1    C3 1923   3.461   4.033  10.016  0.3487 -0.3294  0.0423
  126MPD1    C4 1924   3.400   4.152   9.988  0.0629 -0.2242  0.2200
  126MPD1    C5 1925   3.266   4.174  10.015  0.2729 -0.2537 -0.2505
  126MPD1     H 1926   3.440   3.845  10.070 -1.1304 -0.9796  0.4255
  126MPD1    H1 1927   3.447   4.244   9.954 -2.8797  1.5258  0.9111
  126MPD1    H2 1928   3.084   4.094  10.059 -0.4122 -0.8943 -2.0941
  126MPD1    H3 1929   3.230   4.276  10.009 -0.8787 -0.7757 -2.1895
  126MPD1     N 1930   3.593   4.004   9.976  0.0166 -0.0582  0.0291
  126MPD1    H5 1931   3.628   3.911   9.994  0.0429  0.0157  0.3658
  126MPD1    N1 1932   3.170   3.840  10.137 -0.2438 -0.3609  0.1046
  126MPD1    H6 1933   3.069   3.851  10.136 -0.0538  1.3706 -0.0999
  126MPD1    H7 1934   3.191   3.749  10.096 -1.4207 -0.3145 -0.5980
  127MPD2     C 1935   0.862   3.621   9.544 -0.0397  0.1526  0.2417
  127MPD2    C1 1936   0.844   3.603   9.677  0.4269 -0.0730 -0.0485
  127MPD2    C2 1937   0.843   3.717   9.758 -0.7746  0.7137  0.1039
  127MPD2    C3 1938   0.879   3.839   9.713 -0.6062 -0.5982 -0.6101
  127MPD2    C4 1939   0.917   3.855   9.580  0.0127  0.5588 -0.1871
  127MPD2    C5 1940   0.901   3.746   9.494 -1.1900 -0.4905  0.3288
  127MPD2     H 1941   0.823   3.709   9.864  0.5057  0.4441  0.3214
  127MPD2    H1 1942   0.955   3.944   9.531  0.0654 -0.6824 -2.3749
  127MPD2    H2 1943   0.869   3.536   9.477 -0.0698  0.7747 -0.5501
  127MPD2    H3 1944   0.925   3.761   9.390 -0.2754 -0.8293  0.4939
  127MPD2     N 1945   0.862   3.950   9.805 -0.5082 -0.3087 -0.2099
  127MPD2    H5 1946   0.853   3.931   9.905 -3.2126  2.1252  0.0242
  127MPD2    N1 1947   0.843   3.473   9.731  0.5190 -0.2655  0.6261
  127MPD2    H7 1948   0.877   3.396   9.674  0.0577  0.2611 -0.3692
  128TCq2    C1 1949   0.802   3.445   9.862 -0.3765 -0.7591 -0.3289
  128TCq2    O2 1950   0.762   3.521   9.954 -0.5105 -0.0809 -0.0088
  128TCq2    C2 1951   0.786   3.300   9.885  0.6836  0.1850  0.5002
  128TCq2    C3 1952   0.685   3.268   9.973 -0.4303  0.6691 -0.5806
  128TCq2    C4 1953   0.648   3.140   9.979 -0.3849 -0.4333 -0.2235
  128TCq2    C5 1954   0.694   3.046   9.894 -0.3555 -0.2729 -0.1558
  128TCq2    C6 1955   0.765   3.083   9.789 -0.1139 -0.3426 -0.1347
  128TCq2    C7 1956   0.823   3.207   9.783  0.8414 -1.3758  0.1240
  128TCq2    C8 1957   0.811   2.986   9.679  0.0255 -0.0357 -0.2124
  128TCq2    O4 1958   0.917   3.009   9.624 -0.2007 -0.3773  0.1682
  128TCq2    C9 1959   0.562   3.099  10.080  0.1800  0.1702  0.0243
  128TCq2    O5 1960   0.561   2.976  10.120 -0.7430 -0.2324  0.3813
  128TCq2    O6 1961   0.504   3.192  10.151  0.4304  0.1844  0.1480
  128TCq2    H2 1962   0.653   3.341  10.046 -4.4302 -1.1634 -0.5010
  128TCq2    H3 1963   0.665   2.943   9.908 -1.1678 -0.0151  0.0951
  128TCq2    H4 1964   0.903   3.223   9.712 -0.1497  2.1695 -0.1990
  129MPD2     C 1965   3.766   0.668   1.652  0.1261  0.0253  0.4801
  129MPD2    C1 1966   3.895   0.711   1.685  0.0623 -0.9282 -0.1492
  129MPD2    C2 1967   3.948   0.810   1.607  0.9752 -0.1373 -0.4537
  129MPD2    C3 1968   3.886   0.868   1.498  0.2384  0.3420  0.2167
  129MPD2    C4 1969   3.759   0.816   1.468 -0.6216 -1.3894 -0.2330
  129MPD2    C5 1970   3.703   0.710   1.532 -0.7232 -0.4924 -0.3168
  129MPD2     H 1971   4.045   0.847   1.640 -0.8242  2.9855  1.2945
  129MPD2    H1 1972   3.702   0.858   1.386  1.9078 -1.0455 -1.8360
  129MPD2    H2 1973   3.710   0.601   1.716 -0.2409 -1.2705 -1.1825
  129MPD2    H3 1974   3.598   0.685   1.518 -0.5812 -1.4784  0.3643
  129MPD2     N 1975   3.931   0.989   1.438  0.4435  0.4581  0.4790
  129MPD2    H5 1976   4.009   1.044   1.473 -0.6315  2.6474 -0.4978
  129MPD2    N1 1977   3.971   0.656   1.797  0.4713 -0.1836 -0.3587
  129MPD2    H7 1978   4.054   0.708   1.824  1.1713 -2.0707  1.0352
  130TCq2    C1 1979   3.947   0.538   1.860  0.3428  0.7147  0.2431
  130TCq2    O2 1980   3.854   0.463   1.839  0.3785  0.2468  0.1987
  130TCq2    C2 1981   4.040   0.497   1.962  0.3756  0.1048  0.5175
  130TCq2    C3 1982   4.105   0.582   2.050 -0.0021  0.7142  0.0507
  130TCq2    C4 1983   4.167   0.528   2.162 -0.0438 -0.5547  0.1919
  130TCq2    C5 1984   4.151   0.399   2.202  0.2018 -0.1716  0.0874
  130TCq2    C6 1985   4.069   0.325   2.120 -0.8644 -0.3029  0.5850
  130TCq2    C7 1986   4.022   0.373   2.002 -0.3888  0.6633  0.3132
  130TCq2    C8 1987   3.987   0.208   2.167 -0.4091  0.9985 -0.3577
  130TCq2    O4 1988   3.915   0.143   2.092 -0.3189  0.0585 -0.2206
  130TCq2    C9 1989   4.238   0.619   2.243  0.1724  0.1378  0.1107
  130TCq2    O5 1990   4.282   0.718   2.179  0.3611 -0.4895 -0.2218
  130TCq2    O6 1991   4.286   0.571   2.348 -0.4958  0.1570 -0.0383
  130TCq2    H2 1992   4.101   0.689   2.034  0.7909  0.4899 -1.6048
  130TCq2    H3 1993   4.186   0.355   2.295 -0.7457 -0.6924  0.1924
  130TCq2    H4 1994   3.975   0.305   1.932  1.6650  0.0395 -0.4764
  131MPD2     C 1995   2.327   3.418   9.821 -0.4574  0.2840  0.6229
  131MPD2    C1 1996   2.425   3.509   9.810 -0.1220  0.4457  0.0450
  131MPD2    C2 1997   2.419   3.601   9.710 -0.1680 -0.7000  0.0769
  131MPD2    C3 1998   2.299   3.610   9.629 -0.2977  0.5936  0.1279
  131MPD2    C4 1999   2.211   3.504   9.625  0.0729  0.0215  0.6602
  131MPD2    C5 2000   2.221   3.425   9.734  0.0175  0.0067 -0.2932
  131MPD2     H 2001   2.498   3.673   9.693 -1.0741 -0.5261 -3.3707
  131MPD2    H1 2002   2.111   3.502   9.583 -0.8475  0.3661  2.8410
  131MPD2    H2 2003   2.328   3.345   9.901 -2.0731  0.7213  1.0258
  131MPD2    H3 2004   2.152   3.342   9.746  0.8742 -0.7221 -0.3777
  131MPD2     N 2005   2.295   3.701   9.528  0.0577  0.3490 -0.0068
  131MPD2    H5 2006   2.379   3.758   9.531 -0.2809  0.9003 -1.2058
  131MPD2    N1 2007   2.535   3.508   9.909  0.4160 -0.5350  0.7594
  131MPD2    H7 2008   2.538   3.423   9.965  0.3031  1.2140  3.4442
  132TCq2    C1 2009   2.972   3.396  10.193  0.5805  0.4509 -0.2727
  132TCq2    O2 2010   2.969   3.281  10.143  0.7152 -0.0408 -0.0164
  132TCq2    C2 2011   2.853   3.479  10.188  0.1660 -0.1134 -0.4157
  132TCq2    C3 2012   2.853   3.585  10.277  0.6810  0.3610 -0.8117
  132TCq2    C4 2013   2.773   3.696  10.256  0.0802 -0.0199 -1.1189
  132TCq2    C5 2014   2.698   3.707  10.145 -0.3161 -0.1177  0.0482
  132TCq2    C6 2015   2.700   3.602  10.056 -0.1334  0.7715 -0.3466
  132TCq2    C7 2016   2.773   3.486  10.078  0.2096 -0.2895 -0.0450
  132TCq2    C8 2017   2.613   3.617   9.940 -0.3894 -0.4793  0.0272
  132TCq2    O4 2018   2.611   3.731   9.898 -0.5963 -0.6254  0.3529
  132TCq2    C9 2019   2.767   3.808  10.349 -0.6419  0.0786  0.4857
  132TCq2    O5 2020   2.843   3.794  10.454 -0.1385 -0.0324  0.1645
  132TCq2    O6 2021   2.700   3.905  10.313  0.0400 -0.4238 -0.1807
  132TCq2    H2 2022   2.903   3.591  10.373 -1.6120  1.1764  0.3421
  132TCq2    H3 2023   2.626   3.787  10.129  0.8636  0.2840 -3.2491
  132TCq2    H4 2024   2.772   3.401  10.010  0.0289  0.6452 -1.2155
  133MPD2     C 2025   0.909   4.652   9.073 -0.2959  0.3816  0.0350
  133MPD2    C1 2026   0.923   4.517   9.100 -0.3242 -0.6915  0.5825
  133MPD2    C2 2027   1.012   4.479   9.196  0.1904  0.3427 -0.4473
  133MPD2    C3 2028   1.096   4.572   9.254  0.4203  0.5891  0.0830
  133MPD2    C4 2029   1.078   4.704   9.220  0.5835  0.3720  0.2822
  133MPD2    C5 2030   0.977   0.016   9.137 -0.4227 -0.4900 -0.5193
  133MPD2     H 2031   1.029   4.377   9.231  2.3652  0.6126 -0.6749
  133MPD2    H1 2032   1.133   0.049   9.281 -0.0960  2.0170 -1.0034
  133MPD2    H2 2033   0.828   4.696   9.015 -0.6579 -0.5789 -0.1921
  133MPD2    H3 2034   0.956   0.120   9.112 -0.8040  0.1247  2.2996
  133MPD2     N 2035   1.195   4.537   9.350 -0.1580  0.1106 -0.1430
  133MPD2    H5 2036   1.251   4.607   9.397  1.5551 -2.6786  1.9386
  133MPD2    N1 2037   0.830   4.434   9.032 -0.0523 -0.3404  0.3954
  133MPD2    H7 2038   0.758   4.477   8.974  1.3874  0.7264 -0.6041
  134TCq2    C1 2039   0.839   4.301   9.019  0.6303 -0.3374 -0.6155
  134TCq2    O2 2040   0.947   4.243   9.043 -0.4065 -0.3995 -0.0548
  134TCq2    C2 2041   0.735   4.248   8.935 -0.3293  0.7705 -0.0710
  134TCq2    C3 2042   0.619   4.318   8.913 -0.2252 -0.8654  0.7503
  134TCq2    C4 2043   0.532   4.273   8.817  0.0729  0.1733  0.0027
  134TCq2    C5 2044   0.566   4.160   8.749 -0.3557  0.3454  0.7868
  134TCq2    C6 2045   0.679   4.090   8.773  1.3041 -0.5969 -0.0343
  134TCq2    C7 2046   0.763   4.132   8.872  0.0052 -0.0741 -0.3116
  134TCq2    C8 2047   0.695   3.962   8.701 -0.1863 -0.2795 -0.5308
  134TCq2    O4 2048   0.631   3.945   8.597  0.3277  0.9755 -0.2202
  134TCq2    C9 2049   0.420   4.363   8.777 -0.7090  0.1438 -0.0695
  134TCq2    O5 2050   0.436   4.486   8.803  0.0192  0.4485  0.1053
  134TCq2    O6 2051   0.314   4.316   8.717 -0.3081  0.1637 -0.1005
  134TCq2    H2 2052   0.582   4.392   8.983  1.7912 -1.1190  2.0688
  134TCq2    H3 2053   0.504   4.131   8.665  0.0190 -2.7888  1.6033
  134TCq2    H4 2054   0.862   4.090   8.885 -0.2360 -0.2752  0.8562
  135MPD2     C 2055   0.495   0.465   9.353 -0.4544 -0.8368 -0.3796
  135MPD2    C1 2056   0.421   0.350   9.357 -0.3687 -0.0479  0.1012
  135MPD2    C2 2057   0.473   0.221   9.350 -0.1557 -0.1096  0.7930
  135MPD2    C3 2058   0.603   0.201   9.342 -0.4402  0.0226  0.3703
  135MPD2    C4 2059   0.686   0.310   9.323  0.1072  0.1443 -0.0948
  135MPD2    C5 2060   0.626   0.440   9.335 -0.1293 -0.3573 -0.1491
  135MPD2     H 2061   0.410   0.133   9.364 -0.7486 -0.0576 -1.5854
  135MPD2    H1 2062   0.793   0.313   9.305  0.4875 -0.4004  2.0482
  135MPD2    H2 2063   0.457   0.566   9.341 -0.3789 -0.7610 -0.0075
  135MPD2    H3 2064   0.697   0.522   9.333  1.5385 -1.8488 -2.0019
  135MPD2     N 2065   0.665   0.077   9.357  0.5848 -0.8876  0.7484
  135MPD2    H5 2066   0.766   0.075   9.362  0.6191  2.0026  1.2577
  135MPD2    N1 2067   0.279   0.347   9.372 -0.0882 -0.1114 -0.3870
  135MPD2    H7 2068   0.241   0.254   9.389  0.4879  0.1568  2.4269
  136TCq2    C1 2069   0.200   0.456   9.375  0.0928 -0.6371  0.2905
  136TCq2    O2 2070   0.233   0.573   9.350 -0.0006 -0.2656  0.6718
  136TCq2    C2 2071   0.066   0.432   9.431 -0.0503 -0.0331 -0.0644
  136TCq2    C3 2072   4.712   0.319   9.392 -0.0290  0.5186 -0.3108
  136TCq2    C4 2073   4.592   0.305   9.452 -0.9748  0.0255 -0.1142
  136TCq2    C5 2074   4.552   0.385   9.550 -0.9241  0.2672 -0.6009
  136TCq2    C6 2075   4.638   0.484   9.592 -0.1100 -0.6467 -0.0924
  136TCq2    C7 2076   0.026   0.512   9.530 -0.1534  1.2520 -0.0144
  136TCq2    C8 2077   4.608   0.549   9.720 -0.4587 -0.4790 -0.3797
  136TCq2    O4 2078   4.676   0.646   9.745 -0.6104  0.3095 -0.2031
  136TCq2    C9 2079   4.520   0.191   9.426  0.4756  0.4463 -0.1675
  136TCq2    O5 2080   4.516   0.153   9.306  0.3805 -0.2785 -0.3340
  136TCq2    O6 2081   4.445   0.145   9.517 -0.8868  0.0017  0.1274
  136TCq2    H2 2082   0.022   0.247   9.319 -2.0787 -2.0846  1.2673
  136TCq2    H3 2083   4.451   0.378   9.587 -1.5785  1.3568 -2.2014
  136TCq2    H4 2084   0.088   0.594   9.564 -0.7288  1.9181 -0.5754
  137MPD2     C 2085   0.065   3.553   9.860  0.1204 -0.1920 -0.0859
  137MPD2    C1 2086   0.031   3.578   9.993 -0.2365  0.5160 -0.2916
  137MPD2    C2 2087   0.059   3.707  10.039  0.0307 -0.2123  0.0298
  137MPD2    C3 2088   0.107   3.807   9.956 -0.3107 -0.4200 -0.4655
  137MPD2    C4 2089   0.132   3.776   9.825 -1.1566  0.0668 -0.0900
  137MPD2    C5 2090   0.103   3.650   9.773  0.2052 -0.8764  0.4276
  137MPD2     H 2091   0.065   3.726  10.145 -0.8205  0.5107 -0.0554
  137MPD2    H1 2092   0.166   3.847   9.751  0.1045 -0.1936  0.2417
  137MPD2    H2 2093   0.062   3.455   9.814  0.4288  0.1058 -0.7421
  137MPD2    H3 2094   0.111   3.627   9.667 -1.5620  1.0297 -0.1111
  137MPD2     N 2095   0.133   3.938  10.009 -0.8872  1.1056 -0.7954
  137MPD2    H5 2096   0.127   3.950  10.109  2.1099  0.0344 -0.4804
  137MPD2    N1 2097   0.007   3.465  10.073  0.1630 -0.2181  0.4223
  137MPD2    H7 2098   0.017   3.374  10.029  0.8012  0.1138 -0.1149
  138TCq2    C1 2099   4.698   3.484  10.208  1.1068 -0.6657  0.1171
  138TCq2    O2 2100   4.650   3.591  10.250 -0.0109 -0.0250  0.1063
  138TCq2    C2 2101   4.667   3.360  10.277  0.0008  0.3704  0.3855
  138TCq2    C3 2102   0.020   3.251  10.272  0.6856  0.0592 -0.5958
  138TCq2    C4 2103   4.725   3.143  10.345  0.3012 -0.3605  0.3789
  138TCq2    C5 2104   4.613   3.129  10.417  0.2905  0.5506  0.5462
  138TCq2    C6 2105   4.542   3.244  10.440  0.0391 -0.1803 -0.5298
  138TCq2    C7 2106   4.569   3.362  10.374 -0.1668 -0.7391  0.1499
  138TCq2    C8 2107   4.443   3.239  10.537  0.4714 -0.7653  0.5385
  138TCq2    O4 2108   4.448   3.144  10.620 -0.1431  0.2235  0.8112
  138TCq2    C9 2109   0.094   3.038  10.344  0.1323  0.1729 -0.5020
  138TCq2    O5 2110   0.086   2.958  10.437 -0.1982  0.1140 -0.4067
  138TCq2    O6 2111   0.178   3.039  10.258 -0.1675  0.8172  0.3890
  138TCq2    H2 2112   0.113   3.256  10.216  0.4035 -1.3835 -1.1784
  138TCq2    H3 2113   4.595   3.034  10.466  1.0567  0.1350  0.0241
  138TCq2    H4 2114   4.514   3.450  10.403  3.1174  1.1414  0.7223
  139TMC2    C1 2115   0.055   3.712  13.220  0.5737  0.8530  0.1527
  139TMC2    C2 2116   4.708   3.739  13.110  0.6018 -0.9895 -0.8110
  139TMC2    C3 2117   4.629   3.848  13.115  0.1327 -0.3772  0.0440
  139TMC2    C4 2118   0.042   3.778  13.337 -0.0888  0.3354  0.2634
  139TMC2    C5 2119   4.698   3.901  13.338 -0.1311  0.3048  0.1065
  139TMC2    C6 2120   4.617   3.926  13.229 -0.0449 -0.2829 -0.0592
  139TMC2     C 2121   0.170   3.627  13.204  0.3386 -0.8756  0.1437
  139TMC2     O 2122   0.181   3.566  13.100 -0.0250 -0.0116  0.2423
  139TMC2     H 2123   0.004   3.689  13.016 -0.5089 -3.1358  0.0692
  139TMC2    H1 2124   0.077   3.737  13.431  0.7220 -1.3484 -0.7737
  139TMC2    H2 2125   4.556   4.016  13.230 -2.3494 -1.8585 -0.9286
  139TMC2    C7 2126   4.655   3.958  13.467 -0.2124  0.3061  0.0810
  139TMC2    C8 2127   4.556   3.899  13.000 -0.1720 -0.2558  0.6972
  139TMC2    O1 2128   4.563   4.037  13.459  0.0394 -0.3949 -0.1071
  139TMC2    O2 2129   4.500   4.007  12.991 -0.1915  0.6402  0.4314
  139TMC2    O5 2130   4.531   3.795  12.918  0.0108 -0.2909 -0.2111
  139TMC2    H5 2131   4.552   3.706  12.955  0.3328 -1.1915 -2.5669
  140MPD2     C 2132   0.406   3.587  13.482  0.5269  0.1812  0.1334
  140MPD2    C1 2133   0.346   3.551  13.359 -0.2441  0.4460  0.3764
  140MPD2    C2 2134   0.371   3.430  13.302  0.3022  0.3480 -0.0041
  140MPD2    C3 2135   0.471   3.352  13.363 -0.1057  0.5001  0.0174
  140MPD2    C4 2136   0.542   3.400  13.477  0.6151 -0.2301 -0.0938
  140MPD2    C5 2137   0.504   3.513  13.541 -0.3522 -0.5188 -0.1364
  140MPD2     H 2138   0.321   3.402  13.210 -0.4419  1.2071  0.1323
  140MPD2    H1 2139   0.618   3.335  13.519 -0.5561 -0.4641  1.6264
  140MPD2    H2 2140   0.387   3.686  13.524 -0.9160 -0.9365  2.1000
  140MPD2    H3 2141   0.553   3.543  13.632  1.3743 -1.6523 -0.6892
  140MPD2     N 2142   0.493   3.223  13.305  0.0362  0.1546  0.3106
  140MPD2    H5 2143   0.453   3.206  13.213  2.8470 -1.6270 -0.5907
  140MPD2    N1 2144   0.259   3.649  13.307  0.0078  0.2625  0.1683
  140MPD2    H7 2145   0.248   3.739  13.353 -2.7736 -1.6412  3.2207
  141TCq2    C1 2146   1.302   4.365  14.488 -0.2295  0.1848 -0.1624
  141TCq2    O2 2147   1.194   4.352  14.430  0.0054 -0.4538 -0.4145
  141TCq2    C2 2148   1.293   4.421  14.623  0.2708 -0.4136  0.5771
  141TCq2    C3 2149   1.165   4.434  14.677 -0.4732  0.0480  0.2972
  141TCq2    C4 2150   1.145   4.507  14.791 -0.0864  0.0414 -0.4561
  141TCq2    C5 2151   1.253   4.557  14.859  0.1018 -0.8856  0.2894
  141TCq2    C6 2152   1.374   4.554  14.788  0.2524  0.1767  0.4535
  141TCq2    C7 2153   1.404   4.482  14.678  0.0639  0.0840 -0.4173
  141TCq2    C8 2154   1.450   4.680  14.798 -0.7037  0.0953 -0.7065
  141TCq2    O4 2155   1.471   4.719  14.910 -0.2830  0.8248  0.2238
  141TCq2    C9 2156   1.010   4.533  14.822 -0.4190 -0.7077 -0.7027
  141TCq2    O5 2157   0.917   4.476  14.761 -0.1847  0.0335 -0.1665
  141TCq2    O6 2158   0.997   4.647  14.871  0.0202 -0.0289  0.0234
  141TCq2    H2 2159   1.082   4.391  14.621  0.5255 -0.0143 -1.1289
  141TCq2    H3 2160   1.242   4.626  14.942 -0.3236 -0.4649 -0.1154
  141TCq2    H4 2161   1.496   4.497  14.623  0.4827 -0.8816  0.0265
  142MPD2     C 2162   3.396   2.490  10.224  0.1334  0.3057 -0.1019
  142MPD2    C1 2163   3.320   2.593  10.263 -0.3105 -0.4148 -0.2921
  142MPD2    C2 2164   3.361   2.718  10.217 -0.7739  0.1129 -0.4008
  142MPD2    C3 2165   3.475   2.744  10.145 -0.2235  0.1712 -0.6141
  142MPD2    C4 2166   3.557   2.638  10.127 -0.0538  0.3450  0.5501
  142MPD2    C5 2167   3.521   2.514  10.169 -0.4613 -0.1769 -0.5850
  142MPD2     H 2168   3.303   2.806  10.243 -0.6841 -0.3590  1.4315
  142MPD2    H1 2169   3.650   2.645  10.071  0.4526  1.7532  1.5587
  142MPD2    H2 2170   3.379   2.386  10.249 -0.5499  0.3661 -0.3228
  142MPD2    H3 2171   3.587   2.427  10.174 -1.9357 -1.2153  0.5751
  142MPD2     N 2172   3.508   2.875  10.106 -0.2971  0.2906 -0.5833
  142MPD2    H5 2173   3.601   2.884  10.066 -0.3900 -0.6366 -0.9897
  142MPD2    N1 2174   3.200   2.564  10.327  0.6198 -0.4766  0.0037
  142MPD2    H7 2175   3.172   2.467  10.329  0.3612 -0.3985  0.1287
  143TCq2    C1 2176   3.429   2.989  10.106  0.0523 -0.6619 -0.3603
  143TCq2    O2 2177   3.307   3.001  10.107  0.2255  0.1735 -0.8716
  143TCq2    C2 2178   3.500   3.098  10.043 -0.0045  0.1120 -0.2012
  143TCq2    C3 2179   3.628   3.109  10.092 -0.0848  0.0871  0.7064
  143TCq2    C4 2180   3.675   3.240  10.109 -0.1358 -0.0853 -0.2834
  143TCq2    C5 2181   3.598   3.346  10.064 -1.0700 -0.2982  0.0758
  143TCq2    C6 2182   3.477   3.327  10.003 -0.6457 -0.2320 -0.5375
  143TCq2    C7 2183   3.427   3.202   9.987  0.4741 -0.0394 -0.2244
  143TCq2    C8 2184   3.410   3.439   9.941  0.2822  0.5665  0.2098
  143TCq2    O4 2185   3.482   3.536   9.924  0.2368  0.6983 -0.2447
  143TCq2    C9 2186   3.807   3.256  10.152  0.0171 -0.1031  0.7542
  143TCq2    O5 2187   3.851   3.371  10.155 -0.5751 -0.5427 -0.3840
  143TCq2    O6 2188   3.882   3.156  10.174  0.2995 -0.2142  0.2024
  143TCq2    H2 2189   3.687   3.023  10.121  1.2753  0.2649 -1.4945
  143TCq2    H3 2190   3.639   3.444  10.080  0.1030 -0.9391  0.9687
  143TCq2    H4 2191   3.331   3.184   9.938  0.7649  0.1526 -0.8682
  144MPD2     C 2192   1.062   3.590   0.679 -0.0643  1.6659  0.0220
  144MPD2    C1 2193   1.095   3.490   0.770 -0.2933  0.2148 -0.2220
  144MPD2    C2 2194   1.193   3.511   0.865  0.3224 -1.1887  0.2917
  144MPD2    C3 2195   1.257   3.635   0.879 -0.0245 -0.2956 -0.8724
  144MPD2    C4 2196   1.231   3.729   0.784  0.1826 -0.0075  0.1102
  144MPD2    C5 2197   1.127   3.707   0.692  0.1605  0.5838 -0.5139
  144MPD2     H 2198   1.220   3.434   0.936 -0.8439 -0.6909  1.2646
  144MPD2    H1 2199   1.277   3.827   0.784 -0.7512  0.4265 -2.1729
  144MPD2    H2 2200   0.984   3.566   0.608  0.9240 -1.1599 -0.1146
  144MPD2    H3 2201   1.108   3.797   0.636 -0.6825  0.5126 -0.3430
  144MPD2     N 2202   1.355   3.666   0.980  0.3661 -0.2086  0.1953
  144MPD2    H5 2203   1.395   3.759   0.977 -0.3658  0.0773 -0.5918
  144MPD2    N1 2204   1.041   3.361   0.747 -0.2205 -0.4314 -0.1766
  144MPD2    H7 2205   1.095   3.285   0.787  0.8245  0.7758  0.7260
  145TCq2    C1 2206   1.409   3.593   1.079 -0.1816  0.2324 -0.2524
  145TCq2    O2 2207   1.389   3.476   1.105 -0.6611 -0.0348 -0.7145
  145TCq2    C2 2208   1.502   3.665   1.167 -0.2988  0.1856 -0.9110
  145TCq2    C3 2209   1.491   3.799   1.165  0.2842 -0.7549 -0.4991
  145TCq2    C4 2210   1.596   3.859   1.232  0.2796  0.5321  0.9600
  145TCq2    C5 2211   1.695   3.795   1.302  0.2416  0.3305  0.6539
  145TCq2    C6 2212   1.683   3.659   1.310 -1.0977  0.5144 -0.2946
  145TCq2    C7 2213   1.583   3.595   1.249 -0.1203  0.3662 -0.0440
  145TCq2    C8 2214   1.731   3.609   1.435 -0.5660 -0.1589  0.2071
  145TCq2    O4 2215   1.831   3.654   1.486  0.3900  0.0364 -0.3358
  145TCq2    C9 2216   1.611   4.002   1.218 -0.5120 -0.0725  0.1019
  145TCq2    O5 2217   1.513   4.064   1.171  0.2746 -0.0786  0.1188
  145TCq2    O6 2218   1.715   4.047   1.270 -0.0216 -0.0302 -0.4811
  145TCq2    H2 2219   1.418   3.862   1.115 -0.4738 -0.4616  0.9619
  145TCq2    H3 2220   1.776   3.850   1.347  1.8357 -1.1868 -0.3658
  145TCq2    H4 2221   1.572   3.488   1.264  1.7521 -0.1053 -2.0681
  146TMC2    C1 2222   2.803   0.459  12.671 -0.7754 -0.6042 -0.1983
  146TMC2    C2 2223   2.771   0.457  12.540  0.1527  0.4169 -0.7249
  146TMC2    C3 2224   2.871   0.406  12.464 -0.1591  0.1786 -0.7156
  146TMC2    C4 2225   2.931   0.438  12.724  0.1837  0.5250 -0.2425
  146TMC2    C5 2226   3.030   0.416  12.631 -0.0386 -0.0200 -0.1273
  146TMC2    C6 2227   2.998   0.384  12.501 -0.2486  0.5019  0.1554
  146TMC2     C 2228   2.707   0.524  12.754 -0.5255 -0.2858 -0.4176
  146TMC2     O 2229   2.607   0.563  12.691  0.9128 -0.3488  0.3824
  146TMC2     H 2230   2.673   0.475  12.498 -0.5362  0.0093  0.7368
  146TMC2    H1 2231   2.963   0.477  12.820  0.4189 -1.3229  0.4231
  146TMC2    H2 2232   3.073   0.342  12.435 -0.2280 -0.4776  0.7921
  146TMC2    C7 2233   3.147   0.342  12.678  0.7051 -0.1033  0.5905
  146TMC2    C8 2234   2.833   0.363  12.327 -0.7176  0.5908 -0.1578
  146TMC2    O1 2235   3.233   0.342  12.590  0.1181  0.2479  0.4132
  146TMC2    O2 2236   2.719   0.354  12.285 -0.1314  0.0519 -0.3672
  146TMC2    O5 2237   2.929   0.426  12.254 -0.0025  0.1670  0.6897
  146TMC2    H5 2238   3.012   0.444  12.304  0.1897  0.8397  0.1289
  147MPD2     C 2239   3.482   0.150  13.014  0.7256 -0.2057 -0.6642
  147MPD2    C1 2240   3.359   0.161  13.074 -0.1200 -0.3645 -0.1939
  147MPD2    C2 2241   3.246   0.204  13.002  0.2156 -0.0477 -0.4243
  147MPD2    C3 2242   3.253   0.232  12.869  0.4047 -0.6434  0.5473
  147MPD2    C4 2243   3.377   0.222  12.804  0.2287  0.1728 -0.0348
  147MPD2    C5 2244   3.483   0.188  12.881  0.5624  0.4932 -0.0430
  147MPD2     H 2245   3.150   0.221  13.050  0.7208  1.4317  0.0509
  147MPD2    H1 2246   3.403   0.242  12.700  1.2798 -2.6735 -0.3173
  147MPD2    H2 2247   3.574   0.121  13.065  1.7812 -0.5956 -2.8018
  147MPD2    H3 2248   3.582   0.190  12.838  0.4569  1.4332 -0.2426
  147MPD2     N 2249   3.136   0.287  12.803 -0.3982 -0.2851 -1.0864
  147MPD2    H5 2250   3.050   0.299  12.855 -1.0937  1.6630 -2.6692
  147MPD2    N1 2251   3.359   0.128  13.206 -0.3392 -0.7694 -0.3480
  147MPD2    H7 2252   3.452   0.115  13.244  0.7829  0.4860 -2.7445
  148MPD2     C 2253   2.570   4.377  10.674  0.3368  0.2604  0.2814
  148MPD2    C1 2254   2.578   4.247  10.719 -0.1983 -0.0216  0.0507
  148MPD2    C2 2255   2.479   4.163  10.668  0.0208 -0.6251  0.0519
  148MPD2    C3 2256   2.378   4.210  10.590  0.2695 -0.7766  0.1968
  148MPD2    C4 2257   2.364   4.343  10.563  0.8870 -1.3089  0.4212
  148MPD2    C5 2258   2.466   4.425  10.601 -0.0318  0.5084  0.2528
  148MPD2     H 2259   2.482   4.057  10.691 -0.3974 -0.5705  0.3613
  148MPD2    H1 2260   2.292   4.391  10.498  2.9964  2.3884  0.8478
  148MPD2    H2 2261   2.648   4.450  10.693 -0.8254  1.5971 -0.1068
  148MPD2    H3 2262   2.469   4.526  10.561  2.7382  0.1917 -0.3491
  148MPD2     N 2263   2.296   4.105  10.539  0.0224 -0.8633  0.0850
  148MPD2    H5 2264   2.328   4.012  10.564  2.0098 -0.2580 -0.1663
  148MPD2    N1 2265   2.679   4.186  10.794  0.0933  0.6912  0.0896
  148MPD2    H7 2266   2.693   4.086  10.785  1.6024  0.8977  0.0076
  149TCq2    C1 2267   2.779   4.262  10.863  0.3102 -0.1130 -0.0825
  149TCq2    O2 2268   2.760   4.369  10.915  0.5090 -0.2875  0.3559
  149TCq2    C2 2269   2.902   4.190  10.891 -0.4553 -0.4398 -0.0680
  149TCq2    C3 2270   2.983   4.212  11.002 -0.6694 -0.0161 -0.3826
  149TCq2    C4 2271   3.090   4.131  11.032  0.0820 -0.3527  0.1059
  149TCq2    C5 2272   3.101   4.005  10.971 -1.1934  0.5274 -0.0603
  149TCq2    C6 2273   3.017   3.980  10.861 -0.4002  0.9084  0.1898
  149TCq2    C7 2274   2.921   4.073  10.822  0.4183  0.2917  0.0943
  149TCq2    C8 2275   2.988   3.846  10.810 -0.3562 -0.7862 -0.2211
  149TCq2    O4 2276   2.875   3.837  10.769  0.3703 -0.4617 -0.0958
  149TCq2    C9 2277   3.145   4.142  11.161 -0.9081 -0.2198  0.1749
  149TCq2    O5 2278   3.053   4.164  11.249 -0.3375  0.7185 -0.3246
  149TCq2    O6 2279   3.266   4.110  11.185  0.0982  0.8826 -0.2942
  149TCq2    H2 2280   2.962   4.300  11.062 -1.9188 -0.3014 -0.3849
  149TCq2    H3 2281   3.166   3.929  11.013 -0.8484  0.3152 -0.9607
  149TCq2    H4 2282   2.869   4.052  10.729 -0.7088 -0.1929  0.8181
  150MPD2     C 2283   4.705   3.119  12.243  0.5169 -0.1385 -0.4905
  150MPD2    C1 2284   4.711   3.199  12.130 -0.0964  0.2210  0.2469
  150MPD2    C2 2285   0.036   3.322  12.150  0.2676  0.2952  0.3560
  150MPD2    C3 2286   0.082   3.363  12.275 -0.5776 -0.1768  0.1316
  150MPD2    C4 2287   0.074   3.282  12.383 -0.9725 -0.4610  0.5146
  150MPD2    C5 2288   0.021   3.157  12.364 -0.4396 -0.0988  0.3313
  150MPD2     H 2289   0.052   3.395  12.071  0.1255 -0.9224 -0.8013
  150MPD2    H1 2290   0.106   3.307  12.484 -0.6507  1.9357 -0.1818
  150MPD2    H2 2291   4.679   3.014  12.243  0.2598 -0.0888 -3.5964
  150MPD2    H3 2292   0.020   3.084  12.444  0.2732 -0.1844  0.2624
  150MPD2     N 2293   0.129   3.496  12.292  0.1060  0.1964  0.2136
  150MPD2    H5 2294   0.129   3.560  12.213 -2.0425  0.9586  0.8199
  150MPD2    N1 2295   4.666   3.154  12.003 -0.3320  0.3558  0.2838
  150MPD2    H7 2296   4.617   3.066  11.997  1.7321 -0.7685  0.0739
  151TCq2    C1 2297   0.209   3.531  12.400 -0.4060 -0.3463  0.0878
  151TCq2    O2 2298   0.243   3.474  12.505  0.4582 -0.2121  0.2765
  151TCq2    C2 2299   0.264   3.666  12.379  0.5440 -0.0203 -0.0257
  151TCq2    C3 2300   0.193   3.764  12.318 -0.3667 -0.1947 -0.4918
  151TCq2    C4 2301   0.243   3.889  12.331  0.1000  0.1982  0.2839
  151TCq2    C5 2302   0.364   3.916  12.389 -0.4388  0.0015 -0.1994
  151TCq2    C6 2303   0.432   3.818  12.454  0.9287 -0.2130  0.4053
  151TCq2    C7 2304   0.387   3.685  12.440  0.6064  0.7254 -0.3422
  151TCq2    C8 2305   0.554   3.855  12.528  0.6335 -0.3643 -0.0645
  151TCq2    O4 2306   0.621   3.950  12.486 -0.5796  0.6459 -0.3611
  151TCq2    C9 2307   0.173   3.992  12.254 -0.8046  0.6224  0.0219
  151TCq2    O5 2308   0.243   4.075  12.204 -0.1192  1.2422 -0.0939
  151TCq2    O6 2309   0.052   3.972  12.246  0.5830 -0.1438  0.0595
  151TCq2    H2 2310   0.090   3.747  12.287 -0.4196 -1.5770  0.4724
  151TCq2    H3 2311   0.407   4.012  12.364 -1.4710  0.4822 -0.1277
  151TCq2    H4 2312   0.444   3.603  12.482  4.7566  3.2425 -1.0918
  152MPD2     C 2313   4.361   3.164  12.150 -0.0386  0.3748 -0.0317
  152MPD2    C1 2314   4.364   3.300  12.172  0.1402 -0.0338  0.6376
  152MPD2    C2 2315   4.280   3.379  12.094  0.5514  0.2773  0.2362
  152MPD2    C3 2316   4.200   3.328  11.996  0.3072  0.1822 -0.3635
  152MPD2    C4 2317   4.202   3.197  11.970 -0.5175  0.3164 -0.1248
  152MPD2    C5 2318   4.288   3.118  12.044 -0.0802  0.0299  0.3586
  152MPD2     H 2319   4.277   3.485  12.118 -0.1257  0.3486 -0.1816
  152MPD2    H1 2320   4.150   3.147  11.889 -1.0195 -0.0893  0.4469
  152MPD2    H2 2321   4.412   3.095  12.216 -2.3323 -1.2039  0.0819
  152MPD2    H3 2322   4.287   3.010  12.030 -0.2073  0.2103 -1.0005
  152MPD2     N 2323   4.118   3.414  11.922  0.1925 -0.0536  0.3860
  152MPD2    H5 2324   4.141   3.513  11.929  1.4517 -0.3044 -0.2125
  152MPD2    N1 2325   4.445   3.345  12.282  0.0820 -0.0061 -0.2146
  152MPD2    H7 2326   4.506   3.272  12.319 -0.2165  1.0024  2.2191
  153TCq2    C1 2327   4.452   3.470  12.337  0.2843 -0.4835  0.1130
  153TCq2    O2 2328   4.412   3.574  12.293  0.5660  0.4701  0.2663
  153TCq2    C2 2329   4.549   3.478  12.450  0.3081  0.1077 -0.2952
  153TCq2    C3 2330   4.535   3.376  12.537  0.4118 -0.0668 -0.3411
  153TCq2    C4 2331   4.584   3.396  12.661 -0.5039  0.2048  0.1694
  153TCq2    C5 2332   4.633   3.518  12.701  0.0210  0.1544  0.8654
  153TCq2    C6 2333   4.647   3.615  12.605  0.4017 -0.3577  0.9617
  153TCq2    C7 2334   4.605   3.597  12.475 -0.4691  0.1420  0.0688
  153TCq2    C8 2335   0.008   3.735  12.628 -0.1756  0.8471  0.3163
  153TCq2    O4 2336   4.699   3.833  12.560  0.2231  0.1242 -0.2829
  153TCq2    C9 2337   4.559   3.300  12.765 -0.4501  0.0588 -0.2216
  153TCq2    O5 2338   4.582   3.334  12.886 -0.0106  0.9382 -0.3652
  153TCq2    O6 2339   4.505   3.190  12.727 -0.9340 -0.6950 -0.7991
  153TCq2    H2 2340   4.494   3.278  12.515 -1.9478  0.1999  2.8353
  153TCq2    H3 2341   4.681   3.538  12.796  1.2160 -2.0826  0.7125
  153TCq2    H4 2342   4.625   3.672  12.399 -0.1166 -0.9122 -0.8857
  154MPD2     C 2343   2.029   4.501   0.701  0.0457  0.1848  0.7234
  154MPD2    C1 2344   1.969   4.594   0.783  0.7666  0.0714  0.5283
  154MPD2    C2 2345   1.828   4.596   0.788 -0.9126 -0.0945  0.4897
  154MPD2    C3 2346   1.748   4.510   0.706 -0.2666  1.0304  0.1194
  154MPD2    C4 2347   1.813   4.409   0.637  0.0954  0.8953 -0.5628
  154MPD2    C5 2348   1.949   4.412   0.632 -0.1989  0.1306  0.3190
  154MPD2     H 2349   1.760   4.658   0.846  2.5077  2.8574  1.3546
  154MPD2    H1 2350   1.766   4.337   0.571  0.0615 -0.8353  1.3406
  154MPD2    H2 2351   2.137   4.493   0.698  0.0308  0.2774 -0.0093
  154MPD2    H3 2352   1.997   4.347   0.559 -2.1567  1.4809 -2.1675
  154MPD2     N 2353   1.609   4.531   0.686  0.4957  0.0783 -0.5520
  154MPD2    H5 2354   1.564   4.594   0.752  0.9850 -0.2600  0.1111
  154MPD2    N1 2355   2.052   4.671   0.853 -0.1406 -0.8749  0.2077
  154MPD2    H7 2356   2.146   4.636   0.842  0.3853  0.0189  1.7978
  155TCq2    C1 2357   2.019   0.058   0.924 -0.1035 -0.6360 -0.5601
  155TCq2    O2 2358   1.915   0.110   0.952  0.3943 -0.7040  0.1259
  155TCq2    C2 2359   2.136   0.118   0.993  0.3862  0.0966 -0.0427
  155TCq2    C3 2360   2.261   0.082   0.958 -0.4290 -0.7542  0.4792
  155TCq2    C4 2361   2.365   0.152   1.004  0.5182 -0.3128  0.4684
  155TCq2    C5 2362   2.351   0.271   1.081 -0.0774  0.1926  0.1694
  155TCq2    C6 2363   2.223   0.299   1.120 -0.2128  0.5263 -0.4086
  155TCq2    C7 2364   2.114   0.228   1.082  0.2047 -0.2460  0.2021
  155TCq2    C8 2365   2.205   0.402   1.216 -0.3772 -0.2501 -0.2628
  155TCq2    O4 2366   2.095   0.450   1.230  0.3126 -0.4960 -0.3798
  155TCq2    C9 2367   2.495   0.130   0.944  0.3411  0.0926 -0.0080
  155TCq2    O5 2368   2.585   0.193   1.003 -0.0481  0.0076 -0.7961
  155TCq2    O6 2369   2.515   0.045   0.853  0.4652 -0.1125 -0.1488
  155TCq2    H2 2370   2.283   0.017   0.875 -0.4908  0.5714 -0.5750
  155TCq2    H3 2371   2.441   0.330   1.090 -0.6196  0.4620  3.7974
  155TCq2    H4 2372   2.022   0.277   1.110  1.8295  1.2485  3.0094
  156MPD2     C 2373   0.085   0.371  11.422  0.2686  0.1966 -0.0196
  156MPD2    C1 2374   4.722   0.452  11.487 -0.6116 -0.4056  0.4343
  156MPD2    C2 2375   0.019   0.485  11.617  0.0838 -0.7061  0.8807
  156MPD2    C3 2376   0.133   0.433  11.680  0.2984 -0.1925  0.0022
  156MPD2    C4 2377   0.225   0.355  11.609 -0.3838  0.2764  0.2501
  156MPD2    C5 2378   0.192   0.323  11.482  0.1484  0.1750  0.4182
  156MPD2     H 2379   4.685   0.560  11.668  0.0919  0.4828 -0.8519
  156MPD2    H1 2380   0.326   0.339  11.643 -0.5096  0.0202  0.5074
  156MPD2    H2 2381   0.069   0.347  11.318  5.6042 -2.3464 -0.2837
  156MPD2    H3 2382   0.264   0.280  11.414  0.2253 -0.2611  0.7747
  156MPD2     N 2383   0.161   0.472  11.806  0.2569  0.0585 -0.0073
  156MPD2    H5 2384   0.093   0.537  11.844 -0.5027 -1.1248  0.6462
  156MPD2    N1 2385   4.611   0.497  11.413 -0.1816  0.0055  0.3717
  156MPD2    H7 2386   4.595   0.470  11.316 -1.7821  0.2849  0.5579
  157TCq2    C1 2387   4.515   0.584  11.457  0.1432  0.1407 -0.1970
  157TCq2    O2 2388   4.527   0.658  11.554 -0.6856  0.4171  0.2718
  157TCq2    C2 2389   4.425   0.641  11.361  0.1596  0.1585 -0.8090
  157TCq2    C3 2390   4.422   0.581  11.238  0.9870  0.0178  0.6451
  157TCq2    C4 2391   4.394   0.660  11.128  0.5525 -1.0247  0.4435
  157TCq2    C5 2392   4.391   0.792  11.138 -0.4301 -0.3811  0.2334
  157TCq2    C6 2393   4.375   0.846  11.261 -0.0075  0.2322 -0.4336
  157TCq2    C7 2394   4.403   0.771  11.369  0.1786  0.3536  0.3568
  157TCq2    C8 2395   4.403   0.990  11.273 -0.5893 -0.5160 -0.0351
  157TCq2    O4 2396   4.469   1.043  11.183  0.5734 -0.0047  0.2280
  157TCq2    C9 2397   4.391   0.596  10.997 -0.6983 -0.8688  0.2050
  157TCq2    O5 2398   4.396   0.669  10.898  0.3070  0.4296  0.4035
  157TCq2    O6 2399   4.400   0.473  10.994  0.0762 -0.0568  0.1646
  157TCq2    H2 2400   4.433   0.473  11.234  2.2541  0.1798 -0.5158
  157TCq2    H3 2401   4.366   0.856  11.054  1.2946  0.2547  0.2045
  157TCq2    H4 2402   4.423   0.818  11.464 -1.6678 -0.1961  1.0072
  158TMC2    C1 2403   4.334   0.442  13.601  0.6352  0.1722 -0.1706
  158TMC2    C2 2404   4.373   0.475  13.474  0.0478  0.1683  0.3628
  158TMC2    C3 2405   4.343   0.406  13.361 -1.0031  0.2727 -0.0158
  158TMC2    C4 2406   4.255   0.332  13.617  0.1350 -0.5640 -0.0035
  158TMC2    C5 2407   4.231   0.260  13.503  0.2427 -0.7962  0.1282
  158TMC2    C6 2408   4.262   0.297  13.379 -0.1465 -0.3382  0.4674
  158TMC2     C 2409   4.353   0.534  13.707 -0.1831  0.6957  0.1733
  158TMC2     O 2410   4.388   0.646  13.673  0.1972  0.5751  0.1517
  158TMC2     H 2411   4.441   0.559  13.461  0.6219 -0.6603 -1.9458
  158TMC2    H1 2412   4.216   0.297  13.711  0.0736  0.3654  0.3160
  158TMC2    H2 2413   4.223   0.238  13.297 -0.3291  1.8451 -1.0066
  158TMC2    C7 2414   4.105   0.178  13.513 -0.2985  0.4616 -0.0235
  158TMC2    C8 2415   4.352   0.473  13.234 -0.0734  0.2038 -0.6408
  158TMC2    O1 2416   4.025   0.187  13.421 -0.2654 -0.1720  0.0641
  158TMC2    O2 2417   4.313   0.585  13.201  0.5912  0.1179 -0.4850
  158TMC2    O5 2418   4.355   0.378  13.144 -0.1774  0.0801 -0.3517
  158TMC2    H5 2419   4.388   0.291  13.174  2.3971  0.9122 -0.7207
  159MPD2     C 2420   4.381   0.614  14.219  0.3986  0.6530  0.3591
  159MPD2    C1 2421   4.353   0.487  14.197  0.6299 -0.1082  0.1713
  159MPD2    C2 2422   4.328   0.453  14.064 -0.0735 -0.1546 -0.0103
  159MPD2    C3 2423   4.342   0.534  13.953 -0.3714 -0.7221  0.1656
  159MPD2    C4 2424   4.371   0.670  13.987 -0.4817  0.4247  0.1669
  159MPD2    C5 2425   4.398   0.700  14.120 -0.0573 -0.0729 -0.2960
  159MPD2     H 2426   4.319   0.347  14.043  0.5970 -0.2444  0.1499
  159MPD2    H1 2427   4.379   0.743  13.908  3.4028 -0.3054 -0.1013
  159MPD2    H2 2428   4.381   0.654  14.320  0.5282  1.9555 -0.1573
  159MPD2    H3 2429   4.426   0.801  14.147 -0.7529 -0.0964  0.5061
  159MPD2     N 2430   4.332   0.476  13.828  0.2056 -0.4175  0.1097
  159MPD2    H5 2431   4.319   0.376  13.829  0.7143 -0.5248 -2.8391
  159MPD2    N1 2432   4.352   0.400  14.307  0.4427  0.5902  0.0442
  159MPD2    H7 2433   4.388   0.433  14.396  1.0110 -1.5475  0.6103
  160TMC2    C1 2434   0.736   3.141   2.061  0.1929 -0.9941 -0.1919
  160TMC2    C2 2435   0.808   3.053   2.136  0.1025 -0.3975  0.1975
  160TMC2    C3 2436   0.804   2.924   2.088 -0.5558 -0.2312 -0.6313
  160TMC2    C4 2437   0.656   3.105   1.951  0.4755  0.1651  0.2712
  160TMC2    C5 2438   0.670   2.973   1.913 -0.3595 -0.1169 -0.1745
  160TMC2    C6 2439   0.745   2.880   1.978 -0.0231  0.2282  0.3778
  160TMC2     C 2440   0.778   3.279   2.077  0.1953 -0.2441  0.6544
  160TMC2     O 2441   0.827   3.316   2.180  0.2443  0.6321  0.2226
  160TMC2     H 2442   0.881   3.086   2.209  1.4452  3.0788 -2.6780
  160TMC2    H1 2443   0.567   3.160   1.923  0.3172 -0.9461 -1.3960
  160TMC2    H2 2444   0.736   2.773   1.959  2.0795  0.2443 -0.6858
  160TMC2    C7 2445   0.574   2.922   1.816  0.2638 -0.3529  0.7005
  160TMC2    C8 2446   0.897   2.835   2.142  0.8151 -0.2498  0.4069
  160TMC2    O1 2447   0.544   2.802   1.827  0.4917  0.0301  0.4990
  160TMC2    O2 2448   0.948   2.853   2.253 -0.5729  0.4984  0.0135
  160TMC2    O5 2449   0.956   2.790   2.031 -0.0683 -0.0895 -0.4954
  160TMC2    H5 2450   0.908   2.793   1.946 -2.7214 -2.5361  0.9480
  161MPD2     C 2451   0.773   3.578   2.064 -1.0180  0.1474 -0.2781
  161MPD2    C1 2452   0.714   3.494   1.968 -0.0093  0.2012 -0.7346
  161MPD2    C2 2453   0.645   3.544   1.865  0.1943 -0.0827  0.7877
  161MPD2    C3 2454   0.632   3.684   1.847 -0.2285 -0.3563  0.0742
  161MPD2    C4 2455   0.694   3.767   1.940  0.1238  0.8379  0.3076
  161MPD2    C5 2456   0.759   3.719   2.047  0.7958 -0.0762  0.2325
  161MPD2     H 2457   0.598   3.473   1.798  0.7447 -1.4893  1.8952
  161MPD2    H1 2458   0.686   3.874   1.924 -2.2706  0.3438 -1.7474
  161MPD2    H2 2459   0.843   3.543   2.139 -0.7723  1.6427  0.1895
  161MPD2    H3 2460   0.816   3.780   2.117 -1.1627 -0.5307  2.2390
  161MPD2     N 2461   0.562   3.751   1.743 -0.3899  0.3516  0.4042
  161MPD2    H5 2462   0.570   3.852   1.742 -0.1460  0.3415  0.9315
  161MPD2    N1 2463   0.728   3.354   1.975 -0.2414  0.1710  0.4354
  161MPD2    H7 2464   0.686   3.305   1.897 -1.7145  1.0578  0.6536
  162TMC2    C1 2465   3.410   0.364   1.314  0.8039  0.2651 -0.8739
  162TMC2    C2 2466   3.412   0.460   1.413 -0.0411 -0.3687  0.0599
  162TMC2    C3 2467   3.355   0.426   1.533  0.2350  0.3084  0.4846
  162TMC2    C4 2468   3.338   0.251   1.328  0.0510 -0.5950  0.0807
  162TMC2    C5 2469   3.274   0.226   1.446  0.0420 -0.6558  0.2835
  162TMC2    C6 2470   3.281   0.314   1.547  0.0423 -0.5044  0.1853
  162TMC2     C 2471   3.460   0.382   1.181  0.7604  0.7500  0.0453
  162TMC2     O 2472   3.439   0.292   1.099 -0.1138  0.0298  0.0730
  162TMC2     H 2473   3.480   0.544   1.408 -1.3558  0.6204 -1.4875
  162TMC2    H1 2474   3.340   0.171   1.254  1.8993  0.3848 -0.9243
  162TMC2    H2 2475   3.220   0.299   1.635 -1.8330 -1.9983 -1.3535
  162TMC2    C7 2476   3.218   0.096   1.453  0.3355 -0.1948 -0.9120
  162TMC2    C8 2477   3.342   0.518   1.638 -0.3746  0.2907  1.1930
  162TMC2    O1 2478   3.174   0.053   1.350  0.3085 -0.7297 -0.0429
  162TMC2    O2 2479   3.326   0.493   1.760  0.1683  0.0208 -0.4757
  162TMC2    O5 2480   3.346   0.640   1.570  0.4767  0.0532 -0.2645
  162TMC2    H5 2481   3.323   0.620   1.477  2.4594  2.4397 -1.2683
  163MPD2     C 2482   3.645   0.708   0.813 -0.4553  0.0274  0.0381
  163MPD2    C1 2483   3.610   0.576   0.806 -0.5751 -0.3096 -0.3500
  163MPD2    C2 2484   3.557   0.512   0.923  0.1758  0.5260 -0.4437
  163MPD2    C3 2485   3.558   0.571   1.045 -0.2859 -0.2591 -0.4995
  163MPD2    C4 2486   3.593   0.705   1.056 -0.1207  0.2071 -0.2380
  163MPD2    C5 2487   3.640   0.769   0.941 -0.2268 -0.4321 -0.6839
  163MPD2     H 2488   3.518   0.412   0.912  0.7267  0.2891 -0.2552
  163MPD2    H1 2489   3.589   0.750   1.154  0.0858 -0.7055  0.1882
  163MPD2    H2 2490   3.687   0.762   0.729 -0.2521 -0.1510  0.0264
  163MPD2    H3 2491   3.668   0.873   0.944 -2.2556  0.0791  0.7357
  163MPD2     N 2492   3.513   0.508   1.162 -0.6861 -0.0179 -0.2309
  163MPD2    H5 2493   3.513   0.574   1.239 -0.5361 -1.5523  1.1057
  163MPD2    N1 2494   3.627   0.508   0.683 -0.4646  0.2090  0.0266
  163MPD2    H7 2495   3.655   0.559   0.600  0.9695  0.3975  0.6238
  164TCq2    C1 2496   2.952   3.672  11.529 -0.3606 -0.3045 -0.4633
  164TCq2    O2 2497   2.836   3.636  11.548  0.1661  0.0349 -0.1643
  164TCq2    C2 2498   2.979   3.807  11.576 -0.6042 -0.5037 -0.4636
  164TCq2    C3 2499   3.099   3.864  11.553 -0.4345  0.0538 -0.5346
  164TCq2    C4 2500   3.108   3.995  11.578 -0.9217 -0.4412 -0.2873
  164TCq2    C5 2501   3.011   4.072  11.645 -0.1339 -0.6319 -0.3558
  164TCq2    C6 2502   2.902   4.002  11.679 -0.8453  0.1476 -0.8413
  164TCq2    C7 2503   2.873   3.875  11.631 -0.4150  0.1032 -0.2452
  164TCq2    C8 2504   2.784   4.081  11.720 -0.1214 -0.1528 -0.2331
  164TCq2    O4 2505   2.677   4.056  11.673 -0.0216  0.2658  0.6465
  164TCq2    C9 2506   3.236   4.061  11.532 -0.1323  0.3220  0.3406
  164TCq2    O5 2507   3.225   4.183  11.512 -0.9962 -0.3790 -0.0656
  164TCq2    O6 2508   3.325   4.000  11.468 -0.1543  0.2191  0.2642
  164TCq2    H2 2509   3.182   3.807  11.515 -0.9042 -0.7322 -0.3761
  164TCq2    H3 2510   3.039   4.175  11.662  0.3014 -0.6193 -1.1409
  164TCq2    H4 2511   2.773   3.834  11.642  0.5498 -1.7326  1.7325
  165MPD2     C 2512   0.010   1.694   2.613 -0.3004  0.3397  0.5055
  165MPD2    C1 2513   4.698   1.722   2.489 -0.2145 -0.0903 -0.5533
  165MPD2    C2 2514   4.717   1.855   2.435  0.2903 -0.4701 -0.5579
  165MPD2    C3 2515   0.047   1.950   2.519 -0.1310 -0.4063  0.0260
  165MPD2    C4 2516   0.088   1.919   2.643 -0.3177 -0.0366  0.0647
  165MPD2    C5 2517   0.083   1.788   2.686  0.4625 -0.1794  0.0836
  165MPD2     H 2518   4.697   1.883   2.333 -0.7211 -0.4263 -0.3460
  165MPD2    H1 2519   0.147   1.991   2.697 -0.2404  0.8659 -1.2200
  165MPD2    H2 2520   0.007   1.588   2.637  1.3136  0.8017  2.8068
  165MPD2    H3 2521   0.140   1.761   2.774 -2.0919  1.8104  2.3586
  165MPD2     N 2522   0.069   2.084   2.474 -0.7840 -0.5054  0.0878
  165MPD2    H5 2523   0.103   2.153   2.540  1.1660 -2.1492  0.7858
  165MPD2    N1 2524   4.630   1.616   2.423 -0.1505 -0.0824  0.2949
  165MPD2    H7 2525   4.609   1.538   2.484  0.8008  0.0837  0.8511
  166TCq2    C1 2526   0.037   2.136   2.349  1.0187 -0.4663 -0.5027
  166TCq2    O2 2527   0.009   2.077   2.245  0.3248 -0.6443 -0.1241
  166TCq2    C2 2528   0.094   2.268   2.343 -0.0301  0.8415  0.5897
  166TCq2    C3 2529   0.121   2.338   2.460 -0.5829 -0.1782 -0.3067
  166TCq2    C4 2530   0.232   2.425   2.458 -0.3092 -0.3475  0.9893
  166TCq2    C5 2531   0.289   2.470   2.342  0.0431  0.1686  0.3957
  166TCq2    C6 2532   0.240   2.414   2.224 -0.4486  0.2144  0.3210
  166TCq2    C7 2533   0.145   2.323   2.225  0.1321 -0.2075  0.2931
  166TCq2    C8 2534   0.288   2.463   2.096  0.3791  0.1577 -0.4567
  166TCq2    O4 2535   0.345   2.574   2.084  0.2035  0.3205  0.3866
  166TCq2    C9 2536   0.266   2.486   2.587  0.2878 -0.2958  0.4413
  166TCq2    O5 2537   0.328   2.596   2.574  0.5713 -0.3761 -0.1759
  166TCq2    O6 2538   0.210   2.438   2.689  0.0997  0.2702  0.4079
  166TCq2    H2 2539   0.084   2.315   2.559  1.3125  0.4989  0.5577
  166TCq2    H3 2540   0.373   2.538   2.340 -0.1343  0.3633 -0.2521
  166TCq2    H4 2541   0.103   2.277   2.137 -1.4364 -0.2281  1.0383
  167TMC2    C1 2542   2.318   4.172  13.165 -0.5878  0.0421  0.1111
  167TMC2    C2 2543   2.222   4.212  13.258  0.0290  0.2685 -0.0079
  167TMC2    C3 2544   2.174   4.115  13.342 -0.2316  0.0246  0.2307
  167TMC2    C4 2545   2.351   4.034  13.152  0.0495  0.4460  0.4750
  167TMC2    C5 2546   2.293   3.945  13.236  0.2817 -0.3178 -0.0921
  167TMC2    C6 2547   2.222   3.990  13.344 -0.1379 -0.1428 -0.1553
  167TMC2     C 2548   2.365   4.277  13.079  0.7762  0.1957 -0.2666
  167TMC2     O 2549   2.337   4.400  13.093  0.2342  0.0565  0.4601
  167TMC2     H 2550   2.200   4.318  13.259  2.4490  0.7545  1.1829
  167TMC2    H1 2551   2.419   4.005  13.072  0.0709  3.1175 -0.5018
  167TMC2    H2 2552   2.180   3.911  13.405  0.7776  0.3886  1.1481
  167TMC2    C7 2553   2.308   3.797  13.217 -0.1797  0.0860  0.0671
  167TMC2    C8 2554   2.120   4.158  13.465  0.0172  0.2233 -1.0426
  167TMC2    O1 2555   2.221   3.729  13.273 -0.2363 -0.2344  0.3775
  167TMC2    O2 2556   2.169   4.130  13.576  0.4795 -0.6775 -0.1009
  167TMC2    O5 2557   2.051   4.269  13.442 -0.9231  0.4321 -0.0726
  167TMC2    H5 2558   2.028   4.278  13.347 -2.7520  0.1755  0.3408
  168MPD2     C 2559   2.508   4.433  12.863 -0.0333  0.1630  0.4212
  168MPD2    C1 2560   2.509   4.290  12.873 -0.2423  0.5042  0.3548
  168MPD2    C2 2561   2.559   4.221  12.766 -0.0328 -0.1940  0.4165
  168MPD2    C3 2562   2.617   4.281  12.657  0.0531 -0.0708  0.0581
  168MPD2    C4 2563   2.607   4.416  12.644  0.2152 -0.7564  0.0333
  168MPD2    C5 2564   2.550   4.488  12.748  0.2579 -0.5168 -0.1694
  168MPD2     H 2565   2.561   4.113  12.768  2.8646 -0.2092 -2.3740
  168MPD2    H1 2566   2.641   4.466  12.554 -1.7657  0.4745 -0.0559
  168MPD2    H2 2567   2.475   4.501  12.941 -1.9799  0.1912 -0.4380
  168MPD2    H3 2568   2.541   4.596  12.748 -0.6414 -0.5894  0.3445
  168MPD2     N 2569   2.658   4.196  12.550 -0.0016  0.4026  0.1632
  168MPD2    H5 2570   2.652   4.096  12.564  0.9884  0.4715  1.0145
  168MPD2    N1 2571   2.445   4.223  12.978  0.6011  0.2717  0.1531
  168MPD2    H7 2572   2.459   4.123  12.978 -2.8320 -0.2354 -4.5836
  169MPD1     C 2573   1.390   1.990   9.542 -0.1563  0.2445  0.7398
  169MPD1    C1 2574   1.293   1.975   9.638 -0.1372  0.7477  0.3713
  169MPD1    C2 2575   1.211   2.085   9.661  0.3981  0.1259 -0.3963
  169MPD1    C3 2576   1.237   2.202   9.605 -0.5681  1.1250  0.1854
  169MPD1    C4 2577   1.349   2.221   9.530  0.4258  0.2648 -0.0484
  169MPD1    C5 2578   1.424   2.113   9.490  0.0137  0.5307 -0.5370
  169MPD1     H 2579   1.130   2.062   9.729  1.5480 -2.5294  0.0672
  169MPD1    H1 2580   1.380   2.313   9.483 -2.9266  0.5688 -1.6770
  169MPD1    H2 2581   1.440   1.903   9.501 -0.7508 -0.8309  2.3149
  169MPD1    H3 2582   1.504   2.129   9.418  1.2989  2.3578  1.3165
  169MPD1     N 2583   1.158   2.308   9.653 -0.2359 -0.0005  0.5657
  169MPD1    H5 2584   1.083   2.292   9.719  2.8176  1.1036  4.3399
  169MPD1    N1 2585   1.264   1.845   9.694 -0.6585  0.5704  0.0123
  169MPD1    H6 2586   1.206   1.848   9.777  1.2897  0.8841  1.3568
  169MPD1    H7 2587   1.343   1.783   9.716 -0.9689  0.2984  0.3588
  170MPD1     C 2588   4.125   1.948  13.110  0.4965 -0.4549  0.4435
  170MPD1    C1 2589   4.007   2.010  13.065 -0.0932 -0.0605  0.6298
  170MPD1    C2 2590   3.913   2.042  13.163 -0.1321 -0.5006 -0.6123
  170MPD1    C3 2591   3.930   2.012  13.299  0.3087 -0.0212 -0.9384
  170MPD1    C4 2592   4.049   1.955  13.334  0.0509  0.3026 -0.1681
  170MPD1    C5 2593   4.151   1.929  13.245 -0.0640  0.3807 -0.3775
  170MPD1     H 2594   3.820   2.080  13.123  0.5715 -0.6115 -2.3372
  170MPD1    H1 2595   4.068   1.945  13.440  1.9525  1.6188 -0.3848
  170MPD1    H2 2596   4.198   1.905  13.042  2.2472 -0.4032  2.2803
  170MPD1    H3 2597   4.246   1.892  13.282  0.6436 -0.9089 -3.4868
  170MPD1     N 2598   3.835   2.051  13.393  0.2794 -0.8906  0.6523
  170MPD1    H5 2599   3.757   2.105  13.356  2.2179  1.3202 -0.1907
  170MPD1    N1 2600   3.983   2.033  12.931 -0.0439 -0.1601 -0.3591
  170MPD1    H6 2601   4.071   2.045  12.881  1.0075 -3.7014  0.6740
  170MPD1    H7 2602   3.928   2.118  12.918  0.0343  0.1198  1.1954
  171MPD1     C 2603   1.744   3.239  15.222 -0.4759 -0.7126 -0.4199
  171MPD1    C1 2604   1.847   3.153  15.177 -0.0591 -0.1248  0.3544
  171MPD1    C2 2605   1.913   3.082  15.279 -0.7670  0.8692 -0.3460
  171MPD1    C3 2606   1.876   3.091  15.417  1.0161 -0.4541 -0.5354
  171MPD1    C4 2607   1.773   3.178  15.448 -0.1765  0.0290  0.3814
  171MPD1    C5 2608   1.721   3.254  15.353  0.2046  1.0167  0.0047
  171MPD1     H 2609   1.985   3.007  15.249  1.4411  1.8686  2.4824
  171MPD1    H1 2610   1.741   3.194  15.550 -0.8330 -1.9416  0.4777
  171MPD1    H2 2611   1.694   3.312  15.159 -1.8042 -0.4631  0.9303
  171MPD1    H3 2612   1.649   3.331  15.378 -2.2625 -1.5177  0.7745
  171MPD1     N 2613   1.925   3.011  15.517  0.6518 -0.0465 -0.1170
  171MPD1    H5 2614   1.874   3.009  15.605  1.0566 -1.2959  0.0932
  171MPD1    N1 2615   1.868   3.130  15.039 -0.9283 -0.5611  0.0483
  171MPD1    H6 2616   1.852   3.218  14.990  0.1727 -1.0335 -1.1454
  171MPD1    H7 2617   1.955   3.086  15.011 -1.1850  0.0151 -1.6400
  172MPD1     C 2618   0.737   2.677   0.930 -0.0107 -0.6351 -0.5002
  172MPD1    C1 2619   0.817   2.579   0.868  0.3573 -0.5185  0.3217
  172MPD1    C2 2620   0.951   2.606   0.849  0.3468  0.1590 -0.6276
  172MPD1    C3 2621   1.015   2.714   0.910 -0.2701 -0.7503 -0.7518
  172MPD1    C4 2622   0.937   2.800   0.979 -0.9196  0.6737 -0.3239
  172MPD1    C5 2623   0.799   2.784   0.989 -0.1068 -0.4558  0.1273
  172MPD1     H 2624   1.007   2.537   0.787  0.0281 -0.9589  0.3263
  172MPD1    H1 2625   0.994   2.883   1.018  0.6522  0.5267 -2.3152
  172MPD1    H2 2626   0.631   2.659   0.945 -0.1923 -0.1969 -1.2410
  172MPD1    H3 2627   0.738   2.866   1.026 -1.6212 -0.9789 -1.2419
  172MPD1     N 2628   1.143   2.758   0.883 -0.1109  0.6015 -0.3682
  172MPD1    H5 2629   1.181   2.834   0.939  2.0506 -1.0352  0.4077
  172MPD1    N1 2630   0.762   2.487   0.780  0.3461 -0.2641 -0.4876
  172MPD1    H6 2631   0.669   2.462   0.813  0.5529 -0.1803  0.1766
  172MPD1    H7 2632   0.825   2.410   0.758 -0.0408 -1.1591  1.5547
  173MPD1     C 2633   2.952   2.468  13.678  0.1722  0.1714 -0.8601
  173MPD1    C1 2634   2.831   2.467  13.730  0.2549  0.3906  0.4961
  173MPD1    C2 2635   2.818   2.418  13.854 -0.4925  0.0268 -0.2084
  173MPD1    C3 2636   2.919   2.370  13.933 -0.2314  0.4292  0.6916
  173MPD1    C4 2637   3.049   2.382  13.878  0.0287 -0.1493  0.0379
  173MPD1    C5 2638   3.061   2.431  13.753  0.1075 -0.1528 -0.3450
  173MPD1     H 2639   2.714   2.404  13.883 -0.2266 -0.2848  0.5840
  173MPD1    H1 2640   3.140   2.358  13.931  0.3523  1.7585  0.3396
  173MPD1    H2 2641   2.974   2.492  13.574 -0.7438  1.3623 -0.7632
  173MPD1    H3 2642   3.157   2.449  13.708 -0.1183 -0.7487 -1.0665
  173MPD1     N 2643   2.891   2.315  14.061  0.0361  0.1275  0.5868
  173MPD1    H5 2644   2.795   2.318  14.094 -0.4060  1.2598 -0.8287
  173MPD1    N1 2645   2.717   2.481  13.652 -0.3053 -0.0064  0.2173
  173MPD1    H6 2646   2.632   2.501  13.704 -1.0911 -0.2208 -0.9902
  173MPD1    H7 2647   2.725   2.549  13.576  1.0186  0.3166  0.6545
  174MPD1     C 2648   3.501   1.959  14.867  0.3296  0.3391  0.4498
  174MPD1    C1 2649   3.511   1.949  14.730 -0.3450 -0.3105  0.0165
  174MPD1    C2 2650   3.402   1.980  14.655  0.5093  0.3261 -0.0257
  174MPD1    C3 2651   3.281   2.008  14.717  0.4239  0.4632 -0.2952
  174MPD1    C4 2652   3.272   2.011  14.853 -0.5878 -0.1174  0.4393
  174MPD1    C5 2653   3.383   1.995  14.928 -0.3863 -0.4289  0.3634
  174MPD1     H 2654   3.418   1.986  14.548 -1.7530  2.3610 -0.2505
  174MPD1    H1 2655   3.189   2.050  14.910 -1.3287 -2.3140  0.8787
  174MPD1    H2 2656   3.587   1.952  14.933 -0.7137 -0.3916  1.7270
  174MPD1    H3 2657   3.377   2.014  15.035  1.6340  1.0516  0.2134
  174MPD1     N 2658   3.162   2.042  14.644 -0.0289  0.3026 -0.0371
  174MPD1    H5 2659   3.087   2.091  14.691 -0.5395 -0.1860 -0.3436
  174MPD1    N1 2660   3.648   1.954  14.687 -0.0711  0.6015  0.1602
  174MPD1    H6 2661   3.672   1.911  14.597 -1.2485 -0.0466  0.1636
  174MPD1    H7 2662   3.714   1.917  14.756 -1.6542 -1.2092  0.7081
  175MPD1     C 2663   1.551   3.262  15.712  0.2445  0.3369  0.3577
  175MPD1    C1 2664   1.444   3.182  15.684  0.2053 -0.0811  0.8061
  175MPD1    C2 2665   1.381   3.122  15.793 -0.5799  0.2142  0.2074
  175MPD1    C3 2666   1.437   3.122  15.922 -0.7923 -0.4513 -0.2037
  175MPD1    C4 2667   1.551   3.198  15.941 -0.3714  0.1680 -0.0494
  175MPD1    C5 2668   1.610   3.263  15.839 -0.3849  0.2620  0.6614
  175MPD1     H 2669   1.287   3.069  15.780 -1.3631  1.9544 -1.2264
  175MPD1    H1 2670   1.596   3.207  16.039  2.5701  0.4880 -1.4405
  175MPD1    H2 2671   1.584   3.336  15.639 -0.4363  1.3965  1.1323
  175MPD1    H3 2672   1.702   3.319  15.850 -0.2736  0.2617 -0.2303
  175MPD1     N 2673   1.379   3.065  16.040  0.2004 -0.1083 -0.1180
  175MPD1    H5 2674   1.435   3.068  16.125  0.4889 -2.6555 -0.2339
  175MPD1    N1 2675   1.375   3.206  15.570 -0.5962 -0.5682 -0.0271
  175MPD1    H6 2676   1.312   3.128  15.555 -0.4899 -0.8199  0.8620
  175MPD1    H7 2677   1.428   3.201  15.483  0.3170 -1.6073  0.5958
  176MPD1     C 2678   2.978   0.788   0.719  0.1526  0.5729  0.3091
  176MPD1    C1 2679   3.027   0.900   0.779  0.0129 -0.9833  1.0325
  176MPD1    C2 2680   3.049   1.011   0.698  0.6305 -0.2929 -0.6385
  176MPD1    C3 2681   3.030   1.011   0.566 -0.6511  0.2634 -0.2631
  176MPD1    C4 2682   2.994   0.891   0.507  0.3492  0.3895  0.2714
  176MPD1    C5 2683   2.964   0.781   0.582 -0.4528 -0.2920  0.3170
  176MPD1     H 2684   3.074   1.103   0.750  0.7091 -0.7531  0.1362
  176MPD1    H1 2685   2.987   0.883   0.400 -1.8033  0.6159  0.3896
  176MPD1    H2 2686   2.938   0.709   0.781  0.4995  0.5860  0.5481
  176MPD1    H3 2687   2.929   0.698   0.522  1.2684 -0.1260 -0.9395
  176MPD1     N 2688   3.051   1.134   0.488  0.4014 -0.1996  0.1449
  176MPD1    H5 2689   3.086   1.212   0.542 -0.8565  0.7568 -0.4211
  176MPD1    N1 2690   3.021   0.911   0.914  0.3796  0.2916 -0.4555
  176MPD1    H6 2691   3.038   0.818   0.951  0.3353  0.6819  0.5316
  176MPD1    H7 2692   3.096   0.969   0.951 -1.2614  2.0283  0.1519
  177MPD1     C 2693   0.878   3.871  10.594 -0.4841  0.5638  0.3267
  177MPD1    C1 2694   0.804   3.828  10.486 -0.0811 -0.6903  0.0561
  177MPD1    C2 2695   0.806   3.901  10.373  0.4822  0.2196  0.6634
  177MPD1    C3 2696   0.894   4.009  10.361 -0.1041  0.1894 -0.0125
  177MPD1    C4 2697   0.973   4.053  10.468  0.0505 -0.0369 -0.1664
  177MPD1    C5 2698   0.958   3.980  10.582 -0.2122  0.5272  0.6987
  177MPD1     H 2699   0.736   3.881  10.292  2.4506 -2.4236 -0.3799
  177MPD1    H1 2700   1.037   4.140  10.461  1.2977 -0.9603 -0.1342
  177MPD1    H2 2701   0.874   3.821  10.690 -0.5697 -2.5080 -1.2774
  177MPD1    H3 2702   1.026   4.004  10.663 -0.1141 -2.6540  1.5771
  177MPD1     N 2703   0.911   4.065  10.236 -0.1104  0.3452 -0.1312
  177MPD1    H5 2704   0.862   4.027  10.156 -0.1534  1.0344 -0.4334
  177MPD1    N1 2705   0.701   3.733  10.501 -0.3193 -0.1331  0.1631
  177MPD1    H6 2706   0.672   3.689  10.414  1.5286 -0.9393 -0.0591
  177MPD1    H7 2707   0.705   3.667  10.579  1.8425  0.8156  0.8719
  178MPD1     C 2708   3.498   1.423   0.040 -0.8820  0.4352  0.1637
  178MPD1    C1 2709   3.511   1.546  17.682 -0.8177 -0.6503  0.4528
  178MPD1    C2 2710   3.579   1.548  17.561  1.1604 -0.1471  0.1911
  178MPD1    C3 2711   3.636   1.440  17.509  0.2815  0.0269  0.0727
  178MPD1    C4 2712   3.611   1.321  17.567 -0.5439  0.3757 -0.8969
  178MPD1    C5 2713   3.549   1.306  17.690 -0.2143 -0.9395 -0.0510
  178MPD1     H 2714   3.581   1.644  17.510  2.2020 -0.4135 -0.2652
  178MPD1    H1 2715   3.665   1.234  17.529 -0.0928 -0.2012  1.0701
  178MPD1    H2 2716   3.454   1.423   0.139 -0.9827  3.7957  0.1099
  178MPD1    H3 2717   3.545   1.209   0.035 -0.5241 -1.1240 -0.4392
  178MPD1     N 2718   3.720   1.450  17.393 -0.2620  0.2831 -0.0857
  178MPD1    H5 2719   3.740   1.360  17.351  0.0805 -0.6820  2.1664
  178MPD1    N1 2720   3.432   1.657   0.018  0.5999 -0.5322  0.3823
  178MPD1    H6 2721   3.416   1.662   0.118 -0.8143  1.1008  0.0758
  178MPD1    H7 2722   3.465   1.748  17.690  0.4554 -0.9993 -1.1076
  179MPD1     C 2723   2.037   4.447  16.538 -1.0643  0.3239  0.1664
  179MPD1    C1 2724   2.138   4.479  16.450 -0.0185 -0.3529  0.1264
  179MPD1    C2 2725   2.215   4.378  16.401 -0.3258  0.0286 -0.0117
  179MPD1    C3 2726   2.172   4.247  16.420  0.0511  0.3705 -0.0884
  179MPD1    C4 2727   2.060   4.219  16.499  0.0274  0.2490 -0.2892
  179MPD1    C5 2728   1.990   4.319  16.556  0.0452  0.0613  0.4806
  179MPD1     H 2729   2.298   4.396  16.333  0.1758 -1.3505  0.2387
  179MPD1    H1 2730   2.040   4.119  16.535 -2.9224  0.9356 -0.0070
  179MPD1    H2 2731   1.995   4.531  16.593 -1.2352  0.1952  0.2322
  179MPD1    H3 2732   1.907   4.309  16.625 -0.6071  0.2109 -0.2854
  179MPD1     N 2733   2.246   4.131  16.368 -0.7514 -1.0880 -0.1409
  179MPD1    H5 2734   2.193   4.045  16.376 -1.7267 -0.4030  0.6568
  179MPD1    N1 2735   2.170   4.614  16.430 -0.2678 -0.0657  0.1547
  179MPD1    H6 2736   2.229   4.651  16.355 -0.3675  2.4537  1.2969
  179MPD1    H7 2737   2.096   4.683  16.445 -0.2885  0.0811 -0.6393
  180MPD1     C 2738   3.599   1.124  15.362 -0.6072 -0.4068  0.3263
  180MPD1    C1 2739   3.613   1.099  15.234 -0.1982 -0.1350 -0.1805
  180MPD1    C2 2740   3.511   1.041  15.160 -0.2064 -0.7116 -0.6823
  180MPD1    C3 2741   3.398   0.992  15.221 -0.2297 -0.0226 -0.1753
  180MPD1    C4 2742   3.399   0.991  15.364  0.1338  0.1992 -0.1462
  180MPD1    C5 2743   3.493   1.064  15.430  0.1621 -0.0003 -0.4275
  180MPD1     H 2744   3.520   1.061  15.054 -2.6292  3.3613 -0.1405
  180MPD1    H1 2745   3.320   0.959  15.431  1.1202  0.2573  1.0289
  180MPD1    H2 2746   3.675   1.174  15.422 -1.9437  0.5089  1.2599
  180MPD1    H3 2747   3.490   1.079  15.537 -0.4477  0.2702 -0.4841
  180MPD1     N 2748   3.293   0.941  15.138 -0.2255 -0.1462 -0.2038
  180MPD1    H5 2749   3.313   0.930  15.040 -0.7127 -3.7452  0.0947
  180MPD1    N1 2750   3.723   1.166  15.172 -0.1786 -0.3109  0.4645
  180MPD1    H6 2751   3.800   1.190  15.234  1.7675 -2.7590 -1.0300
  180MPD1    H7 2752   3.757   1.118  15.089  2.4610 -1.1388  2.0170
  181MPD1     C 2753   4.478   1.225  10.237 -0.0286 -0.7204 -0.0313
  181MPD1    C1 2754   4.506   1.347  10.183  0.7710 -0.5802 -0.2592
  181MPD1    C2 2755   4.599   1.355  10.075 -0.2466  0.2579  0.4878
  181MPD1    C3 2756   4.676   1.247  10.039  0.2486  0.6931  0.0743
  181MPD1    C4 2757   4.644   1.133  10.104 -0.1999 -0.2866  0.1326
  181MPD1    C5 2758   4.538   1.120  10.188  0.0728  0.1600  0.5615
  181MPD1     H 2759   4.609   1.451  10.026  2.6248 -0.6560 -0.7189
  181MPD1    H1 2760   4.693   1.040  10.076 -1.1778 -1.2344  1.5296
  181MPD1    H2 2761   4.404   1.204  10.314 -1.9396  1.1001 -1.3701
  181MPD1    H3 2762   4.521   1.021  10.228 -1.6127 -0.3645 -1.4953
  181MPD1     N 2763   0.045   1.240   9.937  0.5449  0.8251 -0.5462
  181MPD1    H5 2764   0.085   1.149   9.915  1.1916  0.6735  1.2467
  181MPD1    N1 2765   4.429   1.459  10.218  0.1928  0.0265  0.0373
  181MPD1    H6 2766   4.478   1.537  10.175 -0.9462  0.5764 -0.2561
  181MPD1    H7 2767   4.427   1.463  10.320  1.6111  0.2877  0.0566
  182MPD1     C 2768   1.668   2.299   1.645  0.0507  0.0368  0.1239
  182MPD1    C1 2769   1.706   2.239   1.535  0.4317  0.7011  0.2223
  182MPD1    C2 2770   1.636   2.267   1.415 -0.0581  0.6918 -0.0209
  182MPD1    C3 2771   1.529   2.359   1.412 -0.8027  0.1551 -0.5458
  182MPD1    C4 2772   1.489   2.414   1.537 -0.5650  0.7746  0.4190
  182MPD1    C5 2773   1.562   2.391   1.647 -0.0510 -1.1985 -0.5495
  182MPD1     H 2774   1.656   2.216   1.322 -1.9064  1.1969 -0.7062
  182MPD1    H1 2775   1.411   2.487   1.554 -1.3919  0.7273 -3.1799
  182MPD1    H2 2776   1.712   2.285   1.743  0.3263 -0.1211 -0.0216
  182MPD1    H3 2777   1.518   2.422   1.741  1.0206 -0.7776 -0.1887
  182MPD1     N 2778   1.455   2.406   1.298  0.6335 -0.6568 -0.0352
  182MPD1    H5 2779   1.372   2.450   1.337 -0.4832 -1.3792 -1.5524
  182MPD1    N1 2780   1.821   2.157   1.539 -0.0011  0.7016 -0.1749
  182MPD1    H6 2781   1.864   2.127   1.451 -1.0857 -4.9389  1.2426
  182MPD1    H7 2782   1.885   2.158   1.618 -1.5045 -1.2406  1.0544
  183MPD1     C 2783   2.209   1.936   9.415 -0.0927  0.0197 -0.5578
  183MPD1    C1 2784   2.181   1.847   9.507 -0.4420  0.8001  0.5066
  183MPD1    C2 2785   2.079   1.874   9.598 -0.0656  0.4043  0.3202
  183MPD1    C3 2786   1.994   1.981   9.583  0.0419 -0.0281  0.2971
  183MPD1    C4 2787   2.016   2.066   9.477 -0.3400  0.2022  0.0200
  183MPD1    C5 2788   2.126   2.047   9.399 -0.6059 -0.0719  0.2894
  183MPD1     H 2789   2.062   1.804   9.679  1.3423  0.2813  0.4999
  183MPD1    H1 2790   1.959   2.156   9.458  0.7368  0.6097 -1.2341
  183MPD1    H2 2791   2.292   1.922   9.347  0.2969 -0.6777  0.0739
  183MPD1    H3 2792   2.154   2.122   9.326 -1.1185 -0.5911 -0.4311
  183MPD1     N 2793   1.875   1.993   9.665  0.3073 -0.0139 -0.0341
  183MPD1    H5 2794   1.866   1.925   9.739 -2.7745  1.8406  1.2785
  183MPD1    N1 2795   2.268   1.743   9.537 -0.8410 -0.2887  0.7390
  183MPD1    H6 2796   2.215   1.668   9.581 -0.9813  0.5933  2.0407
  183MPD1    H7 2797   2.297   1.697   9.451 -0.0336  0.3697  0.6665
  184MPD1     C 2798   0.171   3.499  10.711 -0.3458  0.5737  0.0356
  184MPD1    C1 2799   0.160   3.424  10.597 -0.4089  0.3682 -0.0874
  184MPD1    C2 2800   0.214   3.467  10.477  0.1533  0.1426  0.3347
  184MPD1    C3 2801   0.275   3.587  10.472  0.2219  0.2358 -0.1573
  184MPD1    C4 2802   0.280   3.663  10.586 -0.6336 -0.4057  0.2531
  184MPD1    C5 2803   0.233   3.619  10.705 -0.4583  0.3021  0.2517
  184MPD1     H 2804   0.207   3.398  10.394 -0.7032 -2.0731  2.2313
  184MPD1    H1 2805   0.314   3.766  10.586 -0.1878 -0.5491 -0.7646
  184MPD1    H2 2806   0.128   3.469  10.806 -0.8177  1.3366  0.0629
  184MPD1    H3 2807   0.235   3.680  10.794 -0.9260  3.0476 -1.6338
  184MPD1     N 2808   0.337   3.644  10.355 -0.4785 -0.3776  0.3805
  184MPD1    H5 2809   0.382   3.735  10.362 -0.7469 -0.0736 -1.9297
  184MPD1    N1 2810   0.112   3.293  10.593  0.0244  0.1810 -0.4626
  184MPD1    H6 2811   0.062   3.269  10.678  0.1558  2.1956  0.1799
  184MPD1    H7 2812   0.064   3.272  10.506  1.5368 -3.9487 -0.3034
  185MPD1     C 2813   0.518   3.254   9.440 -0.8685 -0.1729  0.2637
  185MPD1    C1 2814   0.537   3.390   9.432 -0.4282 -0.3850  0.5373
  185MPD1    C2 2815   0.517   3.465   9.546  0.0310  0.4381 -0.3753
  185MPD1    C3 2816   0.468   3.419   9.665  0.8483  0.4653 -0.3090
  185MPD1    C4 2817   0.441   3.287   9.673 -0.6497  0.1785  0.2316
  185MPD1    C5 2818   0.469   3.206   9.562  0.3343 -0.5211 -0.2375
  185MPD1     H 2819   0.550   3.568   9.544  0.4367  0.2937 -1.4170
  185MPD1    H1 2820   0.405   3.241   9.764 -0.6771 -1.3976 -0.5759
  185MPD1    H2 2821   0.539   3.189   9.356 -0.9713 -2.3294  1.8909
  185MPD1    H3 2822   0.448   3.099   9.564 -4.6287  0.4061 -1.3087
  185MPD1     N 2823   0.457   3.502   9.780  0.0747 -0.5909 -0.4428
  185MPD1    H5 2824   0.425   3.454   9.864 -1.6405  2.5319  0.6762
  185MPD1    N1 2825   0.598   3.450   9.321  0.1591  0.0635  0.1019
  185MPD1    H6 2826   0.591   3.551   9.327  0.0310  0.2094 -2.7751
  185MPD1    H7 2827   0.551   3.421   9.236  1.6171  1.3317 -1.1119
  186MPD1     C 2828   3.834   3.649  16.292  0.3825 -0.2554 -0.0818
  186MPD1    C1 2829   3.913   3.750  16.233 -0.3082 -0.3058  0.1492
  186MPD1    C2 2830   3.902   3.877  16.278 -0.1909  0.2788  0.9120
  186MPD1    C3 2831   3.811   3.909  16.376 -0.2046  0.6511  0.6935
  186MPD1    C4 2832   3.715   3.819  16.410  0.2578 -1.1115  0.4582
  186MPD1    C5 2833   3.733   3.686  16.378 -0.1634  0.0163  0.1745
  186MPD1     H 2834   3.965   3.951  16.229  0.5054 -0.7761  0.2169
  186MPD1    H1 2835   3.636   3.852  16.476 -1.1842 -0.4300 -1.6165
  186MPD1    H2 2836   3.834   3.545  16.262  1.2186 -0.6660  1.3568
  186MPD1    H3 2837   3.668   3.612  16.423 -1.4305  1.5998  0.9460
  186MPD1     N 2838   3.803   4.045  16.431  0.6131 -0.2353 -0.3250
  186MPD1    H5 2839   3.740   4.050  16.511  1.4385  0.6099  0.2763
  186MPD1    N1 2840   4.007   3.724  16.131  0.1734  0.1173 -0.3407
  186MPD1    H6 2841   4.061   3.810  16.123 -2.2022  1.6336 -0.0373
  186MPD1    H7 2842   4.073   3.655  16.167 -0.0472  0.2868  0.3829
  187MPD1     C 2843   2.781   1.288   0.603 -0.1784 -0.1792 -0.3200
  187MPD1    C1 2844   2.851   1.410   0.596  0.4754  0.5914  0.1510
  187MPD1    C2 2845   2.835   1.495   0.487 -0.8352 -0.2788 -0.2489
  187MPD1    C3 2846   2.756   1.449   0.383  0.4506  0.0782 -0.8070
  187MPD1    C4 2847   2.683   1.327   0.396 -0.1828  0.1919  0.5046
  187MPD1    C5 2848   2.694   1.248   0.508  0.4760  0.4966  0.6347
  187MPD1     H 2849   2.893   1.587   0.481 -0.7551 -0.3161 -0.0417
  187MPD1    H1 2850   2.637   1.274   0.313  1.1416 -1.4757  0.8198
  187MPD1    H2 2851   2.792   1.213   0.680  1.7660  1.3039  0.8382
  187MPD1    H3 2852   2.642   1.153   0.505  1.3769  0.0080  0.4654
  187MPD1     N 2853   2.745   1.528   0.266 -0.2909  0.2352  0.0208
  187MPD1    H5 2854   2.686   1.489   0.193 -0.1406  3.3865 -1.7912
  187MPD1    N1 2855   2.941   1.451   0.694 -0.3482  0.1512 -0.7152
  187MPD1    H6 2856   2.959   1.390   0.774 -1.3639 -0.8512 -1.2526
  187MPD1    H7 2857   2.924   1.546   0.725 -1.0906  0.1561 -1.1339
  188MPD1     C 2858   2.555   1.145  10.167  0.1139  0.3570 -0.3387
  188MPD1    C1 2859   2.631   1.082  10.261  0.4503  0.1245 -0.2048
  188MPD1    C2 2860   2.590   0.959  10.307 -0.7129 -0.3082 -0.2096
  188MPD1    C3 2861   2.481   0.891  10.247 -0.0784 -0.4750 -0.3006
  188MPD1    C4 2862   2.415   0.953  10.146 -0.1194  0.1884 -0.1624
  188MPD1    C5 2863   2.449   1.081  10.106 -0.3808  0.5802 -0.5213
  188MPD1     H 2864   2.648   0.921  10.390 -1.8493 -0.7679  0.3770
  188MPD1    H1 2865   2.328   0.911  10.095  1.7181 -0.3440 -2.8465
  188MPD1    H2 2866   2.558   1.252  10.147  0.5696  0.5081  0.5416
  188MPD1    H3 2867   2.388   1.137  10.036  1.9488  2.0904 -1.3482
  188MPD1     N 2868   2.437   0.761  10.284  1.1485 -0.2639 -0.3491
  188MPD1    H5 2869   2.374   0.715  10.220  3.1247 -3.2726 -0.1471
  188MPD1    N1 2870   2.720   1.162  10.328  0.1028 -0.0082 -0.6636
  188MPD1    H6 2871   2.804   1.118  10.365 -1.4033 -2.8849 -0.6565
  188MPD1    H7 2872   2.748   1.242  10.271  3.1610 -1.9815 -1.9401
  189MPD1     C 2873   4.628   2.017   1.117  0.2214 -0.0302  0.1906
  189MPD1    C1 2874   4.504   1.971   1.145 -0.4250 -0.0300  0.3222
  189MPD1    C2 2875   4.395   2.026   1.080 -0.4175 -0.2440  0.0365
  189MPD1    C3 2876   4.408   2.134   0.999 -0.5907 -0.2358 -0.1285
  189MPD1    C4 2877   4.534   2.176   0.966  0.5272  0.5696  0.1823
  189MPD1    C5 2878   4.646   2.124   1.028  0.2120  0.2555 -0.0617
  189MPD1     H 2879   4.292   1.993   1.086 -0.3978 -0.3046  0.0417
  189MPD1    H1 2880   4.551   2.254   0.893 -1.4467  1.3585  0.5480
  189MPD1    H2 2881   4.712   1.963   1.161 -0.4519 -1.7507 -0.6371
  189MPD1    H3 2882   0.020   2.162   1.007 -0.5576  0.8328 -2.5437
  189MPD1     N 2883   4.286   2.189   0.941  0.3534  0.3220  0.1016
  189MPD1    H5 2884   4.204   2.132   0.957  0.2526 -0.0387 -1.6920
  189MPD1    N1 2885   4.483   1.853   1.217 -0.1573 -0.5269  0.6427
  189MPD1    H6 2886   4.398   1.853   1.272  0.6000  0.6137  1.7941
  189MPD1    H7 2887   4.563   1.818   1.269 -1.6236 -1.8796  2.0076
  190MPD1     C 2888   3.012   0.511  15.462  0.1273  0.0437 -0.2291
  190MPD1    C1 2889   3.123   0.508  15.386  0.2556  0.1736  0.3627
  190MPD1    C2 2890   3.233   0.587  15.425 -1.0411 -0.5794  0.0183
  190MPD1    C3 2891   3.220   0.674  15.532  0.0185  0.1277 -0.1633
  190MPD1    C4 2892   3.098   0.685  15.599 -0.0067 -0.3852 -0.0665
  190MPD1    C5 2893   3.001   0.600  15.566 -0.0719  0.2486 -0.5655
  190MPD1     H 2894   3.326   0.576  15.371 -2.2946  3.1192 -2.8778
  190MPD1    H1 2895   3.069   0.772  15.657 -2.1236  0.3096 -2.1442
  190MPD1    H2 2896   2.921   0.457  15.439  0.8878 -1.0264 -0.7359
  190MPD1    H3 2897   2.905   0.615  15.614  1.2245 -0.5830  2.3245
  190MPD1     N 2898   3.340   0.717  15.584 -0.1933  0.1575  0.3568
  190MPD1    H5 2899   3.422   0.702  15.526 -0.4755 -0.7703  0.1876
  190MPD1    N1 2900   3.135   0.415  15.278 -0.0418 -0.7058  0.4554
  190MPD1    H6 2901   3.215   0.439  15.219 -0.4749  1.1857  0.6246
  190MPD1    H7 2902   3.051   0.417  15.220  0.6594 -1.2173 -0.5608
  191MPD1     C 2903   3.984   1.416  12.084 -0.2671 -0.2513 -0.7679
  191MPD1    C1 2904   3.906   1.328  12.149 -0.6711 -0.4411  0.6487
  191MPD1    C2 2905   3.778   1.369  12.182 -0.2857  0.2120  0.3354
  191MPD1    C3 2906   3.726   1.491  12.144 -0.1979  0.2334 -0.0531
  191MPD1    C4 2907   3.811   1.585  12.088 -0.1228 -0.3087 -0.1918
  191MPD1    C5 2908   3.933   1.538  12.049  0.5907 -0.1002 -0.1433
  191MPD1     H 2909   3.720   1.295  12.236 -0.2190  0.5846  0.9209
  191MPD1    H1 2910   3.790   1.689  12.066  1.7569 -0.3210 -2.0810
  191MPD1    H2 2911   4.084   1.385  12.056  0.4745 -0.5545  2.2308
  191MPD1    H3 2912   3.999   1.608  11.999  0.1170  0.4703  0.0269
  191MPD1     N 2913   3.591   1.514  12.160  0.0479  0.1400  0.0796
  191MPD1    H5 2914   3.543   1.436  12.205 -0.5593  1.3078  1.4575
  191MPD1    N1 2915   3.944   1.196  12.175 -0.4521  0.4369 -0.2202
  191MPD1    H6 2916   3.868   1.130  12.192  0.8538 -1.0732 -0.2595
  191MPD1    H7 2917   4.003   1.166  12.097 -2.2972 -0.6112 -1.1995
  192MPD1     C 2918   2.955   0.973  12.448 -0.5617  0.0414  0.0162
  192MPD1    C1 2919   2.996   0.962  12.315 -0.2842  0.2949  0.7175
  192MPD1    C2 2920   3.046   1.078  12.252 -0.0268  0.3670 -0.8455
  192MPD1    C3 2921   3.026   1.202  12.308  0.4462  0.1724  0.8611
  192MPD1    C4 2922   2.964   1.207  12.436  0.5321  0.1209 -0.2888
  192MPD1    C5 2923   2.929   1.097  12.507 -0.8570 -0.1298 -0.1848
  192MPD1     H 2924   3.089   1.061  12.155 -0.0966  2.2094 -1.2092
  192MPD1    H1 2925   2.948   1.305  12.481 -0.3786 -0.5293  0.8156
  192MPD1    H2 2926   2.916   0.889  12.504  1.5102 -0.8834  0.0658
  192MPD1    H3 2927   2.871   1.105  12.598  1.3756 -1.6666  1.3733
  192MPD1     N 2928   3.066   1.323  12.241  0.7329  0.0726  0.5456
  192MPD1    H5 2929   3.035   1.407  12.288  1.1976 -0.7882  2.3865
  192MPD1    N1 2930   3.018   0.830  12.260  0.1507 -0.0798 -0.2659
  192MPD1    H6 2931   2.961   0.757  12.301  0.4497 -0.2045 -0.0699
  192MPD1    H7 2932   3.010   0.821  12.159  3.0269  1.4102 -0.6157
  193MPD1     C 2933   2.597   2.616  17.590 -0.5233  0.3382  0.1942
  193MPD1    C1 2934   2.586   2.745  17.638 -0.2894 -0.2275  0.4541
  193MPD1    C2 2935   2.603   2.841  17.540  0.5850 -0.0037 -0.2344
  193MPD1    C3 2936   2.630   2.820  17.410 -0.4403  0.0118  0.1857
  193MPD1    C4 2937   2.632   2.691  17.365  0.6554 -0.6624 -0.2193
  193MPD1    C5 2938   2.626   2.590  17.455 -0.3875 -0.2567 -0.5586
  193MPD1     H 2939   2.612   2.944  17.572  0.1024 -0.2081  0.5577
  193MPD1    H1 2940   2.646   2.683  17.258  0.3360 -1.1738 -0.2230
  193MPD1    H2 2941   2.587   2.532  17.657  0.8547 -0.0010 -0.0244
  193MPD1    H3 2942   2.653   2.492  17.418  3.0551  0.8374 -0.9965
  193MPD1     N 2943   2.645   2.918  17.307  0.1612 -0.1441 -0.0881
  193MPD1    H5 2944   2.686   2.903  17.216 -0.7872 -1.0280 -0.3646
  193MPD1    N1 2945   2.588   2.772   0.072  0.3015 -0.1309  0.2709
  193MPD1    H6 2946   2.547   2.698   0.129 -1.1989  1.1156  0.7931
  193MPD1    H7 2947   2.548   2.860   0.104  0.3931 -0.5816  1.6134
  194MPD1     C 2948   0.062   0.354  16.436 -0.5378  0.0410  0.0263
  194MPD1    C1 2949   0.086   0.393  16.567 -0.2733 -0.3426  0.3248
  194MPD1    C2 2950   0.118   0.291  16.655 -0.6146  0.0768 -0.4315
  194MPD1    C3 2951   0.115   0.162  16.621  0.0477  0.1430  0.4670
  194MPD1    C4 2952   0.071   0.122  16.498  0.5177  0.4346 -0.0472
  194MPD1    C5 2953   0.041   0.220  16.405 -0.7634  0.5068 -0.5233
  194MPD1     H 2954   0.139   0.325  16.756  0.0665 -2.7466  0.3775
  194MPD1    H1 2955   0.064   0.020  16.463  3.3893  0.3214 -0.3158
  194MPD1    H2 2956   0.054   0.422  16.351 -0.2685  1.7313  1.3469
  194MPD1    H3 2957   0.021   0.193  16.301 -1.1356 -2.0129  0.2050
  194MPD1     N 2958   0.142   0.064  16.717  0.0897 -0.2584 -0.3331
  194MPD1    H5 2959   0.131   4.692  16.692 -1.3196 -0.2963  0.4858
  194MPD1    N1 2960   0.091   0.526  16.608 -0.0239  0.8043  0.4285
  194MPD1    H6 2961   0.014   0.575  16.562 -0.6194  0.0159  0.5741
  194MPD1    H7 2962   0.079   0.531  16.709 -1.3624  1.1256  0.2605
  195MPD1     C 2963   3.411   1.643   2.083  0.1155  0.9211 -0.3353
  195MPD1    C1 2964   3.398   1.748   1.997 -0.6669  0.0789  0.0197
  195MPD1    C2 2965   3.367   1.724   1.867  0.0975  0.2581  0.6969
  195MPD1    C3 2966   3.365   1.597   1.819 -0.0570  0.4645  0.5165
  195MPD1    C4 2967   3.379   1.490   1.903 -0.4879  0.0849 -0.8269
  195MPD1    C5 2968   3.397   1.517   2.038 -0.2157 -0.0891 -0.0798
  195MPD1     H 2969   3.352   1.812   1.805 -0.1798 -0.3467 -0.0913
  195MPD1    H1 2970   3.376   1.390   1.862 -0.1840 -0.4456  0.4609
  195MPD1    H2 2971   3.438   1.651   2.187  1.7238  2.8579 -0.9024
  195MPD1    H3 2972   3.423   1.433   2.101  0.5878  1.2585  1.3819
  195MPD1     N 2973   3.333   1.578   1.679  0.0908  0.0824 -0.1029
  195MPD1    H5 2974   3.308   1.483   1.654 -0.4522  0.3684 -0.6405
  195MPD1    N1 2975   3.412   1.873   2.048 -0.0112 -0.0713  0.3307
  195MPD1    H6 2976   3.414   1.944   1.975 -2.4765  0.1443  0.4385
  195MPD1    H7 2977   3.477   1.884   2.125 -0.2788 -0.7926  0.6616
  196MPD1     C 2978   2.053   1.981  17.579  0.3358 -0.2500 -0.6293
  196MPD1    C1 2979   2.077   1.858  17.634  0.2271  0.2456 -0.5518
  196MPD1    C2 2980   2.060   1.849   0.061  0.3093  0.5860  0.1670
  196MPD1    C3 2981   2.051   1.964   0.135  0.5639  0.7256 -0.4803
  196MPD1    C4 2982   2.038   2.090   0.081  0.0520 -0.1661 -0.9019
  196MPD1    C5 2983   2.033   2.097  17.650 -0.3772 -0.4247 -0.0352
  196MPD1     H 2984   2.078   1.755   0.112  1.3144 -1.1375 -3.2805
  196MPD1    H1 2985   2.018   2.177   0.143 -2.3529 -0.7156 -0.8972
  196MPD1    H2 2986   2.047   1.994  17.472  0.3943  1.8179 -0.3853
  196MPD1    H3 2987   2.005   2.190  17.602  0.0552 -1.3915 -2.1646
  196MPD1     N 2988   2.066   1.963   0.280  0.3140 -0.3132 -0.1731
  196MPD1    H5 2989   2.046   2.049   0.329  0.4460 -0.9317  0.9747
  196MPD1    N1 2990   2.074   1.742  17.559 -0.1486  0.1541  0.8878
  196MPD1    H6 2991   2.142   1.688  17.611  0.4800 -0.4653 -0.5860
  196MPD1    H7 2992   2.109   1.743  17.463 -0.8385 -0.3990  0.6285
  197MPD1     C 2993   1.029   3.076   0.130 -0.0112  0.1601 -0.1090
  197MPD1    C1 2994   1.143   3.151   0.165  0.4878  0.5497 -0.2124
  197MPD1    C2 2995   1.194   3.239   0.071  0.7949 -0.2145  0.3161
  197MPD1    C3 2996   1.142   3.245  17.646  0.5217  0.7495  0.1193
  197MPD1    C4 2997   1.028   3.166  17.622  0.0559  0.2221 -0.0476
  197MPD1    C5 2998   0.973   3.080   0.006  0.3912  0.5709 -0.0895
  197MPD1     H 2999   1.286   3.295   0.082 -0.6555  1.9266  1.5298
  197MPD1    H1 3000   0.977   3.168  17.527  0.1408  0.5636 -0.0880
  197MPD1    H2 3001   0.988   3.010   0.206  1.6955  1.0133  1.5514
  197MPD1    H3 3002   0.883   3.030  17.674  1.0458  0.4677 -1.5693
  197MPD1     N 3003   1.194   3.332  17.545  0.0352 -0.5602  0.2018
  197MPD1    H5 3004   1.163   3.301  17.453  0.4074  0.4968 -0.2797
  197MPD1    N1 3005   1.196   3.155   0.297 -0.4660 -0.0150 -0.6894
  197MPD1    H6 3006   1.292   3.187   0.300 -0.3792 -0.1014 -2.4893
  197MPD1    H7 3007   1.178   3.075   0.358  1.8593 -0.2350 -0.3204
  198MPD1     C 3008   3.015   2.216  15.206  0.7002 -0.5773 -0.5798
  198MPD1    C1 3009   3.132   2.280  15.173  0.0939 -0.6987  0.1443
  198MPD1    C2 3010   3.201   2.355  15.266 -0.1126 -0.0538 -0.9690
  198MPD1    C3 3011   3.162   2.347  15.395  0.0335  0.2647 -1.3188
  198MPD1    C4 3012   3.052   2.275  15.429  0.0899 -0.4392 -0.0251
  198MPD1    C5 3013   2.966   2.221  15.338  0.7359  0.1746 -0.0898
  198MPD1     H 3014   3.294   2.404  15.238 -0.1698  0.6996  0.1891
  198MPD1    H1 3015   3.023   2.260  15.533  1.5023 -1.6474  0.2004
  198MPD1    H2 3016   2.967   2.143  15.142 -1.6455  0.4707  0.0136
  198MPD1    H3 3017   2.880   2.165  15.373 -1.7535  2.1835 -2.9044
  198MPD1     N 3018   3.254   2.406  15.487  0.5520  0.2866  0.2485
  198MPD1    H5 3019   3.328   2.463  15.447  0.3038  0.3157 -0.1724
  198MPD1    N1 3020   3.176   2.264  15.042 -0.1289 -0.1306 -0.4280
  198MPD1    H6 3021   3.261   2.312  15.014  0.0212 -1.3201 -2.0120
  198MPD1    H7 3022   3.126   2.215  14.968  0.5961 -0.1698 -0.8880
  199MPD1     C 3023   0.408   1.123   9.254 -0.1798  0.0601 -0.7310
  199MPD1    C1 3024   0.499   1.201   9.312  0.2626 -0.5639 -0.0521
  199MPD1    C2 3025   0.456   1.327   9.345  0.3829  0.6213  1.0029
  199MPD1    C3 3026   0.331   1.382   9.322  0.0802  0.0587  0.7241
  199MPD1    C4 3027   0.237   1.293   9.268  0.8429  0.1795 -0.1151
  199MPD1    C5 3028   0.279   1.169   9.229  0.3399 -0.1063  0.2230
  199MPD1     H 3029   0.530   1.395   9.385 -2.6434  3.0197  2.5342
  199MPD1    H1 3030   0.136   1.329   9.260  0.4925 -0.9222 -0.6661
  199MPD1    H2 3031   0.436   1.022   9.225  0.2387 -0.4557  1.4578
  199MPD1    H3 3032   0.209   1.101   9.183  1.4979 -0.6574 -0.7372
  199MPD1     N 3033   0.286   1.513   9.359  0.2931  0.1497  0.5805
  199MPD1    H5 3034   0.185   1.525   9.363  0.3894  1.5658 -1.2871
  199MPD1    N1 3035   0.637   1.158   9.318 -0.2866  1.1407 -0.6404
  199MPD1    H6 3036   0.676   1.179   9.410 -0.0157  1.6605 -0.8772
  199MPD1    H7 3037   0.640   1.057   9.310  0.0948  0.9785  1.3961
  200MPD1     C 3038   3.219   2.843  14.385 -0.1989 -0.2680  0.4035
  200MPD1    C1 3039   3.296   2.883  14.493 -1.0135 -0.1305 -0.5623
  200MPD1    C2 3040   3.419   2.819  14.511 -0.0574 -0.3737 -0.3979
  200MPD1    C3 3041   3.468   2.726  14.420 -0.0492 -0.2541 -0.7986
  200MPD1    C4 3042   3.384   2.689  14.317 -0.1646  0.0543  0.2851
  200MPD1    C5 3043   3.255   2.740  14.307  0.3719 -0.4204 -0.8738
  200MPD1     H 3044   3.482   2.855  14.592 -2.0707 -1.2531  1.5532
  200MPD1    H1 3045   3.414   2.617  14.242  0.6713  0.8625 -0.1404
  200MPD1    H2 3046   3.127   2.895  14.363  0.4726  0.6569 -0.2244
  200MPD1    H3 3047   3.183   2.693  14.241  0.7865 -1.2360 -0.7570
  200MPD1     N 3048   3.603   2.681  14.418 -0.5335 -0.2196  0.1744
  200MPD1    H5 3049   3.640   2.637  14.335 -1.5624 -0.6968 -0.0261
  200MPD1    N1 3050   3.263   2.989  14.575 -1.0295  0.1247 -0.1623
  200MPD1    H6 3051   3.241   3.067  14.513  0.4795  1.0013  0.4071
  200MPD1    H7 3052   3.328   3.012  14.650  1.3249 -1.4786 -1.7016
  201MPD1     C 3053   2.370   2.037  12.856 -0.1127  1.0328 -0.0110
  201MPD1    C1 3054   2.399   2.001  12.982  0.8459  0.4412 -0.0581
  201MPD1    C2 3055   2.348   1.884  13.028 -0.3223  0.4906 -0.0919
  201MPD1    C3 3056   2.259   1.802  12.963 -0.6578  0.2468 -0.3992
  201MPD1    C4 3057   2.232   1.839  12.830  0.3765  0.0561  0.0588
  201MPD1    C5 3058   2.292   1.953  12.782 -0.1010 -0.3758 -0.1723
  201MPD1     H 3059   2.362   1.862  13.134 -1.9447 -0.6327 -0.1065
  201MPD1    H1 3060   2.174   1.777  12.762 -0.1470  1.1814 -0.5212
  201MPD1    H2 3061   2.413   2.118  12.798 -1.2255  0.5620 -1.5196
  201MPD1    H3 3062   2.268   1.980  12.680 -0.0473 -1.5003 -0.4734
  201MPD1     N 3063   2.193   1.693  13.024  0.5001  0.5334 -0.1909
  201MPD1    H5 3064   2.237   1.655  13.108 -0.4904 -1.0932 -0.4091
  201MPD1    N1 3065   2.480   2.086  13.069 -0.6242  0.7828  0.4646
  201MPD1    H6 3066   2.541   2.142  13.009  0.0832 -1.1741 -0.6534
  201MPD1    H7 3067   2.545   2.028  13.120 -0.3970  0.0442 -0.6549
  202MPD1     C 3068   2.513   1.717  10.073 -0.5093 -0.0633  0.2179
  202MPD1    C1 3069   2.489   1.695  10.207  0.3391 -0.4095 -0.4096
  202MPD1    C2 3070   2.431   1.567  10.230 -0.6550 -0.3821  0.5989
  202MPD1    C3 3071   2.361   1.504  10.131  0.3333 -0.8984  0.5642
  202MPD1    C4 3072   2.369   1.546   9.997 -0.0273  0.0833  0.3856
  202MPD1    C5 3073   2.456   1.652   9.965 -0.6944 -0.1390 -0.4512
  202MPD1     H 3074   2.420   1.531  10.331  0.9588  0.3569  1.0388
  202MPD1    H1 3075   2.304   1.505   9.921  1.0694 -2.4064  0.7954
  202MPD1    H2 3076   2.575   1.803  10.052 -1.2329  0.7485  1.4462
  202MPD1    H3 3077   2.462   1.683   9.861  0.6875 -1.5066 -0.7731
  202MPD1     N 3078   2.280   1.389  10.153  0.5986 -0.0289  0.1220
  202MPD1    H5 3079   2.225   1.355  10.075 -0.7395  1.8502  0.2526
  202MPD1    N1 3080   2.580   1.754  10.293 -0.5122  0.5733  0.1308
  202MPD1    H6 3081   2.554   1.723  10.387  2.1109 -0.7178  0.4187
  202MPD1    H7 3082   2.674   1.716  10.283 -0.4019  0.7803  0.3817
  203MPD1     C 3083   4.484   1.599  12.995  0.0143  0.2256 -1.1064
  203MPD1    C1 3084   4.565   1.511  12.927 -0.3244 -0.3186  0.1659
  203MPD1    C2 3085   4.699   1.549  12.900  0.5132 -0.2455 -0.0294
  203MPD1    C3 3086   0.017   1.675  12.939  0.3774 -0.1685 -0.5453
  203MPD1    C4 3087   4.651   1.769  12.990  0.9503 -0.1695  0.0780
  203MPD1    C5 3088   4.526   1.722  13.021 -0.0791  0.4594  0.2540
  203MPD1     H 3089   0.038   1.469  12.867  0.2956 -0.6006  0.3996
  203MPD1    H1 3090   4.684   1.869  13.016 -0.2734  0.8462 -2.3249
  203MPD1    H2 3091   4.381   1.573  13.016  0.8802 -0.3759  2.2828
  203MPD1    H3 3092   4.454   1.779  13.079  0.2276  0.1666  0.9183
  203MPD1     N 3093   0.160   1.688  12.938  0.4562 -0.4406  0.0203
  203MPD1    H5 3094   0.207   1.603  12.909  0.6003 -1.3835  2.9982
  203MPD1    N1 3095   4.524   1.380  12.888  0.4505  0.1493 -0.8711
  203MPD1    H6 3096   4.423   1.371  12.892  0.6146 -0.2344  2.0151
  203MPD1    H7 3097   4.548   1.360  12.791 -1.3280 -0.2425 -1.2342
  204MPD1     C 3098   0.315   3.601   0.491 -0.8360 -0.2996 -0.0908
  204MPD1    C1 3099   0.327   3.464   0.493 -0.0883 -0.0704  0.2113
  204MPD1    C2 3100   0.272   3.384   0.395  0.1925 -0.4854  0.3486
  204MPD1    C3 3101   0.185   3.439   0.299  0.1148 -0.0615 -0.9727
  204MPD1    C4 3102   0.167   3.576   0.297 -0.3466  0.4838 -0.7096
  204MPD1    C5 3103   0.245   3.653   0.381 -0.2080 -0.0964 -0.3537
  204MPD1     H 3104   0.312   3.283   0.392 -0.0876 -0.5810 -0.1440
  204MPD1    H1 3105   0.097   3.627   0.232 -0.0085  0.9913 -0.6681
  204MPD1    H2 3106   0.355   3.660   0.573  0.6851 -3.5352  1.5322
  204MPD1    H3 3107   0.227   3.760   0.377  0.2783  0.0670  2.2567
  204MPD1     N 3108   0.120   3.345   0.216  0.0890  0.1218 -0.6341
  204MPD1    H5 3109   0.139   3.248   0.238 -0.3005  0.1679 -0.0953
  204MPD1    N1 3110   0.411   3.409   0.594 -0.5278  0.2745 -0.2560
  204MPD1    H6 3111   0.429   3.457   0.682  0.4055  1.8675 -1.3283
  204MPD1    H7 3112   0.422   3.310   0.613 -3.2740 -0.4352 -2.3438
  205MPD1     C 3113   0.160   1.621  17.260 -0.4720 -0.2194 -0.6260
  205MPD1    C1 3114   0.245   1.595  17.364 -0.5949 -0.7973  0.3169
  205MPD1    C2 3115   0.225   1.665  17.481  0.2329 -0.2923  0.0054
  205MPD1    C3 3116   0.129   1.766  17.485 -0.1528  0.2788 -0.0688
  205MPD1    C4 3117   0.042   1.793  17.375 -0.5074 -0.2328  0.5831
  205MPD1    C5 3118   0.061   1.718  17.268 -0.3777 -0.0299  0.0646
  205MPD1     H 3119   0.281   1.638  17.570 -0.1696  0.4209  0.4722
  205MPD1    H1 3120   4.687   1.865  17.374 -0.5282 -0.2227  3.4367
  205MPD1    H2 3121   0.156   1.565  17.167 -1.5060 -1.5126  0.1946
  205MPD1    H3 3122   4.711   1.736  17.193  0.2336 -0.9295 -0.7707
  205MPD1     N 3123   0.111   1.830  17.611 -0.0813  0.4312  0.2462
  205MPD1    H5 3124   0.187   1.808  17.675  0.4079  2.5071  0.4008
  205MPD1    N1 3125   0.344   1.490  17.351 -0.3829 -0.0388  0.6400
  205MPD1    H6 3126   0.388   1.502  17.260 -2.1200 -2.5018 -0.5005
  205MPD1    H7 3127   0.427   1.510  17.407  0.0335  2.1822 -0.7460
  206MPD1     C 3128   0.594   0.074  16.795  0.1901 -0.3199 -0.2719
  206MPD1    C1 3129   0.580   4.674  16.754  0.6646  0.3236 -0.7378
  206MPD1    C2 3130   0.526   4.649  16.627 -0.0984  0.1172  0.3372
  206MPD1    C3 3131   0.467   0.033  16.559 -0.5019 -0.0650 -0.2983
  206MPD1    C4 3132   0.467   0.155  16.622 -0.4239 -0.1093  0.0747
  206MPD1    C5 3133   0.519   0.176  16.743 -0.4546  0.1016  0.1147
  206MPD1     H 3134   0.544   4.559  16.570  0.2283 -0.3766  1.2364
  206MPD1    H1 3135   0.426   0.241  16.570  0.7148 -1.5014 -3.1678
  206MPD1    H2 3136   0.650   0.088  16.887 -1.6312  4.3220  0.1235
  206MPD1    H3 3137   0.514   0.271  16.796  0.7506 -0.1994  0.7764
  206MPD1     N 3138   0.413   0.034  16.433 -0.5331  0.0595  0.5769
  206MPD1    H5 3139   0.396   0.127  16.395 -2.7326 -0.0986  1.1792
  206MPD1    N1 3140   0.652   4.562  16.817 -0.5101 -0.3498 -0.0286
  206MPD1    H6 3141   0.661   4.572  16.918  2.1531 -1.8293 -0.1154
  206MPD1    H7 3142   0.614   4.469  16.804 -1.4323  0.1649 -1.0635
  207MPD1     C 3143   2.118   2.667  10.276 -0.4595 -0.3791  0.1758
  207MPD1    C1 3144   2.219   2.767  10.259  0.4266 -0.4242 -0.0309
  207MPD1    C2 3145   2.341   2.741  10.315 -0.0962  0.7628  0.4393
  207MPD1    C3 3146   2.374   2.610  10.357  0.3594 -0.3048 -0.2942
  207MPD1    C4 3147   2.275   2.513  10.374  0.9153 -0.1934  0.3544
  207MPD1    C5 3148   2.141   2.545  10.349  0.8172 -0.9091 -0.7351
  207MPD1     H 3149   2.417   2.817  10.303  0.5739  0.0144 -0.0408
  207MPD1    H1 3150   2.302   2.420  10.423  2.3603 -0.3591 -0.7467
  207MPD1    H2 3151   2.013   2.689  10.258 -0.5485  0.3018  1.5353
  207MPD1    H3 3152   2.066   2.477  10.387  2.5913 -0.8610  2.7806
  207MPD1     N 3153   2.510   2.570  10.379  0.7161 -0.6310 -0.3445
  207MPD1    H5 3154   2.532   2.474  10.406 -0.1400 -1.1957 -1.6674
  207MPD1    N1 3155   2.188   2.894  10.208 -0.0041 -0.3174 -0.1137
  207MPD1    H6 3156   2.267   2.950  10.178  0.1186 -1.1066 -1.2412
  207MPD1    H7 3157   2.118   2.894  10.134  0.4854 -2.4167 -0.5528
  208MPD1     C 3158   1.256   1.642  17.288 -0.4256  0.8420 -0.0238
  208MPD1    C1 3159   1.306   1.750  17.362  0.9224 -0.1243 -0.3470
  208MPD1    C2 3160   1.257   1.751  17.490 -0.1912 -0.1262  1.1072
  208MPD1    C3 3161   1.200   1.645  17.557  0.1280  0.6945  0.6926
  208MPD1    C4 3162   1.171   1.532  17.483 -0.0160  0.4980  0.1200
  208MPD1    C5 3163   1.197   1.536  17.353 -0.1981  0.1639  0.3873
  208MPD1     H 3164   1.284   1.840  17.545  0.7590  0.3369 -0.1074
  208MPD1    H1 3165   1.111   1.448  17.517  0.9118 -0.2981 -0.1820
  208MPD1    H2 3166   1.268   1.631  17.180  0.8118 -0.1315  0.2088
  208MPD1    H3 3167   1.173   1.453  17.288 -2.5542  0.2972  1.0787
  208MPD1     N 3168   1.159   1.658  17.688  0.4270 -0.4431 -0.2367
  208MPD1    H5 3169   1.190   1.743   0.031  2.5422 -0.7824 -1.0077
  208MPD1    N1 3170   1.351   1.866  17.297  0.3132  0.0575 -0.2571
  208MPD1    H6 3171   1.410   1.909  17.368 -0.4897  0.5151  0.1436
  208MPD1    H7 3172   1.420   1.845  17.226  2.0367  0.3952  1.3267
  209MPD1     C 3173   3.100   1.304  11.323 -0.6152 -0.6187  0.0945
  209MPD1    C1 3174   3.028   1.345  11.213 -0.3946  0.1382 -1.1368
  209MPD1    C2 3175   2.963   1.465  11.226  0.2303  0.1934 -0.1150
  209MPD1    C3 3176   2.973   1.553  11.337  0.2296 -0.1190  0.1424
  209MPD1    C4 3177   3.065   1.514  11.436 -0.6313 -0.4561  0.2148
  209MPD1    C5 3178   3.124   1.389  11.433 -0.9756 -0.4258 -0.0971
  209MPD1     H 3179   2.884   1.486  11.155 -1.3315 -0.1267  1.5173
  209MPD1    H1 3180   3.085   1.579  11.520  2.9504 -0.8212 -0.3544
  209MPD1    H2 3181   3.155   1.211  11.328  0.0718 -0.1515  1.4621
  209MPD1    H3 3182   3.188   1.353  11.512  0.8007  0.3041 -1.1964
  209MPD1     N 3183   2.900   1.668  11.345  0.4311  0.2212  0.5458
  209MPD1    H5 3184   2.843   1.693  11.265  2.7960 -0.0176 -1.2182
  209MPD1    N1 3185   3.001   1.255  11.110  0.1051 -0.5640 -0.2067
  209MPD1    H6 3186   3.067   1.181  11.090  0.3814 -0.2752 -0.3650
  209MPD1    H7 3187   2.978   1.302  11.023 -0.4154  0.5184  0.4998
  210MPD1     C 3188   2.750   2.676  11.800  0.5431 -0.3439 -0.0295
  210MPD1    C1 3189   2.808   2.555  11.842  0.1022 -0.7285  0.4620
  210MPD1    C2 3190   2.805   2.440  11.767  0.3381  0.1297 -1.1334
  210MPD1    C3 3191   2.763   2.445  11.637 -0.6429 -0.1789  0.1718
  210MPD1    C4 3192   2.712   2.565  11.592  0.0412 -0.3136  0.2184
  210MPD1    C5 3193   2.696   2.676  11.671  0.1548 -0.0831 -0.1239
  210MPD1     H 3194   2.854   2.351  11.806  0.4511 -0.4198 -2.5211
  210MPD1    H1 3195   2.675   2.584  11.492  0.0657 -0.3151  0.2091
  210MPD1    H2 3196   2.757   2.768  11.858  0.0644  0.4811 -1.2756
  210MPD1    H3 3197   2.633   2.755  11.632  1.0855  0.4731 -0.4981
  210MPD1     N 3198   2.760   2.336  11.547 -0.1962 -0.6551 -0.3387
  210MPD1    H5 3199   2.712   2.360  11.461 -1.5339 -1.6858  0.1196
  210MPD1    N1 3200   2.859   2.557  11.972 -0.1514 -0.1505  0.0884
  210MPD1    H6 3201   2.926   2.632  11.982  1.6266 -1.9113  1.4151
  210MPD1    H7 3202   2.909   2.469  11.986 -1.4708 -0.6358  1.8356
  211MPD1     C 3203   0.828   2.324  15.810 -0.6991 -0.1430  0.8790
  211MPD1    C1 3204   0.700   2.360  15.783  0.3464  0.1327 -0.5977
  211MPD1    C2 3205   0.612   2.370  15.888  0.1346  0.7447  0.0336
  211MPD1    C3 3206   0.645   2.351  16.016  0.4829 -0.0822  0.1698
  211MPD1    C4 3207   0.780   2.328  16.044  0.5627 -0.3625  0.3721
  211MPD1    C5 3208   0.871   2.307  15.939  0.2463 -0.2860 -0.1773
  211MPD1     H 3209   0.509   2.389  15.863  0.3495  1.8013 -0.0709
  211MPD1    H1 3210   0.828   2.315  16.140 -2.5631  0.8843  2.1366
  211MPD1    H2 3211   0.901   2.300  15.734 -1.2241 -0.7381  0.5593
  211MPD1    H3 3212   0.974   2.278  15.959  1.1400  2.7958 -0.2892
  211MPD1     N 3213   0.556   2.359  16.127 -0.0423 -0.1882  0.0480
  211MPD1    H5 3214   0.461   2.389  16.109  0.8482  1.1306 -2.4602
  211MPD1    N1 3215   0.651   2.350  15.654  0.0228  0.0054 -0.0044
  211MPD1    H6 3216   0.586   2.426  15.636  0.0647  0.2850  1.0373
  211MPD1    H7 3217   0.721   2.349  15.580 -2.8505  2.8456 -2.7507
  212MPD1     C 3218   4.604   1.129  16.626  0.2677 -0.5885  0.2538
  212MPD1    C1 3219   4.610   1.010  16.551 -0.3391 -0.0115 -0.9214
  212MPD1    C2 3220   4.589   0.889  16.619  0.3496 -0.0818  0.5866
  212MPD1    C3 3221   4.540   0.882  16.749  0.0319  0.3752  0.1347
  212MPD1    C4 3222   4.539   1.002  16.817 -0.2420  0.4915  0.5492
  212MPD1    C5 3223   4.572   1.119  16.755  0.2720 -0.2432 -0.0662
  212MPD1     H 3224   4.597   0.801  16.556 -0.3494  0.2158  0.0803
  212MPD1    H1 3225   4.517   1.009  16.923  1.7716 -0.6867  1.0614
  212MPD1    H2 3226   4.620   1.227  16.583 -0.3506 -0.9531 -0.8129
  212MPD1    H3 3227   4.579   1.210  16.813  1.1774  0.2345 -0.9074
  212MPD1     N 3228   4.495   0.760  16.811  0.3591 -1.2203 -0.3532
  212MPD1    H5 3229   4.471   0.764  16.909 -1.0359 -1.8073 -0.6703
  212MPD1    N1 3230   4.638   1.015  16.416  0.0426 -0.4414 -0.0119
  212MPD1    H6 3231   4.654   1.112  16.389 -0.8537 -0.1914  0.3420
  212MPD1    H7 3232   0.002   0.970  16.399  1.1210  2.1964 -1.2259
  213MPD1     C 3233   2.959   1.669  16.195 -0.0401 -0.3705  0.4561
  213MPD1    C1 3234   3.007   1.559  16.132  0.8925 -0.2415 -0.5437
  213MPD1    C2 3235   2.919   1.506  16.034  0.5546 -0.0111  0.2537
  213MPD1    C3 3236   2.788   1.556  16.013  0.0709  0.5417  0.4208
  213MPD1    C4 3237   2.747   1.668  16.080 -0.0519 -0.4323 -0.1086
  213MPD1    C5 3238   2.837   1.718  16.166  0.5258  0.0045 -0.4061
  213MPD1     H 3239   2.957   1.414  15.990  2.0883  0.9404 -0.4244
  213MPD1    H1 3240   2.648   1.708  16.061  0.0812  0.0324  0.1894
  213MPD1    H2 3241   3.032   1.720  16.257  0.6572  0.5523 -1.1288
  213MPD1    H3 3242   2.815   1.813  16.213 -1.2363 -0.7286  0.2520
  213MPD1     N 3243   2.711   1.466  15.933 -0.2215  0.2048 -1.1202
  213MPD1    H5 3244   2.750   1.375  15.912 -2.3642 -0.8537 -0.5814
  213MPD1    N1 3245   3.147   1.543  16.118  0.6285  0.3276  0.8137
  213MPD1    H6 3246   3.201   1.577  16.197  0.5374  2.5300 -0.0650
  213MPD1    H7 3247   3.176   1.449  16.093 -0.3082 -0.3776  2.3616
  214MPD1     C 3248   2.902   0.667  15.908  0.3224  0.8519  0.3075
  214MPD1    C1 3249   2.769   0.648  15.874 -0.2752  0.2606 -0.0287
  214MPD1    C2 3250   2.699   0.759  15.831  0.2028 -0.0357  0.0830
  214MPD1    C3 3251   2.758   0.883  15.816  0.0176  0.3278  0.4837
  214MPD1    C4 3252   2.892   0.894  15.848 -0.4759 -0.8990 -0.5696
  214MPD1    C5 3253   2.961   0.787  15.889 -0.0673 -0.1704 -0.4372
  214MPD1     H 3254   2.595   0.745  15.808  0.3888  0.9979 -1.3334
  214MPD1    H1 3255   2.945   0.988  15.836 -2.4643  0.8337  4.0271
  214MPD1    H2 3256   2.956   0.584  15.952  0.4269  0.5933 -0.3104
  214MPD1    H3 3257   3.063   0.800  15.922 -1.2124  0.6888  2.8500
  214MPD1     N 3258   2.681   0.997  15.801 -0.6772 -0.5006 -0.4340
  214MPD1    H5 3259   2.727   1.085  15.821 -1.3123 -0.6810  1.8541
  214MPD1    N1 3260   2.698   0.533  15.917 -0.4361  0.2194 -0.5938
  214MPD1    H6 3261   2.615   0.526  15.859  0.2552  1.3052 -1.7258
  214MPD1    H7 3262   2.760   0.454  15.902 -1.1659  0.0021 -2.4345
  215MPD1     C 3263   2.189   0.979  10.948  0.3091  0.4010 -0.5150
  215MPD1    C1 3264   2.101   1.075  10.993  0.3495  0.1178  0.1908
  215MPD1    C2 3265   2.149   1.194  11.045  0.2193  0.4462  0.1466
  215MPD1    C3 3266   2.283   1.208  11.054  0.4195 -0.9268 -0.1577
  215MPD1    C4 3267   2.374   1.112  11.011  0.4366 -0.0621 -0.9167
  215MPD1    C5 3268   2.328   0.996  10.960  0.1485  0.4212  0.2819
  215MPD1     H 3269   2.095   1.276  11.090 -2.3244 -0.6997 -0.7945
  215MPD1    H1 3270   2.481   1.127  11.020  0.4657 -1.3292  0.9934
  215MPD1    H2 3271   2.155   0.893  10.893  1.2864 -0.9543  1.0120
  215MPD1    H3 3272   2.402   0.921  10.933 -0.1972  0.6970 -1.4490
  215MPD1     N 3273   2.323   1.324  11.121 -0.3292 -0.1021 -0.5964
  215MPD1    H5 3274   2.250   1.385  11.157 -0.4477 -1.8636  2.2365
  215MPD1    N1 3275   1.966   1.042  11.007  0.0672  0.1657 -0.5142
  215MPD1    H6 3276   1.928   0.975  10.940 -0.4444  0.6803 -0.7381
  215MPD1    H7 3277   1.903   1.121  11.021 -0.2305 -0.0301 -0.7550
  216MPD1     C 3278   4.661   3.871  16.957  0.0734  0.1722 -0.3286
  216MPD1    C1 3279   4.602   3.785  17.043 -0.4078 -0.1570  0.0180
  216MPD1    C2 3280   4.475   3.829  17.086 -0.2649  0.6465 -0.1599
  216MPD1    C3 3281   4.407   3.933  17.022 -0.7675 -0.0196  0.6331
  216MPD1    C4 3282   4.466   4.004  16.915  0.8285  0.5824 -0.1285
  216MPD1    C5 3283   4.598   3.975  16.894  0.0969 -0.1846  0.8580
  216MPD1     H 3284   4.434   3.771  17.168  1.8191 -0.1341  0.3270
  216MPD1    H1 3285   4.416   4.083  16.861 -1.6721 -0.4210  0.7031
  216MPD1    H2 3286   0.040   3.863  16.931 -0.0419 -1.4550 -0.2752
  216MPD1    H3 3287   4.642   4.030  16.811  1.7932 -0.6839  1.4219
  216MPD1     N 3288   4.282   3.975  17.069 -0.3384 -1.0308  0.5541
  216MPD1    H5 3289   4.240   3.920  17.143  3.0354 -1.1931  2.3215
  216MPD1    N1 3290   4.678   3.689  17.117  0.0187 -0.2668  0.1954
  216MPD1    H6 3291   4.614   3.615  17.143  0.6559 -0.8720  0.0499
  216MPD1    H7 3292   0.012   3.639  17.052 -1.7509  0.9752 -2.3782
  217MPD1     C 3293   0.678   3.774   9.037  0.0764 -0.5200  0.2776
  217MPD1    C1 3294   0.574   3.871   9.053 -0.7482  0.0504 -0.1555
  217MPD1    C2 3295   0.587   3.976   9.144  0.3189 -0.0201  0.2021
  217MPD1    C3 3296   0.709   3.990   9.204  0.8406  0.7540 -0.3447
  217MPD1    C4 3297   0.812   3.908   9.175 -0.3609  0.1350 -0.5299
  217MPD1    C5 3298   0.797   3.798   9.097  0.1967  0.0771 -0.1744
  217MPD1     H 3299   0.500   4.039   9.156  1.4012  1.2277  1.5257
  217MPD1    H1 3300   0.906   3.936   9.221 -0.4796 -1.3084  0.5904
  217MPD1    H2 3301   0.667   3.686   8.975  1.6534 -0.9375  0.5834
  217MPD1    H3 3302   0.878   3.730   9.076 -0.0277 -0.0932 -0.4863
  217MPD1     N 3303   0.742   4.106   9.279  0.0437  0.0560  0.0302
  217MPD1    H5 3304   0.839   4.131   9.296  0.1611  0.0643 -0.6635
  217MPD1    N1 3305   0.442   3.849   9.000  0.1095 -0.0839 -0.0178
  217MPD1    H6 3306   0.385   3.933   9.004  0.7322  0.3473 -0.3273
  217MPD1    H7 3307   0.444   3.809   8.906 -0.5296  1.1394 -0.5528
  218MPD1     C 3308   2.806   2.257  12.138 -0.4058  0.0485  0.3558
  218MPD1    C1 3309   2.670   2.275  12.123  0.0673  0.6198  0.0945
  218MPD1    C2 3310   2.585   2.200  12.203 -0.1971  0.2729 -0.7514
  218MPD1    C3 3311   2.634   2.117  12.300  0.3882 -0.5156 -0.7586
  218MPD1    C4 3312   2.768   2.101  12.309 -0.4999  0.5865 -0.3328
  218MPD1    C5 3313   2.847   2.170  12.224  0.0367 -0.6419 -0.5699
  218MPD1     H 3314   2.477   2.200  12.194 -0.4528 -2.4377  2.4068
  218MPD1    H1 3315   2.820   2.015  12.348 -0.0759  1.0690  0.1677
  218MPD1    H2 3316   2.879   2.311  12.080 -0.1228 -1.5060 -0.7211
  218MPD1    H3 3317   2.953   2.148  12.230  0.0405 -0.5888 -0.4488
  218MPD1     N 3318   2.543   2.041  12.374  0.6494 -0.6392  0.2789
  218MPD1    H5 3319   2.445   2.049  12.348  0.4401  0.8415  1.5180
  218MPD1    N1 3320   2.631   2.355  12.013  0.5335  0.0134 -0.0314
  218MPD1    H6 3321   2.689   2.430  11.977  1.5534 -1.3717 -1.2804
  218MPD1    H7 3322   2.537   2.393  12.023  0.1992  0.1547 -3.6304
  219MPD1     C 3323   1.979   1.277  12.064 -0.8488 -0.3434 -0.0421
  219MPD1    C1 3324   2.041   1.388  12.009 -0.2911  0.3082  0.1799
  219MPD1    C2 3325   2.109   1.469  12.097 -0.9582  0.0333 -0.6195
  219MPD1    C3 3326   2.095   1.466  12.235 -0.7312  0.3429 -0.0141
  219MPD1    C4 3327   2.006   1.378  12.285  0.9721  0.0712  0.0534
  219MPD1    C5 3328   1.947   1.292  12.197 -0.0392 -0.3376  0.0114
  219MPD1     H 3329   2.189   1.531  12.058  0.4669 -0.8634  0.8713
  219MPD1    H1 3330   1.985   1.362  12.390 -1.3484  1.3196 -0.2263
  219MPD1    H2 3331   1.946   1.189  12.011  2.7617 -1.8735  0.2230
  219MPD1    H3 3332   1.895   1.207  12.240 -0.1666  0.3089  1.1357
  219MPD1     N 3333   2.167   1.537  12.333 -0.6792 -0.3418 -0.4966
  219MPD1    H5 3334   2.144   1.511  12.428 -1.8067  1.7545 -0.2128
  219MPD1    N1 3335   2.080   1.386  11.880 -0.1928  0.2758  0.4191
  219MPD1    H6 3336   2.011   1.342  11.820  0.1003 -1.8023  1.6007
  219MPD1    H7 3337   2.092   1.477  11.837 -0.3194 -0.0726 -0.3471
  220MPD1     C 3338   1.870   2.425   9.907  0.3108 -0.2732 -0.3299
  220MPD1    C1 3339   1.893   2.429  10.047  0.1135 -0.3838 -0.5754
  220MPD1    C2 3340   1.971   2.340  10.111  0.7598  0.4549  0.4042
  220MPD1    C3 3341   2.034   2.237  10.043 -0.4163 -0.1863  0.7549
  220MPD1    C4 3342   2.014   2.228   9.905  0.0588  0.4916  0.0967
  220MPD1    C5 3343   1.941   2.330   9.841  0.5291 -0.6045 -0.1632
  220MPD1     H 3344   1.983   2.346  10.218  1.8297  1.7067  0.2203
  220MPD1    H1 3345   2.066   2.164   9.834  0.6175  1.6191 -0.5108
  220MPD1    H2 3346   1.797   2.483   9.852 -1.6257  0.1181  2.6484
  220MPD1    H3 3347   1.936   2.323   9.733  1.7158  1.1501 -0.3206
  220MPD1     N 3348   2.104   2.137  10.114  0.2832  0.0582 -0.8270
  220MPD1    H5 3349   2.122   2.151  10.213  0.9402  0.9672 -1.0773
  220MPD1    N1 3350   1.865   2.547  10.118  0.0854  0.2223 -0.2413
  220MPD1    H6 3351   1.794   2.607  10.075  1.2947  0.7279 -1.5361
  220MPD1    H7 3352   1.850   2.523  10.216 -0.6212  1.7040  0.0158
  221MPD1     C 3353   0.478   2.173  16.668 -0.3111 -0.4228 -0.0724
  221MPD1    C1 3354   0.577   2.110  16.599 -0.9147 -0.3257 -0.7235
  221MPD1    C2 3355   0.549   2.021  16.502 -0.6696 -0.1777 -0.9943
  221MPD1    C3 3356   0.423   1.973  16.474 -0.2722 -0.8438 -0.3224
  221MPD1    C4 3357   0.323   2.040  16.548  0.3739  0.2684  0.5181
  221MPD1    C5 3358   0.347   2.136  16.638 -0.8004  0.0059  0.1863
  221MPD1     H 3359   0.634   1.981  16.447 -0.1122  0.7588 -0.8210
  221MPD1    H1 3360   0.218   2.021  16.531  0.8206 -0.5108 -1.5373
  221MPD1    H2 3361   0.496   2.260  16.730  0.2191 -0.1602 -0.5997
  221MPD1    H3 3362   0.262   2.176  16.692 -1.1307 -1.6025  0.8632
  221MPD1     N 3363   0.398   1.866  16.385  0.2174 -0.5631  0.1275
  221MPD1    H5 3364   0.300   1.844  16.374  0.9180 -2.5849 -1.9893
  221MPD1    N1 3365   0.709   2.148  16.627 -0.8802 -0.4706  0.2125
  221MPD1    H6 3366   0.773   2.126  16.551  0.7721 -1.5391  1.9056
  221MPD1    H7 3367   0.728   2.243  16.661  1.1147 -2.3505  4.4130
  222MPD1     C 3368   0.024   0.400  17.053 -1.2210 -0.4586  0.1466
  222MPD1    C1 3369   0.023   0.531  17.007 -0.0651  0.6792  0.0876
  222MPD1    C2 3370   4.668   0.621  17.070 -0.5599  0.1515 -0.5981
  222MPD1    C3 3371   4.587   0.581  17.178  0.0539 -0.1720 -0.6825
  222MPD1    C4 3372   4.599   0.455  17.229 -0.5091 -0.0971 -0.1931
  222MPD1    C5 3373   4.681   0.364  17.164 -0.6334  0.9470 -0.3188
  222MPD1     H 3374   4.675   0.723  17.033  1.8378 -0.0820 -0.7776
  222MPD1    H1 3375   4.548   0.437  17.324  1.3828 -0.6191  0.7134
  222MPD1    H2 3376   0.092   0.327  17.011 -0.6236  0.7899 -1.0328
  222MPD1    H3 3377   4.701   0.262  17.195 -0.0210  1.8159  2.1548
  222MPD1     N 3378   4.495   0.663  17.249  0.3504 -0.3617 -0.3241
  222MPD1    H5 3379   4.452   0.625  17.333  0.4149  1.0621  0.3597
  222MPD1    N1 3380   0.102   0.564  16.898 -0.3615 -0.3382  0.3785
  222MPD1    H6 3381   0.119   0.664  16.885 -0.1836 -0.3192  0.7576
  222MPD1    H7 3382   0.184   0.504  16.900  1.0355  1.6521  2.7804
  223MPD1     C 3383   4.368   0.540   0.317 -0.1535 -1.0002 -0.2105
  223MPD1    C1 3384   4.417   0.469   0.203 -0.2893 -1.0734 -0.9367
  223MPD1    C2 3385   4.393   0.518   0.074  0.3937 -0.2301  0.9089
  223MPD1    C3 3386   4.306   0.630   0.058 -0.1520 -0.2790 -0.2962
  223MPD1    C4 3387   4.252   0.699   0.171 -0.0993  0.2067 -0.3014
  223MPD1    C5 3388   4.289   0.647   0.294 -0.2786  0.4478 -0.7859
  223MPD1     H 3389   4.439   0.471  17.692 -1.1090 -0.1906  0.0754
  223MPD1    H1 3390   4.187   0.786   0.174  2.0379  1.7778 -0.3566
  223MPD1    H2 3391   4.400   0.504   0.414 -1.2175 -0.0345  0.5052
  223MPD1    H3 3392   4.255   0.700   0.382 -0.2811  1.0465 -1.1430
  223MPD1     N 3393   4.280   0.674  17.632  0.3898 -0.1222 -0.9060
  223MPD1    H5 3394   4.319   0.623  17.553 -0.2911 -1.5897 -0.2957
  223MPD1    N1 3395   4.523   0.376   0.233  0.2578  0.6318  0.1561
  223MPD1    H6 3396   4.525   0.309   0.156 -1.2425  0.9160 -0.1223
  223MPD1    H7 3397   4.499   0.318   0.313  0.4687 -1.0260 -0.9721
  224MPD1     C 3398   1.425   0.820   9.043 -0.4275  0.4550 -0.0524
  224MPD1    C1 3399   1.496   0.785   9.164  0.7130  0.0326  0.1090
  224MPD1    C2 3400   1.412   0.764   9.272 -0.1331  0.5444 -1.2077
  224MPD1    C3 3401   1.274   0.771   9.263 -0.2974  0.0305  0.1055
  224MPD1    C4 3402   1.216   0.804   9.143 -0.1610  0.0199 -0.3560
  224MPD1    C5 3403   1.287   0.829   9.034 -0.0747 -0.0062  0.1350
  224MPD1     H 3404   1.465   0.748   9.365  0.3714 -0.4033 -1.6568
  224MPD1    H1 3405   1.110   0.825   9.129  0.3207  1.9590 -1.1367
  224MPD1    H2 3406   1.470   0.844   8.947 -0.2027 -2.6752 -0.7487
  224MPD1    H3 3407   1.253   0.863   8.937 -0.0352  0.7274  0.3854
  224MPD1     N 3408   1.189   0.756   9.379 -0.0525  0.0051  0.0635
  224MPD1    H5 3409   1.093   0.781   9.358 -0.1528 -0.2546  0.2182
  224MPD1    N1 3410   1.633   0.800   9.179  0.1774  0.5772  0.0457
  224MPD1    H6 3411   1.665   0.766   9.269 -1.3780 -0.1508  0.3226
  224MPD1    H7 3412   1.690   0.764   9.102  0.3418 -0.5671  0.7073
  225MPD1     C 3413   2.688   2.682  12.537 -0.0385 -0.7727  1.0898
  225MPD1    C1 3414   2.626   2.609  12.445 -0.2656  0.2683  0.1087
  225MPD1    C2 3415   2.492   2.627  12.434 -1.0723  0.3166  0.0314
  225MPD1    C3 3416   2.420   2.710  12.517 -0.7714 -0.2487 -0.7069
  225MPD1    C4 3417   2.486   2.774  12.617  0.5497 -0.5630 -0.5761
  225MPD1    C5 3418   2.622   2.758  12.629  0.7175 -0.2367 -0.3970
  225MPD1     H 3419   2.429   2.561  12.375 -2.8825  0.2714  1.9897
  225MPD1    H1 3420   2.442   2.848  12.683 -1.1173  1.3554 -3.8244
  225MPD1    H2 3421   2.795   2.696  12.542  0.0434 -1.1376  0.2895
  225MPD1    H3 3422   2.666   2.824  12.702  0.3555  0.0759 -0.4607
  225MPD1     N 3423   2.282   2.729  12.514  0.1478  0.5647  0.2896
  225MPD1    H5 3424   2.244   2.791  12.585 -1.7802 -0.4989  0.1789
  225MPD1    N1 3425   2.711   2.539  12.354  0.3930 -0.2732 -0.9601
  225MPD1    H6 3426   2.656   2.464  12.312  0.3297 -1.3389  1.0059
  225MPD1    H7 3427   2.788   2.487  12.396  0.5475  0.5420 -0.2419
  226MPD1     C 3428   0.914   3.060  10.929  0.5602 -0.3010 -0.2061
  226MPD1    C1 3429   0.844   3.052  10.812 -0.3386 -0.3494 -0.5365
  226MPD1    C2 3430   0.908   3.084  10.703  0.4585  0.2872  0.1084
  226MPD1    C3 3431   1.047   3.123  10.700  0.4192 -0.4318 -0.6301
  226MPD1    C4 3432   1.121   3.120  10.816 -0.3925 -0.8037  0.5633
  226MPD1    C5 3433   1.048   3.095  10.926 -0.3558 -0.5096 -0.3303
  226MPD1     H 3434   0.857   3.070  10.608  2.3808 -0.4456 -0.8223
  226MPD1    H1 3435   1.230   3.122  10.818 -0.3774 -2.1371  1.1283
  226MPD1    H2 3436   0.874   3.031  11.025  2.5827 -1.7386  0.1739
  226MPD1    H3 3437   1.091   3.100  11.025  0.1201  0.7760 -0.5894
  226MPD1     N 3438   1.106   3.138  10.575 -0.4407 -0.5478  0.7361
  226MPD1    H5 3439   1.047   3.115  10.496 -0.6204  2.7353 -0.0908
  226MPD1    N1 3440   0.720   2.987  10.802 -0.2067  0.3075 -0.0034
  226MPD1    H6 3441   0.670   2.998  10.714  1.7123  1.0337 -1.0070
  226MPD1    H7 3442   0.661   3.007  10.883 -1.7451  3.5605 -1.9231
  227MPD1     C 3443   2.010   3.014   9.951 -0.3764 -0.1256 -0.1463
  227MPD1    C1 3444   1.959   2.890   9.980 -0.7728  0.1771  0.5307
  227MPD1    C2 3445   1.832   2.889  10.032 -0.3194 -0.4134 -0.5563
  227MPD1    C3 3446   1.778   3.004  10.082 -0.4648  0.4208  0.0227
  227MPD1    C4 3447   1.843   3.123  10.067 -0.2433 -0.1533 -0.2642
  227MPD1    C5 3448   1.957   3.135   9.997  0.5065  0.0439 -0.1782
  227MPD1     H 3449   1.780   2.795  10.049 -1.1226  0.2871  0.8602
  227MPD1    H1 3450   1.790   3.213  10.093 -1.3776 -1.2560  1.1918
  227MPD1    H2 3451   2.096   3.013   9.886 -0.3236  2.9762 -0.1400
  227MPD1    H3 3452   2.008   3.230   9.981 -0.9238  1.2251  2.3562
  227MPD1     N 3453   1.648   2.992  10.149 -0.0224  0.4025 -0.1237
  227MPD1    H5 3454   1.615   2.898  10.168  1.4274  0.0600  0.7291
  227MPD1    N1 3455   2.019   2.770   9.923 -0.3260 -0.1466 -1.2387
  227MPD1    H6 3456   2.120   2.767   9.921 -0.2547  2.1834 -1.6253
  227MPD1    H7 3457   1.989   2.685   9.970 -2.1876  1.5310  0.6391
  228MPD1     C 3458   3.598   0.849  13.655 -0.1432 -0.3399  0.4313
  228MPD1    C1 3459   3.673   0.766  13.577 -0.3317 -0.2775  0.2170
  228MPD1    C2 3460   3.637   0.637  13.563  0.1607  0.7081 -0.2673
  228MPD1    C3 3461   3.521   0.587  13.621  0.0650  0.6707  0.2442
  228MPD1    C4 3462   3.435   0.676  13.688 -0.0372 -0.2339 -0.1013
  228MPD1    C5 3463   3.483   0.802  13.711 -0.1999 -0.2116 -0.6348
  228MPD1     H 3464   3.697   0.572  13.502 -1.1560 -0.7280 -0.0215
  228MPD1    H1 3465   3.337   0.649  13.725  1.1530 -0.5979  2.7724
  228MPD1    H2 3466   3.622   0.953  13.675  1.4023 -0.5464 -0.3352
  228MPD1    H3 3467   3.430   0.856  13.789 -1.8640 -2.7304 -0.0244
  228MPD1     N 3468   3.491   0.447  13.598  0.0287 -0.6639 -0.7955
  228MPD1    H5 3469   3.550   0.386  13.542  0.8595 -0.8583  0.3007
  228MPD1    N1 3470   3.775   0.823  13.499 -0.1491  0.7439 -0.1477
  228MPD1    H6 3471   3.817   0.903  13.547  0.9625 -0.0664  0.2246
  228MPD1    H7 3472   3.850   0.763  13.466 -1.2324 -0.8923  0.3451
  229MPD1     C 3473   3.660   4.127  15.916 -0.2537  0.3229 -0.0055
  229MPD1    C1 3474   3.579   4.038  15.858 -0.7653  0.2996 -0.5448
  229MPD1    C2 3475   3.617   3.905  15.851 -0.1841  0.2418 -0.0681
  229MPD1    C3 3476   3.744   3.861  15.893  0.8103  0.4247  0.2090
  229MPD1    C4 3477   3.822   3.959  15.945 -1.1105 -0.2006  0.9770
  229MPD1    C5 3478   3.782   4.081  15.965  0.0429  0.4953  0.2846
  229MPD1     H 3479   3.539   3.839  15.816  1.1578 -2.0199  1.2410
  229MPD1    H1 3480   3.926   3.930  15.960 -1.1247 -1.8052 -1.9998
  229MPD1    H2 3481   3.625   4.229  15.925  1.0549  0.9055 -1.4629
  229MPD1    H3 3482   3.845   4.149  16.021 -1.0838  2.2038 -0.5423
  229MPD1     N 3483   3.782   3.723  15.889 -0.0677 -0.2777  0.1718
  229MPD1    H5 3484   3.852   3.690  15.955 -0.0019 -1.9718 -0.7458
  229MPD1    N1 3485   3.447   4.074  15.820  0.1254 -0.4003  0.4270
  229MPD1    H6 3486   3.411   3.999  15.761  0.1277  0.9506 -1.2926
  229MPD1    H7 3487   3.439   4.157  15.762 -1.1187 -1.0682 -0.3670
  230MPD1     C 3488   4.254   2.939  16.314 -0.4774  0.4025 -0.4903
  230MPD1    C1 3489   4.252   2.912  16.181  0.2330 -0.0524  0.1784
  230MPD1    C2 3490   4.160   2.985  16.106 -0.0044 -1.1494 -0.1340
  230MPD1    C3 3491   4.078   3.083  16.151  0.0818 -0.5023  0.7420
  230MPD1    C4 3492   4.090   3.119  16.282  0.2288  0.0092  0.4876
  230MPD1    C5 3493   4.169   3.045  16.365  0.4485 -0.3618 -0.0108
  230MPD1     H 3494   4.137   2.948  16.006  1.0696  1.5543 -1.3716
  230MPD1    H1 3495   4.025   3.197  16.318  0.4823  0.2746  0.3647
  230MPD1    H2 3496   4.327   2.896  16.381 -0.1979  1.8448  0.1332
  230MPD1    H3 3497   4.170   3.074  16.470 -1.4177  0.4475 -0.2138
  230MPD1     N 3498   3.996   3.151  16.053  0.0595 -0.1109  0.0495
  230MPD1    H5 3499   4.002   3.110  15.961  0.0056 -0.6901  0.3040
  230MPD1    N1 3500   4.313   2.799  16.133  0.0910 -0.0337 -0.7492
  230MPD1    H6 3501   4.407   2.790  16.171 -0.5797 -1.6021  0.5539
  230MPD1    H7 3502   4.321   2.808  16.032  1.6267 -1.3131 -0.7415
  231MPD1     C 3503   1.994   1.399  15.826 -0.7399 -0.1949  0.9350
  231MPD1    C1 3504   1.912   1.375  15.717  0.0404 -0.0313 -0.6066
  231MPD1    C2 3505   1.955   1.428  15.595 -0.0787  0.0062  0.2781
  231MPD1    C3 3506   2.057   1.518  15.581 -0.0719  0.2607  0.4372
  231MPD1    C4 3507   2.137   1.541  15.696 -0.5677  0.2909  0.1661
  231MPD1    C5 3508   2.107   1.482  15.808 -0.7456 -0.3881  0.0052
  231MPD1     H 3509   1.888   1.405  15.514 -0.1660  1.6022 -0.1092
  231MPD1    H1 3510   2.214   1.616  15.689  0.4913 -0.5255  2.9591
  231MPD1    H2 3511   1.968   1.368  15.927  1.2885 -1.6490  1.0048
  231MPD1    H3 3512   2.167   1.503  15.896  2.7160  0.2353 -2.5054
  231MPD1     N 3513   2.083   1.577  15.457 -0.2790  0.1743 -0.0733
  231MPD1    H5 3514   2.018   1.559  15.382 -1.1252  0.6166  0.5548
  231MPD1    N1 3515   1.810   1.274  15.721  0.3306 -0.4188 -0.4217
  231MPD1    H6 3516   1.775   1.271  15.817 -2.0082  0.9177 -1.2435
  231MPD1    H7 3517   1.734   1.305  15.662  1.6660 -0.2096 -2.0509
  232MPD1     C 3518   4.076   2.910   1.433  0.0352 -0.0624  0.5079
  232MPD1    C1 3519   4.001   3.025   1.430 -0.0199 -0.7700  0.3965
  232MPD1    C2 3520   3.999   3.098   1.312  0.1951 -0.0964  0.5945
  232MPD1    C3 3521   4.064   3.062   1.198 -0.0123  0.4363  0.1256
  232MPD1    C4 3522   4.128   2.939   1.201  0.3175 -0.3632  0.3382
  232MPD1    C5 3523   4.135   2.867   1.320  0.4263  0.1007 -0.6957
  232MPD1     H 3524   3.936   3.186   1.316  0.2832 -0.0634  1.3405
  232MPD1    H1 3525   4.183   2.907   1.112  2.3097  0.6286  1.2264
  232MPD1    H2 3526   4.080   2.860   1.529  0.8255 -0.8505  0.0655
  232MPD1    H3 3527   4.187   2.773   1.332  1.9147  0.9337 -0.5959
  232MPD1     N 3528   4.060   3.149   1.087  0.4692 -0.4769  0.1310
  232MPD1    H5 3529   4.025   3.244   1.095  3.3375  0.6526 -0.7524
  232MPD1    N1 3530   3.950   3.077   1.548  0.7738 -0.3946 -0.0833
  232MPD1    H6 3531   3.930   3.008   1.620  0.5249  1.1332  1.3169
  232MPD1    H7 3532   3.875   3.146   1.544  0.8998 -0.2974 -0.7993
  233MPD1     C 3533   0.424   2.074   2.499  0.4674  0.5867  0.5322
  233MPD1    C1 3534   0.408   2.045   2.365  0.5778 -0.3759 -0.4513
  233MPD1    C2 3535   0.491   2.108   2.267  0.8625  0.4060  0.1188
  233MPD1    C3 3536   0.575   2.216   2.309 -0.5884 -0.8764 -0.3330
  233MPD1    C4 3537   0.591   2.235   2.447  0.2262  0.3911 -0.6688
  233MPD1    C5 3538   0.524   2.163   2.536 -0.7383  0.1316  0.3442
  233MPD1     H 3539   0.461   2.098   2.163  0.4854 -0.8732  0.3512
  233MPD1    H1 3540   0.653   2.314   2.486  0.5463 -0.1293 -0.1192
  233MPD1    H2 3541   0.378   2.008   2.573 -1.7939  0.2747 -1.1488
  233MPD1    H3 3542   0.543   2.181   2.641  0.6498 -0.1185  0.1451
  233MPD1     N 3543   0.656   2.286   2.217  0.0820  0.3926  0.7424
  233MPD1    H5 3544   0.715   2.360   2.254  0.9053 -1.3062  2.8315
  233MPD1    N1 3545   0.326   1.936   2.329  0.1652  1.0363  0.2483
  233MPD1    H6 3546   0.254   1.931   2.401  1.4605 -3.4008  1.2599
  233MPD1    H7 3547   0.293   1.944   2.233  0.5166 -3.1573 -0.2247
  234MPD1     C 3548   1.317   3.974  10.756 -0.3842  0.0682 -0.2615
  234MPD1    C1 3549   1.304   3.953  10.620  0.1701 -0.4007 -0.4116
  234MPD1    C2 3550   1.294   4.068  10.541  0.7497  0.6742 -1.0131
  234MPD1    C3 3551   1.283   4.194  10.594 -0.2755 -0.8015  0.0618
  234MPD1    C4 3552   1.295   4.211  10.731  0.5790  0.0544 -0.3724
  234MPD1    C5 3553   1.312   4.100  10.810  0.1584  0.6865  0.0582
  234MPD1     H 3554   1.304   4.052  10.434 -0.3685 -1.2673 -0.8308
  234MPD1    H1 3555   1.300   4.308  10.780  1.0013 -0.0340 -0.2447
  234MPD1    H2 3556   1.341   3.890  10.820 -0.0188  1.6081  1.6143
  234MPD1    H3 3557   1.333   4.112  10.915  0.4744  0.6100  0.0052
  234MPD1     N 3558   1.281   4.304  10.501  0.6373  0.5150 -0.3732
  234MPD1    H5 3559   1.272   4.279  10.403 -2.1916  0.4067 -0.0800
  234MPD1    N1 3560   1.332   3.828  10.562 -0.2742 -0.4770  0.3558
  234MPD1    H6 3561   1.278   3.759  10.613  1.2989 -2.1999 -0.3371
  234MPD1    H7 3562   1.285   3.827  10.471 -0.2235 -1.5483  0.3432
  235MPD1     C 3563   1.577   4.324   9.191  0.6844  0.7926 -0.2332
  235MPD1    C1 3564   1.582   4.192   9.164 -0.8222  0.2250  0.1348
  235MPD1    C2 3565   1.700   4.117   9.188  0.4005  0.3430  0.9666
  235MPD1    C3 3566   1.820   4.177   9.221 -0.6734 -0.1063  0.2912
  235MPD1    C4 3567   1.816   4.317   9.242 -0.1487  0.1481  0.1432
  235MPD1    C5 3568   1.699   4.382   9.226 -0.5229  0.2092  0.2925
  235MPD1     H 3569   1.689   4.010   9.172  0.3912  0.8741 -2.5807
  235MPD1    H1 3570   1.899   4.381   9.271 -1.6451  1.3611  1.7569
  235MPD1    H2 3571   1.487   4.383   9.177  1.6044  2.0273 -0.9410
  235MPD1    H3 3572   1.701   4.490   9.223 -1.4186  0.2532  1.5933
  235MPD1     N 3573   1.932   4.094   9.226  0.6945  0.4084 -0.0206
  235MPD1    H5 3574   1.916   3.996   9.208  0.4335  0.4174  0.1664
  235MPD1    N1 3575   1.461   4.125   9.127  0.0119  0.2595  0.7745
  235MPD1    H6 3576   1.479   4.052   9.058  1.7444  0.7844  0.6478
  235MPD1    H7 3577   1.393   4.185   9.081  1.2725  0.5538 -0.7224
  236MPD1     C 3578   1.381   3.665  10.116 -0.8711  0.1592  0.4571
  236MPD1    C1 3579   1.455   3.771  10.063 -0.5336 -0.0806 -0.0692
  236MPD1    C2 3580   1.560   3.820  10.140 -0.4944 -0.5878 -0.3723
  236MPD1    C3 3581   1.598   3.762  10.260  0.0068 -1.4020 -0.4521
  236MPD1    C4 3582   1.524   3.657  10.311 -0.0152 -0.2474 -0.1254
  236MPD1    C5 3583   1.415   3.621  10.240  0.4325 -0.1595  0.0639
  236MPD1     H 3584   1.615   3.896  10.085  1.2730 -0.2578  1.8473
  236MPD1    H1 3585   1.539   3.614  10.409  0.9538  0.3825  0.0054
  236MPD1    H2 3586   1.300   3.615  10.063 -0.0908  0.5890 -1.1253
  236MPD1    H3 3587   1.356   3.545  10.289 -1.2209  0.4409 -1.0013
  236MPD1     N 3588   1.721   3.787  10.319  0.4549  0.0714  0.1152
  236MPD1    H5 3589   1.752   3.719  10.387  1.8737 -0.3529 -0.9532
  236MPD1    N1 3590   1.454   3.793   9.922 -0.1161 -0.0629  0.5534
  236MPD1    H6 3591   1.363   3.764   9.888  0.1261  1.6992 -1.6076
  236MPD1    H7 3592   1.474   3.886   9.887  0.1652  0.5824  2.4158
  237MPD1     C 3593   2.343   2.772  14.980  0.8171 -1.2424 -0.2740
  237MPD1    C1 3594   2.301   2.798  15.109  0.1001 -0.1409  0.7622
  237MPD1    C2 3595   2.166   2.774  15.147 -0.2627 -0.1159 -0.9985
  237MPD1    C3 3596   2.075   2.720  15.062 -0.3335  0.7082  0.1733
  237MPD1    C4 3597   2.116   2.697  14.932 -1.0476 -0.5619  0.0688
  237MPD1    C5 3598   2.244   2.723  14.894  0.0900  0.6027 -0.1336
  237MPD1     H 3599   2.140   2.777  15.252 -0.1439  0.8937 -0.9970
  237MPD1    H1 3600   2.052   2.656  14.854  1.3580 -3.6950 -0.2379
  237MPD1    H2 3601   2.449   2.780  14.957  1.2869  1.4285  2.8134
  237MPD1    H3 3602   2.273   2.711  14.790 -0.5207 -0.6079 -0.1571
  237MPD1     N 3603   1.944   2.685  15.087 -0.0271  0.3334  0.1536
  237MPD1    H5 3604   1.880   2.676  15.009  1.4832  0.0206 -1.0446
  237MPD1    N1 3605   2.389   2.856  15.206 -0.0005 -0.6153 -0.2291
  237MPD1    H6 3606   2.367   2.825  15.300 -2.8191 -0.2880 -0.7743
  237MPD1    H7 3607   2.486   2.863  15.177 -0.3899  0.6969 -1.2581
  238MPD1     C 3608   3.144   1.942  15.826 -0.0905  0.2276  0.0064
  238MPD1    C1 3609   3.227   1.942  15.716  0.0323 -0.1247  0.0075
  238MPD1    C2 3610   3.259   1.824  15.654  0.1384 -0.2330 -0.1090
  238MPD1    C3 3611   3.190   1.710  15.675 -0.5183  0.4365  0.3590
  238MPD1    C4 3612   3.106   1.708  15.785  0.1601 -0.9892  0.4979
  238MPD1    C5 3613   3.071   1.822  15.854 -0.0038 -0.0202 -0.2593
  238MPD1     H 3614   3.322   1.841  15.567 -2.1419 -1.4417 -1.9842
  238MPD1    H1 3615   3.054   1.615  15.806 -1.1988 -0.3646 -0.0789
  238MPD1    H2 3616   3.115   2.032  15.879 -1.7704 -1.8839  2.6965
  238MPD1    H3 3617   3.004   1.818  15.938  0.2079  0.0271 -0.0879
  238MPD1     N 3618   3.211   1.589  15.601 -0.3418 -0.4567 -0.4931
  238MPD1    H5 3619   3.149   1.512  15.623 -2.1001  0.7132 -1.3211
  238MPD1    N1 3620   3.294   2.061  15.695 -0.3564  0.4421  0.4588
  238MPD1    H6 3621   3.236   2.144  15.704  1.0258  1.4731 -0.1138
  238MPD1    H7 3622   3.350   2.064  15.610 -0.0990  0.6020  0.6349
  239MPD1     C 3623   4.080   2.087  15.078  0.2365 -0.6022 -0.3314
  239MPD1    C1 3624   3.946   2.114  15.090 -0.0324  0.3474  0.2993
  239MPD1    C2 3625   3.877   2.156  14.985  0.0767  0.4202  0.3426
  239MPD1    C3 3626   3.938   2.163  14.864  0.0737 -0.5362 -0.4133
  239MPD1    C4 3627   4.068   2.121  14.851  0.0927 -0.6844 -0.1588
  239MPD1    C5 3628   4.140   2.083  14.958  0.0010 -0.1265  0.9904
  239MPD1     H 3629   3.769   2.162  14.997 -0.1645 -1.5485 -0.7954
  239MPD1    H1 3630   4.107   2.131  14.750  2.1135  1.7941  0.8888
  239MPD1    H2 3631   4.145   2.060  15.160 -1.3472  2.8410  2.0273
  239MPD1    H3 3632   4.247   2.072  14.945 -0.3105 -1.7775 -0.1702
  239MPD1     N 3633   3.862   2.205  14.753 -0.0881 -0.8396  0.6036
  239MPD1    H5 3634   3.895   2.176  14.661  2.6415  0.7460  1.1085
  239MPD1    N1 3635   3.894   2.088  15.215 -0.3200  0.1083  0.5545
  239MPD1    H6 3636   3.959   2.114  15.290  0.3972  0.5646 -0.2288
  239MPD1    H7 3637   3.811   2.144  15.234  1.2392  1.4966  3.3699
  240MPD1     C 3638   3.715   1.544  14.460  0.2569  0.0944 -0.2032
  240MPD1    C1 3639   3.715   1.619  14.576  0.4692  0.4532 -0.0061
  240MPD1    C2 3640   3.586   1.635  14.631  0.6390  0.1456 -0.3168
  240MPD1    C3 3641   3.467   1.614  14.569  0.0694  0.9479  0.0996
  240MPD1    C4 3642   3.470   1.555  14.445  0.2731  0.0547  0.2401
  240MPD1    C5 3643   3.593   1.519  14.389 -0.3766  0.8030  0.0555
  240MPD1     H 3644   3.592   1.686  14.726 -2.2983  2.0431 -1.1638
  240MPD1    H1 3645   3.379   1.515  14.400  0.4121 -0.8533  0.7787
  240MPD1    H2 3646   3.810   1.509  14.423  1.2797  1.0681  1.5068
  240MPD1    H3 3647   3.587   1.452  14.305 -0.9678 -0.2184  0.9022
  240MPD1     N 3648   3.351   1.628  14.649 -0.3865  0.1467 -0.0324
  240MPD1    H5 3649   3.365   1.661  14.744  0.7123  0.2591 -0.2314
  240MPD1    N1 3650   3.832   1.635  14.642  0.6509 -0.1108 -0.1580
  240MPD1    H6 3651   3.840   1.718  14.700  0.1110  0.1687 -0.4908
  240MPD1    H7 3652   3.909   1.658  14.579  0.3659  0.5536 -0.2704
  241MPD1     C 3653   2.884   1.652  15.517 -0.1783 -0.8619  0.0373
  241MPD1    C1 3654   2.966   1.736  15.449  1.1520  0.5032 -0.3845
  241MPD1    C2 3655   2.998   1.705  15.319 -0.6550  0.0534 -0.3856
  241MPD1    C3 3656   2.959   1.588  15.256  0.6053  0.4377 -0.4071
  241MPD1    C4 3657   2.887   1.498  15.324 -0.5608 -0.0275 -0.1744
  241MPD1    C5 3658   2.851   1.537  15.451 -0.3537  0.0897 -0.5338
  241MPD1     H 3659   3.052   1.783  15.266  1.5531 -1.2801 -0.1012
  241MPD1    H1 3660   2.849   1.411  15.271 -0.7964  0.5000 -0.8809
  241MPD1    H2 3661   2.854   1.680  15.617 -1.3387 -0.0452 -0.5450
  241MPD1    H3 3662   2.787   1.475  15.513 -0.8747  0.1378 -1.0277
  241MPD1     N 3663   2.982   1.567  15.122 -0.1286 -0.3552  0.6599
  241MPD1    H5 3664   2.940   1.480  15.090  2.3408 -1.3222  0.1009
  241MPD1    N1 3665   2.975   1.866  15.501  0.5659 -0.0956  0.2825
  241MPD1    H6 3666   2.988   1.853  15.601  1.0606 -0.0139  0.2286
  241MPD1    H7 3667   3.056   1.916  15.466  0.5641  0.1359  0.6073
  242MPD1     C 3668   3.407   4.112  16.376 -0.7471 -0.6244  0.2986
  242MPD1    C1 3669   3.276   4.156  16.363 -0.8063  0.3756 -0.0078
  242MPD1    C2 3670   3.218   4.150  16.235 -0.0130  0.6638 -0.1042
  242MPD1    C3 3671   3.281   4.100  16.124  0.7063 -0.4982  0.4521
  242MPD1    C4 3672   3.412   4.065  16.139 -0.3590 -0.3015  0.4205
  242MPD1    C5 3673   3.472   4.063  16.265  0.5770  0.9353 -0.4175
  242MPD1     H 3674   3.111   4.169  16.223 -0.9112 -3.3219  1.8284
  242MPD1    H1 3675   3.462   3.994  16.074 -1.7702  1.1978 -2.3098
  242MPD1    H2 3676   3.453   4.116  16.475  0.6373 -0.6007 -0.3416
  242MPD1    H3 3677   3.571   4.022  16.279 -0.0408  0.0034  1.1072
  242MPD1     N 3678   3.220   4.081  16.003  0.1450 -0.5471 -0.2885
  242MPD1    H5 3679   3.280   4.034  15.936  0.1357  0.8790 -1.3092
  242MPD1    N1 3680   3.203   4.211  16.469  0.4425 -0.0589 -0.0733
  242MPD1    H6 3681   3.243   4.181  16.558 -1.5385 -2.2363  0.0912
  242MPD1    H7 3682   3.104   4.188  16.465  0.4645 -0.1249 -0.2413
  243MPD1     C 3683   0.302   3.986   0.051 -0.3256  0.2326  0.0387
  243MPD1    C1 3684   0.265   3.996  17.620 -0.0428 -0.1569  0.5862
  243MPD1    C2 3685   0.146   3.926  17.589  0.6137 -0.1226  0.0177
  243MPD1    C3 3686   0.066   3.875  17.688  0.8526  0.5753  0.1301
  243MPD1    C4 3687   0.102   3.878   0.120  0.6514  0.1583  0.2875
  243MPD1    C5 3688   0.226   3.929   0.143  0.3548 -0.0908 -0.1061
  243MPD1     H 3689   0.126   3.910  17.484  1.9541 -1.2931 -0.0564
  243MPD1    H1 3690   0.043   3.843   0.204  0.6316 -1.8576 -0.5757
  243MPD1    H2 3691   0.404   4.011   0.078 -0.4491  1.7009 -0.8615
  243MPD1    H3 3692   0.262   3.936   0.245 -1.6390 -1.3351  0.6842
  243MPD1     N 3693   4.674   3.812  17.646 -0.5860 -0.0706  0.3198
  243MPD1    H5 3694   4.655   3.804  17.546  1.2197 -0.1350 -0.0114
  243MPD1    N1 3695   0.355   4.031  17.521  0.1672  0.2207 -0.3740
  243MPD1    H6 3696   0.413   4.112  17.542  0.6740 -0.9658  2.8974
  243MPD1    H7 3697   0.297   4.058  17.442 -2.8609 -0.5650  1.5817
  244MPD1     C 3698   3.667   3.719   0.063 -0.1860 -0.4673 -0.8227
  244MPD1    C1 3699   3.744   3.672   0.172  0.1362  0.2955  0.2096
  244MPD1    C2 3700   3.882   3.652   0.141 -0.4244 -0.6295 -0.2730
  244MPD1    C3 3701   3.933   3.668   0.015 -0.3617  0.5174 -0.4232
  244MPD1    C4 3702   3.852   3.716  17.615  0.4034 -0.6526 -0.0555
  244MPD1    C5 3703   3.722   3.737  17.639 -0.3683 -0.1057 -0.0112
  244MPD1     H 3704   3.940   3.615   0.225 -0.3027 -0.3279 -0.2255
  244MPD1    H1 3705   3.883   3.742  17.514 -3.9028 -3.1723 -2.0278
  244MPD1    H2 3706   3.565   3.749   0.082 -0.6799 -1.4371 -1.9695
  244MPD1    H3 3707   3.659   3.773  17.558  0.4880 -1.6746 -1.3784
  244MPD1     N 3708   4.072   3.664  17.703  0.3524 -0.2064 -0.1054
  244MPD1    H5 3709   4.127   3.634   0.080  0.7872 -1.0193 -0.6949
  244MPD1    N1 3710   3.676   3.626   0.287  0.1543  0.3753  0.0383
  244MPD1    H6 3711   3.601   3.689   0.313  0.9419  0.7550  1.3959
  244MPD1    H7 3712   3.732   3.612   0.371  0.5547  0.3752 -0.2290
  245MPD1     C 3713   1.454   3.518  13.479  0.0829  0.2164 -0.2018
  245MPD1    C1 3714   1.423   3.530  13.608 -0.4344 -0.3225  0.1597
  245MPD1    C2 3715   1.454   3.642  13.676  0.3842 -0.1964 -0.5374
  245MPD1    C3 3716   1.522   3.750  13.612  0.0454  0.7865 -0.2145
  245MPD1    C4 3717   1.540   3.750  13.477 -0.3554  0.8310  0.2062
  245MPD1    C5 3718   1.508   3.630  13.422 -0.6635  0.1510 -0.3353
  245MPD1     H 3719   1.428   3.664  13.779  1.9180  1.2300 -0.4481
  245MPD1    H1 3720   1.582   3.829  13.416 -2.1273  0.5465 -1.4035
  245MPD1    H2 3721   1.426   3.439  13.411  0.0610 -0.3566  0.4770
  245MPD1    H3 3722   1.523   3.637  13.315  0.2287 -0.8179 -0.2855
  245MPD1     N 3723   1.561   3.864  13.689  0.2580  0.6801  0.2992
  245MPD1    H5 3724   1.546   3.859  13.789  0.2633  1.8591  0.3590
  245MPD1    N1 3725   1.365   3.428  13.681 -0.4402  0.0883 -0.3368
  245MPD1    H6 3726   1.430   3.351  13.695 -1.1364  0.2379  3.7217
  245MPD1    H7 3727   1.327   3.462  13.770 -1.9836  0.3253 -1.0811
  246MPD1     C 3728   1.009   3.577   8.568  0.7704  0.1376  0.1921
  246MPD1    C1 3729   1.045   3.622   8.688 -0.3591  0.3582  0.3955
  246MPD1    C2 3730   0.970   3.720   8.751 -0.7420 -1.0095  0.5744
  246MPD1    C3 3731   0.865   3.782   8.683 -0.4745 -0.3801  0.2894
  246MPD1    C4 3732   0.820   3.733   8.561  0.4899 -0.1886 -0.9913
  246MPD1    C5 3733   0.895   3.629   8.508  0.0128  0.2059 -0.2661
  246MPD1     H 3734   0.995   3.742   8.854 -2.2783 -2.9232  1.3467
  246MPD1    H1 3735   0.752   3.788   8.497 -0.0625 -1.9247 -1.9029
  246MPD1    H2 3736   1.057   3.493   8.520 -0.0910  0.3870 -1.1100
  246MPD1    H3 3737   0.862   3.590   8.412  1.0487 -1.6440  0.1230
  246MPD1     N 3738   0.804   3.887   8.746 -0.3304  1.0860 -0.0646
  246MPD1    H5 3739   0.851   3.921   8.829 -2.7913 -0.0358  1.7971
  246MPD1    N1 3740   1.154   3.566   8.757 -0.1929 -0.2546  0.6383
  246MPD1    H6 3741   1.220   3.537   8.685 -2.5373 -0.3736 -1.4553
  246MPD1    H7 3742   1.199   3.641   8.809  0.4735 -0.0393 -0.2547
  247MPD1     C 3743   0.474   2.959  15.744 -0.1617  0.3741 -0.5647
  247MPD1    C1 3744   0.582   2.967  15.654 -0.0610  0.4149  0.1739
  247MPD1    C2 3745   0.699   3.035  15.689  0.8067 -0.0454  0.7959
  247MPD1    C3 3746   0.702   3.105  15.808  1.0093 -0.5581 -0.1150
  247MPD1    C4 3747   0.591   3.109  15.889  0.3797 -0.0291  1.3464
  247MPD1    C5 3748   0.488   3.026  15.860 -0.0820 -0.1002 -0.6096
  247MPD1     H 3749   0.787   3.022  15.626 -0.5001 -0.3899 -0.9356
  247MPD1    H1 3750   0.590   3.179  15.972 -0.5472 -1.3274  2.4206
  247MPD1    H2 3751   0.384   2.901  15.724 -0.3452 -0.0234  1.4681
  247MPD1    H3 3752   0.400   3.025  15.924 -1.4538  0.7456 -2.5052
  247MPD1     N 3753   0.817   3.168  15.849  0.9066 -0.9413 -0.1939
  247MPD1    H5 3754   0.819   3.216  15.938 -1.3497  1.6205 -1.5127
  247MPD1    N1 3755   0.582   2.888  15.541 -0.0367  0.5331  0.1674
  247MPD1    H6 3756   0.631   2.927  15.461 -1.6102 -1.9334 -2.0093
  247MPD1    H7 3757   0.487   2.861  15.515  0.4141 -0.1896 -0.7503
  248MPD1     C 3758   2.401   0.787   1.501  0.1113 -0.3648 -0.2620
  248MPD1    C1 3759   2.503   0.706   1.453 -0.2811 -0.4745  0.4076
  248MPD1    C2 3760   2.471   0.583   1.394  0.8928  0.3673  0.5769
  248MPD1    C3 3761   2.340   0.557   1.356 -0.4150 -0.2501  0.3116
  248MPD1    C4 3762   2.238   0.650   1.385  0.1394  0.2694  0.8100
  248MPD1    C5 3763   2.277   0.756   1.461 -0.5331  0.2048 -0.1921
  248MPD1     H 3764   2.549   0.519   1.357 -0.1888 -0.3648 -0.4449
  248MPD1    H1 3765   2.135   0.637   1.353  0.0052  1.7549  0.6355
  248MPD1    H2 3766   2.416   0.878   1.558 -1.0648 -1.0804  1.1892
  248MPD1    H3 3767   2.194   0.823   1.482  0.3706  1.2623  0.0454
  248MPD1     N 3768   2.323   0.445   1.269  0.1448  0.4096  0.1710
  248MPD1    H5 3769   2.405   0.392   1.243  0.6354  1.8819 -1.2533
  248MPD1    N1 3770   2.638   0.730   1.491  0.4140  0.5385  0.3824
  248MPD1    H6 3771   2.665   0.829   1.491  3.6544 -0.3211  1.7272
  248MPD1    H7 3772   2.699   0.667   1.440 -1.7189 -0.9667 -0.2778
  249MPD1     C 3773   3.324   3.386   9.510 -0.1263  0.3463  0.2145
  249MPD1    C1 3774   3.211   3.330   9.554  0.0003 -0.0890  0.4842
  249MPD1    C2 3775   3.220   3.198   9.605 -0.0016  0.8576 -0.0682
  249MPD1    C3 3776   3.339   3.148   9.645 -0.2349 -0.3360 -0.2980
  249MPD1    C4 3777   3.453   3.222   9.626 -1.3698 -0.2067  0.2693
  249MPD1    C5 3778   3.443   3.337   9.555  0.4438  0.0413 -0.9303
  249MPD1     H 3779   3.138   3.128   9.608  1.9941 -1.5119 -0.4141
  249MPD1    H1 3780   3.545   3.199   9.680  0.0623  1.2443 -1.5491
  249MPD1    H2 3781   3.327   3.478   9.453 -1.7274  1.2338  1.5540
  249MPD1    H3 3782   3.534   3.394   9.539 -0.5983  1.2191 -2.6977
  249MPD1     N 3783   3.336   3.021   9.707 -0.3532  0.3268 -0.2194
  249MPD1    H5 3784   3.246   2.975   9.720 -0.5767  1.1563  1.2032
  249MPD1    N1 3785   3.093   3.398   9.510 -0.6187 -0.3578  0.0083
  249MPD1    H6 3786   3.099   3.499   9.518 -2.3580 -0.3244  0.7383
  249MPD1    H7 3787   3.018   3.375   9.575  1.8465 -2.5479  2.0948
  250MPD2     C 3788   0.418   2.065  12.602 -0.1384 -0.1027  0.5731
  250MPD2    C1 3789   0.283   2.079  12.621  0.7051 -0.6009 -0.2625
  250MPD2    C2 3790   0.203   1.970  12.629 -0.1422 -0.7667  0.5804
  250MPD2    C3 3791   0.256   1.847  12.604 -0.0714 -0.3976 -0.5494
  250MPD2    C4 3792   0.393   1.834  12.601 -0.4532 -0.0907 -0.3247
  250MPD2    C5 3793   0.479   1.944  12.599 -0.6529 -0.4037  0.1390
  250MPD2     H 3794   0.096   1.984  12.645 -0.3613 -2.3262  0.4848
  250MPD2    H1 3795   0.425   1.731  12.590  1.7628  0.5977 -0.1893
  250MPD2    H2 3796   0.485   2.150  12.609 -0.4245  0.1054  0.7592
  250MPD2    H3 3797   0.586   1.929  12.593 -0.5383  0.5722 -0.2342
  250MPD2     N 3798   0.183   1.728  12.584 -0.4345 -0.1234  0.4812
  250MPD2    H5 3799   0.227   1.641  12.554 -0.1047  0.3413 -0.3644
  250MPD2    N1 3800   0.233   2.207  12.625  0.4971 -0.2067 -0.0834
  250MPD2    H7 3801   0.302   2.280  12.640 -0.2536  0.4998 -0.0559
  251TMC3    C1 3802   0.090   2.398  12.588 -0.3559  0.0975  0.3963
  251TMC3    C2 3803   4.688   2.451  12.597  0.2325 -0.3516 -0.7720
  251TMC3    C3 3804   4.679   2.582  12.557  0.1157  0.4914 -0.5335
  251TMC3    C4 3805   0.201   2.467  12.562  0.7538 -0.0272  0.0073
  251TMC3    C5 3806   0.192   2.593  12.522  0.2033 -0.5543 -0.0059
  251TMC3    C6 3807   0.068   2.651  12.513  0.0819 -1.1908 -0.0034
  251TMC3     C 3808   0.103   2.252  12.620 -0.5904  0.7546 -0.2333
  251TMC3     O 3809   0.002   2.185  12.629  0.1397  0.4674 -0.7931
  251TMC3     H 3810   4.601   2.388  12.612 -0.0408  0.6973  2.0344
  251TMC3    H1 3811   0.299   2.424  12.575  1.0493  0.6441 -0.0358
  251TMC3    H2 3812   0.060   2.754  12.478  1.9745 -0.8096  0.6611
  251TMC3    C7 3813   0.310   2.674  12.568 -0.5533  0.3904 -0.2634
  251TMC3    C8 3814   4.583   2.669  12.630  0.5676 -0.1651  0.2195
  251TMC3    O1 3815   0.388   2.627  12.650  0.0194  0.6602  0.4199
  251TMC3    O2 3816   4.576   2.785  12.595  0.3882  0.0680  0.1866
  252TMC3    C1 3817   1.094   2.528   9.696 -0.4668  0.1362 -0.8992
  252TMC3    C2 3818   1.136   2.661   9.720 -0.1474 -0.5377 -0.1035
  252TMC3    C3 3819   1.058   2.752   9.795 -0.2858 -0.1640 -0.1383
  252TMC3    C4 3820   0.980   2.485   9.757  0.8181 -0.2326 -0.1168
  252TMC3    C5 3821   0.901   2.581   9.825  0.2242  0.8505 -0.4572
  252TMC3    C6 3822   0.939   2.713   9.846  0.0941 -0.0565 -0.5190
  252TMC3     C 3823   1.190   2.437   9.629 -0.1006  0.3055  0.0338
  252TMC3     O 3824   1.290   2.493   9.583 -0.6180 -0.0865 -0.2137
  252TMC3     H 3825   1.227   2.699   9.675 -1.0323  2.9341  1.0537
  252TMC3    H1 3826   0.950   2.385   9.728 -0.5471  0.3682 -0.7303
  252TMC3    H2 3827   0.874   2.780   9.901  1.3013  0.4090  0.3156
  252TMC3    C7 3828   0.770   2.540   9.876 -0.2433  0.6915  0.1081
  252TMC3    C8 3829   1.125   2.883   9.809 -0.4789 -0.0231  0.3836
  252TMC3    O1 3830   0.721   2.623   9.951  0.0844  0.2604 -0.1442
  252TMC3    O2 3831   1.224   2.904   9.746 -0.9077  0.0518 -0.0424
  253MPD2     C 3832   1.464   2.901  15.327 -0.0028  0.7657  0.1351
  253MPD2    C1 3833   1.342   2.841  15.313 -0.2795 -0.0799  0.7701
  253MPD2    C2 3834   1.285   2.781  15.424 -0.5964 -0.2607  1.0191
  253MPD2    C3 3835   1.345   2.777  15.544  0.6669 -0.0355  0.6760
  253MPD2    C4 3836   1.463   2.842  15.563 -0.3575  0.7655  0.2717
  253MPD2    C5 3837   1.518   2.905  15.455 -0.1878  0.0904  0.1249
  253MPD2     H 3838   1.184   2.748  15.406  0.0784 -1.7044 -0.0964
  253MPD2    H1 3839   1.507   2.851  15.662 -1.6487  2.2811  0.6970
  253MPD2    H2 3840   1.525   2.954  15.255  1.2395 -0.3778  0.3496
  253MPD2    H3 3841   1.609   2.959  15.475 -0.0509 -0.6831  1.5708
  253MPD2     N 3842   1.279   2.722  15.659 -0.3309  0.2833  0.8586
  253MPD2    H5 3843   1.335   2.712  15.743 -1.6647  0.4941  1.7607
  253MPD2    N1 3844   1.270   2.856  15.194 -0.3004 -0.1670 -0.1275
  253MPD2    H7 3845   1.194   2.792  15.171 -0.6522  1.1680 -2.6111
  254TMC3    C1 3846   1.097   2.629  15.778 -0.4763 -0.3468  0.4933
  254TMC3    C2 3847   0.977   2.683  15.817  0.5312 -0.3366  0.0679
  254TMC3    C3 3848   0.956   2.695  15.947 -0.2383 -0.1484 -0.4969
  254TMC3    C4 3849   1.192   2.600  15.867 -0.1433  0.4151  0.4804
  254TMC3    C5 3850   1.167   2.624  16.000  0.2193  0.1799 -0.3834
  254TMC3    C6 3851   1.058   2.682  16.039  0.2767 -0.6049  0.2281
  254TMC3     C 3852   1.145   2.673  15.656 -0.0831  0.3526 -0.2650
  254TMC3     O 3853   1.052   2.697  15.578 -0.5461  0.0166 -0.1586
  254TMC3     H 3854   0.906   2.720  15.744  0.5857 -2.6818 -1.1971
  254TMC3    H1 3855   1.297   2.585  15.843 -0.6283 -1.6833 -0.3277
  254TMC3    H2 3856   1.042   2.697  16.146 -1.6809  2.7295 -0.5102
  254TMC3    C7 3857   1.238   2.569  16.108 -0.0439 -0.0701 -0.2663
  254TMC3    C8 3858   0.835   2.757  16.003  0.3849 -0.2235 -0.4870
  254TMC3    O1 3859   1.247   2.631  16.213 -0.2127 -0.2880  0.3218
  254TMC3    O2 3860   0.857   2.838  16.091 -0.5825  0.2591  0.3139
  255MPD2     C 3861   4.542   4.402  10.679 -0.1895  0.2753  0.2811
  255MPD2    C1 3862   4.561   4.503  10.587 -0.0905  0.1089  0.0614
  255MPD2    C2 3863   4.668   4.494  10.496  0.3803  0.8232  0.4587
  255MPD2    C3 3864   0.021   4.387  10.499 -0.0690  0.3104  0.2631
  255MPD2    C4 3865   0.003   4.284  10.597 -0.2742  0.1362 -0.2629
  255MPD2    C5 3866   4.624   4.298  10.688 -0.1210 -0.5252 -0.4219
  255MPD2     H 3867   4.673   4.573  10.422  2.3890 -0.5565 -0.8671
  255MPD2    H1 3868   0.078   4.206  10.605  0.8317  1.1905 -0.3798
  255MPD2    H2 3869   4.455   4.400  10.743  0.3781  0.4371  1.0473
  255MPD2    H3 3870   4.605   4.221  10.762  1.6978 -1.7644 -1.2451
  255MPD2     N 3871   0.117   4.373  10.397  0.0895 -0.4086  0.4357
  255MPD2    H5 3872   0.110   4.443  10.324 -3.1745  0.5914  1.7109
  255MPD2    N1 3873   4.468   4.617  10.582 -0.4411  0.2530 -0.1049
  255MPD2    H7 3874   4.397   4.613  10.653 -0.5588 -1.7438 -0.3330
  256TMC3    C1 3875   4.337   0.053  10.470  0.0469  0.1484 -0.2142
  256TMC3    C2 3876   4.351   0.140  10.368  0.2888  0.3840 -0.3633
  256TMC3    C3 3877   4.250   0.141  10.272 -0.5532 -0.5929 -0.4144
  256TMC3    C4 3878   4.230   4.696  10.481 -0.0921  0.1180  0.7786
  256TMC3    C5 3879   4.135   4.703  10.382 -0.5881 -0.1222 -1.4407
  256TMC3    C6 3880   4.138   0.067  10.278 -0.0694  0.0284 -0.1262
  256TMC3     C 3881   4.467   4.721  10.494 -0.0125 -0.7134  0.0079
  256TMC3     O 3882   4.560   0.026  10.414 -0.3774  0.1289  0.3953
  256TMC3     H 3883   4.442   0.196  10.351  0.0999  0.1843 -1.9902
  256TMC3    H1 3884   4.208   4.623  10.558 -1.6665 -2.1248 -1.7837
  256TMC3    H2 3885   4.076   0.068  10.189  0.1780  0.3977 -0.2951
  256TMC3    C7 3886   4.045   4.591  10.368  0.1438 -0.2390  0.0885
  256TMC3    C8 3887   4.270   0.228  10.162  0.1367  0.0409  0.4815
  256TMC3    O1 3888   4.064   4.484  10.424 -0.5701  0.3168  0.0674
  256TMC3    O2 3889   4.241   0.191  10.048  0.0615 -0.1112  0.0852
  257MPD2     C 3890   3.508   2.746  13.205  0.1999 -0.5447 -0.1389
  257MPD2    C1 3891   3.527   2.623  13.155  0.0763  0.1397 -0.9951
  257MPD2    C2 3892   3.536   2.517  13.243  0.7995 -0.1833  0.9616
  257MPD2    C3 3893   3.534   2.543  13.382  0.3664  0.2038 -0.3354
  257MPD2    C4 3894   3.525   2.672  13.435  0.1766  0.1765 -0.2316
  257MPD2    C5 3895   3.513   2.772  13.343  0.3339  1.1519 -0.8932
  257MPD2     H 3896   3.566   2.422  13.201  1.6626 -0.1704  1.5610
  257MPD2    H1 3897   3.517   2.704  13.538  1.7389 -0.2748  0.0244
  257MPD2    H2 3898   3.493   2.823  13.130  0.6989  0.0376  0.3548
  257MPD2    H3 3899   3.505   2.878  13.368  0.6462  0.7706  0.8209
  257MPD2     N 3900   3.575   2.426  13.462  0.3419 -0.8275  0.3509
  257MPD2    H5 3901   3.578   2.338  13.410  1.1722  1.0704 -2.8034
  257MPD2    N1 3902   3.524   2.625  13.014  0.5949 -0.7405  0.0862
  257MPD2    H7 3903   3.535   2.714  12.967  0.7970 -0.4317  0.7147
  258TMC3    C1 3904   3.618   2.282  13.635  1.0915  0.2622 -0.1231
  258TMC3    C2 3905   3.700   2.210  13.560  0.4166  0.2875 -0.3095
  258TMC3    C3 3906   3.724   2.083  13.598  0.3298  0.0041 -0.2731
  258TMC3    C4 3907   3.574   2.245  13.757 -0.2550 -0.6502  0.1665
  258TMC3    C5 3908   3.598   2.113  13.795 -0.1784 -0.2673 -0.2927
  258TMC3    C6 3909   3.687   2.034  13.720  0.6365 -0.0283 -0.5292
  258TMC3     C 3910   3.585   2.422  13.598  0.8946  0.1804  0.1299
  258TMC3     O 3911   3.573   2.505  13.687 -0.2443  0.0062 -0.0846
  258TMC3     H 3912   3.749   2.246  13.470 -0.4277 -1.4792 -1.4888
  258TMC3    H1 3913   3.504   2.307  13.811 -1.5246 -1.7132 -0.2657
  258TMC3    H2 3914   3.720   1.934  13.749  1.5373  0.8995  1.6419
  258TMC3    C7 3915   3.565   2.072  13.935 -0.0025  0.1335 -0.1393
  258TMC3    C8 3916   3.828   2.015  13.525  0.3354 -0.0989 -0.3046
  258TMC3    O1 3917   3.497   2.157  13.989 -0.3208 -0.0223 -0.1606
  258TMC3    O2 3918   3.898   1.929  13.580  0.4835  0.3982  0.0600
  259MPD2     C 3919   2.738   4.415   1.400 -0.4946  0.1808 -0.4006
  259MPD2    C1 3920   2.752   4.279   1.404  0.9889 -0.0822 -0.4955
  259MPD2    C2 3921   2.848   4.215   1.330  0.3046  0.0020  0.4146
  259MPD2    C3 3922   2.942   4.295   1.262 -0.2222 -0.6366 -0.1026
  259MPD2    C4 3923   2.926   4.429   1.250  0.3279  0.5511  0.4338
  259MPD2    C5 3924   2.821   4.487   1.318  0.4357 -0.5859  0.3172
  259MPD2     H 3925   2.868   4.108   1.336  1.8769  0.2608 -0.3225
  259MPD2    H1 3926   2.988   4.484   1.180 -2.2790  0.2939 -2.0451
  259MPD2    H2 3927   2.662   4.476   1.447 -0.8782 -0.9458  0.4388
  259MPD2    H3 3928   2.807   4.593   1.303 -1.2177 -0.9444 -0.6428
  259MPD2     N 3929   3.048   4.231   1.200  0.5194 -0.1910 -1.0752
  259MPD2    H5 3930   3.044   4.130   1.192 -1.3782 -0.2275  0.2355
  259MPD2    N1 3931   2.667   4.205   1.486 -0.1445 -0.4603 -1.2395
  259MPD2    H7 3932   2.590   4.252   1.533  0.2117 -1.3440  0.2588
  260TMC3    C1 3933   3.222   4.199   1.051 -0.4682 -0.3556 -0.1162
  260TMC3    C2 3934   3.347   4.232   0.993 -0.5572 -0.7283 -0.3204
  260TMC3    C3 3935   3.404   4.139   0.911  0.0941  0.3501 -1.0894
  260TMC3    C4 3936   3.157   4.088   1.010  0.0714 -0.6795 -0.2514
  260TMC3    C5 3937   3.219   4.006   0.922 -0.3033 -0.4614  0.7432
  260TMC3    C6 3938   3.342   4.018   0.874  0.1777 -0.0667  0.2873
  260TMC3     C 3939   3.159   4.290   1.144 -0.1771 -0.6293 -0.0249
  260TMC3     O 3940   3.207   4.402   1.159 -0.0861  0.1543  0.4490
  260TMC3     H 3941   3.417   4.307   1.028 -0.0847 -1.2402 -0.1700
  260TMC3    H1 3942   3.051   4.070   1.022 -0.3711  3.1520  1.6614
  260TMC3    H2 3943   3.378   3.942   0.806  0.1422 -0.2109  0.4298
  260TMC3    C7 3944   3.159   3.874   0.901 -0.3386 -0.6923 -0.2519
  260TMC3    C8 3945   3.550   4.142   0.896  0.0545  0.5226  1.1412
  260TMC3    O1 3946   3.194   3.806   0.804  0.0203 -0.0636  0.2712
  260TMC3    O2 3947   3.603   4.250   0.882  0.3412 -0.1236  0.3612
  261MPD2     C 3948   4.441   1.571  11.959  0.4423  0.2521  0.9843
  261MPD2    C1 3949   4.552   1.620  12.020  0.0774  0.1847  0.2626
  261MPD2    C2 3950   4.642   1.689  11.939 -0.0562 -0.4945 -0.1142
  261MPD2    C3 3951   4.620   1.717  11.807  0.4198 -0.1482 -0.0179
  261MPD2    C4 3952   4.505   1.675  11.747 -0.6316 -0.0264 -0.4068
  261MPD2    C5 3953   4.422   1.606  11.831 -0.3021 -0.1462 -0.3063
  261MPD2     H 3954   0.005   1.727  11.988  0.4960 -2.4490  0.4059
  261MPD2    H1 3955   4.472   1.700  11.647  0.6182 -1.1473 -1.1042
  261MPD2    H2 3956   4.366   1.503  11.997  0.7258 -0.1207  0.8856
  261MPD2    H3 3957   4.333   1.561  11.788 -0.6202 -0.5040  0.7183
  261MPD2     N 3958   4.709   1.814  11.749  0.2157 -0.2489  0.1301
  261MPD2    H5 3959   0.062   1.848  11.803  0.0606 -1.0251  0.8590
  261MPD2    N1 3960   4.579   1.591  12.162 -0.6335  0.5922 -0.2794
  261MPD2    H7 3961   4.673   1.613  12.194 -0.5016  0.5371 -0.6246
  262TMC3    C1 3962   0.083   1.978  11.619  1.5201  0.1199 -0.2531
  262TMC3    C2 3963   0.041   2.093  11.680  0.5186 -0.1171 -0.4745
  262TMC3    C3 3964   0.091   2.210  11.639  0.5289  1.0748 -1.3088
  262TMC3    C4 3965   0.152   1.991  11.504  0.1861 -0.5512 -0.0808
  262TMC3    C5 3966   0.209   2.109  11.471 -0.3581  0.5829 -0.2255
  262TMC3    C6 3967   0.187   2.223  11.541  0.0784  0.8151 -0.1929
  262TMC3     C 3968   4.713   1.863  11.623 -0.7572 -0.0823 -0.5843
  262TMC3     O 3969   4.644   1.832  11.526 -0.1429 -0.0464 -0.0379
  262TMC3     H 3970   4.695   2.084  11.760  0.0898 -2.7604 -1.1418
  262TMC3    H1 3971   0.169   1.894  11.460 -1.9570 -0.9800  0.0302
  262TMC3    H2 3972   0.223   2.319  11.508  0.1853  0.6124 -0.6639
  262TMC3    C7 3973   0.287   2.108  11.343 -0.8699 -0.1910 -0.1563
  262TMC3    C8 3974   0.012   2.333  11.666  0.3000 -0.2568 -0.9190
  262TMC3    O1 3975   0.304   1.998  11.291 -0.1308 -0.7847  0.2149
  262TMC3    O2 3976   0.054   2.431  11.610 -0.3218  0.1692  0.2327
  263MPD2     C 3977   0.248   1.165  11.686 -0.7994 -0.1801 -0.4001
  263MPD2    C1 3978   0.365   1.220  11.732  0.1807 -0.3136  0.2916
  263MPD2    C2 3979   0.442   1.303  11.658  0.2791  0.0732  0.0823
  263MPD2    C3 3980   0.429   1.309  11.521  0.8837 -0.3878 -0.2334
  263MPD2    C4 3981   0.324   1.240  11.462  0.3028 -0.2954  0.7589
  263MPD2    C5 3982   0.227   1.183  11.552  0.0323 -0.2627  0.6891
  263MPD2     H 3983   0.523   1.362  11.699 -0.2404 -0.7633  2.2859
  263MPD2    H1 3984   0.301   1.243  11.356  1.1904 -1.8281  0.5175
  263MPD2    H2 3985   0.175   1.122  11.753 -1.9411  0.6290 -1.1338
  263MPD2    H3 3986   0.131   1.151  11.511 -0.6158  0.6943  1.4428
  263MPD2     N 3987   0.532   1.381  11.457  0.0707 -0.1667  0.1465
  263MPD2    H5 3988   0.604   1.419  11.518 -0.9947  1.0157  0.6666
  263MPD2    N1 3989   0.393   1.192  11.869 -0.3665  0.1401  0.4008
  263MPD2    H7 3990   0.327   1.132  11.918  0.9932 -1.1613  0.6178
  264TMC3    C1 3991   0.680   1.431  11.282  0.3604  0.4596 -0.5574
  264TMC3    C2 3992   0.760   1.482  11.376 -0.1748 -0.3880 -0.0672
  264TMC3    C3 3993   0.890   1.494  11.341 -0.2777  0.0131 -0.4243
  264TMC3    C4 3994   0.730   1.380  11.163 -0.0220 -0.0253  0.2640
  264TMC3    C5 3995   0.862   1.396  11.133 -0.4583  0.8344  0.4500
  264TMC3    C6 3996   0.948   1.445  11.227 -0.3254 -0.0963 -0.1868
  264TMC3     C 3997   0.544   1.394  11.320  0.2286 -0.1145  0.1925
  264TMC3     O 3998   0.464   1.367  11.229 -0.2344 -0.4314  1.1007
  264TMC3     H 3999   0.700   1.549  11.437 -2.9246 -2.1504 -0.8157
  264TMC3    H1 4000   0.667   1.334  11.088  0.7375 -4.2721  2.2242
  264TMC3    H2 4001   1.043   1.485  11.195 -0.3120  0.1405  0.1463
  264TMC3    C7 4002   0.905   1.418  10.995 -0.5784  0.3007 -0.5829
  264TMC3    C8 4003   0.968   1.591  11.416 -0.4366  0.4191  0.6274
  264TMC3    O1 4004   1.028   1.408  10.983  0.6754  0.0523 -0.2701
  264TMC3    O2 4005   1.070   1.629  11.358  0.7830  0.1522  0.7782
  265MPD2     C 4006   2.327   2.319  15.680  0.2159 -0.2728 -0.1096
  265MPD2    C1 4007   2.362   2.422  15.589 -0.6321 -0.1454  0.3514
  265MPD2    C2 4008   2.430   2.389  15.475  0.1288  0.4925 -0.2859
  265MPD2    C3 4009   2.476   2.257  15.455  0.2200 -0.3201 -0.9800
  265MPD2    C4 4010   2.449   2.165  15.549 -0.0985  0.5755 -0.2189
  265MPD2    C5 4011   2.364   2.193  15.659  0.0484  0.0356  1.0081
  265MPD2     H 4012   2.457   2.456  15.394  1.4310  0.8682  0.4473
  265MPD2    H1 4013   2.482   2.062  15.547 -0.4834  0.4567 -0.5371
  265MPD2    H2 4014   2.267   2.326  15.770  2.6833  2.2058  1.3303
  265MPD2    H3 4015   2.348   2.119  15.737 -1.1172 -0.8082 -0.0385
  265MPD2     N 4016   2.543   2.220  15.337  0.2884  0.3201 -0.3978
  265MPD2    H5 4017   2.562   2.120  15.339  0.1003  0.2741 -0.9855
  265MPD2    N1 4018   2.330   2.557  15.610  0.2362 -0.6625 -0.0707
  265MPD2    H7 4019   2.365   2.628  15.547 -0.4485 -1.3259 -1.2060
  266TMC3    C1 4020   2.235   2.735  15.720 -0.8861  0.0382 -0.2131
  266TMC3    C2 4021   2.212   2.778  15.843  0.6831  0.2270  0.7133
  266TMC3    C3 4022   2.114   2.876  15.861 -0.2192 -0.2941  0.2511
  266TMC3    C4 4023   2.193   2.794  15.608  0.2992  0.0892  0.2340
  266TMC3    C5 4024   2.093   2.886  15.623  0.1187 -0.3575 -0.1095
  266TMC3    C6 4025   2.054   2.931  15.749 -0.1106  0.7628 -0.3233
  266TMC3     C 4026   2.271   2.599  15.729  0.5279 -0.1526 -0.3828
  266TMC3     O 4027   2.223   2.541  15.825  0.2128 -0.0870  0.4934
  266TMC3     H 4028   2.264   2.736  15.929 -0.9464 -2.5328  0.3497
  266TMC3    H1 4029   2.217   2.754  15.510  0.4945  0.2431  0.2184
  266TMC3    H2 4030   1.987   3.014  15.765 -2.6902 -1.2713 -0.4659
  266TMC3    C7 4031   2.050   2.966  15.506 -0.0434  0.2724  0.0718
  266TMC3    C8 4032   2.044   2.896  15.991 -0.6293  0.2931 -0.7474
  266TMC3    O1 4033   2.125   2.965  15.412 -0.3795 -0.4779  0.3183
  266TMC3    O2 4034   1.932   2.944  15.989  0.5677 -0.8269  0.4402
  267MPD2     C 4035   4.071   3.972   0.207 -0.2916 -0.4770 -0.0896
  267MPD2    C1 4036   4.166   4.020   0.120  0.1729  0.0599  0.5887
  267MPD2    C2 4037   4.126   4.065  17.695  0.2014 -0.4385 -0.0374
  267MPD2    C3 4038   3.990   4.056  17.663  0.8648 -0.2962  0.3792
  267MPD2    C4 4039   3.903   4.005   0.055  0.3109 -0.3822  0.2149
  267MPD2    C5 4040   3.943   3.962   0.177 -0.8577  0.1972  0.5301
  267MPD2     H 4041   4.202   4.093  17.623  0.1503  0.4075  0.2456
  267MPD2    H1 4042   3.795   4.010   0.047  0.4715  3.9481  0.5256
  267MPD2    H2 4043   4.098   3.932   0.304  0.6068 -1.3632 -0.7001
  267MPD2    H3 4044   3.864   3.942   0.249 -0.4720 -0.5530  0.7480
  267MPD2     N 4045   3.931   4.095  17.534 -0.7905  0.5194  0.7383
  267MPD2    H5 4046   3.836   4.064  17.518  0.2926 -1.0359 -2.7231
  267MPD2    N1 4047   4.297   4.022   0.167 -0.0256 -0.3364  0.3302
  267MPD2    H7 4048   4.309   3.980   0.259  1.7767  0.3885  0.4187
  268TMC3    C1 4049   4.525   4.090   0.176  0.3005 -0.1865  0.4572
  268TMC3    C2 4050   4.630   4.156   0.118 -0.2783  0.3954  0.3442
  268TMC3    C3 4051   0.018   4.182   0.192  0.0185  0.2969 -0.1364
  268TMC3    C4 4052   4.536   4.045   0.308 -0.0124 -0.5188  0.1090
  268TMC3    C5 4053   4.647   4.071   0.370  0.2091  0.3425  0.0823
  268TMC3    C6 4054   0.025   4.148   0.324  0.4560 -0.0647 -0.2748
  268TMC3     C 4055   4.404   4.069   0.101 -0.1540 -0.0603 -0.5735
  268TMC3     O 4056   4.409   4.102  17.689 -0.1641  0.2722  0.2870
  268TMC3     H 4057   4.623   4.197   0.018  1.8269  2.2991  0.9766
  268TMC3    H1 4058   4.453   4.015   0.371 -1.3544 -0.4149 -1.6208
  268TMC3    H2 4059   0.124   4.148   0.369  0.5922 -0.1966 -0.5750
  268TMC3    C7 4060   4.667   3.979   0.480 -1.0850  0.2349  1.0339
  268TMC3    C8 4061   0.117   4.285   0.149  0.2413  0.3320  0.0439
  268TMC3    O1 4062   0.014   4.017   0.570 -0.1721  0.1771 -0.2136
  268TMC3    O2 4063   0.195   4.302   0.239 -0.1369 -0.3271 -0.2465
  269MPD2     C 4064   0.350   2.914  15.345 -0.0099 -0.0812  0.7213
  269MPD2    C1 4065   0.256   2.929  15.437 -0.4768 -0.6939  0.2163
  269MPD2    C2 4066   0.199   3.057  15.447  0.0791  0.4629  0.1355
  269MPD2    C3 4067   0.243   3.162  15.364  0.6425 -0.1412 -0.6421
  269MPD2    C4 4068   0.332   3.140  15.272 -0.7226  0.8533 -0.5472
  269MPD2    C5 4069   0.396   3.016  15.265  0.8861  0.0726 -0.3000
  269MPD2     H 4070   0.115   3.058  15.515 -0.1638 -1.6053 -0.1281
  269MPD2    H1 4071   0.364   3.212  15.197  0.8225  2.5890  1.7702
  269MPD2    H2 4072   0.389   2.813  15.338  0.5773  0.0819  1.6636
  269MPD2    H3 4073   0.477   2.998  15.195  0.3960 -0.8513 -0.6223
  269MPD2     N 4074   0.165   3.278  15.368  0.3357  0.7024  0.3152
  269MPD2    H5 4075   0.095   3.274  15.442 -0.5651  0.1533 -0.5762
  269MPD2    N1 4076   0.208   2.815  15.506  0.1535  0.9581 -0.3631
  269MPD2    H7 4077   0.224   2.726  15.461 -2.1300 -0.4787  1.7011
  270TMC3    C1 4078   0.065   2.701  15.639 -0.5160 -0.6414  0.5618
  270TMC3    C2 4079   0.024   2.632  15.529 -0.0879  0.1730 -0.0039
  270TMC3    C3 4080   4.692   2.511  15.549 -0.7828  0.7043 -0.0992
  270TMC3    C4 4081   0.068   2.649  15.763 -0.1572  0.9607  0.0850
  270TMC3    C5 4082   0.028   2.519  15.778 -0.3444 -0.0690  0.3336
  270TMC3    C6 4083   4.694   2.449  15.671 -0.2655  0.7069  0.0268
  270TMC3     C 4084   0.136   2.822  15.620  0.6845  0.1145 -0.9217
  270TMC3     O 4085   0.137   2.903  15.708  0.1439  0.8420  1.2596
  270TMC3     H 4086   0.027   2.683  15.433  0.3323  0.4620  0.1631
  270TMC3    H1 4087   0.105   2.707  15.847  2.5548  0.9106 -1.0765
  270TMC3    H2 4088   4.661   2.349  15.694 -0.8047  0.6676 -0.9111
  270TMC3    C7 4089   0.130   2.444  15.837  0.1659 -0.5525 -0.6436
  270TMC3    C8 4090   4.606   2.451  15.443  0.3920 -0.5428 -0.1183
  270TMC3    O1 4091   0.242   2.495  15.829  0.2925 -0.2092 -0.7142
  270TMC3    O2 4092   4.499   2.409  15.487 -0.0440  0.1850  0.0810
  271MPD2     C 4093   4.380   2.772  13.814  0.0180  0.0475  0.0252
  271MPD2    C1 4094   4.270   2.700  13.870  0.2856 -0.1331  0.3392
  271MPD2    C2 4095   4.145   2.753  13.866 -0.3883 -0.1671  0.9298
  271MPD2    C3 4096   4.130   2.886  13.820  0.3678 -0.1426 -0.1563
  271MPD2    C4 4097   4.239   2.959  13.785 -0.3179  0.2949  0.1778
  271MPD2    C5 4098   4.360   2.901  13.774 -0.4420  0.5340  0.2757
  271MPD2     H 4099   4.063   2.689  13.896 -2.6126  2.3315  0.2595
  271MPD2    H1 4100   4.227   3.054  13.733 -0.7780 -0.4789 -1.1174
  271MPD2    H2 4101   4.482   2.734  13.806  0.7795  2.0781  0.1227
  271MPD2    H3 4102   4.438   2.967  13.740  0.1612  0.2693  1.1368
  271MPD2     N 4103   4.008   2.945  13.815 -0.3494 -0.5654  0.2450
  271MPD2    H5 4104   4.013   3.046  13.803 -0.0211 -0.6063  0.0593
  271MPD2    N1 4105   4.276   2.575  13.933  0.2699  0.4379 -0.2399
  271MPD2    H7 4106   4.192   2.552  13.986  0.6689 -0.3332  0.0606
  272TMC3    C1 4107   4.386   2.386  14.027 -0.3287  0.5318 -0.7702
  272TMC3    C2 4108   4.510   2.332  14.041  0.1718 -0.0405 -0.6157
  272TMC3    C3 4109   4.550   2.274  14.160  0.1359 -0.6490  1.1770
  272TMC3    C4 4110   4.303   2.387  14.131 -0.3128 -0.5017 -0.3556
  272TMC3    C5 4111   4.344   2.334  14.250 -0.3914  0.9440  0.5124
  272TMC3    C6 4112   4.465   2.274  14.269  0.0137  0.5869  0.3901
  272TMC3     C 4113   4.385   2.489  13.923  0.6878  0.0226  0.3426
  272TMC3     O 4114   4.485   2.503  13.855 -0.3110  0.5007 -0.1804
  272TMC3     H 4115   4.582   2.331  13.959  0.8592 -2.8408  0.0042
  272TMC3    H1 4116   4.200   2.418  14.122 -0.1955  0.3706  1.2024
  272TMC3    H2 4117   4.493   2.243  14.369 -3.1339 -1.3775  0.6805
  272TMC3    C7 4118   4.260   2.354  14.366 -0.0674  0.2806  1.0911
  272TMC3    C8 4119   4.692   2.255  14.177 -0.0232  0.5746 -0.4846
  272TMC3    O1 4120   4.144   2.364  14.350  0.1313 -0.1086 -0.9704
  272TMC3    O2 4121   0.038   2.295  14.085 -0.1645  0.5692 -0.5700
  273MPD2     C 4122   0.646   4.723  12.382 -0.1073 -1.0023  0.4550
  273MPD2    C1 4123   0.643   0.132  12.355 -0.3547  0.0136 -1.1060
  273MPD2    C2 4124   0.626   0.167  12.219  0.5526  0.0879  0.2042
  273MPD2    C3 4125   0.620   0.071  12.116 -0.1911 -0.0499  0.5581
  273MPD2    C4 4126   0.623   4.665  12.149 -0.1541 -0.1398  0.2417
  273MPD2    C5 4127   0.635   4.629  12.284  0.6479  0.4341  0.4255
  273MPD2     H 4128   0.622   0.270  12.184 -0.9285 -0.1958 -0.4712
  273MPD2    H1 4129   0.626   4.586  12.075  1.1081 -0.1100  0.2674
  273MPD2    H2 4130   0.668   4.687  12.482 -1.0508 -1.2274  0.5798
  273MPD2    H3 4131   0.643   4.527  12.319 -0.3387 -0.3832 -1.7521
  273MPD2     N 4132   0.642   0.120  11.984 -0.5870 -0.3664  0.3862
  273MPD2    H5 4133   0.663   0.219  11.979 -4.0275  0.4128  0.8172
  273MPD2    N1 4134   0.678   0.228  12.451 -0.3205  0.0429  0.6613
  273MPD2    H7 4135   0.728   0.189  12.531 -0.7271  2.7133  2.2085
  274TMC3    C1 4136   0.720   0.137  11.774 -1.3211  0.8946 -0.5063
  274TMC3    C2 4137   0.687   0.116  11.647 -0.0796 -0.6434  0.6044
  274TMC3    C3 4138   0.749   0.189  11.543  0.2944  0.4139 -0.1133
  274TMC3    C4 4139   0.822   0.213  11.812 -0.2794  0.2801 -0.4611
  274TMC3    C5 4140   0.891   0.284  11.716  0.4425 -0.8766  0.9297
  274TMC3    C6 4141   0.856   0.267  11.579  0.2109 -0.3363  0.7132
  274TMC3     C 4142   0.662   0.045  11.871  0.2041  0.1555  0.0513
  274TMC3     O 4143   0.648   4.655  11.840  0.1812  0.4480 -0.0636
  274TMC3     H 4144   0.604   0.051  11.622 -0.1226 -0.1155 -0.6343
  274TMC3    H1 4145   0.846   0.229  11.917  2.1503 -4.8882 -0.2428
  274TMC3    H2 4146   0.885   0.342  11.506 -0.0048  0.9709  1.9739
  274TMC3    C7 4147   0.925   0.420  11.737  0.3247 -0.2470 -0.7830
  274TMC3    C8 4148   0.668   0.217  11.425 -0.6205  0.2465  0.0205
  274TMC3    O1 4149   0.980   0.483  11.649  0.3125 -0.0699 -0.4747
  274TMC3    O2 4150   0.553   0.173  11.409 -0.0222 -0.1339  0.3117
  275MPD2     C 4151   0.547   3.853  14.501  1.2531  0.1394  0.4310
  275MPD2    C1 4152   0.469   3.816  14.608 -0.3138 -0.1533 -0.6022
  275MPD2    C2 4153   0.362   3.728  14.588 -0.4082 -0.3338 -0.0765
  275MPD2    C3 4154   0.330   3.688  14.457  0.0978  0.3283 -0.6522
  275MPD2    C4 4155   0.412   3.728  14.352 -0.3402  0.1570  0.2092
  275MPD2    C5 4156   0.525   3.808  14.375 -0.1061 -0.2545  0.0289
  275MPD2     H 4157   0.316   3.685  14.676 -2.4381  0.5401 -0.7173
  275MPD2    H1 4158   0.387   3.691  14.253 -1.9598 -0.7028  0.9395
  275MPD2    H2 4159   0.638   3.911  14.512  0.1559  1.8234  0.5857
  275MPD2    H3 4160   0.584   3.845  14.293 -1.1926 -1.6782 -1.3966
  275MPD2     N 4161   0.226   3.593  14.433 -0.5738  0.6458  0.1274
  275MPD2    H5 4162   0.222   3.552  14.340 -0.4762  1.0571 -0.0598
  275MPD2    N1 4163   0.492   3.853  14.738 -0.5167  0.1664 -0.0588
  275MPD2    H7 4164   0.426   3.820  14.808 -1.1218 -1.6252 -1.4536
  276TMC3    C1 4165   0.607   3.924  14.926 -0.2088  0.1879 -0.3272
  276TMC3    C2 4166   0.558   3.817  14.999 -0.3419  0.0558 -0.0392
  276TMC3    C3 4167   0.572   3.814  15.138 -0.5484 -0.2688 -0.1825
  276TMC3    C4 4168   0.682   4.018  14.993 -0.0379  0.2270  0.0365
  276TMC3    C5 4169   0.695   4.003  15.129 -0.3179  0.1652  0.0963
  276TMC3    C6 4170   0.640   3.908  15.208  0.4069 -0.6900 -0.5110
  276TMC3     C 4171   0.598   3.925  14.783  0.2564 -0.4331  0.0290
  276TMC3     O 4172   0.676   3.998  14.721  0.6705 -0.1520 -0.0310
  276TMC3     H 4173   0.512   3.727  14.960 -0.4923 -0.2373  0.8351
  276TMC3    H1 4174   0.722   4.106  14.943  0.7527 -0.9679 -1.4410
  276TMC3    H2 4175   0.664   3.894  15.313  3.7819  2.2818 -0.8941
  276TMC3    C7 4176   0.803   4.085  15.189 -0.0970  0.2484  0.1352
  276TMC3    C8 4177   0.553   3.681  15.201  0.7511 -0.6623 -0.4513
  276TMC3    O1 4178   0.866   4.033  15.284 -0.4384  0.1351  0.5752
  276TMC3    O2 4179   0.504   3.678  15.313  0.3642  0.2497 -0.6844
  277MPD2     C 4180   3.240   2.099  13.684  0.3929  0.0515 -0.8735
  277MPD2    C1 4181   3.136   2.118  13.600  0.1893  0.6977  0.0313
  277MPD2    C2 4182   3.014   2.094  13.650  0.2478  0.3401 -0.9133
  277MPD2    C3 4183   2.994   2.042  13.777  0.1492 -0.8612 -0.1393
  277MPD2    C4 4184   3.104   2.035  13.865 -0.0812 -0.1921 -0.6288
  277MPD2    C5 4185   3.223   2.037  13.809  0.0555  0.0547  0.5568
  277MPD2     H 4186   2.932   2.107  13.580  0.1425  1.0860 -0.6544
  277MPD2    H1 4187   3.104   2.025  13.973 -1.0437  0.0399 -0.6131
  277MPD2    H2 4188   3.339   2.125  13.649  1.3296 -1.3358  0.7845
  277MPD2    H3 4189   3.308   2.005  13.868  0.7764  0.1680 -0.4193
  277MPD2     N 4190   2.865   2.046  13.834 -0.1381 -0.7141 -0.6423
  277MPD2    H5 4191   2.795   2.083  13.770 -0.5108  1.1756  0.8527
  277MPD2    N1 4192   3.143   2.159  13.465 -0.0854 -0.5805 -0.2520
  277MPD2    H7 4193   3.053   2.177  13.423 -0.3081 -0.9110  0.0825
  278TMC3    C1 4194   2.689   1.956  13.958 -0.1946 -0.1451 -0.2347
  278TMC3    C2 4195   2.647   1.832  13.983 -0.1929  0.1957 -0.5528
  278TMC3    C3 4196   2.513   1.798  13.968 -0.1930 -0.8778 -0.7577
  278TMC3    C4 4197   2.605   2.044  13.888 -0.1454  0.3291 -0.2988
  278TMC3    C5 4198   2.469   2.012  13.882 -0.9486 -0.6914 -0.3836
  278TMC3    C6 4199   2.421   1.890  13.925  0.4811 -0.1945 -0.3970
  278TMC3     C 4200   2.830   1.980  13.950 -0.3299 -0.3375 -1.0536
  278TMC3     O 4201   2.898   1.906  14.020  0.1319  0.2878  0.1042
  278TMC3     H 4202   2.724   1.756  13.994  0.8009  1.1525 -0.9475
  278TMC3    H1 4203   2.639   2.146  13.874 -1.1629  0.4173 -2.1434
  278TMC3    H2 4204   2.314   1.873  13.933  0.0976  1.4135 -2.1180
  278TMC3    C7 4205   2.379   2.115  13.841  0.2352 -0.5048  0.2851
  278TMC3    C8 4206   2.503   1.659  13.930  0.3923  0.5581  0.4318
  278TMC3    O1 4207   2.427   2.229  13.828 -0.6455 -0.2785 -0.0463
  278TMC3    O2 4208   2.583   1.580  13.975  0.0501 -0.4809 -0.3400
  279MPD2     C 4209   1.506   2.568   0.298 -0.8612  0.3799  0.0715
  279MPD2    C1 4210   1.582   2.671   0.350 -0.1582 -1.1828 -0.5309
  279MPD2    C2 4211   1.681   2.733   0.273 -0.5528  0.6091 -0.1736
  279MPD2    C3 4212   1.684   2.705   0.140 -0.0194 -0.2948 -0.1258
  279MPD2    C4 4213   1.596   2.611   0.084  0.2731  0.1402 -0.7480
  279MPD2    C5 4214   1.516   2.538   0.164 -0.6224 -0.3477  0.6678
  279MPD2     H 4215   1.746   2.811   0.309 -0.4726  0.4048  0.1252
  279MPD2    H1 4216   1.597   2.590  17.682  0.1166 -0.9714 -0.5264
  279MPD2    H2 4217   1.431   2.516   0.355 -0.5802 -0.4145 -0.2774
  279MPD2    H3 4218   1.452   2.462   0.119 -0.4750  0.6853 -1.2892
  279MPD2     N 4219   1.764   2.779   0.050 -0.5351  0.0641 -0.1935
  279MPD2    H5 4220   1.757   2.754  17.655 -0.3817 -0.5961 -0.0359
  279MPD2    N1 4221   1.551   2.717   0.479 -0.3078  0.3188 -0.3961
  279MPD2    H7 4222   1.461   2.690   0.516 -0.3118 -0.0015 -0.6397
  280TMC3    C1 4223   1.541   2.832   0.669 -0.4771  0.4457 -0.1819
  280TMC3    C2 4224   1.450   2.747   0.722 -0.5376 -0.4154 -0.1160
  280TMC3    C3 4225   1.339   2.803   0.777 -0.7460 -0.3372 -0.2292
  280TMC3    C4 4226   1.532   2.968   0.693 -0.2510 -0.1735  0.4696
  280TMC3    C5 4227   1.420   3.016   0.755 -0.5928 -0.7274 -0.8362
  280TMC3    C6 4228   1.326   2.932   0.809  0.7076  0.2206 -0.3386
  280TMC3     C 4229   1.621   2.798   0.562  0.6732 -0.6161 -0.2048
  280TMC3     O 4230   1.716   2.874   0.536  0.0904  0.2797  0.7536
  280TMC3     H 4231   1.451   2.643   0.691 -1.0504 -0.3214 -0.4415
  280TMC3    H1 4232   1.598   3.037   0.641 -0.4185  0.0407  0.5387
  280TMC3    H2 4233   1.230   2.970   0.842 -0.2902 -1.0509 -1.7466
  280TMC3    C7 4234   1.365   3.144   0.709  0.5044 -0.5652  0.2129
  280TMC3    C8 4235   1.235   2.704   0.797  0.8238  0.3481 -0.4465
  280TMC3    O1 4236   1.245   3.159   0.719  0.0455  0.5650 -0.0255
  280TMC3    O2 4237   1.234   2.597   0.737 -0.1045  0.2509  0.9069
  281TMC3    C1 4238   0.564   3.009  13.270  0.6828  1.1487 -0.4786
  281TMC3    C2 4239   0.627   3.020  13.145 -0.4962  0.1984 -0.7310
  281TMC3    C3 4240   0.665   2.901  13.085 -0.1210  0.2760 -0.0404
  281TMC3    C4 4241   0.535   2.890  13.331  1.2783 -0.1095 -0.2367
  281TMC3    C5 4242   0.575   2.779  13.263 -0.6387  0.5620 -0.1312
  281TMC3    C6 4243   0.642   2.782  13.142 -0.0758 -0.5269 -0.0413
  281TMC3     C 4244   0.570   3.122  13.358  0.3110  0.4942  0.1341
  281TMC3     O 4245   0.591   3.115  13.480  0.2849 -0.2245 -0.3269
  281TMC3     H 4246   0.654   3.119  13.109  0.4740 -0.2578 -1.2627
  281TMC3    H1 4247   0.498   2.883  13.433  2.2934  0.0294  0.1393
  281TMC3    H2 4248   0.678   2.690  13.098 -2.0216 -2.0084  1.4854
  281TMC3    C7 4249   0.522   2.656  13.316  0.0234 -0.6307  0.4789
  281TMC3    C8 4250   0.655   2.894  12.942  0.1358 -0.2795  0.4553
  281TMC3    O1 4251   0.508   2.645  13.436  0.1207  0.0662 -0.1919
  281TMC3    O2 4252   0.659   2.782  12.895  0.7136 -0.3788 -0.7148
  282MPD2     C 4253   2.573   3.831  15.304  0.3509 -0.3349 -0.2315
  282MPD2    C1 4254   2.474   3.927  15.334 -0.2593  0.5400  0.0979
  282MPD2    C2 4255   2.368   3.936  15.241 -0.1686 -0.8008  0.4179
  282MPD2    C3 4256   2.347   3.846  15.138 -0.5224  0.0834 -0.1490
  282MPD2    C4 4257   2.433   3.746  15.124  0.1137  0.6901 -0.1758
  282MPD2    C5 4258   2.546   3.746  15.201 -0.2733  0.6587  0.6726
  282MPD2     H 4259   2.299   4.019  15.255  1.9202  0.9395  0.3293
  282MPD2    H1 4260   2.431   3.666  15.051 -0.1139  0.0662  0.5190
  282MPD2    H2 4261   2.662   3.812  15.362  0.2800  0.1671  0.0429
  282MPD2    H3 4262   2.620   3.667  15.202  0.5173  1.4571  3.8194
  282MPD2     N 4263   2.241   3.869  15.045 -0.4126  0.1278 -0.0177
  282MPD2    H5 4264   2.182   3.950  15.060  1.0190  0.9977  0.9063
  282MPD2    N1 4265   2.468   4.005  15.449 -0.3891  0.5649  0.1117
  282MPD2    H7 4266   2.388   4.067  15.458 -0.2845  0.3678  2.5384
  283TMC3    C1 4267   2.515   4.072  15.675  0.0519 -0.3426  0.4369
  283TMC3    C2 4268   2.598   4.152  15.744 -1.0500  0.5148 -0.0637
  283TMC3    C3 4269   2.556   4.200  15.863  0.1367 -0.3954 -0.2971
  283TMC3    C4 4270   2.388   4.031  15.719 -0.3828 -0.2657  0.7699
  283TMC3    C5 4271   2.360   4.066  15.847 -0.8560  0.4992  0.6348
  283TMC3    C6 4272   2.442   4.148  15.921 -0.6542 -0.7122 -0.3598
  283TMC3     C 4273   2.560   4.004  15.556  0.3869  0.2603 -0.1254
  283TMC3     O 4274   2.680   3.986  15.559 -0.0702 -0.4557  0.0582
  283TMC3     H 4275   2.684   4.190  15.689  0.0638 -0.3177  1.0857
  283TMC3    H1 4276   2.339   3.951  15.666 -0.1539  0.5194 -0.6222
  283TMC3    H2 4277   2.431   4.162  16.028 -0.8962 -1.5053 -0.2851
  283TMC3    C7 4278   2.234   4.036  15.904  0.6506 -0.2869 -0.3714
  283TMC3    C8 4279   2.610   4.326  15.917 -0.8163  0.3221  0.1817
  283TMC3    O1 4280   2.210   4.097  16.005  0.2180 -0.1854 -0.5761
  283TMC3    O2 4281   2.598   4.340  16.037 -0.3077  0.0780 -0.0374
  284MPD2     C 4282   0.457   3.321  12.054 -0.3473  0.0175  0.2553
  284MPD2    C1 4283   0.540   3.217  12.032 -0.1739  0.7829 -0.3558
  284MPD2    C2 4284   0.581   3.145  12.142  0.3630  0.5611 -0.5421
  284MPD2    C3 4285   0.554   3.189  12.272 -0.5738 -0.0565  0.4057
  284MPD2    C4 4286   0.477   3.304  12.292 -0.3506  0.4926 -0.0215
  284MPD2    C5 4287   0.427   3.365  12.180  0.3225  0.1130 -0.1174
  284MPD2     H 4288   0.629   3.050  12.123  0.7842  0.5149  0.7411
  284MPD2    H1 4289   0.447   3.346  12.388  1.4399 -0.5574  1.0007
  284MPD2    H2 4290   0.422   3.384  11.973  3.4075 -1.6568 -2.6311
  284MPD2    H3 4291   0.368   3.454  12.197  0.6487  0.7614 -2.3801
  284MPD2     N 4292   0.613   3.129  12.381 -0.0040  0.1719 -0.5430
  284MPD2    H5 4293   0.605   3.182  12.467  0.6026 -2.2623  1.0080
  284MPD2    N1 4294   0.594   3.178  11.905 -0.1804  0.5995 -0.1400
  284MPD2    H7 4295   0.657   3.098  11.910  0.1425  1.0092  2.4542
  285TMC3    C1 4296   0.694   3.227  11.703 -0.2223 -0.5326 -0.8272
  285TMC3    C2 4297   0.755   3.108  11.677  0.3137  0.1405  0.4396
  285TMC3    C3 4298   0.885   3.108  11.644 -1.1495  0.0681  0.3517
  285TMC3    C4 4299   0.769   3.342  11.704  0.1071  0.0975 -0.1396
  285TMC3    C5 4300   0.893   3.333  11.668 -0.0059  0.2105  0.1989
  285TMC3    C6 4301   0.960   3.216  11.637 -0.7098 -0.5816  0.6011
  285TMC3     C 4302   0.580   3.242  11.789 -0.0449 -0.2974  0.3056
  285TMC3     O 4303   0.520   3.340  11.765  0.0198  0.2322 -0.1949
  285TMC3     H 4304   0.697   3.016  11.675  3.4832 -1.7751 -2.6704
  285TMC3    H1 4305   0.719   3.433  11.736 -1.0785 -0.9091  0.8880
  285TMC3    H2 4306   1.067   3.210  11.627 -0.3443  1.2792  3.3514
  285TMC3    C7 4307   0.974   3.451  11.687  0.1407 -0.1963  0.1051
  285TMC3    C8 4308   0.951   2.981  11.656 -0.2778  0.2374  0.6210
  285TMC3    O1 4309   0.905   3.555  11.685  0.0621  0.1944 -0.0367
  285TMC3    O2 4310   0.888   2.888  11.604  0.1891 -0.0506  0.2321
  286MPD2     C 4311   1.197   2.755   1.795 -0.1544  0.8905 -0.1930
  286MPD2    C1 4312   1.179   2.775   1.661  0.3600 -0.4567  0.0680
  286MPD2    C2 4313   1.286   2.787   1.573  0.3554  0.4506 -0.2379
  286MPD2    C3 4314   1.409   2.761   1.621 -0.2664  0.4839  0.7016
  286MPD2    C4 4315   1.426   2.732   1.757  1.1554  0.0804  0.0640
  286MPD2    C5 4316   1.322   2.728   1.846 -0.9798  0.1735 -0.0634
  286MPD2     H 4317   1.273   2.801   1.466  0.9267 -1.4405 -0.5646
  286MPD2    H1 4318   1.526   2.706   1.789  0.3226 -2.9853  0.2176
  286MPD2    H2 4319   1.125   2.746   1.875 -2.3746  2.6052 -1.9977
  286MPD2    H3 4320   1.334   2.698   1.950 -4.9075  2.2043  0.9757
  286MPD2     N 4321   1.525   2.757   1.545  0.0721  0.7460  0.1116
  286MPD2    H5 4322   1.616   2.741   1.587 -0.6588  0.3119  1.5291
  286MPD2    N1 4323   1.048   2.785   1.599 -0.7525  0.0647 -0.5572
  286MPD2    H7 4324   1.043   2.805   1.499  1.3415  0.2456 -0.6274
  287TMC3    C1 4325   1.659   2.727   1.356  0.7063 -0.9487  0.0259
  287TMC3    C2 4326   1.677   2.727   1.217  0.3199  0.1631 -0.2902
  287TMC3    C3 4327   1.768   2.642   1.163  0.2579  0.3250 -0.1744
  287TMC3    C4 4328   1.732   2.640   1.437  0.6421 -0.5538  0.8429
  287TMC3    C5 4329   1.831   2.561   1.375 -0.3007 -0.5222  0.6989
  287TMC3    C6 4330   1.854   2.563   1.234 -0.0727 -0.4667 -0.1952
  287TMC3     C 4331   1.533   2.770   1.406 -0.9529  0.6413 -0.3925
  287TMC3     O 4332   1.457   2.812   1.321  0.4664  0.4021 -0.0527
  287TMC3     H 4333   1.624   2.797   1.154  1.3497 -0.0656 -1.3892
  287TMC3    H1 4334   1.711   2.629   1.543 -2.5508 -2.1100  0.0713
  287TMC3    H2 4335   1.943   2.530   1.182  1.6657  1.1019  1.7863
  287TMC3    C7 4336   1.909   2.475   1.457 -0.8538  0.0249 -0.5318
  287TMC3    C8 4337   1.767   2.627   1.023 -0.3775 -0.3563  0.6723
  287TMC3    O1 4338   1.920   2.511   1.573 -0.1038  0.1084 -0.3940
  287TMC3    O2 4339   1.752   2.731   0.960  0.4854 -0.3298 -0.3201
  288TMC3    C1 4340   3.030   2.092  14.447 -0.0201  0.4632 -0.4581
  288TMC3    C2 4341   2.904   2.093  14.508  0.3833  0.4363 -0.1126
  288TMC3    C3 4342   2.803   2.152  14.442 -0.3559 -0.0199 -0.2524
  288TMC3    C4 4343   3.055   2.153  14.333  0.4984  0.0326  0.4069
  288TMC3    C5 4344   2.950   2.210  14.266  1.1559  0.7119 -0.0698
  288TMC3    C6 4345   2.819   2.204  14.317  0.1775  0.0016 -0.2820
  288TMC3     C 4346   3.149   2.027  14.505  0.1614  0.1408  0.7344
  288TMC3     O 4347   3.233   1.984  14.426  0.5244  0.1291  0.5946
  288TMC3     H 4348   2.899   2.058  14.610  1.1258 -0.8765 -0.5231
  288TMC3    H1 4349   3.160   2.149  14.304 -0.2285 -0.9697 -2.0700
  288TMC3    H2 4350   2.729   2.239  14.268  0.1387  0.2043 -0.0630
  288TMC3    C7 4351   2.993   2.270  14.143  0.1697  0.4462  0.0277
  288TMC3    C8 4352   2.686   2.201  14.508 -0.0869  0.1151  0.2087
  288TMC3    O1 4353   3.110   2.236  14.116 -0.4461 -0.2319  0.0317
  288TMC3    O2 4354   2.637   2.309  14.470 -0.7002 -0.5221  0.4352
  289MPD2     C 4355   2.704   1.157  14.744 -0.3252  0.2771  0.1575
  289MPD2    C1 4356   2.689   1.281  14.688 -0.1562 -0.0100 -0.5062
  289MPD2    C2 4357   2.632   1.287  14.561  0.1077  0.0580  0.0997
  289MPD2    C3 4358   2.576   1.175  14.502  0.6261 -0.2280 -0.4394
  289MPD2    C4 4359   2.587   1.056  14.569  0.2291 -0.3844  0.0709
  289MPD2    C5 4360   2.656   1.044  14.683  0.2689  0.3438 -0.0916
  289MPD2     H 4361   2.624   1.381  14.506  0.9490  0.1009  0.0500
  289MPD2    H1 4362   2.542   0.967  14.528  0.3399 -0.0562 -0.7590
  289MPD2    H2 4363   2.742   1.142  14.845  0.0020 -0.7650 -0.1233
  289MPD2    H3 4364   2.654   0.949  14.735  0.6505  1.2553  1.6064
  289MPD2     N 4365   2.499   1.172  14.385 -0.2323  0.1072  0.3361
  289MPD2    H5 4366   2.472   1.077  14.362  1.6932  0.1042 -1.8829
  289MPD2    N1 4367   2.758   1.385  14.748 -0.2173  0.1784  0.7476
  289MPD2    H7 4368   2.810   1.356  14.830 -0.7533  1.2082  1.4679
  290TMC3    C1 4369   2.360   1.239  14.198  0.1266  0.0724 -0.0635
  290TMC3    C2 4370   2.292   1.351  14.145  0.2997 -0.2475  0.4891
  290TMC3    C3 4371   2.182   1.324  14.082  0.4968 -0.9487  0.3398
  290TMC3    C4 4372   2.317   1.111  14.191 -0.3638 -0.0701  0.6526
  290TMC3    C5 4373   2.193   1.092  14.127  0.1940  0.2692 -0.1500
  290TMC3    C6 4374   2.133   1.196  14.068 -0.2236 -0.3639 -0.1846
  290TMC3     C 4375   2.460   1.274  14.300  0.4523 -0.2863 -0.6384
  290TMC3     O 4376   2.470   1.393  14.326  0.3593  0.8519 -0.2813
  290TMC3     H 4377   2.325   1.453  14.160  0.4507 -0.0976 -0.8718
  290TMC3    H1 4378   2.374   1.028  14.231 -1.0001 -1.2258 -0.8343
  290TMC3    H2 4379   2.039   1.184  14.014 -0.2635  0.4604 -0.3119
  290TMC3    C7 4380   2.158   0.959  14.073 -0.0706  0.2419 -0.5442
  290TMC3    C8 4381   2.075   1.421  14.063  0.8670 -0.1575 -0.1281
  290TMC3    O1 4382   2.099   0.961  13.965 -0.6919 -0.2323 -0.4931
  290TMC3    O2 4383   1.998   1.391  13.975 -0.3317  0.3339 -0.0695
  291MPD2     C 4384   2.940   0.845   1.356  0.6172 -0.3535  0.8642
  291MPD2    C1 4385   2.900   0.947   1.267 -0.6689 -0.0692 -0.0738
  291MPD2    C2 4386   2.966   1.071   1.276  0.0937 -0.0070  0.4236
  291MPD2    C3 4387   3.053   1.107   1.378  0.2882  0.5319  0.0614
  291MPD2    C4 4388   3.085   1.010   1.468 -0.0036  0.5805  0.4493
  291MPD2    C5 4389   3.033   0.880   1.453 -0.1036  0.4099 -0.1712
  291MPD2     H 4390   2.924   1.151   1.216 -1.6948 -1.1134  0.1994
  291MPD2    H1 4391   3.153   1.018   1.553  3.2155 -0.6265 -1.9983
  291MPD2    H2 4392   2.892   0.748   1.347 -0.5350  0.4869 -1.7923
  291MPD2    H3 4393   3.064   0.805   1.525 -1.3319 -0.1881 -0.2786
  291MPD2     N 4394   3.120   1.238   1.389 -0.2950  1.4781 -0.4547
  291MPD2    H5 4395   3.172   1.258   1.474 -2.7809  3.3108  0.6227
  291MPD2    N1 4396   2.791   0.936   1.178  0.2232 -0.0914  0.3069
  291MPD2    H7 4397   2.763   1.019   1.127  1.4365  0.1550  0.0468
  292TMC3    C1 4398   2.606   0.836   1.077  0.2023  0.3282 -0.4229
  292TMC3    C2 4399   2.529   0.938   1.126 -1.0523 -0.0906 -0.7035
  292TMC3    C3 4400   2.398   0.915   1.128  0.2886 -0.2409 -0.4815
  292TMC3    C4 4401   2.557   0.722   1.024  0.3732  0.1834 -0.0041
  292TMC3    C5 4402   2.423   0.725   1.002  0.0450  0.0037 -0.1102
  292TMC3    C6 4403   2.339   0.820   1.050 -0.0304 -0.0791  0.0653
  292TMC3     C 4404   2.730   0.819   1.142 -0.2392 -0.7846  0.0338
  292TMC3     O 4405   2.776   0.704   1.142  0.0576 -0.0704 -0.2437
  292TMC3     H 4406   2.570   1.014   1.192  1.6796 -1.1620 -1.2045
  292TMC3    H1 4407   2.619   0.639   0.993  0.9483  0.2805  0.9133
  292TMC3    H2 4408   2.232   0.810   1.059 -0.1954  0.9132 -0.8506
  292TMC3    C7 4409   2.355   0.605   0.938 -0.3005  0.2660 -0.4022
  292TMC3    C8 4410   2.317   0.990   1.225 -0.2021 -0.3550 -0.0124
  292TMC3    O1 4411   2.432   0.515   0.905 -0.1496  0.0383 -0.0037
  292TMC3    O2 4412   2.376   1.068   1.298 -0.3270 -0.2937 -0.4075
  293MPD2     C 4413   3.971   2.541  12.697  0.4258 -0.2871  0.3455
  293MPD2    C1 4414   3.906   2.442  12.763  0.1778  0.7084  1.0818
  293MPD2    C2 4415   3.891   2.461  12.900  0.0443 -1.0289 -0.2281
  293MPD2    C3 4416   3.908   2.584  12.958  0.5652  0.5352 -0.1006
  293MPD2    C4 4417   3.941   2.691  12.878  0.5285 -0.1525 -0.0334
  293MPD2    C5 4418   3.993   2.658  12.751 -0.4104  0.6499  0.4980
  293MPD2     H 4419   3.846   2.383  12.961 -1.0036  0.0016  0.3098
  293MPD2    H1 4420   3.950   2.795  12.908 -0.4467  0.1170 -0.6785
  293MPD2    H2 4421   4.005   2.509  12.599  1.5755  0.5904  0.4667
  293MPD2    H3 4422   4.056   2.728  12.697 -0.2259  0.0140 -0.1076
  293MPD2     N 4423   3.884   2.599  13.098  0.4004 -0.1132  0.1541
  293MPD2    H5 4424   3.891   2.522  13.162 -0.8257 -0.7697 -0.5008
  293MPD2    N1 4425   3.850   2.334  12.680 -0.6072 -0.3245  0.8292
  293MPD2    H7 4426   3.871   2.344  12.581  0.4352  1.4200  1.2182
  294TMC3    C1 4427   3.757   2.121  12.625 -0.1478 -1.1036  0.9322
  294TMC3    C2 4428   3.637   2.059  12.639 -0.4710 -0.7273 -0.0122
  294TMC3    C3 4429   3.583   1.974  12.541 -0.3909 -0.5842  0.6444
  294TMC3    C4 4430   3.823   2.110  12.503  0.1713 -0.4548 -0.3231
  294TMC3    C5 4431   3.779   2.013  12.412  0.4845 -0.0913 -0.3208
  294TMC3    C6 4432   3.662   1.944  12.433  0.2991  0.2257 -0.0828
  294TMC3     C 4433   3.784   2.222  12.723 -0.4928  0.7628 -0.7507
  294TMC3     O 4434   3.764   2.191  12.835 -0.2748 -0.6284  0.1253
  294TMC3     H 4435   3.579   2.076  12.729  2.1157  2.5133  1.0670
  294TMC3    H1 4436   3.916   2.158  12.477  0.5848 -1.9691 -1.6541
  294TMC3    H2 4437   3.630   1.878  12.353  0.3371  1.9172 -1.5021
  294TMC3    C7 4438   3.830   2.002  12.278 -0.1319  0.4811  0.8590
  294TMC3    C8 4439   3.472   1.893  12.586 -0.6163  0.2432  0.0144
  294TMC3    O1 4440   3.741   1.990  12.193  0.2804  0.0893  0.1529
  294TMC3    O2 4441   3.415   1.926  12.692 -0.1118  0.1022  0.3393
  295MPD2     C 4442   3.736   1.236   0.522  0.1513 -0.5019 -0.0257
  295MPD2    C1 4443   3.810   1.348   0.561 -0.7012 -0.1347  0.1181
  295MPD2    C2 4444   3.844   1.355   0.696 -0.4463  0.1106 -0.2013
  295MPD2    C3 4445   3.799   1.257   0.785  0.5799  1.0190  0.6274
  295MPD2    C4 4446   3.724   1.147   0.747  0.7262  0.2067  0.0611
  295MPD2    C5 4447   3.695   1.139   0.610  0.0441 -0.1331  0.7924
  295MPD2     H 4448   3.902   1.441   0.727  0.9021 -0.6480 -0.6353
  295MPD2    H1 4449   3.688   1.066   0.810  0.5487  1.4740  1.5737
  295MPD2    H2 4450   3.738   1.208   0.417  0.7684 -2.0757  0.4029
  295MPD2    H3 4451   3.639   1.055   0.571 -0.2761  1.0293 -1.2121
  295MPD2     N 4452   3.831   1.261   0.924 -0.2123 -0.5322 -0.3690
  295MPD2    H5 4453   3.811   1.181   0.983 -0.9692 -1.9686 -2.5655
  295MPD2    N1 4454   3.861   1.448   0.465 -0.4531 -0.4094  0.5504
  295MPD2    H7 4455   3.923   1.520   0.500  0.2565 -0.4145 -0.6999
  296TMC3    C1 4456   3.951   1.317   1.112 -0.1674 -0.0720 -1.1155
  296TMC3    C2 4457   3.963   1.416   1.204  0.5853  0.2928  0.3849
  296TMC3    C3 4458   3.969   1.382   1.336  0.4387  1.0709 -0.3630
  296TMC3    C4 4459   3.937   1.186   1.141 -0.7538  0.8608 -0.3595
  296TMC3    C5 4460   3.949   1.160   1.273  0.2044  0.0369  0.5626
  296TMC3    C6 4461   3.963   1.255   1.370 -0.2754 -0.2786 -0.5261
  296TMC3     C 4462   3.914   1.357   0.979 -0.1333  0.4126  0.6273
  296TMC3     O 4463   3.967   1.461   0.937  0.1213 -0.4058  0.5219
  296TMC3     H 4464   3.956   1.518   1.168 -0.4191  0.3713  0.8029
  296TMC3    H1 4465   3.921   1.106   1.070 -0.3493 -0.4008  0.9559
  296TMC3    H2 4466   3.928   1.229   1.469 -0.4744 -2.8679 -1.2740
  296TMC3    C7 4467   3.890   1.033   1.314 -0.1291  0.2904  0.0494
  296TMC3    C8 4468   3.980   1.490   1.427 -0.7083  0.2406 -0.3820
  296TMC3    O1 4469   3.829   0.972   1.228 -0.2793 -0.1283 -0.5027
  296TMC3    O2 4470   3.979   1.602   1.376  0.8036  0.1374  0.0399
  297MPD2     C 4471   1.565   3.063  16.731  0.7635 -0.5316  0.7433
  297MPD2    C1 4472   1.575   3.091  16.597 -0.2397 -0.9253 -0.3562
  297MPD2    C2 4473   1.672   3.181  16.555  0.5079 -0.1832 -0.0441
  297MPD2    C3 4474   1.753   3.246  16.647 -0.1338  0.5890  0.9855
  297MPD2    C4 4475   1.753   3.207  16.779  0.2866  0.1287 -0.3471
  297MPD2    C5 4476   1.647   3.121  16.819  0.0235  0.2133  0.2210
  297MPD2     H 4477   1.689   3.208  16.451 -1.1699  0.2899 -0.1891
  297MPD2    H1 4478   1.811   3.251  16.859  0.3854  2.2636 -1.5884
  297MPD2    H2 4479   1.499   2.983  16.762 -1.3271  0.7513 -0.3422
  297MPD2    H3 4480   1.639   3.086  16.922 -0.1298 -2.8609 -0.8456
  297MPD2     N 4481   1.839   3.343  16.599 -0.2954 -0.1160 -0.1920
  297MPD2    H5 4482   1.850   3.346  16.498  0.9627 -2.4655 -0.0964
  297MPD2    N1 4483   1.485   3.038  16.507  0.1215 -0.3397 -0.0899
  297MPD2    H7 4484   1.489   3.076  16.414 -1.3701 -0.8944 -0.3837
  298TMC3    C1 4485   1.285   2.937  16.423 -0.7161 -0.2204 -0.0641
  298TMC3    C2 4486   1.328   2.967  16.294  0.3029 -0.5846 -0.6103
  298TMC3    C3 4487   1.230   2.973  16.199 -0.6257 -0.7998 -0.0174
  298TMC3    C4 4488   1.159   2.926  16.467 -0.3492  0.4151 -0.1986
  298TMC3    C5 4489   1.062   2.936  16.366  0.1792  0.4547  0.0244
  298TMC3    C6 4490   1.098   2.959  16.233  1.1119 -0.0014  0.1496
  298TMC3     C 4491   1.389   2.937  16.527  0.2825 -0.5591 -1.2177
  298TMC3     O 4492   1.358   2.881  16.632  0.3752 -0.1310  0.1315
  298TMC3     H 4493   1.430   2.964  16.259  0.2805 -0.1904 -0.7083
  298TMC3    H1 4494   1.127   2.905  16.568  2.6436  0.6757  0.8003
  298TMC3    H2 4495   1.025   2.980  16.155  0.0758 -2.7575  0.3818
  298TMC3    C7 4496   0.954   3.018  16.406 -0.5740 -0.0588 -0.6270
  298TMC3    C8 4497   1.261   2.996  16.054 -0.0928  0.1240 -0.1163
  298TMC3    O1 4498   0.965   3.080  16.512  0.4719 -0.0517  0.6611
  298TMC3    O2 4499   1.178   2.965  15.968 -0.0070  0.7425 -0.1283
  299MPD2     C 4500   1.989   1.892  10.744 -0.2076  0.6326 -0.2889
  299MPD2    C1 4501   1.966   2.027  10.718  0.6062  0.5375  0.2592
  299MPD2    C2 4502   1.899   2.064  10.601  0.0000 -0.2113  0.6202
  299MPD2    C3 4503   1.846   1.963  10.510  0.0505  0.3659 -0.2727
  299MPD2    C4 4504   1.866   1.827  10.549  0.4673 -0.1143  0.1586
  299MPD2    C5 4505   1.937   1.795  10.660 -0.4856  0.3006  0.1800
  299MPD2     H 4506   1.890   2.170  10.579 -1.2597 -0.3540  0.4445
  299MPD2    H1 4507   1.828   1.749  10.485  0.6444 -1.0459  1.1911
  299MPD2    H2 4508   2.046   1.861  10.831  2.0195  2.5981 -1.0431
  299MPD2    H3 4509   1.961   1.691  10.678  2.3577  0.6575 -1.4888
  299MPD2     N 4510   1.756   1.984  10.401 -0.0193 -0.1134 -0.0333
  299MPD2    H5 4511   1.726   1.903  10.348  1.3858 -1.7402  1.6627
  299MPD2    N1 4512   2.027   2.122  10.804  0.9069 -0.0340 -0.3326
  299MPD2    H7 4513   2.062   2.085  10.892  2.5234  0.8887 -0.5877
  300TMC3    C1 4514   1.603   2.121  10.284  0.0973 -0.1318  0.0054
  300TMC3    C2 4515   1.565   2.253  10.271 -0.0669  0.3926  0.2927
  300TMC3    C3 4516   1.439   2.293  10.303  0.2262 -0.6550 -0.0677
  300TMC3    C4 4517   1.511   2.022  10.315  0.3405 -0.1140  0.2632
  300TMC3    C5 4518   1.397   2.068  10.365 -0.4651  0.1167  0.4356
  300TMC3    C6 4519   1.356   2.195  10.360  0.0912  0.2549 -0.3636
  300TMC3     C 4520   1.726   2.111  10.358  0.0204  0.0953 -0.6298
  300TMC3     O 4521   1.788   2.215  10.378 -0.1361 -0.6471 -0.0408
  300TMC3     H 4522   1.636   2.321  10.223 -0.7648  2.8546  2.7786
  300TMC3    H1 4523   1.530   1.918  10.341  2.0299 -0.8522 -3.9570
  300TMC3    H2 4524   1.252   2.209  10.387  0.6798  1.2115  1.3874
  300TMC3    C7 4525   1.347   1.983  10.471  0.0532 -0.1065  0.2218
  300TMC3    C8 4526   1.422   2.432  10.339  0.1244  0.4857 -0.0348
  300TMC3    O1 4527   1.338   1.865  10.451 -0.4346 -0.0966 -0.3293
  300TMC3    O2 4528   1.520   2.504  10.329 -0.3760  0.4776 -0.0598
  301MPD2     C 4529   0.512   4.603   1.592  0.1932 -0.1209 -0.6590
  301MPD2    C1 4530   0.412   4.558   1.511 -0.0092 -0.4267 -0.5623
  301MPD2    C2 4531   0.401   4.425   1.496 -0.6328 -1.0827 -0.4347
  301MPD2    C3 4532   0.480   4.331   1.565 -0.6020  0.1538 -0.1210
  301MPD2    C4 4533   0.559   4.376   1.667 -0.2192  0.3600 -0.1804
  301MPD2    C5 4534   0.572   4.511   1.676 -0.2923 -0.3598 -0.0624
  301MPD2     H 4535   0.335   4.395   1.416 -2.3832 -0.6683  0.8577
  301MPD2    H1 4536   0.618   4.307   1.726 -1.6057 -2.2455 -1.7855
  301MPD2    H2 4537   0.526   4.710   1.608  0.6694 -0.0778 -1.3482
  301MPD2    H3 4538   0.637   4.544   1.756  0.1607  1.3508 -1.1291
  301MPD2     N 4539   0.465   4.188   1.550 -0.2143 -0.5302  0.1342
  301MPD2    H5 4540   0.510   4.136   1.624 -0.8103 -1.2430  0.0009
  301MPD2    N1 4541   0.320   4.640   1.433  0.2150  0.4175 -1.1132
  301MPD2    H7 4542   0.258   4.586   1.374 -0.3726  0.8815 -0.9193
  302TMC3    C1 4543   0.371   3.986   1.459 -0.2142  0.0361  0.8361
  302TMC3    C2 4544   0.438   3.912   1.554  0.1613 -0.4651 -0.0283
  302TMC3    C3 4545   0.392   3.785   1.580 -0.5158 -0.4315 -0.4168
  302TMC3    C4 4546   0.255   3.939   1.404  0.0047 -0.8209  0.0915
  302TMC3    C5 4547   0.203   3.819   1.447  0.1558 -0.0054 -1.1142
  302TMC3    C6 4548   0.274   3.736   1.528 -0.2305  0.2415  0.4943
  302TMC3     C 4549   0.383   4.135   1.448 -0.6633  0.2258 -0.1219
  302TMC3     O 4550   0.332   4.180   1.346 -0.0938  0.1353 -0.0081
  302TMC3     H 4551   0.539   3.934   1.587  0.5200  0.7831 -1.9705
  302TMC3    H1 4552   0.195   4.011   1.350  0.3584 -1.8154 -1.6415
  302TMC3    H2 4553   0.252   3.632   1.549  3.3182 -0.6238  0.0254
  302TMC3    C7 4554   0.091   3.763   1.369  0.8339  0.7931 -0.8217
  302TMC3    C8 4555   0.473   3.693   1.659  0.6924  0.0584 -0.2417
  302TMC3    O1 4556   0.057   3.649   1.400 -0.8348 -0.4942 -0.6918
  302TMC3    O2 4557   0.469   3.572   1.638  0.6378  0.6869 -0.4107
  303MPD2     C 4558   4.674   2.084  11.223  0.1386  0.2966  0.1405
  303MPD2    C1 4559   4.641   1.973  11.145  0.2384 -0.0509 -0.0859
  303MPD2    C2 4560   4.634   1.983  10.999  0.4036 -1.1776  0.5462
  303MPD2    C3 4561   4.654   2.110  10.946  0.4218 -0.2150 -0.2542
  303MPD2    C4 4562   4.682   2.217  11.029  0.1263 -0.6933 -0.9939
  303MPD2    C5 4563   4.687   2.203  11.161  0.6929  0.1507  0.1369
  303MPD2     H 4564   4.620   1.896  10.937 -2.1581  0.0887 -0.6244
  303MPD2    H1 4565   4.713   2.309  10.981  0.5629 -0.7910 -0.8982
  303MPD2    H2 4566   4.670   2.083  11.331 -0.8546  0.6196  0.1102
  303MPD2    H3 4567   4.709   2.289  11.222  0.6481  0.2261  0.0478
  303MPD2     N 4568   4.623   2.142  10.812 -0.3920  0.0671  0.2261
  303MPD2    H5 4569   4.609   2.239  10.788 -1.8216 -0.8745 -2.7328
  303MPD2    N1 4570   4.604   1.863  11.229  0.3326  0.7643 -0.2410
  303MPD2    H7 4571   4.594   1.875  11.329 -0.9527  0.3180 -0.3145
  304TMC3    C1 4572   4.486   1.670  11.284 -0.6084 -0.5690 -0.2329
  304TMC3    C2 4573   4.403   1.741  11.373  0.2681  0.9752 -0.6388
  304TMC3    C3 4574   4.301   1.677  11.436  0.0545 -0.2165 -0.6031
  304TMC3    C4 4575   4.461   1.538  11.256  0.8673 -0.1669  0.0773
  304TMC3    C5 4576   4.348   1.485  11.311 -0.1941 -0.3626 -0.1082
  304TMC3    C6 4577   4.269   1.549  11.403  0.0601  0.0647 -0.4129
  304TMC3     C 4578   4.560   1.745  11.178 -0.6525 -0.3293  0.2290
  304TMC3     O 4579   4.545   1.703  11.065 -0.0198 -0.2179  0.7064
  304TMC3     H 4580   4.422   1.846  11.387 -0.3012  1.0831 -0.6820
  304TMC3    H1 4581   4.517   1.478  11.185 -0.8369 -0.9930 -0.5740
  304TMC3    H2 4582   4.181   1.500  11.442  1.6773 -3.8589 -1.7079
  304TMC3    C7 4583   4.265   1.417  11.203 -0.1866  0.1866  0.5499
  304TMC3    C8 4584   4.181   1.753  11.435  0.1313  0.9384 -0.3615
  304TMC3    O1 4585   4.316   1.348  11.120 -0.4098  0.8624  0.0501
  304TMC3    O2 4586   4.086   1.696  11.386 -0.1917  0.6239  0.4737
  305MPD2     C 4587   2.509   4.304  14.293  0.9230  0.1859  0.1814
  305MPD2    C1 4588   2.450   4.182  14.316 -0.7723 -0.6121 -0.9111
  305MPD2    C2 4589   2.402   4.110  14.213  0.3145  0.7076  0.2260
  305MPD2    C3 4590   2.420   4.153  14.088 -0.8024  0.1669 -0.2693
  305MPD2    C4 4591   2.475   4.271  14.058 -0.3295 -0.3630  0.4402
  305MPD2    C5 4592   2.518   4.349  14.165 -0.5546  0.0457  0.2316
  305MPD2     H 4593   2.337   4.025  14.234  2.3339 -0.8307  0.1883
  305MPD2    H1 4594   2.493   4.291  13.953  1.1820  0.7359  0.9081
  305MPD2    H2 4595   2.560   4.355  14.374  0.0382 -0.7201  1.3239
  305MPD2    H3 4596   2.573   4.442  14.153  0.0170 -0.5381 -1.6511
  305MPD2     N 4597   2.385   4.075  13.977 -0.3840 -0.5770 -0.1901
  305MPD2    H5 4598   2.404   4.118  13.887  0.4574  2.4400  1.4465
  305MPD2    N1 4599   2.453   4.125  14.448 -0.2891  0.4065  0.2290
  305MPD2    H7 4600   2.491   4.187  14.519  1.4799  0.7203 -0.9602
  306TMC3    C1 4601   2.475   3.958  14.610  1.2056 -0.0831  0.0245
  306TMC3    C2 4602   2.519   3.834  14.639 -0.2041  0.2388  0.3374
  306TMC3    C3 4603   2.579   3.821  14.764  0.1417 -0.5098  0.0487
  306TMC3    C4 4604   2.465   4.064  14.705  0.9357 -0.2075  0.0204
  306TMC3    C5 4605   2.534   4.043  14.821  0.8717  0.7388  0.1127
  306TMC3    C6 4606   2.591   3.922  14.857 -0.4619  0.0779  0.1689
  306TMC3     C 4607   2.440   3.988  14.474  0.2705 -0.2060 -0.1810
  306TMC3     O 4608   2.444   3.896  14.396  0.2778  0.5276  0.8757
  306TMC3     H 4609   2.527   3.761  14.560 -1.0401 -1.7485  2.0931
  306TMC3    H1 4610   2.420   4.159  14.679 -0.9489 -0.9505  0.5824
  306TMC3    H2 4611   2.649   3.896  14.945  0.8987  1.9527 -0.1639
  306TMC3    C7 4612   2.535   4.154  14.911 -0.1323  0.4310 -0.4661
  306TMC3    C8 4613   2.625   3.691  14.809 -0.0795  0.4968  0.5867
  306TMC3    O1 4614   2.472   4.256  14.877 -0.1329 -0.3279 -0.0598
  306TMC3    O2 4615   2.707   3.691  14.902 -0.4473  0.1303 -0.4543
  307MPD2     C 4616   0.535   1.918   0.926 -0.2476 -0.0618 -0.0623
  307MPD2    C1 4617   0.489   2.046   0.887 -1.1561 -0.0698  0.1782
  307MPD2    C2 4618   0.405   2.115   0.966  0.2975 -0.5039  0.5568
  307MPD2    C3 4619   0.365   2.065   1.086 -0.3794 -0.1959  0.4422
  307MPD2    C4 4620   0.411   1.944   1.131  0.4356 -0.5886 -0.0090
  307MPD2    C5 4621   0.498   1.872   1.050 -0.2547 -0.3813 -0.1843
  307MPD2     H 4622   0.361   2.208   0.932 -1.2637 -1.4274  0.0601
  307MPD2    H1 4623   0.381   1.901   1.225  0.3009 -1.6578 -0.5357
  307MPD2    H2 4624   0.595   1.849   0.868 -1.4495  0.8424 -2.3329
  307MPD2    H3 4625   0.538   1.778   1.086 -0.5278 -0.7629 -0.8815
  307MPD2     N 4626   0.276   2.145   1.156  0.0493 -0.1992  0.1072
  307MPD2    H5 4627   0.237   2.222   1.102  1.0598  0.2271 -0.0048
  307MPD2    N1 4628   0.533   2.111   0.769  0.8247  1.0148 -0.5536
  307MPD2    H7 4629   0.483   2.197   0.750  0.6093  1.0766  0.3202
  308TMC3    C1 4630   4.656   2.284   1.395  0.0834  0.6528 -0.1824
  308TMC3    C2 4631   4.685   2.417   1.377 -0.5063  0.2588  0.1805
  308TMC3    C3 4632   0.082   2.459   1.327  0.2161 -0.2375  0.1517
  308TMC3    C4 4633   0.023   2.182   1.382  0.4708  0.1928  0.1400
  308TMC3    C5 4634   0.143   2.227   1.331  0.4474 -0.0134 -0.6408
  308TMC3    C6 4635   0.176   2.360   1.304  0.5441 -0.1457 -0.0413
  308TMC3     C 4636   4.521   2.241   1.402 -0.2433 -0.3038  0.7662
  308TMC3     O 4637   4.499   2.144   1.475  0.2878  0.4725  0.4908
  308TMC3     H 4638   4.604   2.487   1.389  0.9968  2.1900 -0.8839
  308TMC3    H1 4639   0.002   2.076   1.383  0.8471  0.1179  0.2249
  308TMC3    H2 4640   0.278   2.383   1.274  0.1799  1.1209 -0.2956
  308TMC3    C7 4641   0.235   2.123   1.291  0.7146  0.0867 -0.7030
  308TMC3    C8 4642   0.088   2.592   1.261 -0.4015  0.6070 -0.4405
  308TMC3    O1 4643   0.249   2.025   1.364  0.1128  0.1418  0.1516
  308TMC3    O2 4644   0.176   2.609   1.179  0.7246  0.2336  0.5883
  309MPD2     C 4645   4.398   3.247  17.591  0.2619 -0.4453  0.2206
  309MPD2    C1 4646   4.291   3.223  17.504 -0.2445 -0.4124 -0.0700
  309MPD2    C2 4647   4.165   3.248  17.555 -0.2195  0.6751 -0.4925
  309MPD2    C3 4648   4.142   3.300  17.686  0.4650  0.3898  0.3666
  309MPD2    C4 4649   4.244   3.328   0.060 -0.0314 -0.1388 -0.5414
  309MPD2    C5 4650   4.371   3.298   0.014 -0.2247 -0.1217  0.5132
  309MPD2     H 4651   4.088   3.244  17.478  1.2171 -0.2104 -1.8917
  309MPD2    H1 4652   4.230   3.370   0.159  2.0224  2.2039 -1.2346
  309MPD2    H2 4653   4.499   3.247  17.552 -0.4403 -2.4597 -1.6535
  309MPD2    H3 4654   4.455   3.319   0.079  0.6647 -2.0354 -0.0327
  309MPD2     N 4655   4.013   3.317   0.036 -0.0984  1.0246 -0.3690
  309MPD2    H5 4656   3.999   3.330   0.136 -1.6916  2.9848 -0.8378
  309MPD2    N1 4657   4.293   3.164  17.375 -0.1206 -0.4802 -0.2597
  309MPD2    H7 4658   4.212   3.153  17.315 -3.3003  0.9759  3.7966
  310TMC3    C1 4659   4.404   3.051  17.192  0.3345  0.8467 -0.4189
  310TMC3    C2 4660   4.295   3.064  17.109  0.6863  0.6347 -0.2063
  310TMC3    C3 4661   4.300   3.006  16.987 -0.0838  0.6886  0.4363
  310TMC3    C4 4662   4.519   2.981  17.154 -0.2648  0.7870  0.0429
  310TMC3    C5 4663   4.522   2.925  17.024  0.0181 -0.0881 -0.0371
  310TMC3    C6 4664   4.410   2.932  16.953  0.1437 -0.0143  0.5599
  310TMC3     C 4665   4.410   3.112  17.325  0.3293 -0.3288  0.0204
  310TMC3     O 4666   4.510   3.093  17.385 -0.3007  0.1031 -0.2409
  310TMC3     H 4667   4.220   3.141  17.123  0.6677  0.6960 -0.6598
  310TMC3    H1 4668   4.607   2.990  17.216  0.0018  0.7164 -0.3234
  310TMC3    H2 4669   4.399   2.876  16.861 -1.1014  0.3211  0.5032
  310TMC3    C7 4670   4.642   2.862  16.965 -0.0012 -0.4909 -0.2250
  310TMC3    C8 4671   4.175   2.966  16.921 -0.5067 -0.2283 -0.4875
  310TMC3    O1 4672   4.623   2.825  16.849  0.4409 -0.2073 -0.2629
  310TMC3    O2 4673   4.182   2.966  16.799  0.0221 -0.4649  1.2298
  311MPD2     C 4674   1.441   3.539  13.097 -0.9555  0.1005 -0.0127
  311MPD2    C1 4675   1.413   3.671  13.094  0.6664  0.4020 -0.8598
  311MPD2    C2 4676   1.285   3.711  13.137 -0.4905 -0.0275  0.1007
  311MPD2    C3 4677   1.187   3.618  13.163 -0.3518 -0.3261 -0.1372
  311MPD2    C4 4678   1.219   3.488  13.168 -0.0115  0.2947 -0.8378
  311MPD2    C5 4679   1.346   3.448  13.135  0.1475  0.4687  0.7888
  311MPD2     H 4680   1.263   3.817  13.135  2.2967  0.5418 -0.0823
  311MPD2    H1 4681   1.147   3.409  13.188  0.7550 -0.5865 -1.5805
  311MPD2    H2 4682   1.538   3.491  13.084 -1.6305 -1.6880  1.5366
  311MPD2    H3 4683   1.372   3.343  13.126  1.1991  0.8615 -0.6480
  311MPD2     N 4684   1.055   3.666  13.180  0.5713 -0.2092  0.2946
  311MPD2    H5 4685   1.041   3.767  13.184 -0.2052 -0.3567  1.4130
  311MPD2    N1 4686   1.514   3.769  13.075  0.3796 -0.2724 -0.4373
  311MPD2    H7 4687   1.491   3.867  13.088 -0.3728 -0.5099  0.0039
  312TMC3    C1 4688   0.820   3.651  13.209 -0.1154 -0.1203  0.8296
  312TMC3    C2 4689   0.709   3.613  13.137 -0.1759 -0.1331  0.3411
  312TMC3    C3 4690   0.602   3.702  13.147  0.1967 -0.4222  0.4138
  312TMC3    C4 4691   0.820   3.740  13.302  1.1792 -0.4225  0.6875
  312TMC3    C5 4692   0.707   3.820  13.310  0.0945  0.1634  0.0346
  312TMC3    C6 4693   0.596   3.802  13.242  0.6127 -0.1854 -0.2183
  312TMC3     C 4694   0.944   3.589  13.182 -0.6767  0.0897  0.1761
  312TMC3     O 4695   0.927   3.471  13.161 -0.0231 -0.1785 -0.7909
  312TMC3     H 4696   0.724   3.531  13.067 -0.1620 -1.7360  2.2207
  312TMC3    H1 4697   0.910   3.770  13.355  1.4196 -1.3097  0.7701
  312TMC3    H2 4698   0.507   3.863  13.248  0.0112 -1.0897  0.0056
  312TMC3    C7 4699   0.718   3.930  13.401  0.2333  0.1630 -0.0987
  312TMC3    C8 4700   0.519   3.708  13.035  0.2353 -0.2545 -0.1253
  312TMC3    O1 4701   0.653   4.032  13.380 -0.3522 -0.2755 -0.3803
  312TMC3    O2 4702   0.508   3.603  12.966 -0.8579 -0.0314 -0.1541
  313MPD2     C 4703   1.116   2.487  10.895  0.2256  0.5018  0.3695
  313MPD2    C1 4704   0.982   2.523  10.895  0.3973 -0.1149 -0.0827
  313MPD2    C2 4705   0.906   2.468  10.798  0.3204  0.1636  0.2358
  313MPD2    C3 4706   0.955   2.385  10.703  0.1450  0.5796 -0.0994
  313MPD2    C4 4707   1.082   2.342  10.705  0.2717 -0.6501  0.4240
  313MPD2    C5 4708   1.164   2.407  10.793 -0.1921 -0.5354 -0.1515
  313MPD2     H 4709   0.798   2.478  10.799  0.2578 -0.4123 -0.7748
  313MPD2    H1 4710   1.129   2.270  10.639 -2.1498 -1.3402 -0.5248
  313MPD2    H2 4711   1.187   2.536  10.961  0.7764  1.3338 -0.8388
  313MPD2    H3 4712   1.269   2.382  10.805  0.0037 -0.4318 -1.6016
  313MPD2     N 4713   0.876   2.343  10.601 -0.4801 -0.1553  0.9260
  313MPD2    H5 4714   0.779   2.371  10.609 -0.7837 -0.6236 -1.0159
  313MPD2    N1 4715   0.934   2.592  11.015 -0.2912 -0.6625  0.6498
  313MPD2    H7 4716   1.004   2.611  11.086 -1.2904 -3.2144  2.3234
  314TMC3    C1 4717   0.779   2.692  11.175 -0.3714  0.0788  0.9290
  314TMC3    C2 4718   0.890   2.752  11.222  0.0748 -0.5300  0.1803
  314TMC3    C3 4719   0.864   2.876  11.280  0.6579  0.4985  0.0782
  314TMC3    C4 4720   0.651   2.749  11.173 -0.3380 -0.5487  0.2636
  314TMC3    C5 4721   0.631   2.868  11.237  0.4317  0.4224  0.3142
  314TMC3    C6 4722   0.742   2.929  11.293 -0.3361 -0.1573  0.5838
  314TMC3     C 4723   0.800   2.617  11.048 -0.2052  0.1841  0.6042
  314TMC3     O 4724   0.707   2.620  10.969  0.3743 -0.6248  0.0355
  314TMC3     H 4725   0.990   2.719  11.199  0.1871  0.4642 -0.7310
  314TMC3    H1 4726   0.568   2.716  11.112  0.2264  2.9131 -2.3698
  314TMC3    H2 4727   0.721   3.024  11.340 -1.3659 -1.6146  3.1159
  314TMC3    C7 4728   0.532   2.951  11.181  0.3779 -0.4871 -0.2775
  314TMC3    C8 4729   0.971   2.966  11.303 -0.3705  0.1378  0.3838
  314TMC3    O1 4730   0.422   2.895  11.158 -0.4458 -0.1415 -0.3350
  314TMC3    O2 4731   0.940   3.087  11.294 -0.0773 -1.0836  0.3771
  315MPD2     C 4732   0.607   2.874   0.327 -0.4284  0.1226 -0.4037
  315MPD2    C1 4733   0.597   2.977   0.422 -0.1008 -0.5839 -0.1082
  315MPD2    C2 4734   0.628   3.102   0.380 -0.3761 -0.3133 -0.8061
  315MPD2    C3 4735   0.657   3.132   0.250  0.8083  0.1470 -0.0591
  315MPD2    C4 4736   0.661   3.032   0.157  0.7708  0.1801  0.3962
  315MPD2    C5 4737   0.628   2.907   0.200 -0.3809 -0.5259  0.0809
  315MPD2     H 4738   0.658   3.175   0.455  0.9091 -0.8407 -0.8079
  315MPD2    H1 4739   0.695   3.040   0.054  1.0150 -2.2139  0.2787
  315MPD2    H2 4740   0.587   2.771   0.353  2.4604 -0.4968 -0.6950
  315MPD2    H3 4741   0.641   2.820   0.137  1.2599  0.0087 -0.3130
  315MPD2     N 4742   0.708   3.256   0.220  0.0707  0.1900  0.0836
  315MPD2    H5 4743   0.710   3.331   0.289  0.9109  0.9716 -0.7930
  315MPD2    N1 4744   0.571   2.946   0.559  0.0997  0.1798 -0.2204
  315MPD2    H7 4745   0.567   2.849   0.590  1.9492 -0.1711 -1.1071
  316TMC3    C1 4746   0.826   3.414   0.089  0.4413 -0.0075  0.4136
  316TMC3    C2 4747   0.925   3.428   0.178  0.1449 -0.0915  0.2539
  316TMC3    C3 4748   1.014   3.532   0.165  0.7605 -0.8679 -0.1965
  316TMC3    C4 4749   0.836   3.474  17.671  0.1301  0.1506  0.0609
  316TMC3    C5 4750   0.936   3.565  17.646 -0.4336 -0.6107  0.1799
  316TMC3    C6 4751   1.028   3.597   0.043 -0.0077  0.2377  0.6313
  316TMC3     C 4752   0.735   3.300   0.094 -0.1610 -0.4293 -0.3262
  316TMC3     O 4753   0.687   3.263  17.689  0.3806  0.5882 -0.6101
  316TMC3     H 4754   0.918   3.381   0.276  0.0717 -1.4597 -0.4045
  316TMC3    H1 4755   0.762   3.453  17.594  0.2527  0.1802 -0.0638
  316TMC3    H2 4756   1.110   3.667   0.035  1.2816 -1.1912  1.3134
  316TMC3    C7 4757   0.977   3.602  17.515 -0.4929  0.6496 -0.7574
  316TMC3    C8 4758   1.108   3.568   0.269 -0.2180  0.0808 -0.5531
  316TMC3    O1 4759   1.089   3.651  17.504  0.6438 -0.1193 -0.2435
  316TMC3    O2 4760   1.154   3.681   0.249  0.7548 -0.1413 -0.1816
  317MPD2     C 4761   2.598   0.724  12.926 -0.6357  0.3522 -0.1025
  317MPD2    C1 4762   2.678   0.616  12.971  0.1095 -0.2908 -0.0061
  317MPD2    C2 4763   2.697   0.599  13.112 -0.1469  0.8563 -0.5372
  317MPD2    C3 4764   2.647   0.693  13.197  0.1136 -0.4199  0.7676
  317MPD2    C4 4765   2.571   0.800  13.148 -0.1076 -0.0451  0.3105
  317MPD2    C5 4766   2.549   0.818  13.011  0.0679 -0.5114 -0.3462
  317MPD2     H 4767   2.755   0.519  13.155 -0.3787  1.4841  0.9324
  317MPD2    H1 4768   2.534   0.878  13.213  2.9153  3.5039 -2.2098
  317MPD2    H2 4769   2.590   0.752  12.821 -0.2103  1.2720  0.1101
  317MPD2    H3 4770   2.494   0.907  12.983 -0.2266 -0.0138  1.8184
  317MPD2     N 4771   2.664   0.676  13.334 -0.3048 -0.4563  0.0965
  317MPD2    H5 4772   2.708   0.589  13.363 -1.7886 -0.9688  0.8032
  317MPD2    N1 4773   2.743   0.528  12.889 -0.1102 -0.3667  0.2677
  317MPD2    H7 4774   2.797   0.455  12.934 -0.6287  0.5950  2.4412
  318TMC3    C1 4775   2.672   0.706  13.570 -0.0304  0.3626 -0.4942
  318TMC3    C2 4776   2.632   0.580  13.595 -0.0620 -0.3235 -0.0078
  318TMC3    C3 4777   2.663   0.525  13.718  0.0454 -0.3437 -0.5204
  318TMC3    C4 4778   2.737   0.797  13.659  0.0900  0.7043  0.1137
  318TMC3    C5 4779   2.774   0.733  13.770  0.1496  0.0087  0.2266
  318TMC3    C6 4780   2.732   0.604  13.807  0.6700 -0.1549 -0.0910
  318TMC3     C 4781   2.647   0.768  13.437  0.7422 -0.0372 -0.4513
  318TMC3     O 4782   2.623   0.890  13.427  0.7191 -0.4282  0.2086
  318TMC3     H 4783   2.600   0.512  13.517  0.9968 -0.1314 -0.6116
  318TMC3    H1 4784   2.768   0.899  13.636  1.0747  0.2724 -0.4712
  318TMC3    H2 4785   2.762   0.563  13.903  1.2444 -1.0078 -0.6298
  318TMC3    C7 4786   2.870   0.796  13.859  0.5563 -0.0932  0.2602
  318TMC3    C8 4787   2.578   0.424  13.776  0.0090  0.6917 -0.7578
  318TMC3    O1 4788   2.884   0.918  13.848 -0.1241  0.3352  0.4039
  318TMC3    O2 4789   2.610   0.370  13.883 -0.5537 -0.0070 -0.1750
  319MPD2     C 4790   3.156   2.671  17.097  0.7651  0.4183 -0.2717
  319MPD2    C1 4791   3.197   2.539  17.109 -0.6578  0.9973  0.3645
  319MPD2    C2 4792   3.141   2.445  17.025  0.0179  0.3711  0.0100
  319MPD2    C3 4793   3.045   2.482  16.931  1.1293 -0.1307  0.5993
  319MPD2    C4 4794   3.002   2.611  16.932  0.7145 -0.6368 -0.2541
  319MPD2    C5 4795   3.062   2.707  17.008 -0.2458  0.3823 -0.4495
  319MPD2     H 4796   3.178   2.345  17.043  1.6841  0.7655 -1.2359
  319MPD2    H1 4797   2.921   2.648  16.870  0.9013 -0.0171 -0.1189
  319MPD2    H2 4798   3.183   2.750  17.165 -2.2341 -0.4948  2.0336
  319MPD2    H3 4799   3.016   2.805  17.011 -1.6434 -0.2365 -1.3339
  319MPD2     N 4800   2.980   2.399  16.837 -0.0344 -0.3398  0.3572
  319MPD2    H5 4801   2.912   2.437  16.772  0.1166  0.8021  0.8573
  319MPD2    N1 4802   3.282   2.501  17.220  0.0267  0.8886 -0.4473
  319MPD2    H7 4803   3.299   2.403  17.241  0.3077  0.8233 -0.9830
  320TMC3    C1 4804   2.926   2.204  16.716 -0.0823  0.0958 -0.0774
  320TMC3    C2 4805   2.886   2.283  16.609  0.5996  0.6241  0.2730
  320TMC3    C3 4806   2.835   2.221  16.501 -0.4965 -0.2661 -0.1165
  320TMC3    C4 4807   2.925   2.072  16.707 -0.6007  0.1816  0.0244
  320TMC3    C5 4808   2.876   2.014  16.596 -0.7542  0.3796 -0.9269
  320TMC3    C6 4809   2.829   2.085  16.493  0.7548 -0.4717 -0.2049
  320TMC3     C 4810   3.003   2.261  16.824  0.0372  0.0288  0.3257
  320TMC3     O 4811   3.045   2.186  16.911  0.2345  0.0198  0.1430
  320TMC3     H 4812   2.894   2.391  16.611  1.0516  0.6336 -2.0190
  320TMC3    H1 4813   2.957   2.024  16.798 -1.7174 -0.3214  0.1561
  320TMC3    H2 4814   2.814   2.034  16.399  0.2075  0.6655 -0.7290
  320TMC3    C7 4815   2.922   1.879  16.569 -0.4075 -0.1921 -0.7154
  320TMC3    C8 4816   2.797   2.309  16.392 -0.4545 -0.2112 -0.5831
  320TMC3    O1 4817   2.855   1.815  16.485 -0.5439 -0.2110  0.2999
  320TMC3    O2 4818   2.811   2.431  16.408 -0.5264  0.1441 -0.7205
  321TMC3    C1 4819   3.420   2.512  17.397  0.1955  0.0629  0.0863
  321TMC3    C2 4820   3.477   2.394  17.356 -0.2967  0.3401 -0.4282
  321TMC3    C3 4821   3.562   2.337  17.440 -0.6651 -0.1612  0.0026
  321TMC3    C4 4822   3.463   2.580  17.510 -0.0694 -0.0240 -0.0238
  321TMC3    C5 4823   3.529   2.504  17.602 -0.0725 -0.7078 -0.7851
  321TMC3    C6 4824   3.561   2.381  17.571 -0.2231  0.4290 -0.3458
  321TMC3     C 4825   3.335   2.589  17.309 -0.0063 -0.2956 -0.1979
  321TMC3     O 4826   3.316   2.709  17.330  0.4759  0.2626  0.2958
  321TMC3     H 4827   3.467   2.352  17.257  1.9640  0.4958 -0.7058
  321TMC3    H1 4828   3.417   2.676  17.532  2.0617  1.2048 -1.0075
  321TMC3    H2 4829   3.598   2.304  17.638  0.7856  0.7651 -0.5101
  321TMC3    C7 4830   3.642   2.562  17.679 -0.3475 -0.1056  0.0052
  321TMC3    C8 4831   3.702   2.336  17.378 -0.4743  0.4286 -0.7722
  321TMC3    O1 4832   3.713   2.485   0.031  0.1221 -0.3875  0.4338
  321TMC3    O2 4833   3.710   2.348  17.258  0.6724 -0.4848 -0.0465
  322MPD2     C 4834   3.006   4.113  13.607 -0.4157  0.1654  0.2339
  322MPD2    C1 4835   2.902   4.045  13.654 -0.5578 -0.2918  0.0839
  322MPD2    C2 4836   2.854   3.936  13.573 -0.1111 -0.0841  0.8335
  322MPD2    C3 4837   2.896   3.904  13.445  0.0308  0.3066 -0.3870
  322MPD2    C4 4838   3.001   3.984  13.400  0.4287  0.1591  0.2006
  322MPD2    C5 4839   3.058   4.086  13.483  1.0487 -0.3179 -0.2650
  322MPD2     H 4840   2.773   3.875  13.612 -2.4481  2.2715 -0.2965
  322MPD2    H1 4841   3.052   3.958  13.308 -0.4152 -1.1914  0.1075
  322MPD2    H2 4842   3.047   4.203  13.653  2.4132 -1.1606  0.3098
  322MPD2    H3 4843   3.140   4.140  13.436  1.9759 -0.0887  1.5915
  322MPD2     N 4844   2.836   3.795  13.374 -0.2883  0.5417  0.4058
  322MPD2    H5 4845   2.769   3.733  13.418  0.1711  0.3306  0.8057
  322MPD2    N1 4846   2.852   4.082  13.778  0.4515 -0.3055 -0.1007
  322MPD2    H7 4847   2.917   4.136  13.833  0.4598  0.6037 -0.9898
  323TMC3    C1 4848   2.751   4.051  13.989 -0.4483  0.0757  0.5983
  323TMC3    C2 4849   2.822   4.164  14.031 -0.2653  0.8728 -0.2857
  323TMC3    C3 4850   2.854   4.154  14.163 -0.3897  1.2628 -0.8738
  323TMC3    C4 4851   2.701   3.961  14.074 -0.0639  0.0361 -1.4207
  323TMC3    C5 4852   2.707   3.985  14.209 -0.2621  0.4544 -0.5474
  323TMC3    C6 4853   2.786   4.086  14.258 -0.2400 -0.2571 -0.3067
  323TMC3     C 4854   2.754   4.021  13.843 -0.7348  0.5208 -0.1835
  323TMC3     O 4855   2.688   3.925  13.806  0.1392  0.3838 -0.0423
  323TMC3     H 4856   2.860   4.244  13.969 -0.2588  2.6101  1.9518
  323TMC3    H1 4857   2.637   3.881  14.038 -0.4933  0.2922 -1.2328
  323TMC3    H2 4858   2.780   4.124  14.359  0.6469 -1.4033  0.1715
  323TMC3    C7 4859   2.711   3.868  14.290  0.2389 -0.1759  0.2725
  323TMC3    C8 4860   2.986   4.097  14.160  0.0836 -1.4744  0.2268
  323TMC3    O1 4861   2.639   3.783  14.250 -0.2312 -0.4355  0.2484
  323TMC3    O2 4862   3.033   4.054  14.055 -0.6105  0.0776  0.2290
  324MPD2     C 4863   4.003   4.467  14.954 -0.3516  0.5610 -1.1432
  324MPD2    C1 4864   3.994   4.604  14.961  0.1946 -0.1766 -0.4077
  324MPD2    C2 4865   3.884   4.676  14.928 -0.1826 -0.2893 -0.0816
  324MPD2    C3 4866   3.763   4.604  14.893  0.3402 -0.3411 -0.4070
  324MPD2    C4 4867   3.767   4.468  14.906 -0.5753  0.6870  0.1203
  324MPD2    C5 4868   3.889   4.405  14.928  0.6704  0.9542 -0.2111
  324MPD2     H 4869   3.887   0.059  14.923 -0.4723 -0.2152  1.3330
  324MPD2    H1 4870   3.680   4.412  14.871 -1.0351  0.8564  0.9981
  324MPD2    H2 4871   4.097   4.416  14.968  0.5360  2.9634  1.6024
  324MPD2    H3 4872   3.886   4.298  14.939 -1.9725  1.0643  0.0301
  324MPD2     N 4873   3.641   4.666  14.837 -0.1222  0.1217  0.1797
  324MPD2    H5 4874   3.555   4.613  14.823  0.1363 -0.8750  2.4868
  324MPD2    N1 4875   4.109   4.691  14.962  0.1638  0.1136  0.1896
  324MPD2    H7 4876   4.084   0.064  14.966 -1.6325 -0.3222 -0.0579
  325TMC3    C1 4877   3.514   0.130  14.742 -0.4872 -0.4748  0.1898
  325TMC3    C2 4878   3.405   0.053  14.722 -0.1047 -0.4362  0.5190
  325TMC3    C3 4879   3.296   0.109  14.655 -0.1376 -0.6160 -0.0038
  325TMC3    C4 4880   3.520   0.261  14.696 -0.0097 -0.2317 -0.6319
  325TMC3    C5 4881   3.405   0.309  14.634  0.1170  0.4665  0.0248
  325TMC3    C6 4882   3.291   0.240  14.618 -0.0218  0.0386  0.5438
  325TMC3     C 4883   3.631   0.075  14.804 -0.4242 -0.1282 -0.3851
  325TMC3     O 4884   3.725   0.151  14.798  0.5934  0.1583  0.6227
  325TMC3     H 4885   3.396   4.676  14.755 -0.2540 -0.8387 -0.7614
  325TMC3    H1 4886   3.613   0.317  14.708  0.6611 -1.2310 -1.1328
  325TMC3    H2 4887   3.230   0.273  14.535  1.4769  1.4046 -0.0214
  325TMC3    C7 4888   3.418   0.443  14.586  0.1037  0.0815 -0.7283
  325TMC3    C8 4889   3.244   0.021  14.560 -0.4978  1.1436 -0.2017
  325TMC3    O1 4890   3.532   0.489  14.576  0.3577 -0.1125  0.0867
  325TMC3    O2 4891   3.315   4.645  14.546 -0.1332 -0.0918 -0.0064
  326MPD2     C 4892   0.277   0.806  11.453  0.2607  0.2009 -0.0756
  326MPD2    C1 4893   0.310   0.772  11.321  0.0616 -0.4122 -0.2239
  326MPD2    C2 4894   0.441   0.811  11.273 -0.1282 -0.0773  0.1174
  326MPD2    C3 4895   0.540   0.856  11.357 -0.2142  0.1223  0.4551
  326MPD2    C4 4896   0.502   0.879  11.488 -0.1420 -0.0233 -0.0213
  326MPD2    C5 4897   0.373   0.858  11.540  0.4471 -0.7202 -0.1468
  326MPD2     H 4898   0.466   0.790  11.170  2.5351  1.9832  0.3579
  326MPD2    H1 4899   0.572   0.932  11.552 -0.6730  1.0222 -0.3053
  326MPD2    H2 4900   0.177   0.791  11.491  0.2244 -0.5245 -0.4565
  326MPD2    H3 4901   0.347   0.877  11.644  0.6392 -0.4924 -0.1398
  326MPD2     N 4902   0.674   0.878  11.316 -0.0552  0.4045  0.0248
  326MPD2    H5 4903   0.730   0.905  11.396 -0.4420 -1.4400  0.9219
  326MPD2    N1 4904   0.217   0.712  11.235 -0.1571  0.1840  0.0833
  326MPD2    H7 4905   0.263   0.666  11.157  2.6780  1.4873  1.0033
  327TMC3    C1 4906   0.042   0.644  11.112 -0.0084 -0.1544 -0.0757
  327TMC3    C2 4907   4.719   0.734  11.018 -0.8517  0.0317 -0.5031
  327TMC3    C3 4908   0.030   0.707  10.889  0.5934  0.0242  0.9337
  327TMC3    C4 4909   0.125   0.547  11.076  0.6338  0.5985 -0.1568
  327TMC3    C5 4910   0.175   0.532  10.949 -0.5825 -0.0170 -1.0752
  327TMC3    C6 4911   0.124   0.615  10.855  0.8420 -0.1828 -0.3002
  327TMC3     C 4912   0.083   0.721  11.230  0.4782  0.1404 -0.1894
  327TMC3     O 4913   0.009   0.792  11.292 -0.0063 -0.1228  0.0540
  327TMC3     H 4914   4.652   0.817  11.039 -0.6445  0.3658 -1.1700
  327TMC3    H1 4915   0.156   0.472  11.148 -1.6640 -1.5051 -1.3371
  327TMC3    H2 4916   0.169   0.617  10.756 -3.3668 -0.9058 -2.2592
  327TMC3    C7 4917   0.319   0.533  10.945 -0.7674  0.6572 -0.2732
  327TMC3    C8 4918   0.013   0.818  10.797 -0.6211 -0.2517 -0.5404
  327TMC3    O1 4919   0.367   0.626  10.884  0.1782 -0.0291 -0.2321
  327TMC3    O2 4920   0.109   0.855  10.734 -0.0140  0.4840 -0.2305
  328MPD2     C 4921   3.272   1.608  17.406  0.0613 -0.3869  0.3370
  328MPD2    C1 4922   3.196   1.507  17.456  0.2163  0.4689  0.3613
  328MPD2    C2 4923   3.114   1.430  17.370  0.1917 -0.5902 -0.8568
  328MPD2    C3 4924   3.091   1.470  17.234  0.2314 -0.1087 -0.1996
  328MPD2    C4 4925   3.161   1.578  17.193 -0.0350 -0.9404  0.0375
  328MPD2    C5 4926   3.260   1.634  17.271 -0.0162 -0.1160 -0.1702
  328MPD2     H 4927   3.047   1.355  17.409 -1.7304  2.1139  1.0858
  328MPD2    H1 4928   3.144   1.602  17.088 -0.2773 -0.1004  0.2710
  328MPD2    H2 4929   3.333   1.671  17.469 -0.4535  0.6769 -0.2290
  328MPD2    H3 4930   3.312   1.719  17.228 -0.6130 -0.3435 -1.3204
  328MPD2     N 4931   2.985   1.409  17.163  0.2431 -0.3694  0.3781
  328MPD2    H5 4932   2.943   1.450  17.080  0.8319  0.5250  0.5243
  328MPD2    N1 4933   3.196   1.488  17.595  0.1783  0.0736  0.0203
  328MPD2    H7 4934   3.254   1.547  17.652 -0.5565 -0.0418  0.8997
  329TMC3    C1 4935   3.119   1.396   0.111 -0.9850 -0.5601  0.4135
  329TMC3    C2 4936   3.160   1.499   0.184  0.7266 -0.7803  0.8732
  329TMC3    C3 4937   3.156   1.493   0.319  0.3492 -0.0716 -0.0741
  329TMC3    C4 4938   3.076   1.281   0.176 -0.2467  0.6882 -0.3452
  329TMC3    C5 4939   3.071   1.283   0.311  0.8700 -0.2766 -0.1755
  329TMC3    C6 4940   3.118   1.385   0.384 -0.4265 -0.4023 -0.5053
  329TMC3     C 4941   3.128   1.391  17.669  0.2548 -0.1382 -0.1871
  329TMC3     O 4942   3.061   1.306  17.614 -0.3026 -0.4488  0.0014
  329TMC3     H 4943   3.200   1.588   0.138  2.5721 -1.2918  1.4814
  329TMC3    H1 4944   3.029   1.200   0.123  1.1438 -0.9091  0.8813
  329TMC3    H2 4945   3.103   1.386   0.491  3.2709  0.9545 -0.0039
  329TMC3    C7 4946   3.008   1.165   0.362 -0.0444  0.5110  0.3324
  329TMC3    C8 4947   3.196   1.609   0.393  0.1405  0.5821 -0.0536
  329TMC3    O1 4948   2.942   1.093   0.291  0.0998 -0.2249 -0.2230
  329TMC3    O2 4949   3.262   1.686   0.324 -0.3048 -0.1253 -0.3360
  330TMC3    C1 4950   0.821   4.395   9.939 -0.7941 -0.0857 -0.6062
  330TMC3    C2 4951   0.807   4.298   9.841 -1.0469 -0.3654 -0.0331
  330TMC3    C3 4952   0.847   4.170   9.863  0.1200 -0.4872  0.2065
  330TMC3    C4 4953   0.889   4.365  10.055 -0.1316 -0.3213  0.2788
  330TMC3    C5 4954   0.931   4.236  10.075 -0.3014  0.1966 -0.3996
  330TMC3    C6 4955   0.904   4.136   9.985 -0.8317 -0.4354  0.0828
  330TMC3     C 4956   0.738   4.512   9.930 -0.4618  0.2684  0.0922
  330TMC3     O 4957   0.755   4.601  10.010 -0.0731 -0.2669 -0.2432
  330TMC3     H 4958   0.758   4.309   9.745 -0.8304  1.5194  0.0620
  330TMC3    H1 4959   0.898   4.444  10.129 -0.3544  0.5917 -0.6674
  330TMC3    H2 4960   0.945   4.039  10.012 -2.6860 -0.8710  1.3821
  330TMC3    C7 4961   0.961   4.196  10.211  0.1762 -0.4558 -0.4778
  330TMC3    C8 4962   0.851   4.080   9.757 -0.0075 -0.2819 -0.1909
  330TMC3    O1 4963   0.989   4.283  10.291 -0.4592  0.4302  0.1438
  330TMC3    O2 4964   0.825   4.113   9.642 -1.0582  0.5263  0.1183
  331MPD2     C 4965   3.138   3.877  11.945  0.2641  0.0245  0.0761
  331MPD2    C1 4966   3.252   3.962  11.958  0.7072 -0.4877 -0.3558
  331MPD2    C2 4967   3.375   3.911  11.931 -0.5415 -0.5444 -0.1468
  331MPD2    C3 4968   3.397   3.786  11.885 -0.3209 -0.0320  0.5723
  331MPD2    C4 4969   3.286   3.702  11.873  0.0418  0.4640  0.3458
  331MPD2    C5 4970   3.163   3.754  11.897 -0.6797 -0.2259  0.1164
  331MPD2     H 4971   3.465   3.967  11.952 -0.2665 -0.8001 -0.6488
  331MPD2    H1 4972   3.287   3.604  11.828  2.3225  1.0072 -0.8117
  331MPD2    H2 4973   3.038   3.902  11.977 -0.0286 -2.5818  1.2191
  331MPD2    H3 4974   3.080   3.685  11.886  0.6246 -1.7701  0.0186
  331MPD2     N 4975   3.527   3.751  11.852 -0.4274 -0.2450 -0.5359
  331MPD2    H5 4976   3.597   3.825  11.853 -1.3275  0.6317 -1.9039
  331MPD2    N1 4977   3.237   4.088  12.021  0.6771  0.5498  0.0089
  331MPD2    H7 4978   3.326   4.136  12.024  0.5680  0.7333  0.3612
  332TMC3    C1 4979   3.717   3.607  11.822 -0.1057  1.5993 -0.0026
  332TMC3    C2 4980   3.787   3.719  11.786 -0.5550  0.4770  0.0459
  332TMC3    C3 4981   3.918   3.719  11.760  0.2342 -0.1079 -0.5467
  332TMC3    C4 4982   3.789   3.498  11.851  0.2710 -0.2173  0.0504
  332TMC3    C5 4983   3.927   3.498  11.820  0.8597 -0.6275 -0.1187
  332TMC3    C6 4984   3.988   3.607  11.778 -0.3548 -0.3084 -0.1278
  332TMC3     C 4985   3.576   3.619  11.849  0.8256  0.0459  0.7238
  332TMC3     O 4986   3.514   3.514  11.867 -0.2544  0.4571  0.0860
  332TMC3     H 4987   3.739   3.815  11.772 -0.6720  0.2834 -0.8663
  332TMC3    H1 4988   3.742   3.417  11.905 -0.2722 -0.3556 -0.6209
  332TMC3    H2 4989   4.086   3.600  11.732 -0.2015  0.6426  0.0614
  332TMC3    C7 4990   3.997   3.378  11.869 -0.8110  0.3192  0.5259
  332TMC3    C8 4991   3.988   3.847  11.754 -0.7402  0.1654 -0.5740
  332TMC3    O1 4992   3.926   3.282  11.890 -0.4505  0.1047 -0.2824
  332TMC3    O2 4993   4.098   3.845  11.806 -0.2184 -0.4821 -0.3659
  333MPD2     C 4994   3.520   3.629  11.422 -1.0008 -0.5595 -0.4946
  333MPD2    C1 4995   3.563   3.520  11.346 -0.2854 -0.4402  0.1651
  333MPD2    C2 4996   3.515   3.395  11.383 -0.6448 -0.1191  0.3383
  333MPD2    C3 4997   3.418   3.386  11.477  0.0411  0.5980  0.7000
  333MPD2    C4 4998   3.368   3.496  11.538  0.2139 -0.4036  0.5848
  333MPD2    C5 4999   3.421   3.624  11.517 -0.1140 -0.1376 -0.2565
  333MPD2     H 5000   3.534   3.313  11.315 -1.2709  0.4356 -0.5171
  333MPD2    H1 5001   3.285   3.500  11.608 -1.7165 -2.4886 -1.5762
  333MPD2    H2 5002   3.547   3.731  11.400 -0.0518 -0.6321  0.3370
  333MPD2    H3 5003   3.384   3.709  11.573  0.6854  0.2565 -0.3294
  333MPD2     N 5004   3.371   3.257  11.513  0.1473 -0.0243 -0.3134
  333MPD2    H5 5005   3.430   3.192  11.461  2.1103 -1.5852  3.8619
  333MPD2    N1 5006   3.665   3.539  11.247 -0.5108 -0.2170 -0.2311
  333MPD2    H7 5007   3.708   3.630  11.231  2.1608 -1.4201  0.1239
  334TMC3    C1 5008   3.847   3.500  11.108  0.3878 -0.0785 -0.5663
  334TMC3    C2 5009   3.965   3.436  11.148 -0.1522 -0.4319 -0.6093
  334TMC3    C3 5010   4.080   3.500  11.109  0.5505  0.2252 -0.3449
  334TMC3    C4 5011   3.840   3.629  11.058 -0.5241 -0.1163  0.1072
  334TMC3    C5 5012   3.962   3.687  11.029 -0.0823  0.2521  0.3525
  334TMC3    C6 5013   4.082   3.627  11.052 -0.0856 -0.0164 -0.3397
  334TMC3     C 5014   3.729   3.440  11.178  0.1086 -0.2164  0.4193
  334TMC3     O 5015   3.728   3.320  11.204  0.0356 -0.1137  0.3017
  334TMC3     H 5016   3.965   3.341  11.202  1.0812 -0.3245 -0.4261
  334TMC3    H1 5017   3.749   3.686  11.048 -0.2239  0.2971 -0.2888
  334TMC3    H2 5018   4.173   3.681  11.029 -0.1899  0.2747 -0.0682
  334TMC3    C7 5019   3.969   3.819  10.972 -0.2300 -0.4730 -0.4041
  334TMC3    C8 5020   4.199   3.431  11.142  0.0525  0.0720  0.3825
  334TMC3    O1 5021   4.074   3.882  10.978  0.2633 -0.3485 -0.1992
  334TMC3    O2 5022   4.182   3.317  11.195  0.1762  0.0357 -0.2455
  335TMC3    C1 5023   3.856   1.550  17.216 -0.8796 -0.2646 -0.3274
  335TMC3    C2 5024   3.838   1.431  17.148 -0.3310 -0.1492  0.3827
  335TMC3    C3 5025   3.912   1.407  17.036 -0.2279  0.0127 -0.5673
  335TMC3    C4 5026   3.930   1.654  17.167 -0.5318  0.3772  0.0893
  335TMC3    C5 5027   4.003   1.624  17.056  0.0161 -0.5120  0.2715
  335TMC3    C6 5028   4.006   1.504  16.993 -0.3917 -0.5415 -0.2904
  335TMC3     C 5029   3.782   1.563  17.340 -0.3804 -0.4789  0.9489
  335TMC3     O 5030   3.799   1.677  17.388 -0.0370 -0.6847 -0.8650
  335TMC3     H 5031   3.774   1.347  17.175  0.9942 -1.2758  0.0167
  335TMC3    H1 5032   3.938   1.750  17.217 -0.1790  0.2287  0.3225
  335TMC3    H2 5033   4.065   1.489  16.904  1.2463  3.5967  0.0992
  335TMC3    C7 5034   4.126   1.700  17.021 -0.3126  0.0134 -0.3143
  335TMC3    C8 5035   3.894   1.290  16.954 -0.5827 -0.7191 -0.3028
  335TMC3    O1 5036   4.197   1.668  16.928  0.4455 -0.4541  0.5609
  335TMC3    O2 5037   3.979   1.278  16.866  0.1059 -0.4616 -0.3544
  336MPD2     C 5038   3.037   3.820  16.173 -0.2547  0.0270 -0.1850
  336MPD2    C1 5039   2.937   3.719  16.186 -0.4415  0.0054  0.4204
  336MPD2    C2 5040   2.973   3.582  16.195  0.6842 -0.4368 -0.2895
  336MPD2    C3 5041   3.109   3.556  16.212  0.4684 -0.6258  0.7681
  336MPD2    C4 5042   3.201   3.663  16.218  0.1832  0.3015  0.4068
  336MPD2    C5 5043   3.166   3.790  16.195  0.3603  0.3248 -0.8798
  336MPD2     H 5044   2.895   3.506  16.200  1.9957 -1.9227 -2.2980
  336MPD2    H1 5045   3.307   3.645  16.232 -0.0019  0.3368  1.9320
  336MPD2    H2 5046   3.010   3.925  16.171 -0.7109 -0.0847  0.0818
  336MPD2    H3 5047   3.229   3.876  16.212  0.2525 -0.1451  1.9641
  336MPD2     N 5048   3.164   3.430  16.229  0.9357  0.5440 -0.3295
  336MPD2    H5 5049   3.262   3.420  16.255  0.8867  1.7623  0.3365
  336MPD2    N1 5050   2.802   3.749  16.192 -0.1499  0.5722 -0.0559
  336MPD2    H7 5051   2.734   3.675  16.180  0.6306 -0.2909  0.8377
  337TMC3    C1 5052   2.610   3.897  16.219 -0.6500  0.5667 -0.4143
  337TMC3    C2 5053   2.531   3.797  16.179 -0.3898 -0.4952 -0.4560
  337TMC3    C3 5054   2.394   3.800  16.200  0.1061  0.2457 -0.5204
  337TMC3    C4 5055   2.556   4.006  16.282 -0.0688  0.7311  0.4258
  337TMC3    C5 5056   2.422   4.014  16.294  0.3258  0.1190  0.9315
  337TMC3    C6 5057   2.333   3.915  16.254 -0.2650  0.0329 -0.2293
  337TMC3     C 5058   2.753   3.876  16.227  0.3232 -0.6432  0.3689
  337TMC3     O 5059   2.817   3.970  16.275  0.1023  0.8749 -0.4990
  337TMC3     H 5060   2.572   3.709  16.130 -0.3821 -1.5207  1.3908
  337TMC3    H1 5061   2.627   4.077  16.324  0.8680 -0.4437  0.8285
  337TMC3    H2 5062   2.227   3.937  16.246 -0.2211  0.9481  1.6397
  337TMC3    C7 5063   2.374   4.142  16.341 -0.0128 -0.7619 -0.0618
  337TMC3    C8 5064   2.312   3.707  16.123  0.2501  0.4987  0.0867
  337TMC3    O1 5065   2.458   4.227  16.350  0.5524 -0.4156 -0.3803
  337TMC3    O2 5066   2.369   3.653  16.035  0.1963  0.3267 -0.4289
  338MPD2     C 5067   3.545   3.058   1.493  0.7388 -0.6662  0.7379
  338MPD2    C1 5068   3.568   3.099   1.361 -0.4488 -0.3976  0.0512
  338MPD2    C2 5069   3.494   3.201   1.309  0.4822 -0.0065 -0.4385
  338MPD2    C3 5070   3.392   3.263   1.378 -0.0370  0.6170 -1.2391
  338MPD2    C4 5071   3.385   3.237   1.515 -0.7549 -0.0293 -0.0662
  338MPD2    C5 5072   3.460   3.133   1.569  0.4761  0.5336  0.3676
  338MPD2     H 5073   3.513   3.244   1.212  0.2564 -0.4600 -0.6838
  338MPD2    H1 5074   3.311   3.280   1.581  0.5384  1.8385  0.1690
  338MPD2    H2 5075   3.593   2.971   1.535  1.4875  0.1182  1.5250
  338MPD2    H3 5076   3.455   3.106   1.674  1.1332  0.9815  0.5135
  338MPD2     N 5077   3.319   3.363   1.320  0.7045 -0.2633 -0.0279
  338MPD2    H5 5078   3.355   3.408   1.236 -3.5577  0.6761 -1.3872
  338MPD2    N1 5079   3.661   3.034   1.274  0.1027 -0.2185 -0.0258
  338MPD2    H7 5080   3.656   3.051   1.174 -1.2965 -0.7178 -0.0461
  339TMC3    C1 5081   3.119   3.473   1.255 -0.9930 -0.1025 -0.2587
  339TMC3    C2 5082   2.989   3.426   1.244  0.1916 -0.4689  0.2607
  339TMC3    C3 5083   2.945   3.362   1.130  0.3296 -0.5842 -0.2151
  339TMC3    C4 5084   3.188   3.486   1.139  0.2075 -0.1417  0.7593
  339TMC3    C5 5085   3.136   3.437   1.018 -0.2738 -0.1332  0.6765
  339TMC3    C6 5086   3.021   3.362   1.015  0.3226 -0.0826 -0.4017
  339TMC3     C 5087   3.191   3.400   1.364 -0.5377 -0.3970 -0.2376
  339TMC3     O 5088   3.115   3.344   1.446 -0.2265 -0.6940 -0.0845
  339TMC3     H 5089   2.932   3.418   1.336  0.5504 -0.8716  0.4505
  339TMC3    H1 5090   3.287   3.530   1.141  0.0570  0.2836 -1.2686
  339TMC3    H2 5091   2.992   3.305   0.927  1.1254  1.1104 -1.4417
  339TMC3    C7 5092   3.244   3.388   0.944 -0.3501  0.1278 -1.5760
  339TMC3    C8 5093   2.863   3.242   1.160 -0.2923 -0.2689 -0.4582
  339TMC3    O1 5094   3.320   3.330   1.023  0.0178 -0.1378 -0.0686
  339TMC3    O2 5095   2.787   3.203   1.076  0.1039 -0.0734 -0.4458
  340MPD2     C 5096   3.594   4.391  10.280 -0.4485  0.0989 -0.6684
  340MPD2    C1 5097   3.711   4.328  10.306 -0.0249 -0.7816  0.4108
  340MPD2    C2 5098   3.827   4.402  10.302  0.6203  0.1332  0.0392
  340MPD2    C3 5099   3.830   4.536  10.268 -0.0131  0.0940  0.1046
  340MPD2    C4 5100   3.717   4.602  10.229  0.1301  0.2147  0.4148
  340MPD2    C5 5101   3.600   4.526  10.224  0.5446  0.1031  0.9336
  340MPD2     H 5102   3.921   4.354  10.325 -0.5226 -1.2588  1.7431
  340MPD2    H1 5103   3.718   4.707  10.202 -1.4864  0.8101  2.6399
  340MPD2    H2 5104   3.494   4.349  10.287 -0.1320 -0.4961  0.2486
  340MPD2    H3 5105   3.510   4.583  10.205  0.5227 -0.3389 -0.2895
  340MPD2     N 5106   3.936   4.620  10.289  0.1786 -0.4680  0.4275
  340MPD2    H5 5107   3.928   4.715  10.253  1.0650 -0.4546  0.2519
  340MPD2    N1 5108   3.708   4.188  10.339 -0.0050  0.6024  0.0749
  340MPD2    H7 5109   3.614   4.153  10.326 -0.5256  1.5149  1.3129
  341TMC3    C1 5110   3.787   3.963  10.405  0.6408  0.3729  0.3485
  341TMC3    C2 5111   3.667   3.912  10.381  0.0661 -0.1962 -0.2560
  341TMC3    C3 5112   3.636   3.793  10.430  0.8043 -0.1499  0.0546
  341TMC3    C4 5113   3.883   3.898  10.482 -1.0369  0.0845 -0.3898
  341TMC3    C5 5114   3.852   3.773  10.531 -0.4763  0.0370 -0.0245
  341TMC3    C6 5115   3.723   3.719  10.505 -0.4275  0.1326 -0.0715
  341TMC3     C 5116   3.816   4.109  10.393 -0.5193 -0.2008  0.7842
  341TMC3     O 5117   3.930   4.152  10.414  0.3998 -0.3503  0.0750
  341TMC3     H 5118   3.602   3.976  10.322  0.0948 -0.0407 -0.1183
  341TMC3    H1 5119   3.975   3.947  10.511 -0.6958  0.2159 -1.7090
  341TMC3    H2 5120   3.695   3.628  10.557 -1.7261  0.0503 -0.9029
  341TMC3    C7 5121   3.970   3.696  10.550 -1.0933  0.6409  0.3373
  341TMC3    C8 5122   3.517   3.718  10.387 -0.1138  1.1012 -0.6592
  341TMC3    O1 5123   4.077   3.729  10.496  0.1925  0.3999 -0.2407
  341TMC3    O2 5124   3.429   3.789  10.338  0.0914 -1.4009 -0.3265
  342MPD2     C 5125   1.608   4.215   0.206  0.0024 -0.0250  0.1856
  342MPD2    C1 5126   1.732   4.192   0.154  1.3348  0.0634 -0.0360
  342MPD2    C2 5127   1.828   4.286   0.186  0.6598  0.2379 -0.0448
  342MPD2    C3 5128   1.804   4.394   0.265  0.0523  0.2703  0.1756
  342MPD2    C4 5129   1.677   4.407   0.327  0.5067 -0.3591 -0.0433
  342MPD2    C5 5130   1.575   4.322   0.295  0.3302  0.5230 -0.5019
  342MPD2     H 5131   1.930   4.267   0.156  1.2956 -0.1565  2.3669
  342MPD2    H1 5132   1.659   4.487   0.399 -2.7354  0.8644 -2.1659
  342MPD2    H2 5133   1.531   4.141   0.187  1.6312 -1.8820  0.8834
  342MPD2    H3 5134   1.477   4.321   0.342 -0.5412 -2.4381 -2.3664
  342MPD2     N 5135   1.897   4.498   0.298 -0.6933 -0.0520 -0.7198
  342MPD2    H5 5136   1.858   4.581   0.343 -0.5450 -1.1933  1.5001
  342MPD2    N1 5137   1.770   4.082   0.072 -0.1321  0.0631  0.0053
  342MPD2    H7 5138   1.857   4.083   0.019 -0.0671 -2.6840  0.0727
  343TMC3    C1 5139   1.763   3.866  17.671  0.1887  0.5108 -0.0751
  343TMC3    C2 5140   1.846   3.905  17.570 -0.0179  0.1087 -0.3172
  343TMC3    C3 5141   1.888   3.806  17.479 -0.4572 -0.2934 -0.4577
  343TMC3    C4 5142   1.729   3.739  17.684  0.4890 -0.0070 -0.2172
  343TMC3    C5 5143   1.767   3.648  17.592 -0.0086  0.5871  0.6984
  343TMC3    C6 5144   1.841   3.675  17.483  0.8162 -0.1988  0.4234
  343TMC3     C 5145   1.706   3.962   0.067 -0.0172 -0.5262 -0.7153
  343TMC3     O 5146   1.611   3.924   0.127  0.3130  0.4130 -0.0588
  343TMC3     H 5147   1.869   4.010  17.557 -2.0031  0.9254  2.6234
  343TMC3    H1 5148   1.675   3.714   0.071  0.3842  0.0234 -0.2719
  343TMC3    H2 5149   1.866   3.591  17.420 -1.2162 -0.5282  0.0407
  343TMC3    C7 5150   1.726   3.507  17.621  0.0879 -0.3738 -0.3444
  343TMC3    C8 5151   2.024   3.829  17.453  0.4100 -0.0274  0.0339
  343TMC3    O1 5152   1.721   3.433  17.523 -0.2128  0.3178 -0.5220
  343TMC3    O2 5153   2.073   3.930  17.505  0.0384  0.2906  0.1789
  344MPD2     C 5154   2.673   2.654  10.778 -0.2377 -0.0918  0.7059
  344MPD2    C1 5155   2.540   2.685  10.749 -0.0076 -0.1818 -0.0667
  344MPD2    C2 5156   2.506   2.790  10.669  0.2298 -0.6317  0.4149
  344MPD2    C3 5157   2.605   2.876  10.626 -0.0598  0.4783  0.3895
  344MPD2    C4 5158   2.738   2.850  10.653  0.2572 -1.0417  0.4163
  344MPD2    C5 5159   2.767   2.737  10.732 -0.2433  0.8131  0.8890
  344MPD2     H 5160   2.402   2.807  10.647  0.3686  1.9100  1.7981
  344MPD2    H1 5161   2.825   2.911  10.631 -0.1345 -0.8472 -0.5920
  344MPD2    H2 5162   2.713   2.566  10.828  2.8276  0.5814 -0.5524
  344MPD2    H3 5163   2.868   2.699  10.740 -1.1546 -1.6363  0.9056
  344MPD2     N 5164   2.580   2.989  10.549  0.0801  0.3504  0.2166
  344MPD2    H5 5165   2.663   3.042  10.526 -1.3644  2.6041  0.2676
  344MPD2    N1 5166   2.435   2.609  10.809  0.4879  0.2336  0.1302
  344MPD2    H7 5167   2.339   2.630  10.785 -0.0057 -1.5646  0.5341
  345TMC3    C1 5168   2.491   3.181  10.483  1.0001 -0.6594 -0.0466
  345TMC3    C2 5169   2.593   3.251  10.538 -0.3591  0.0297  0.4765
  345TMC3    C3 5170   2.609   3.387  10.508 -0.0958 -0.4551 -0.7435
  345TMC3    C4 5171   2.402   3.242  10.398  0.3427 -0.8872 -0.3081
  345TMC3    C5 5172   2.428   3.376  10.366 -0.2264  0.0257 -0.1835
  345TMC3    C6 5173   2.521   3.449  10.427  0.1016 -0.0254 -0.2197
  345TMC3     C 5174   2.461   3.042  10.519  0.1854 -0.5232 -0.4072
  345TMC3     O 5175   2.344   2.998  10.518  0.1842  0.5591  0.0615
  345TMC3     H 5176   2.668   3.198  10.596 -0.4366  0.8003  1.2954
  345TMC3    H1 5177   2.335   3.175  10.344 -1.7648 -0.1242  1.3811
  345TMC3    H2 5178   2.528   3.557  10.412 -0.7030 -0.0726 -0.9053
  345TMC3    C7 5179   2.365   3.452  10.268 -0.2257  0.1374  0.1291
  345TMC3    C8 5180   2.706   3.469  10.579 -0.2508 -0.4259  0.4316
  345TMC3    O1 5181   2.430   3.539  10.219 -0.2174  0.7345  0.2287
  345TMC3    O2 5182   2.682   3.590  10.586 -0.2752  0.4005  0.0963
  346MPD2     C 5183   2.703   0.187  14.840 -0.3253  0.2009  0.1476
  346MPD2    C1 5184   2.692   0.296  14.756 -0.4924 -0.4052  0.7969
  346MPD2    C2 5185   2.724   0.421  14.804  0.0042 -0.7938 -0.4822
  346MPD2    C3 5186   2.754   0.441  14.938 -0.1501  1.1308  0.1090
  346MPD2    C4 5187   2.771   0.331  15.019 -0.0648 -0.0772 -0.0668
  346MPD2    C5 5188   2.740   0.206  14.971 -0.1035  0.9695  0.2443
  346MPD2     H 5189   2.730   0.511  14.745  1.5803 -0.7617 -0.2673
  346MPD2    H1 5190   2.795   0.335  15.125  1.2055 -2.3621 -0.2698
  346MPD2    H2 5191   2.671   0.087  14.810  1.3473 -0.2469 -0.1379
  346MPD2    H3 5192   2.739   0.125  15.044  0.0928  0.5186 -0.2527
  346MPD2     N 5193   2.781   0.575  14.972  0.0046 -0.0390  0.6487
  346MPD2    H5 5194   2.795   0.644  14.898 -0.5936  1.2458  1.7440
  346MPD2    N1 5195   2.660   0.289  14.621 -0.0226  0.2082 -0.4134
  346MPD2    H7 5196   2.659   0.376  14.569  2.8826  0.5729  0.1175
  347TMC3    C1 5197   2.871   0.754  15.095  0.0805  0.1980 -0.2371
  347TMC3    C2 5198   2.834   0.833  14.989 -0.0717 -0.3057 -1.0978
  347TMC3    C3 5199   2.927   0.915  14.928 -0.0763 -0.0308  0.4321
  347TMC3    C4 5200   2.989   0.767  15.157  0.1134  0.3385 -0.3203
  347TMC3    C5 5201   3.069   0.862  15.103 -0.1972  0.1297 -0.0941
  347TMC3    C6 5202   3.051   0.933  14.986  0.1102  0.0923  0.9196
  347TMC3     C 5203   2.838   0.610  15.093 -0.0252  0.2509  0.3783
  347TMC3     O 5204   2.864   0.540  15.193  0.0071  0.0227  0.0702
  347TMC3     H 5205   2.734   0.825  14.949  0.0332 -0.9086 -1.2290
  347TMC3    H1 5206   3.011   0.717  15.250  1.4982 -2.7176 -2.2970
  347TMC3    H2 5207   3.102   1.027  14.967 -1.8654  1.1967  1.1232
  347TMC3    C7 5208   3.171   0.899  15.197  0.2333  0.8892  0.1217
  347TMC3    C8 5209   2.952   0.853  14.799  0.3302  1.0368  0.5845
  347TMC3    O1 5210   3.135   0.898  15.311 -0.4031 -0.9046 -0.3594
  347TMC3    O2 5211   2.892   0.748  14.789 -0.0790  0.1649  0.2450
  348MPD2     C 5212   1.112   4.486  12.561  0.2810 -0.4297  0.3299
  348MPD2    C1 5213   1.173   4.421  12.457 -0.5434  0.4849 -0.7124
  348MPD2    C2 5214   1.138   4.459  12.327 -0.4308 -0.8068  0.1286
  348MPD2    C3 5215   1.052   4.565  12.300 -0.2235 -0.1290 -0.3465
  348MPD2    C4 5216   1.000   4.635  12.409  0.4882 -0.4583  0.0008
  348MPD2    C5 5217   1.028   4.593  12.538 -0.1090 -0.2416  0.2001
  348MPD2     H 5218   1.174   4.403  12.241 -1.0984  0.3440 -0.8892
  348MPD2    H1 5219   0.928   4.714  12.392 -0.2245 -1.1578 -0.2089
  348MPD2    H2 5220   1.139   4.468  12.665  0.2131 -0.8994  0.2682
  348MPD2    H3 5221   0.977   4.632  12.625 -0.7686 -0.1121 -0.2401
  348MPD2     N 5222   1.016   4.586  12.161  0.0718 -0.0942  0.4404
  348MPD2    H5 5223   1.047   4.516  12.094 -2.2663 -0.1874 -0.5404
  348MPD2    N1 5224   1.275   4.331  12.477  0.4728  0.2942  0.5206
  348MPD2    H7 5225   1.318   4.299  12.391 -0.4344 -0.3971  0.3332
  349TMC3    C1 5226   1.472   4.272  12.567 -0.4664 -0.8543  0.2975
  349TMC3    C2 5227   1.522   4.162  12.631 -0.6285 -0.0194 -0.4698
  349TMC3    C3 5228   1.632   4.098  12.576 -0.0163 -0.1235 -0.1960
  349TMC3    C4 5229   1.545   4.335  12.471 -0.1026  0.0684 -0.0663
  349TMC3    C5 5230   1.646   4.268  12.412 -0.6574 -0.0800  0.4676
  349TMC3    C6 5231   1.691   4.145  12.463 -0.6298 -0.0465 -0.0548
  349TMC3     C 5232   1.335   4.300  12.593 -0.0964 -0.3962  0.1337
  349TMC3     O 5233   1.288   4.280  12.705  0.1695 -0.0805 -0.2752
  349TMC3     H 5234   1.457   4.125  12.709  2.0482  0.4796  2.0134
  349TMC3    H1 5235   1.497   4.427  12.440 -1.3963 -0.2932  0.8648
  349TMC3    H2 5236   1.777   4.100  12.416  1.1021  2.3063  0.8459
  349TMC3    C7 5237   1.637   4.277  12.258 -0.4475  0.1329  0.6208
  349TMC3    C8 5238   1.663   3.971  12.627  0.2915 -0.7844 -0.3803
  349TMC3    O1 5239   1.626   4.168  12.200 -0.1805  0.0137  0.0326
  349TMC3    O2 5240   1.585   3.919  12.709  0.7863  0.2316 -0.1031
  350MPD2     C 5241   0.700   1.702   9.719  0.2485  0.4853 -0.7081
  350MPD2    C1 5242   0.609   1.683   9.816 -0.0437 -0.4522  0.3866
  350MPD2    C2 5243   0.598   1.771   9.919  0.4003 -0.2002  0.1142
  350MPD2    C3 5244   0.687   1.874   9.939 -0.0976 -0.1868 -0.2697
  350MPD2    C4 5245   0.789   1.886   9.843  0.0388 -0.4680  0.5638
  350MPD2    C5 5246   0.797   1.799   9.732 -0.1415  0.3161 -0.9188
  350MPD2     H 5247   0.519   1.757   9.992  0.8994  0.5988  0.8080
  350MPD2    H1 5248   0.873   1.955   9.846 -0.0010 -0.4192  0.5598
  350MPD2    H2 5249   0.720   1.642   9.632  0.0046  0.7690 -0.9611
  350MPD2    H3 5250   0.870   1.789   9.652 -0.3419  0.5184 -1.1278
  350MPD2     N 5251   0.672   1.953  10.053 -0.3050  0.4370 -0.8082
  350MPD2    H5 5252   0.606   1.916  10.121  0.4955  0.5488  0.0362
  350MPD2    N1 5253   0.524   1.575   9.802 -0.1408 -0.1751  0.2938
  350MPD2    H7 5254   0.461   1.563   9.880  0.9686 -0.7637  1.0979
  351TMC3    C1 5255   0.421   1.380   9.720  0.7875 -0.2254 -0.5712
  351TMC3    C2 5256   0.454   1.252   9.682  0.1461  0.4453  0.6422
  351TMC3    C3 5257   0.363   1.155   9.713  0.6863 -0.4328  0.4980
  351TMC3    C4 5258   0.307   1.418   9.790 -0.2818  0.3507 -0.0350
  351TMC3    C5 5259   0.214   1.314   9.801  0.5548  0.7428  0.5282
  351TMC3    C6 5260   0.240   1.187   9.766  0.5708 -0.6572 -0.3449
  351TMC3     C 5261   0.528   1.478   9.705 -0.3333  0.0958 -0.7266
  351TMC3     O 5262   0.626   1.440   9.641  0.1077 -0.4819  0.0664
  351TMC3     H 5263   0.546   1.240   9.626 -0.8600  0.2193 -0.9542
  351TMC3    H1 5264   0.290   1.522   9.815  3.0247  1.0390 -0.6629
  351TMC3    H2 5265   0.170   1.105   9.780  0.0555  0.0350  1.1379
  351TMC3    C7 5266   0.102   1.350   9.884 -0.4500  0.3656  0.5330
  351TMC3    C8 5267   0.415   1.022   9.684 -0.1330 -1.2804  0.0026
  351TMC3    O1 5268   0.089   1.466   9.921  0.5842 -0.1101  0.0051
  351TMC3    O2 5269   0.508   1.021   9.609 -0.2270  0.9155 -0.6248
  352MPD2     C 5270   4.613   0.832   1.459  0.2648 -0.7615 -0.3895
  352MPD2    C1 5271   4.531   0.743   1.405 -0.5950 -0.7821  0.0005
  352MPD2    C2 5272   4.582   0.615   1.367 -0.2885  0.2160 -0.3068
  352MPD2    C3 5273   4.719   0.594   1.382  0.7622 -0.4580 -0.7791
  352MPD2    C4 5274   0.071   0.692   1.435 -0.2604  0.0835 -1.0162
  352MPD2    C5 5275   0.020   0.809   1.481 -0.5075 -0.0162 -0.2280
  352MPD2     H 5276   4.524   0.542   1.312 -0.7692  0.5170 -0.2035
  352MPD2    H1 5277   0.175   0.679   1.463 -0.9578 -1.2139  0.9598
  352MPD2    H2 5278   4.580   0.930   1.493  0.6568 -0.6809 -0.2408
  352MPD2    H3 5279   0.077   0.895   1.516 -0.0394 -0.4895  0.1793
  352MPD2     N 5280   0.056   0.473   1.344 -0.9880  0.8971  0.2816
  352MPD2    H5 5281   0.156   0.463   1.361 -0.9665  0.2105 -0.2317
  352MPD2    N1 5282   4.396   0.778   1.373 -0.1953 -0.4821 -0.1225
  352MPD2    H7 5283   4.369   0.876   1.376 -1.1956 -0.7480 -0.4648
  353TMC3    C1 5284   0.081   0.266   1.243  0.0573 -0.5210  0.2005
  353TMC3    C2 5285   0.165   0.225   1.338  0.0151  0.2707 -0.6705
  353TMC3    C3 5286   0.220   0.098   1.334  0.0353  0.1524  0.1386
  353TMC3    C4 5287   0.055   0.194   1.130 -0.4491  0.5314  0.4933
  353TMC3    C5 5288   0.116   0.074   1.122 -0.5669  0.5591 -0.2307
  353TMC3    C6 5289   0.192   0.025   1.222  0.0006 -0.5590  0.1724
  353TMC3     C 5290   4.722   0.374   1.269 -0.2669 -0.4558  0.0261
  353TMC3     O 5291   4.614   0.376   1.213  0.6561  0.0413 -0.0587
  353TMC3     H 5292   0.195   0.289   1.420 -0.2279 -0.6792  0.1598
  353TMC3    H1 5293   4.711   0.229   1.056 -0.9102  1.8928  1.5690
  353TMC3    H2 5294   0.239   4.656   1.198 -1.5432 -1.2252 -0.1772
  353TMC3    C7 5295   0.052   4.710   1.031  0.1590 -0.1971 -0.1751
  353TMC3    C8 5296   0.320   0.049   1.435  0.7458 -0.7063 -0.0394
  353TMC3    O1 5297   0.041   4.593   1.062 -0.6768 -0.0799  0.2679
  353TMC3    O2 5298   0.360   0.129   1.521  0.3477 -0.2613 -0.3010
  354TMC3    C1 5299   0.055   1.386  13.906 -0.1157 -1.0049  0.4540
  354TMC3    C2 5300   0.133   1.489  13.865  1.1145  0.1146 -0.3834
  354TMC3    C3 5301   0.143   1.512  13.732 -0.2256 -0.4210 -0.0970
  354TMC3    C4 5302   4.717   1.308  13.822 -0.5127  0.0569  0.1086
  354TMC3    C5 5303   0.013   1.319  13.689 -0.6315  0.6089 -0.0066
  354TMC3    C6 5304   0.083   1.427  13.646  0.5236 -1.2539 -0.2016
  354TMC3     C 5305   0.081   1.326  14.041 -0.2290 -0.2625  0.5852
  354TMC3     O 5306   4.707   1.270  14.082 -0.6371 -0.0985  0.2978
  354TMC3     H 5307   0.180   1.546  13.944 -1.4433  0.5820  0.7880
  354TMC3    H1 5308   4.694   1.206  13.849  1.1362 -1.0402 -2.6204
  354TMC3    H2 5309   0.095   1.451  13.541 -0.6291  0.8005  0.1289
  354TMC3    C7 5310   0.038   1.198  13.616  0.0654 -0.5830  0.1834
  354TMC3    C8 5311   0.211   1.635  13.679  0.2746 -0.0136 -0.3800
  354TMC3    O1 5312   4.686   1.103  13.630 -0.5372  0.1967  0.1236
  354TMC3    O2 5313   0.171   1.673  13.570  0.2995 -0.4944  0.3014
  355MPD2     C 5314   0.759   1.650  12.354  0.8481  0.2587  0.0037
  355MPD2    C1 5315   0.857   1.608  12.269 -0.3465  0.3415  0.6547
  355MPD2    C2 5316   0.990   1.616  12.310  0.0770 -0.5275  0.3147
  355MPD2    C3 5317   1.027   1.656  12.438  0.5494  0.1158 -0.2597
  355MPD2    C4 5318   0.926   1.707  12.515  0.4443 -0.3649 -0.1874
  355MPD2    C5 5319   0.795   1.704  12.475 -0.1457  0.1150  0.4278
  355MPD2     H 5320   1.062   1.577  12.239 -1.9774  1.1233 -2.7023
  355MPD2    H1 5321   0.952   1.751  12.611 -1.9082  0.4752  0.0624
  355MPD2    H2 5322   0.657   1.654  12.319  0.3425  0.2960  1.4861
  355MPD2    H3 5323   0.724   1.746  12.545 -0.8856  1.2993 -1.0378
  355MPD2     N 5324   1.162   1.689  12.466  0.2539  0.2895  0.1761
  355MPD2    H5 5325   1.167   1.751  12.546  0.8553  1.0182 -0.4297
  355MPD2    N1 5326   0.818   1.582  12.138 -0.2058 -0.2496 -0.1106
  355MPD2    H7 5327   0.716   1.579  12.130 -0.3237  0.1780  1.2548
  356TMC3    C1 5328   1.390   1.729  12.403  0.1826  0.1102  0.1050
  356TMC3    C2 5329   1.454   1.752  12.285  0.2603  0.2974  0.3832
  356TMC3    C3 5330   1.552   1.847  12.283  0.6008  0.0568  0.6181
  356TMC3    C4 5331   1.410   1.796  12.517  0.1498  0.5469 -0.0281
  356TMC3    C5 5332   1.524   1.878  12.517  0.4441 -0.4213  0.1807
  356TMC3    C6 5333   1.589   1.921  12.397  0.0222 -0.4916  0.6285
  356TMC3     C 5334   1.267   1.653  12.381  0.4173 -0.3601 -0.6519
  356TMC3     O 5335   1.274   1.560  12.299 -0.5802 -0.8493  0.0866
  356TMC3     H 5336   1.437   1.700  12.192  0.7701  0.5049  0.1745
  356TMC3    H1 5337   1.367   1.771  12.613  1.0581 -1.5039 -0.1589
  356TMC3    H2 5338   1.668   1.995  12.384  0.8547 -1.4876  0.0029
  356TMC3    C7 5339   1.518   1.975  12.631  0.1058  0.1125 -0.2474
  356TMC3    C8 5340   1.608   1.868  12.149 -0.1693 -0.5010 -0.0091
  356TMC3    O1 5341   1.460   1.943  12.732  0.4184  0.0010 -0.0653
  356TMC3    O2 5342   1.584   1.789  12.060 -0.1640  0.1381 -0.0554
  357MPD2     C 5343   0.740   2.216   1.230  0.0702  0.4994 -0.0858
  357MPD2    C1 5344   0.839   2.312   1.265 -0.0963  0.4909  0.2200
  357MPD2    C2 5345   0.841   2.355   1.393  0.5872 -0.5127 -0.9096
  357MPD2    C3 5346   0.766   2.291   1.489 -0.0297 -0.3248  0.1824
  357MPD2    C4 5347   0.661   2.215   1.451  0.4633  0.3663  0.0507
  357MPD2    C5 5348   0.644   2.177   1.323  0.3885  0.1765 -0.1168
  357MPD2     H 5349   0.919   2.426   1.420 -0.2004 -0.3714  0.9953
  357MPD2    H1 5350   0.579   2.181   1.513 -1.3669  1.8153 -1.5751
  357MPD2    H2 5351   0.732   2.167   1.133  1.2713 -1.8199  0.9800
  357MPD2    H3 5352   0.577   2.096   1.297  0.8008 -0.2649  0.1923
  357MPD2     N 5353   0.781   2.315   1.630 -0.1938 -0.4600 -0.5007
  357MPD2    H5 5354   0.740   2.249   1.695  0.3298 -2.7490 -2.4792
  357MPD2    N1 5355   0.937   2.350   1.165  0.2579 -0.0548  0.3397
  357MPD2    H7 5356   0.942   2.293   1.082  1.9174 -0.7611  0.9046
  358TMC3    C1 5357   1.145   2.432   1.086  0.5267 -0.0704 -0.0527
  358TMC3    C2 5358   1.130   2.355   0.974 -0.4422 -0.2018  0.6856
  358TMC3    C3 5359   1.245   2.317   0.910 -0.4103  0.2687  0.0065
  358TMC3    C4 5360   1.268   2.461   1.138  0.2637 -0.2124  0.4190
  358TMC3    C5 5361   1.382   2.422   1.073  1.5595  0.3164 -0.6949
  358TMC3    C6 5362   1.368   2.363   0.952  0.2240 -0.6240 -0.1270
  358TMC3     C 5363   1.032   2.447   1.175 -0.5897  0.2006  0.0695
  358TMC3     O 5364   1.040   2.532   1.263  0.3975 -0.0635  0.1336
  358TMC3     H 5365   1.033   2.331   0.934  0.0666  1.5660 -1.5968
  358TMC3    H1 5366   1.271   2.536   1.216 -0.6925 -0.1892  0.4304
  358TMC3    H2 5367   1.455   2.305   0.922  0.3948 -0.3564 -0.1495
  358TMC3    C7 5368   1.490   2.381   1.162  0.0290  0.3465 -0.1025
  358TMC3    C8 5369   1.251   2.232   0.793  0.3585  0.2694  0.3104
  358TMC3    O1 5370   1.579   2.312   1.110 -0.1975  0.2089  0.2300
  358TMC3    O2 5371   1.148   2.167   0.776 -0.1986  0.0251 -0.2199
  359MPD2     C 5372   1.025   0.274  13.082 -0.2681  0.6803 -0.0401
  359MPD2    C1 5373   0.913   0.294  13.016  0.5917  0.5996 -0.5204
  359MPD2    C2 5374   0.790   0.262  13.075  0.3053 -0.0550  0.4571
  359MPD2    C3 5375   0.779   0.222  13.204 -0.1251 -0.0390 -0.3450
  359MPD2    C4 5376   0.898   0.196  13.271  0.9418  0.2212  0.7235
  359MPD2    C5 5377   1.022   0.232  13.215  0.4092 -0.1447 -0.1507
  359MPD2     H 5378   0.698   0.292  13.026  1.0272  0.3654 -0.6274
  359MPD2    H1 5379   0.887   0.160  13.373  5.3951 -1.2005  0.6861
  359MPD2    H2 5380   1.123   0.298  13.043  1.1972 -0.3603  2.9298
  359MPD2    H3 5381   1.118   0.212  13.260  0.9499  2.6788 -0.0225
  359MPD2     N 5382   0.660   0.196  13.269 -0.0969  0.1736 -0.4825
  359MPD2    H5 5383   0.673   0.176  13.368 -0.3192 -1.4584 -0.7726
  359MPD2    N1 5384   0.902   0.345  12.886 -0.0368  0.1012  0.2780
  359MPD2    H7 5385   0.807   0.369  12.858  0.5648  2.8293  0.6278
  360TMC3    C1 5386   0.943   0.425  12.677 -0.4477 -0.5131  0.3221
  360TMC3    C2 5387   1.019   0.507  12.599 -1.0376  0.0164  0.0999
  360TMC3    C3 5388   0.960   0.575  12.499  0.6123 -1.3056 -0.0486
  360TMC3    C4 5389   0.814   0.380  12.636 -0.2310  0.1030  0.3368
  360TMC3    C5 5390   0.765   0.445  12.526 -0.2990 -0.1046  0.4582
  360TMC3    C6 5391   0.832   0.546  12.459 -0.7966 -0.6431  0.0207
  360TMC3     C 5392   0.996   0.396  12.807 -0.5741 -0.7958 -0.1566
  360TMC3     O 5393   1.118   0.396  12.818 -0.2066 -0.8690  0.4132
  360TMC3     H 5394   1.114   0.545  12.635 -1.4980  0.4383  0.8613
  360TMC3    H1 5395   0.763   0.303  12.693  1.1475 -1.2247 -0.2192
  360TMC3    H2 5396   0.797   0.609  12.378  0.8751 -1.7362 -1.5529
  360TMC3    C7 5397   0.678   0.372  12.440  0.6902  0.0457 -0.0159
  360TMC3    C8 5398   1.041   0.666  12.417 -0.1931  0.5610 -0.1615
  360TMC3    O1 5399   0.623   0.436  12.352  0.0281  0.6456  0.1032
  360TMC3    O2 5400   0.990   0.771  12.387 -0.5715 -0.0376  0.6790
  361MPD2     C 5401   2.935   0.304  17.384  0.0013  0.1718  0.6569
  361MPD2    C1 5402   2.856   0.194  17.360 -0.1352  0.0672 -0.5533
  361MPD2    C2 5403   2.915   0.068  17.363  0.3334 -0.3435 -1.1907
  361MPD2    C3 5404   3.050   0.057  17.389 -0.0146  0.5301 -0.1931
  361MPD2    C4 5405   3.128   0.169  17.417  0.1794 -0.1138  0.7250
  361MPD2    C5 5406   3.067   0.289  17.415  0.2956 -0.4405 -0.4552
  361MPD2     H 5407   2.854   4.706  17.346  1.2707 -1.0775 -0.7780
  361MPD2    H1 5408   3.235   0.166  17.432  0.2162 -3.7684 -0.3573
  361MPD2    H2 5409   2.902   0.407  17.394 -1.7330 -0.4698  1.7082
  361MPD2    H3 5410   3.118   0.381  17.440 -1.8982  1.2547 -2.1721
  361MPD2     N 5411   3.122   4.654  17.395 -0.3949 -0.4012  0.5820
  361MPD2    H5 5412   3.218   4.656  17.428 -0.5172 -1.4170  0.9920
  361MPD2    N1 5413   2.713   0.195  17.337  0.0081  0.0760 -0.1241
  361MPD2    H7 5414   2.668   0.114  17.297 -2.6825  0.7493  1.5850
  362TMC3    C1 5415   2.494   0.283  17.324  0.0947 -0.1704  0.6059
  362TMC3    C2 5416   2.439   0.185  17.402 -0.4227 -0.2122 -1.1784
  362TMC3    C3 5417   2.332   0.112  17.357 -0.0821 -0.8414 -0.5676
  362TMC3    C4 5418   2.433   0.314  17.200  0.7170 -0.2529 -0.2635
  362TMC3    C5 5419   2.339   0.225  17.157  0.4185 -0.1774  1.0068
  362TMC3    C6 5420   2.295   0.116  17.225 -0.2914 -0.4366  0.1355
  362TMC3     C 5421   2.639   0.312  17.340  0.6562 -0.1869 -0.5447
  362TMC3     O 5422   2.678   0.427  17.341 -0.3752 -0.1883 -0.4593
  362TMC3     H 5423   2.487   0.164  17.497 -0.2130  3.5892 -0.4238
  362TMC3    H1 5424   2.484   0.379  17.130 -1.0005 -0.6924 -1.8980
  362TMC3    H2 5425   2.219   0.047  17.190  0.7757 -1.5395 -0.0047
  362TMC3    C7 5426   2.249   0.273  17.056 -0.1411 -0.5445  0.2906
  362TMC3    C8 5427   2.224   0.073  17.446  0.0668  0.1686 -0.1051
  362TMC3    O1 5428   2.232   0.392  17.060 -0.6999  0.2691  0.0669
  362TMC3    O2 5429   2.154   4.705  17.414 -0.3120  0.2805  0.3470
  363TMC3    C1 5430   1.672   2.072   9.747  0.3016  0.2422 -1.1580
  363TMC3    C2 5431   1.649   1.952   9.803 -0.3032  0.2262  0.1594
  363TMC3    C3 5432   1.544   1.941   9.899 -0.2109  0.0271 -0.2571
  363TMC3    C4 5433   1.605   2.185   9.786  0.4350  0.0544 -0.3514
  363TMC3    C5 5434   1.497   2.170   9.869  0.0761  0.3180  0.1262
  363TMC3    C6 5435   1.465   2.052   9.931  0.0321 -0.5966  0.6782
  363TMC3     C 5436   1.773   2.078   9.649  0.0020  0.5162  0.1396
  363TMC3     O 5437   1.768   2.174   9.568  0.0767  0.0062 -0.3129
  363TMC3     H 5438   1.698   1.859   9.777 -1.3731 -0.6150  1.1792
  363TMC3    H1 5439   1.632   2.279   9.740 -0.9778  0.3819 -0.5061
  363TMC3    H2 5440   1.392   2.033  10.009 -1.2214 -0.1871 -0.3852
  363TMC3    C7 5441   1.426   2.288   9.911 -0.1153 -0.0805 -0.1999
  363TMC3    C8 5442   1.502   1.812   9.949 -0.6082  0.4263  0.1378
  363TMC3    O1 5443   1.488   2.388   9.887  0.2579  0.3192  0.4834
  363TMC3    O2 5444   1.392   1.807   9.994  0.1721 -0.0796 -0.0435
  364MPD2     C 5445   4.428   1.190  10.627  0.1374  0.7560  0.4125
  364MPD2    C1 5446   4.562   1.163  10.600 -0.2687  0.0659  0.3088
  364MPD2    C2 5447   4.620   1.047  10.656 -0.4768 -0.8536  0.1008
  364MPD2    C3 5448   4.551   0.960  10.735  0.2483 -0.6354  0.2291
  364MPD2    C4 5449   4.419   0.989  10.759  1.1946  0.2108  0.3266
  364MPD2    C5 5450   4.359   1.098  10.702 -0.2073  0.0081  0.5037
  364MPD2     H 5451   4.723   1.026  10.628 -0.3701 -1.2946  0.8181
  364MPD2    H1 5452   4.363   0.919  10.821  1.2246  1.3409  1.6161
  364MPD2    H2 5453   4.378   1.276  10.586  1.0418  1.9158  1.7216
  364MPD2    H3 5454   4.259   1.124  10.736 -0.5182  0.1893 -0.5417
  364MPD2     N 5455   4.606   0.855  10.804 -0.5805  0.3449 -0.0795
  364MPD2    H5 5456   4.545   0.793  10.857  1.1999 -0.5964  0.8689
  364MPD2    N1 5457   4.638   1.262  10.530 -0.4460  0.4973  0.2026
  364MPD2    H7 5458   4.605   1.358  10.531 -2.7686 -0.2798 -0.5085
  365TMC3    C1 5459   0.096   1.347  10.416 -0.9611  0.0888  0.1776
  365TMC3    C2 5460   0.186   1.330  10.317 -0.6594 -0.0154 -0.7398
  365TMC3    C3 5461   0.252   1.432  10.266  0.0797  0.8537  0.5766
  365TMC3    C4 5462   0.084   1.470  10.479 -0.1993  0.2157 -0.3100
  365TMC3    C5 5463   0.144   1.575  10.419  0.5028  0.2584 -0.6446
  365TMC3    C6 5464   0.233   1.557  10.314 -0.0208 -0.2888  0.9500
  365TMC3     C 5465   0.030   1.232  10.461  0.2003 -0.7642  0.2831
  365TMC3     O 5466   0.079   1.123  10.437 -1.2438  0.7622  0.2110
  365TMC3     H 5467   0.205   1.230  10.278  0.9860 -0.3343  0.8600
  365TMC3    H1 5468   0.033   1.484  10.573  0.2589  1.6426 -0.2621
  365TMC3    H2 5469   0.283   1.637  10.260 -0.1226 -0.9690 -0.1334
  365TMC3    C7 5470   0.155   1.701  10.497  0.3093  0.1558 -0.1099
  365TMC3    C8 5471   0.367   1.421  10.173 -0.2741  0.4058 -0.6489
  365TMC3    O1 5472   0.174   1.802  10.428 -0.1503 -0.0725 -0.2530
  365TMC3    O2 5473   0.392   1.512  10.097  0.1666  0.1708 -0.4051
  366MPD2     C 5474   2.514   3.224  15.648  0.0713  0.1428  0.0286
  366MPD2    C1 5475   2.645   3.192  15.644  0.0031  0.2388  0.2627
  366MPD2    C2 5476   2.682   3.069  15.602  0.1730  0.1041 -0.2930
  366MPD2    C3 5477   2.599   2.978  15.561 -0.2786  0.7689  0.3710
  366MPD2    C4 5478   2.467   3.007  15.553 -0.1312  0.0301  0.0431
  366MPD2    C5 5479   2.429   3.127  15.603  0.0625  0.3101 -0.0747
  366MPD2     H 5480   2.789   3.051  15.605 -0.1205 -2.2237 -3.0712
  366MPD2    H1 5481   2.385   2.943  15.524 -1.3872  0.5763  2.4396
  366MPD2    H2 5482   2.479   3.324  15.667  1.0500  0.1916  1.5882
  366MPD2    H3 5483   2.325   3.157  15.606 -0.4235 -1.3469 -0.1524
  366MPD2     N 5484   2.647   2.850  15.521  0.0249 -0.5311  0.7962
  366MPD2    H5 5485   2.748   2.845  15.525  0.2830  2.3482 -1.6831
  366MPD2    N1 5486   2.752   3.273  15.703  0.3203 -0.0695 -0.3714
  366MPD2    H7 5487   2.849   3.244  15.698  0.3599  0.1790 -0.9991
  367TMC3    C1 5488   2.859   3.457  15.761  0.2186  0.2822 -0.2532
  367TMC3    C2 5489   2.963   3.373  15.785  0.2400 -0.3735  0.1502
  367TMC3    C3 5490   3.086   3.392  15.724 -0.2421  0.4839  0.3372
  367TMC3    C4 5491   2.867   3.543  15.656 -0.1548  0.4553 -0.3256
  367TMC3    C5 5492   2.982   3.559  15.595 -0.7034  0.0502 -0.3662
  367TMC3    C6 5493   3.090   3.482  15.626 -0.0911  0.0004 -0.0686
  367TMC3     C 5494   2.734   3.388  15.768  0.0394  0.3472  0.2541
  367TMC3     O 5495   2.639   3.463  15.765  0.0942  0.2192 -0.2047
  367TMC3     H 5496   2.952   3.315  15.876 -0.4976 -1.5072 -0.6690
  367TMC3    H1 5497   2.785   3.595  15.609 -2.1255 -1.6301  0.8401
  367TMC3    H2 5498   3.183   3.490  15.571 -0.0120  2.2028  0.3545
  367TMC3    C7 5499   2.948   3.556  15.456 -0.2489  0.4621  0.2054
  367TMC3    C8 5500   3.194   3.346  15.800  0.6246  0.4767  0.0737
  367TMC3    O1 5501   2.885   3.650  15.411  0.5567  0.0748 -0.3904
  367TMC3    O2 5502   3.199   3.227  15.836 -0.7327 -0.1237 -0.0706
  368MPD2     C 5503   4.552   4.314  13.774  0.1230  0.1612 -0.8492
  368MPD2    C1 5504   4.490   4.437  13.754  0.0089 -0.0483  0.4691
  368MPD2    C2 5505   4.522   4.542  13.838  0.2910 -0.0949  0.2202
  368MPD2    C3 5506   4.623   4.523  13.940  0.1033  0.0883 -0.2472
  368MPD2    C4 5507   4.688   4.399  13.948  0.6907 -0.9290  0.5189
  368MPD2    C5 5508   4.649   4.293  13.870  0.5448  0.0510  0.7959
  368MPD2     H 5509   4.470   4.636  13.825 -0.1004 -0.2671  0.5353
  368MPD2    H1 5510   0.030   4.365  14.026 -2.2146 -0.5299  3.2218
  368MPD2    H2 5511   4.540   4.229  13.708 -0.6971 -0.3249 -0.0767
  368MPD2    H3 5512   4.697   4.197  13.887 -1.6636 -1.3459 -0.8065
  368MPD2     N 5513   4.652   4.610  14.047  0.2020  0.3156 -0.7958
  368MPD2    H5 5514   4.702   4.572  14.126 -0.0476 -0.2294 -0.8980
  368MPD2    N1 5515   4.388   4.440  13.656 -0.2547 -0.3211 -0.2131
  368MPD2    H7 5516   4.371   4.358  13.598  0.4132 -1.6992  1.5693
  369TMC3    C1 5517   4.262   4.518  13.485 -0.5942  0.3072 -0.4466
  369TMC3    C2 5518   4.242   4.614  13.391 -0.0296  1.1763 -0.2680
  369TMC3    C3 5519   4.139   4.594  13.306 -0.5169 -0.5700 -0.1868
  369TMC3    C4 5520   4.179   4.408  13.498 -0.5820  0.3276 -0.1851
  369TMC3    C5 5521   4.074   4.395  13.411  0.4206 -0.3054  0.3254
  369TMC3    C6 5522   4.061   4.484  13.309  0.1874  0.0579 -0.3747
  369TMC3     C 5523   4.326   4.554  13.607  0.6000 -0.6055 -0.2341
  369TMC3     O 5524   4.360   4.669  13.627  0.0309  0.1905  0.4985
  369TMC3     H 5525   4.302   4.704  13.396 -1.4076  2.1291 -0.7239
  369TMC3    H1 5526   4.170   4.340  13.582  0.4634 -1.1312 -1.2581
  369TMC3    H2 5527   3.989   4.466  13.231 -2.0826 -1.6419  2.1284
  369TMC3    C7 5528   3.977   4.294  13.441  0.1565 -0.2250 -1.5658
  369TMC3    C8 5529   4.112   4.685  13.195 -0.0235 -0.0943  0.1019
  369TMC3    O1 5530   3.988   4.220  13.536 -0.2341  0.3563 -0.1332
  369TMC3    O2 5531   4.001   4.696  13.152 -0.1592 -0.2097 -0.4213
  370TMC3    C1 5532   3.926   0.735  16.351  0.1915 -0.0660 -0.5186
  370TMC3    C2 5533   3.911   0.658  16.467 -0.4476  0.0052  0.1095
  370TMC3    C3 5534   3.867   0.524  16.458 -0.4839 -0.3964  0.2926
  370TMC3    C4 5535   3.926   0.671  16.232 -0.0963  0.3427  0.0253
  370TMC3    C5 5536   3.901   0.533  16.232 -0.4779 -0.5102 -0.7036
  370TMC3    C6 5537   3.854   0.464  16.338  0.4137 -0.1108 -0.0102
  370TMC3     C 5538   3.990   0.867  16.375  0.2315 -0.4928  0.0446
  370TMC3     O 5539   4.051   0.892  16.479  0.2548  0.3166  0.5286
  370TMC3     H 5540   3.932   0.715  16.557 -1.3109 -2.6176  1.9678
  370TMC3    H1 5541   3.963   0.732  16.150 -1.1017 -0.3669 -0.9662
  370TMC3    H2 5542   3.802   0.369  16.330 -0.5752  0.5295 -1.2786
  370TMC3    C7 5543   3.918   0.461  16.111  0.1225  0.4549 -0.2256
  370TMC3    C8 5544   3.814   0.448  16.573 -0.0850 -0.1009 -0.5119
  370TMC3    O1 5545   3.901   0.518  16.008 -0.4197  0.3547 -0.3399
  370TMC3    O2 5546   3.742   0.351  16.552  0.1120 -0.0645  0.4327
  371TMC3    C1 5547   0.116   3.511  15.353 -0.9366  1.2618  0.2111
  371TMC3    C2 5548   0.032   3.494  15.460  0.1824 -0.8892 -0.1761
  371TMC3    C3 5549   0.001   3.610  15.520 -0.3789  0.2113  0.0113
  371TMC3    C4 5550   0.163   3.634  15.309 -0.1533  0.5032  0.0780
  371TMC3    C5 5551   0.129   3.745  15.384 -0.0072 -0.1188 -0.4801
  371TMC3    C6 5552   0.043   3.740  15.488  0.2354  0.5694 -0.0591
  371TMC3     C 5553   0.175   3.393  15.289  0.5318  0.1475 -0.8451
  371TMC3     O 5554   0.251   3.414  15.196 -0.6274 -0.2369  0.8267
  371TMC3     H 5555   4.705   3.400  15.477 -1.5576  0.3295  1.1070
  371TMC3    H1 5556   0.238   3.627  15.232 -0.1067  0.0685  0.1635
  371TMC3    H2 5557   0.023   3.830  15.545 -0.8122 -0.1165  0.6531
  371TMC3    C7 5558   0.200   3.869  15.366  0.0663  0.4180  0.5757
  371TMC3    C8 5559   4.673   3.594  15.656  0.6613 -0.4798  0.0794
  371TMC3    O1 5560   0.195   3.950  15.450 -0.5161 -0.6284 -0.3312
  371TMC3    O2 5561   4.717   3.492  15.712  0.0122  0.1155 -0.1274
  372MPD2     C 5562   3.878   4.722  13.571  0.0199  0.1086 -0.6431
  372MPD2    C1 5563   3.991   0.004  13.652  0.5117  0.1877  0.7159
  372MPD2    C2 5564   4.018   4.627  13.737  0.4587  0.2938  0.0172
  372MPD2    C3 5565   3.944   4.509  13.744  0.2459 -0.1797 -0.9853
  372MPD2    C4 5566   3.822   4.511  13.672  0.7550  0.0106 -0.3856
  372MPD2    C5 5567   3.796   4.611  13.586  0.0740  0.4510 -0.4120
  372MPD2     H 5568   4.111   4.643  13.791 -0.0717 -0.3573  1.1258
  372MPD2    H1 5569   3.741   4.440  13.678  1.0354 -0.4069 -1.7144
  372MPD2    H2 5570   3.840   0.080  13.514 -3.1282 -1.8747 -1.4312
  372MPD2    H3 5571   3.697   4.609  13.542  0.5351 -1.1631 -1.3962
  372MPD2     N 5572   3.982   4.401  13.833 -0.5852  0.1158 -0.2638
  372MPD2    H5 5573   4.072   4.421  13.876  0.0505 -1.6062 -0.8031
  372MPD2    N1 5574   4.101   0.099  13.625  0.3414 -0.1250  0.3086
  372MPD2    H7 5575   4.190   0.082  13.669 -0.0192 -0.2061  1.0006
  373TMC3    C1 5576   3.991   4.182  13.916  0.0330  0.5874 -0.3565
  373TMC3    C2 5577   3.965   4.141  14.044 -0.6604 -0.4638 -0.3335
  373TMC3    C3 5578   4.060   4.081  14.117  0.1626  0.5671  0.2809
  373TMC3    C4 5579   4.114   4.169  13.856  0.2359  0.2279  0.1409
  373TMC3    C5 5580   4.204   4.094  13.929 -0.1539 -0.2390 -0.1154
  373TMC3    C6 5581   4.176   4.057  14.057 -0.5258  0.1666 -0.5899
  373TMC3     C 5582   3.911   4.284  13.854  0.9411 -0.1285  0.1036
  373TMC3     O 5583   3.803   4.247  13.808  0.6218 -0.7118  0.4602
  373TMC3     H 5584   3.863   4.160  14.074 -1.2929 -2.1937 -1.4126
  373TMC3    H1 5585   4.120   4.197  13.751  0.1552  0.7011  0.2598
  373TMC3    H2 5586   4.251   3.999  14.110 -1.6553 -0.7210  0.0415
  373TMC3    C7 5587   4.322   4.047  13.860 -0.4456 -0.3853 -0.0112
  373TMC3    C8 5588   4.070   4.119  14.258 -1.1375 -0.2767 -0.3336
  373TMC3    O1 5589   4.322   4.050  13.736  0.8058  0.3746 -0.0775
  373TMC3    O2 5590   4.167   4.104  14.326 -0.0504  0.3417 -0.1372
  374TMC3    C1 5591   0.403   3.679  10.127  0.0755 -0.2974 -0.4433
  374TMC3    C2 5592   0.424   3.812  10.148 -0.2346  0.0967 -0.2173
  374TMC3    C3 5593   0.476   3.882  10.044  0.3276  0.1437  0.7560
  374TMC3    C4 5594   0.426   3.616  10.007 -0.4348 -0.8381  0.0762
  374TMC3    C5 5595   0.466   3.699   9.905  0.4604  0.7816 -0.5883
  374TMC3    C6 5596   0.489   3.838   9.917  0.6349 -0.5127 -0.1796
  374TMC3     C 5597   0.346   3.593  10.234  0.1225  0.5085 -0.9278
  374TMC3     O 5598   0.306   3.477  10.208 -0.2896  0.1549 -0.3017
  374TMC3     H 5599   0.400   3.863  10.241  2.8374  1.7199 -0.3334
  374TMC3    H1 5600   0.422   3.508  10.003 -1.3528 -0.8813  2.0616
  374TMC3    H2 5601   0.527   3.902   9.839 -0.1913 -0.1449 -0.2786
  374TMC3    C7 5602   0.470   3.639   9.779  0.5384  0.2440  0.0836
  374TMC3    C8 5603   0.504   4.026  10.063 -0.2941  0.0975  0.3510
  374TMC3    O1 5604   0.490   3.727   9.695  1.1113 -0.7971  0.0637
  374TMC3    O2 5605   0.514   4.095   9.962  0.0290 -0.0742  0.0442
  375MPD2     C 5606   0.675   1.602  16.740 -0.2435 -0.7282 -0.4421
  375MPD2    C1 5607   0.556   1.547  16.693 -0.8779  0.0232  0.2029
  375MPD2    C2 5608   0.560   1.427  16.625 -0.0690 -0.4315  1.1917
  375MPD2    C3 5609   0.672   1.348  16.616 -0.2775 -0.0144  0.1008
  375MPD2    C4 5610   0.784   1.404  16.667 -0.4192 -0.6224 -0.0496
  375MPD2    C5 5611   0.786   1.532  16.720  0.0592 -0.6184  0.5670
  375MPD2     H 5612   0.466   1.391  16.586 -0.0036  0.4993  0.1758
  375MPD2    H1 5613   0.881   1.356  16.667  1.1926  2.6402 -0.9688
  375MPD2    H2 5614   0.686   1.701  16.781 -1.4976  0.4882 -3.0352
  375MPD2    H3 5615   0.880   1.584  16.738  0.5380 -0.5582 -2.0151
  375MPD2     N 5616   0.673   1.218  16.560  0.3271 -0.2200  0.2181
  375MPD2    H5 5617   0.768   1.186  16.550  0.0001 -1.3833  0.8334
  375MPD2    N1 5618   0.438   1.620  16.695  0.2147  0.4919 -0.8109
  375MPD2    H7 5619   0.359   1.578  16.648  1.2147 -2.7581  0.3957
  376TMC3    C1 5620   0.595   1.033  16.437 -0.2073 -0.0706 -0.5759
  376TMC3    C2 5621   0.716   0.974  16.460  0.2165  0.7789  0.6206
  376TMC3    C3 5622   0.744   0.853  16.397 -0.5551 -0.1276  0.0579
  376TMC3    C4 5623   0.498   0.979  16.351 -0.2601 -1.2389  0.5453
  376TMC3    C5 5624   0.538   0.867  16.285  0.2199 -0.3042 -0.7001
  376TMC3    C6 5625   0.656   0.803  16.310 -0.2270  0.3146  0.8878
  376TMC3     C 5626   0.563   1.151  16.503  0.6197  0.6316  0.9475
  376TMC3     O 5627   0.445   1.189  16.499  0.0608  0.4641  0.2300
  376TMC3     H 5628   0.790   1.014  16.529 -0.7093  0.2309  1.9282
  376TMC3    H1 5629   0.400   1.023  16.333 -0.1337 -1.1457  0.0765
  376TMC3    H2 5630   0.680   0.710  16.260 -0.9878  0.8569 -0.5058
  376TMC3    C7 5631   0.472   0.826  16.165 -0.2894  0.3156  0.0742
  376TMC3    C8 5632   0.879   0.820  16.388 -0.4595 -0.0477 -0.0243
  376TMC3    O1 5633   0.490   0.717  16.109  0.3930 -0.1289 -0.4089
  376TMC3    O2 5634   0.957   0.905  16.431  0.0173  0.2934 -0.4027
  377MPD2     C 5635   2.701   0.114  12.511  0.2281  0.0041 -0.2615
  377MPD2    C1 5636   2.785   0.078  12.610 -0.7500  0.0838 -0.3223
  377MPD2    C2 5637   2.738   0.090  12.734 -0.5916 -0.5645 -0.1718
  377MPD2    C3 5638   2.607   0.120  12.762  0.1503  0.1907  0.3916
  377MPD2    C4 5639   2.525   0.156  12.662 -0.0240 -0.1169  0.1456
  377MPD2    C5 5640   2.573   0.154  12.533 -0.0306  0.1612  0.2221
  377MPD2     H 5641   2.797   0.064  12.821 -0.8076 -0.6970 -0.0654
  377MPD2    H1 5642   2.423   0.184  12.686  0.2286  0.8371  0.1437
  377MPD2    H2 5643   2.739   0.123  12.409  2.8568  1.1428  0.8215
  377MPD2    H3 5644   2.515   0.189  12.449 -2.8995 -2.2852  1.2087
  377MPD2     N 5645   2.550   0.120  12.887 -0.1387  0.4933  0.1466
  377MPD2    H5 5646   2.456   0.155  12.904 -1.0069 -0.6757 -2.4108
  377MPD2    N1 5647   2.920   0.040  12.574  0.1446  0.0087  0.2168
  377MPD2    H7 5648   2.941   0.047  12.475  1.1513 -0.2090  0.4153
  378TMC3    C1 5649   3.296   0.045  12.443  0.3567  0.1445 -0.9577
  378TMC3    C2 5650   3.162   0.021  12.471 -0.1220  0.5977 -0.1371
  378TMC3    C3 5651   3.136   4.682  12.592 -0.1095 -0.4285  0.1266
  378TMC3    C4 5652   3.396   0.005  12.529  0.3755  0.1991 -0.3336
  378TMC3    C5 5653   3.368   4.655  12.635  0.6064  0.0644 -0.1810
  378TMC3    C6 5654   3.237   4.622  12.662  1.1930  0.5015 -0.2552
  378TMC3     C 5655   3.324   0.140  12.338 -0.0695  0.0315 -0.0814
  378TMC3     O 5656   3.229   0.200  12.291 -0.0482  0.1592 -0.4016
  378TMC3     H 5657   3.086   0.073  12.414 -0.1047 -0.7616 -1.4091
  378TMC3    H1 5658   3.495   0.050  12.528  2.0934 -3.5915 -1.0954
  378TMC3    H2 5659   3.208   4.567  12.751  0.7502  0.8691 -0.1711
  378TMC3    C7 5660   3.465   4.615  12.734 -0.0833  0.1635 -0.1091
  378TMC3    C8 5661   3.007   4.705  12.655  0.1932  0.5903  0.0243
  378TMC3    O1 5662   3.422   4.550  12.830 -0.1945 -0.2107  0.6821
  378TMC3    O2 5663   3.003   4.698  12.780  0.1186  0.1505  0.7566
  379MPD2     C 5664   3.671   2.875  16.884  0.7012  1.1176  0.3785
  379MPD2    C1 5665   3.767   2.919  16.792  0.5591  0.2210 -0.3521
  379MPD2    C2 5666   3.902   2.934  16.829  0.3438 -0.6907  0.4277
  379MPD2    C3 5667   3.937   2.926  16.961  0.2949  0.3041 -0.2343
  379MPD2    C4 5668   3.842   2.888  17.052 -0.3424  0.5659  0.0294
  379MPD2    C5 5669   3.710   2.867  17.011 -0.2488  0.4964 -0.3488
  379MPD2     H 5670   3.963   2.974  16.748 -0.5064  0.7603  0.5045
  379MPD2    H1 5671   3.865   2.867  17.156 -0.9167  2.7057  0.5882
  379MPD2    H2 5672   3.574   2.835  16.858  1.6230 -0.0770 -1.2263
  379MPD2    H3 5673   3.629   2.837  17.078  1.0540 -1.8793  0.1596
  379MPD2     N 5674   4.068   2.950  17.008 -0.0670  0.4257  0.2632
  379MPD2    H5 5675   4.079   2.961  17.108 -1.8990 -0.5878  0.5568
  379MPD2    N1 5676   3.724   2.933  16.653 -0.0388  0.5156 -0.0471
  379MPD2    H7 5677   3.624   2.932  16.635 -0.6025  0.1315  2.9793
  380TMC3    C1 5678   3.760   2.947  16.423 -0.3939 -0.1309  0.2888
  380TMC3    C2 5679   3.805   2.869  16.321 -0.7492 -0.0529 -0.1537
  380TMC3    C3 5680   3.788   2.912  16.199 -0.0309 -0.2906 -0.0885
  380TMC3    C4 5681   3.704   3.068  16.407  0.2112 -0.3624  0.0200
  380TMC3    C5 5682   3.708   3.112  16.280  0.9377 -0.0373 -0.2351
  380TMC3    C6 5683   3.731   3.031  16.175  0.9355 -0.2843  0.2169
  380TMC3     C 5684   3.810   2.914  16.554  0.1190 -0.1920  0.4468
  380TMC3     O 5685   3.927   2.873  16.558 -0.4667  0.0188 -0.1774
  380TMC3     H 5686   3.857   2.777  16.344  0.4476  0.9522  1.2287
  380TMC3    H1 5687   3.692   3.139  16.488 -0.5710  0.3044 -0.6673
  380TMC3    H2 5688   3.733   3.069  16.074 -2.0672 -0.5409  0.0729
  380TMC3    C7 5689   3.638   3.236  16.261  0.2840 -0.0898  0.2566
  380TMC3    C8 5690   3.821   2.828  16.089 -0.0477  0.1303 -1.1239
  380TMC3    O1 5691   3.626   3.312  16.354  0.8315  0.2551  0.2320
  380TMC3    O2 5692   3.906   2.748  16.112 -0.4549  0.2547 -0.1331
  381TMC3    C1 5693   3.851   4.280  16.464 -0.2651 -0.5857  0.4020
  381TMC3    C2 5694   3.948   4.374  16.459 -0.0272 -0.9971 -0.5010
  381TMC3    C3 5695   3.916   4.504  16.510  0.4962  0.7065  0.0639
  381TMC3    C4 5696   3.725   4.310  16.513  0.1364  0.1867 -0.1551
  381TMC3    C5 5697   3.698   4.431  16.565 -0.2514  0.2026 -0.1561
  381TMC3    C6 5698   3.790   4.535  16.560  0.0336 -0.5281 -0.0855
  381TMC3     C 5699   3.881   4.156  16.392  0.5375 -0.3590 -0.6068
  381TMC3     O 5700   3.975   4.165  16.315  0.0379  0.1614  0.4084
  381TMC3     H 5701   4.044   4.365  16.409 -0.3714  1.0164 -1.5411
  381TMC3    H1 5702   3.651   4.231  16.511  2.6077 -2.0957 -1.9448
  381TMC3    H2 5703   3.764   4.636  16.588  1.2837 -0.7487  1.8685
  381TMC3    C7 5704   3.567   4.438  16.629  0.0737  0.3470  1.1077
  381TMC3    C8 5705   4.007   4.615  16.476 -0.3728 -0.1706  0.5018
  381TMC3    O1 5706   3.506   4.335  16.664  0.7774  0.0361  0.3773
  381TMC3    O2 5707   4.102   4.583  16.408 -0.4722  0.4581 -0.9348
  382MPD2     C 5708   2.828   2.253  17.146  0.0206 -0.4421 -0.4509
  382MPD2    C1 5709   2.863   2.266  17.282  0.5021 -0.2921 -0.2178
  382MPD2    C2 5710   2.858   2.156  17.363 -0.2879  0.3688 -0.4248
  382MPD2    C3 5711   2.822   2.028  17.316 -0.3297 -0.2192 -0.1220
  382MPD2    C4 5712   2.773   2.025  17.186 -0.2291  0.1145 -0.2607
  382MPD2    C5 5713   2.772   2.138  17.107 -0.3821  0.1501  0.0657
  382MPD2     H 5714   2.902   2.163  17.462 -0.2483 -1.3754 -0.3169
  382MPD2    H1 5715   2.755   1.929  17.140 -2.3998 -0.7093  2.3144
  382MPD2    H2 5716   2.839   2.336  17.078 -2.5657 -1.3771 -2.0084
  382MPD2    H3 5717   2.750   2.113  17.004 -0.7738 -2.5997  0.8183
  382MPD2     N 5718   2.840   1.915  17.395  0.4113  0.6612  0.3795
  382MPD2    H5 5719   2.811   1.828  17.350 -1.0890  1.2099  0.2832
  382MPD2    N1 5720   2.916   2.384  17.344 -0.8553 -0.4449  0.5317
  382MPD2    H7 5721   2.949   2.378  17.440 -0.0048  2.3135  0.4109
  383TMC3    C1 5722   2.882   1.779  17.593  0.6765  1.2970 -0.7689
  383TMC3    C2 5723   2.858   1.669  17.511 -0.2503 -0.0644 -0.5932
  383TMC3    C3 5724   2.827   1.548  17.566 -0.0034 -0.3585 -0.1034
  383TMC3    C4 5725   2.863   1.769   0.026 -0.7553 -0.2586 -0.0504
  383TMC3    C5 5726   2.820   1.646   0.072  0.1972  0.1807 -0.2853
  383TMC3    C6 5727   2.796   1.538  17.701  0.2090 -0.5935 -0.0675
  383TMC3     C 5728   2.876   1.912  17.527 -0.4810 -0.8504  0.3454
  383TMC3     O 5729   2.875   2.000  17.611  0.0186 -0.1573  0.4998
  383TMC3     H 5730   2.878   1.679  17.405 -3.4219  0.9973 -1.0942
  383TMC3    H1 5731   2.865   1.860   0.085  0.7172 -0.7291  0.6258
  383TMC3    H2 5732   2.783   1.440   0.041 -2.7281 -1.7751 -3.5909
  383TMC3    C7 5733   2.823   1.637   0.224  0.2530  0.6162  0.5115
  383TMC3    C8 5734   2.773   1.443  17.479 -0.4065  0.1202  0.7255
  383TMC3    O1 5735   2.906   1.707   0.283  0.1996 -0.2055  0.3624
  383TMC3    O2 5736   2.711   1.475  17.379  0.0959  0.1959 -0.0172
  384MPD2     C 5737   0.138   2.882  12.068 -0.4985  0.2225  0.2449
  384MPD2    C1 5738   0.112   2.755  12.129 -0.2793 -0.3113 -1.4210
  384MPD2    C2 5739   0.215   2.673  12.168 -0.4894 -0.0057 -0.3825
  384MPD2    C3 5740   0.351   2.704  12.152 -0.3010 -0.4729  0.4096
  384MPD2    C4 5741   0.379   2.830  12.098 -0.2114 -0.0283  0.9212
  384MPD2    C5 5742   0.275   2.910  12.062  0.2802 -0.4570  0.9880
  384MPD2     H 5743   0.190   2.584  12.224 -1.3283  1.3487  1.3915
  384MPD2    H1 5744   0.482   2.865  12.087 -0.7255  1.9857  2.4223
  384MPD2    H2 5745   0.058   2.944  12.030 -0.8823  0.0826  0.8276
  384MPD2    H3 5746   0.305   3.006  12.021  0.0122  0.6783  3.4527
  384MPD2     N 5747   0.454   2.611  12.182 -0.2489 -0.0274 -0.2201
  384MPD2    H5 5748   0.549   2.644  12.170  0.0638  0.1374  2.6924
  384MPD2    N1 5749   4.705   2.707  12.131 -0.7021  0.1598  0.3341
  384MPD2    H7 5750   4.695   2.609  12.155 -0.5115  0.2029  0.5900
  385TMC3    C1 5751   0.539   2.386  12.217  0.2672 -0.0311 -0.7734
  385TMC3    C2 5752   0.600   2.386  12.094 -0.6986  0.1488  0.1696
  385TMC3    C3 5753   0.603   2.267  12.033 -0.2733  0.5918 -0.3765
  385TMC3    C4 5754   0.498   2.280  12.291 -0.2424  0.0877  0.5352
  385TMC3    C5 5755   0.512   2.157  12.228  0.1008  0.1463  0.0217
  385TMC3    C6 5756   0.570   2.153  12.101 -0.6331 -0.7144 -0.1456
  385TMC3     C 5757   0.431   2.481  12.216  0.3965 -0.4026 -0.2271
  385TMC3     O 5758   0.328   2.420  12.244  0.1029  0.1521 -0.6207
  385TMC3     H 5759   0.629   2.480  12.047 -1.4193 -0.6590 -1.9058
  385TMC3    H1 5760   0.451   2.295  12.388 -2.5213 -0.6048 -0.4521
  385TMC3    H2 5761   0.573   2.057  12.050  0.2808  0.0237 -1.4891
  385TMC3    C7 5762   0.398   2.075  12.248  0.9764  0.0721 -0.4920
  385TMC3    C8 5763   0.654   2.255  11.900 -0.1770  0.0194  0.5704
  385TMC3    O1 5764   0.413   1.955  12.242  0.0585 -0.1331  0.3753
  385TMC3    O2 5765   0.705   2.349  11.840  0.0177  0.8273  0.2626
  386TMC3    C1 5766   4.545   0.236  11.837  0.1142  0.9548  0.6672
  386TMC3    C2 5767   4.521   0.196  11.707 -0.4436  0.1488 -0.4782
  386TMC3    C3 5768   4.403   0.237  11.642  0.1384 -0.2086 -0.2818
  386TMC3    C4 5769   4.457   0.306  11.909  0.1593 -0.4730  0.0710
  386TMC3    C5 5770   4.345   0.347  11.839 -0.2974 -0.6181  0.5312
  386TMC3    C6 5771   4.317   0.322  11.707  0.0641 -0.1352 -1.2680
  386TMC3     C 5772   4.660   0.192  11.916 -0.0423  0.3827 -0.2876
  386TMC3     O 5773   4.697   0.277  11.998  0.1648  0.3716 -0.6089
  386TMC3     H 5774   4.600   0.137  11.662 -1.4124 -0.6040 -1.1752
  386TMC3    H1 5775   4.475   0.314  12.016  0.4242 -0.9024  0.0566
  386TMC3    H2 5776   4.227   0.361  11.661 -0.9720 -0.7800  0.2200
  386TMC3    C7 5777   4.228   0.381  11.930 -0.1748  0.1582 -0.7402
  386TMC3    C8 5778   4.383   0.202  11.512 -0.6188 -0.2451  0.1296
  386TMC3    O1 5779   4.238   0.334  12.041 -0.4066 -0.3945  0.2103
  386TMC3    O2 5780   4.300   0.275  11.464 -0.2796  0.0965  0.2032
  387MPD2     C 5781   1.975   0.218  10.013  0.5416 -0.1366  0.2337
  387MPD2    C1 5782   2.056   0.161  10.115  0.0639  0.5966  0.0686
  387MPD2    C2 5783   2.049   0.026  10.134  0.0507  0.0799 -0.3436
  387MPD2    C3 5784   1.990   4.664  10.049  0.2937 -0.0397  0.0346
  387MPD2    C4 5785   1.914   4.718   9.944  0.5670 -0.1163  0.0926
  387MPD2    C5 5786   1.900   0.127   9.935  0.4100  0.0487 -0.6162
  387MPD2     H 5787   2.109   4.716  10.217 -2.0912 -0.4250  0.9889
  387MPD2    H1 5788   1.848   4.658   9.882  0.7260  0.8731 -1.0322
  387MPD2    H2 5789   1.970   0.324   9.991 -0.0008 -0.0833  0.6129
  387MPD2    H3 5790   1.838   0.166   9.855 -1.5203 -2.2882 -0.2685
  387MPD2     N 5791   2.027   4.529  10.057 -0.2681  0.3553  0.0721
  387MPD2    H5 5792   2.075   4.495  10.140  1.1110 -0.3797 -1.0221
  387MPD2    N1 5793   2.148   0.232  10.199 -0.0157  0.1311 -0.3947
  387MPD2    H7 5794   2.193   0.181  10.275  0.6616  1.9561  0.4156
  388TMC3    C1 5795   2.294   0.401  10.258  0.1415 -0.5527 -0.7732
  388TMC3    C2 5796   2.316   0.525  10.313 -0.6266  0.3398 -0.1917
  388TMC3    C3 5797   2.431   0.551  10.383 -0.2661 -0.0772  0.0319
  388TMC3    C4 5798   2.385   0.297  10.288 -0.0040  0.1091 -0.2461
  388TMC3    C5 5799   2.491   0.323  10.366  0.0172  0.6262 -0.4482
  388TMC3    C6 5800   2.521   0.450  10.410 -0.0868  0.3559 -0.1414
  388TMC3     C 5801   2.176   0.365  10.181 -0.6346  0.0112  0.1908
  388TMC3     O 5802   2.119   0.444  10.107 -0.7227 -0.2489  0.2390
  388TMC3     H 5803   2.250   0.605  10.278  0.1608  1.1458  0.1616
  388TMC3    H1 5804   2.394   0.214  10.219  1.1707 -0.1454  0.2062
  388TMC3    H2 5805   2.616   0.466  10.459  0.5379 -2.5195 -0.4122
  388TMC3    C7 5806   2.581   0.210  10.400 -0.2072 -0.1722  0.2572
  388TMC3    C8 5807   2.486   0.686  10.389 -0.9331  0.2510  0.3922
  388TMC3    O1 5808   2.696   0.234  10.433  0.3661 -0.4766 -0.5837
  388TMC3    O2 5809   2.563   0.707  10.480 -0.3933 -0.3670 -0.0682
  389MPD2     C 5810   1.945   3.131  11.380 -0.2017 -0.2098  0.4336
  389MPD2    C1 5811   1.835   3.045  11.365 -0.3274 -0.1503  0.3355
  389MPD2    C2 5812   1.785   2.968  11.474  0.7134  0.4052 -0.2803
  389MPD2    C3 5813   1.856   2.968  11.594  0.4319 -0.6894 -0.2238
  389MPD2    C4 5814   1.956   3.064  11.606 -0.0594  0.4349  0.1679
  389MPD2    C5 5815   1.997   3.144  11.505 -0.8201 -0.3761 -0.6737
  389MPD2     H 5816   1.706   2.897  11.456  1.6619 -0.8740  0.6169
  389MPD2    H1 5817   2.010   3.073  11.700  0.8696  0.7857 -0.4115
  389MPD2    H2 5818   1.981   3.184  11.292  0.1996  1.0740  1.3851
  389MPD2    H3 5819   2.076   3.217  11.516 -0.7014 -0.1169 -3.3002
  389MPD2     N 5820   1.824   2.886  11.702  0.6505 -0.2023 -0.2566
  389MPD2    H5 5821   1.860   2.914  11.793  1.0726  0.7901 -0.7376
  389MPD2    N1 5822   1.782   3.051  11.238  0.4701 -0.0081 -0.3131
  389MPD2    H7 5823   1.793   3.136  11.183  1.7960  0.1792  0.2374
  390TMC3    C1 5824   1.701   2.736  11.836 -0.2325 -0.3821  0.3011
  390TMC3    C2 5825   1.653   2.612  11.861 -0.2593 -0.3820  0.1526
  390TMC3    C3 5826   1.620   2.576  11.991 -0.4545  0.1619 -0.2744
  390TMC3    C4 5827   1.699   2.831  11.936 -0.2917 -0.0586 -0.0537
  390TMC3    C5 5828   1.647   2.796  12.059 -0.1015  0.5150 -0.7252
  390TMC3    C6 5829   1.609   2.671  12.090 -0.1589  0.2997  0.2068
  390TMC3     C 5830   1.746   2.776  11.701 -0.0624 -0.0211 -0.0524
  390TMC3     O 5831   1.708   2.707  11.606  0.3846 -0.6144  0.4211
  390TMC3     H 5832   1.661   2.537  11.783 -1.2758  0.4851 -0.7878
  390TMC3    H1 5833   1.719   2.937  11.922 -2.0350  0.1822 -0.8390
  390TMC3    H2 5834   1.599   2.655  12.197  2.8837  1.3275  0.6294
  390TMC3    C7 5835   1.615   2.906  12.146 -0.6028  0.6944 -0.2837
  390TMC3    C8 5836   1.550   2.451  12.005  0.1771 -0.4384 -0.2509
  390TMC3    O1 5837   1.675   3.009  12.118  0.0158 -0.3727 -0.1565
  390TMC3    O2 5838   1.507   2.395  11.906  0.0281  0.5098 -0.4787
  391MPD2     C 5839   0.606   4.477  11.577  0.7399  0.6737  0.1748
  391MPD2    C1 5840   0.741   4.445  11.568 -0.3503 -0.1729  0.1023
  391MPD2    C2 5841   0.795   4.388  11.447  0.6681  0.4636  0.6501
  391MPD2    C3 5842   0.718   4.381  11.335  0.2668 -0.0538 -0.3439
  391MPD2    C4 5843   0.583   4.411  11.346 -0.1201  0.2758 -0.8475
  391MPD2    C5 5844   0.532   4.464  11.462 -0.0934 -0.2153 -0.4492
  391MPD2     H 5845   0.899   4.359  11.443  0.6685  0.3773  1.4130
  391MPD2    H1 5846   0.510   4.391  11.269 -1.0096  0.7071 -0.1314
  391MPD2    H2 5847   0.555   4.507  11.668 -0.4226 -1.4928  0.2236
  391MPD2    H3 5848   0.425   4.476  11.467 -0.0451 -0.9952  2.4177
  391MPD2     N 5849   0.786   4.341  11.216  0.2896  0.7902 -0.2806
  391MPD2    H5 5850   0.882   4.309  11.218 -0.3329 -0.8006  4.0160
  391MPD2    N1 5851   0.821   4.488  11.671 -0.4802  0.4579 -0.3503
  391MPD2    H7 5852   0.772   4.535  11.747 -0.4918  0.2248 -0.2155
  392TMC3    C1 5853   0.815   4.319  10.989  0.1526 -0.4588  0.2304
  392TMC3    C2 5854   0.737   4.299  10.879 -0.2347  0.4045  0.1796
  392TMC3    C3 5855   0.781   4.335  10.755 -0.2596  0.0907  0.4207
  392TMC3    C4 5856   0.930   4.393  10.974  0.3335  0.1501 -0.3304
  392TMC3    C5 5857   0.964   4.440  10.847 -0.0975  0.4174 -0.2577
  392TMC3    C6 5858   0.889   4.409  10.738  0.4081 -0.0490 -0.0162
  392TMC3     C 5859   0.738   4.372  11.094 -0.3436  0.2512 -0.5311
  392TMC3     O 5860   0.641   4.445  11.064 -0.0612 -0.0640  0.0769
  392TMC3     H 5861   0.635   4.261  10.882  0.0964 -0.5619 -1.1966
  392TMC3    H1 5862   0.990   4.413  11.061  0.2360  1.2656 -0.5282
  392TMC3    H2 5863   0.914   4.434  10.635 -3.0587  1.6886 -0.4169
  392TMC3    C7 5864   1.057   4.551  10.836  0.7655 -0.1270  0.3961
  392TMC3    C8 5865   0.707   4.268  10.645  0.7060 -0.2137 -0.0641
  392TMC3    O1 5866   1.123   4.570  10.937  0.9588  0.4158 -0.6705
  392TMC3    O2 5867   0.650   4.165  10.678  0.8025 -0.5852  0.3165
  393TMC3    C1 5868   4.412   2.206  10.135 -0.0410  0.2369 -0.1502
  393TMC3    C2 5869   4.285   2.263  10.126 -0.2044  0.2874  0.3603
  393TMC3    C3 5870   4.244   2.336  10.235 -0.7921  0.2902 -0.1738
  393TMC3    C4 5871   4.499   2.247  10.235  0.0322  0.4859  0.5305
  393TMC3    C5 5872   4.452   2.341  10.328  1.2658 -0.0263 -0.0517
  393TMC3    C6 5873   4.323   2.383  10.335 -0.5039 -0.6604  0.2278
  393TMC3     C 5874   4.472   2.158  10.010  0.3103 -0.1878  0.1809
  393TMC3     O 5875   4.591   2.161  10.002  0.3157 -0.1005  0.3983
  393TMC3     H 5876   4.214   2.247  10.046  1.5835  0.1246 -1.1907
  393TMC3    H1 5877   4.596   2.200  10.246  0.7993  1.8142 -0.5455
  393TMC3    H2 5878   4.285   2.435  10.422  1.5159  2.8785 -0.9709
  393TMC3    C7 5879   4.542   2.390  10.432 -0.1334 -0.0650  0.3587
  393TMC3    C8 5880   4.097   2.340  10.266  0.3996  0.2073 -0.4037
  393TMC3    O1 5881   4.492   2.451  10.523  0.7084  0.0443 -0.1015
  393TMC3    O2 5882   4.055   2.438  10.324 -0.1199 -0.2259  0.1212
  394TMC3    C1 5883   1.660   2.978  11.046 -0.0336  0.5404 -0.8444
  394TMC3    C2 5884   1.540   2.933  10.998 -0.8363 -0.0644  0.1281
  394TMC3    C3 5885   1.516   2.943  10.864 -0.6058  0.5813 -0.0594
  394TMC3    C4 5886   1.743   3.047  10.956  0.2110  0.0115  0.4653
  394TMC3    C5 5887   1.716   3.048  10.824 -0.5015  0.6125  0.2650
  394TMC3    C6 5888   1.601   3.000  10.767 -0.2291  0.0266 -0.1163
  394TMC3     C 5889   1.697   2.956  11.187 -0.0982  0.4530  0.5014
  394TMC3     O 5890   1.648   2.855  11.238 -0.1714  0.1880  0.0423
  394TMC3     H 5891   1.462   2.909  11.069 -0.3737 -0.4719  0.4959
  394TMC3    H1 5892   1.833   3.093  10.993 -0.6636  2.0975  0.0013
  394TMC3    H2 5893   1.563   3.030  10.671 -0.5106 -2.0985 -0.6744
  394TMC3    C7 5894   1.788   3.151  10.752  0.9046  0.2717 -0.6400
  394TMC3    C8 5895   1.388   2.886  10.818  0.3503 -0.0263  0.4481
  394TMC3    O1 5896   1.725   3.228  10.680  0.1922  0.0499  0.1619
  394TMC3    O2 5897   1.292   2.880  10.896  0.2264 -0.2317  0.4095
  395TMC3    C1 5898   1.772   0.617  15.205 -0.4225  0.4629 -0.9782
  395TMC3    C2 5899   1.716   0.573  15.095 -0.0176 -0.4653  0.2366
  395TMC3    C3 5900   1.784   0.600  14.976  0.3516  0.1803  0.2259
  395TMC3    C4 5901   1.884   0.691  15.213 -0.8915  0.1438  0.4206
  395TMC3    C5 5902   1.933   0.735  15.091 -0.2072  0.4061  0.2001
  395TMC3    C6 5903   1.889   0.696  14.970 -0.3016 -0.4151 -0.2760
  395TMC3     C 5904   1.684   0.599  15.322  0.1522  0.0775 -0.1083
  395TMC3     O 5905   1.562   0.606  15.312 -0.1034 -0.2181  0.4265
  395TMC3     H 5906   1.620   0.524  15.095 -0.3097  0.1131  0.4119
  395TMC3    H1 5907   1.917   0.730  15.308 -1.9141  0.1556  0.7609
  395TMC3    H2 5908   1.934   0.730  14.877 -0.9010 -2.5934 -1.3524
  395TMC3    C7 5909   1.992   0.860  15.100  0.4896 -0.6396 -0.4400
  395TMC3    C8 5910   1.723   0.565  14.853  0.3036  0.5182 -0.0947
  395TMC3    O1 5911   1.980   0.928  15.199 -0.1191  0.1754 -0.2926
  395TMC3    O2 5912   1.751   0.640  14.756  0.6492  0.2930  0.2435
  396MPD2     C 5913   1.747   2.007  17.426 -0.4347  0.7734  0.0955
  396MPD2    C1 5914   1.696   1.938  17.313  0.1549  0.6650  0.6639
  396MPD2    C2 5915   1.653   2.015  17.209 -0.3546  0.2986  0.1571
  396MPD2    C3 5916   1.656   2.153  17.213  0.2561 -0.3061 -0.3462
  396MPD2    C4 5917   1.699   2.212  17.324 -0.1179 -0.4587 -0.4891
  396MPD2    C5 5918   1.749   2.148  17.426  0.0053 -0.3771  1.4795
  396MPD2     H 5919   1.616   1.968  17.119 -1.3732 -0.8059  1.1549
  396MPD2    H1 5920   1.700   2.320  17.331  1.3636 -0.5874  1.1650
  396MPD2    H2 5921   1.784   1.955  17.514 -2.0883 -0.7938 -0.1255
  396MPD2    H3 5922   1.784   2.192  17.518  0.1949  2.1919  0.1860
  396MPD2     N 5923   1.616   2.235  17.108 -0.2655  0.4496  0.5253
  396MPD2    H5 5924   1.622   2.334  17.128 -2.1693  1.2717 -2.8755
  396MPD2    N1 5925   1.701   1.800  17.312  0.1146  0.0339  0.1652
  396MPD2    H7 5926   1.744   1.761  17.395  0.8444  0.7247  0.1120
  397TMC3    C1 5927   1.672   1.573  17.253 -0.7922  0.6469 -0.1032
  397TMC3    C2 5928   1.654   1.491  17.144 -0.2157 -0.6120 -0.1434
  397TMC3    C3 5929   1.589   1.374  17.157 -0.3235 -0.2903  0.4206
  397TMC3    C4 5930   1.613   1.547  17.375  0.4441 -0.4978 -0.2854
  397TMC3    C5 5931   1.555   1.426  17.392 -0.2537  0.2017  0.2341
  397TMC3    C6 5932   1.538   1.337  17.281 -0.2794 -0.8022 -0.0433
  397TMC3     C 5933   1.649   1.714  17.215  0.4056 -0.3010 -0.7442
  397TMC3     O 5934   1.568   1.736  17.126 -0.2071 -0.4931 -0.4665
  397TMC3     H 5935   1.716   1.501  17.056 -1.2219  0.3155 -0.7598
  397TMC3    H1 5936   1.599   1.626  17.447  2.2476 -1.0474  0.6692
  397TMC3    H2 5937   1.486   1.244  17.299 -1.4196 -0.6348 -2.4536
  397TMC3    C7 5938   1.483   1.386  17.511  1.2627 -0.6059  0.4287
  397TMC3    C8 5939   1.539   1.317  17.036 -0.2267 -0.3525 -0.2675
  397TMC3    O1 5940   1.421   1.286  17.506 -0.1374 -0.0382 -0.1318
  397TMC3    O2 5941   1.494   1.395  16.956  0.2669  0.6705 -0.2712
  398MPD2     C 5942   4.055   2.866   0.466 -0.1258  0.0590  0.4715
  398MPD2    C1 5943   4.110   2.814   0.575  0.6264  0.1704  0.5633
  398MPD2    C2 5944   4.220   2.884   0.619  0.1416 -0.0274 -0.3713
  398MPD2    C3 5945   4.278   2.999   0.559 -0.9278  0.3663 -0.3432
  398MPD2    C4 5946   4.206   3.052   0.455  0.2244 -0.2627 -0.1964
  398MPD2    C5 5947   4.097   2.985   0.416  0.7572  0.3921  0.1678
  398MPD2     H 5948   4.272   2.839   0.702 -1.8701  1.7143  1.8250
  398MPD2    H1 5949   4.231   3.145   0.405  1.3362 -2.4437 -3.7400
  398MPD2    H2 5950   3.970   2.810   0.429 -1.9196  1.8406  1.9208
  398MPD2    H3 5951   4.035   3.026   0.337  1.0383 -2.0120 -1.2979
  398MPD2     N 5952   4.401   3.049   0.607  0.6681 -0.6485  0.4058
  398MPD2    H5 5953   4.445   3.000   0.684 -0.5265 -1.1749  0.7593
  398MPD2    N1 5954   4.080   2.688   0.637  0.5099 -0.3665 -0.3643
  398MPD2    H7 5955   4.130   2.663   0.722  0.4748 -0.3094 -0.3265
  399TMC3    C1 5956   4.018   2.465   0.666  0.3233 -0.3757  0.1233
  399TMC3    C2 5957   4.121   2.451   0.757 -0.8313 -0.1610 -0.8874
  399TMC3    C3 5958   4.148   2.330   0.812  0.2133 -0.0939 -0.2580
  399TMC3    C4 5959   3.939   2.359   0.629  0.3673  0.3786 -0.3154
  399TMC3    C5 5960   3.968   2.238   0.698  0.2701  0.6331 -0.2014
  399TMC3    C6 5961   4.073   2.219   0.783  0.1854  0.0113  0.3354
  399TMC3     C 5962   4.011   2.585   0.580 -0.3465 -0.8078  0.1723
  399TMC3     O 5963   3.980   2.562   0.464  0.4609 -0.1985  0.0435
  399TMC3     H 5964   4.189   2.534   0.770 -0.0788 -0.9056 -0.1487
  399TMC3    H1 5965   3.878   2.364   0.540  0.4779  0.3825 -0.3904
  399TMC3    H2 5966   4.095   2.119   0.818  1.6853 -0.1888 -1.2192
  399TMC3    C7 5967   3.899   2.115   0.676  0.0530  0.8536 -0.3110
  399TMC3    C8 5968   4.272   2.314   0.885  0.2695  0.7705 -0.5433
  399TMC3    O1 5969   3.883   2.045   0.774  0.2155  0.4444 -0.3678
  399TMC3    O2 5970   4.367   2.383   0.858 -0.0472 -0.3699 -0.1955
  400TMC3    C1 5971   2.804   1.259  17.137  0.6572  0.0047  0.5175
  400TMC3    C2 5972   2.761   1.128  17.121  0.3348 -0.0343 -0.4469
  400TMC3    C3 5973   2.642   1.112  17.049 -0.0733  0.2289  0.4184
  400TMC3    C4 5974   2.729   1.367  17.098  0.2554 -0.3093 -0.1093
  400TMC3    C5 5975   2.612   1.339  17.036  0.2727 -0.0220  0.0235
  400TMC3    C6 5976   2.567   1.213  16.999  0.3839 -0.0779 -0.2967
  400TMC3     C 5977   2.943   1.284  17.191 -0.3991 -0.4560 -0.4884
  400TMC3     O 5978   2.998   1.188  17.246  0.1321 -0.0963 -0.2617
  400TMC3     H 5979   2.809   1.036  17.154 -0.5236 -1.0213 -1.9400
  400TMC3    H1 5980   2.770   1.466  17.118  0.6684 -0.3501 -0.7852
  400TMC3    H2 5981   2.501   1.203  16.914 -1.5399  1.0365  1.0907
  400TMC3    C7 5982   2.512   1.439  17.045  0.4348  0.2320  0.0689
  400TMC3    C8 5983   2.584   0.979  17.054  0.7318  0.2214 -0.0754
  400TMC3    O1 5984   2.438   1.452  16.949 -0.3070  0.0477 -0.0558
  400TMC3    O2 5985   2.658   0.888  17.094  0.4721 -0.6426 -0.0296
  401MPD2     C 5986   1.219   0.532   0.806 -0.0378  0.3838 -0.1288
  401MPD2    C1 5987   1.316   0.451   0.862  0.5530  0.4902  0.3995
  401MPD2    C2 5988   1.325   0.316   0.832 -0.2901 -0.1794  0.1201
  401MPD2    C3 5989   1.241   0.261   0.734  0.1785  0.1954  0.0235
  401MPD2    C4 5990   1.144   0.339   0.675 -0.1045 -0.0881  0.3420
  401MPD2    C5 5991   1.136   0.473   0.715 -0.2149 -0.5784 -0.8378
  401MPD2     H 5992   1.400   0.252   0.878 -1.2735 -0.3915  1.4258
  401MPD2    H1 5993   1.077   0.302   0.598  1.0886  0.1379 -0.8009
  401MPD2    H2 5994   1.206   0.638   0.823  0.6208  0.7486 -1.8790
  401MPD2    H3 5995   1.055   0.529   0.671 -1.7547 -1.0415  1.4294
  401MPD2     N 5996   1.255   0.119   0.708  0.2479 -0.2567 -0.3087
  401MPD2    H5 5997   1.337   0.065   0.732  0.3689  0.5106  1.0016
  401MPD2    N1 5998   1.396   0.507   0.962  0.0304  1.1847 -0.1147
  401MPD2    H7 5999   1.458   0.443   1.011 -0.6657  0.2130 -0.4932
  402TMC3    C1 6000   1.220   4.640   0.621 -0.6814  0.1847  0.8573
  402TMC3    C2 6001   1.138   4.552   0.687  0.9637  0.1829  0.4059
  402TMC3    C3 6002   1.183   4.432   0.720 -0.1872  0.6151  0.6824
  402TMC3    C4 6003   1.354   4.608   0.600 -0.0777 -1.2025  0.6657
  402TMC3    C5 6004   1.387   4.481   0.635 -0.3969  0.0733  0.4031
  402TMC3    C6 6005   1.300   4.383   0.671  1.0590 -0.0123  0.2216
  402TMC3     C 6006   1.167   0.049   0.626  0.2797  0.2452  0.5062
  402TMC3     O 6007   1.052   0.061   0.590  0.5803  0.1659  0.1897
  402TMC3     H 6008   1.044   4.591   0.725 -0.1098 -1.0802 -0.9298
  402TMC3    H1 6009   1.424   4.676   0.551  0.4319 -0.1023  2.9287
  402TMC3    H2 6010   1.334   4.283   0.696  1.7513  0.5791  1.6120
  402TMC3    C7 6011   1.522   4.433   0.635  0.3690 -0.1063 -0.1498
  402TMC3    C8 6012   1.170   4.406   0.863 -0.1110 -0.2396  1.2691
  402TMC3    O1 6013   1.549   4.313   0.610 -0.6183 -0.3503 -0.0526
  402TMC3    O2 6014   1.263   4.344   0.911 -0.4117 -0.5787 -0.1579
  403MPD2     C 6015   4.439   2.841  13.348  0.5313 -0.2701 -0.4189
  403MPD2    C1 6016   4.348   2.913  13.415  0.0860 -0.0089 -0.0808
  403MPD2    C2 6017   4.393   3.024  13.491  0.2621 -0.0487 -0.4313
  403MPD2    C3 6018   4.532   3.051  13.501  0.4489 -0.6210  0.8580
  403MPD2    C4 6019   4.623   2.964  13.438  0.4362  0.1527 -0.2938
  403MPD2    C5 6020   4.574   2.860  13.362  0.0068  0.3731 -0.2908
  403MPD2     H 6021   4.314   3.079  13.541  1.7993  1.7355  0.0007
  403MPD2    H1 6022   0.003   2.960  13.457  0.4513 -1.1782 -0.6967
  403MPD2    H2 6023   4.409   2.756  13.288 -3.0313  0.0403  0.9059
  403MPD2    H3 6024   4.642   2.793  13.311 -0.9886 -0.2834 -0.7478
  403MPD2     N 6025   4.598   3.149  13.586 -0.3760  0.1639 -0.1788
  403MPD2    H5 6026   4.699   3.149  13.582 -0.3880  1.5230 -0.4885
  403MPD2    N1 6027   4.216   2.857  13.424  0.3191 -1.0221  0.5235
  403MPD2    H7 6028   4.195   2.772  13.374 -0.2027 -1.5352  1.6276
  404TMC3    C1 6029   3.987   2.842  13.471  0.1325 -0.2006 -1.0029
  404TMC3    C2 6030   4.012   2.720  13.537 -0.0648  0.4648 -0.2952
  404TMC3    C3 6031   3.936   2.612  13.494 -0.1482  0.7322  0.5429
  404TMC3    C4 6032   3.924   2.839  13.353  0.2274  0.0406  0.1128
  404TMC3    C5 6033   3.872   2.718  13.301 -0.4612 -0.1700  0.2122
  404TMC3    C6 6034   3.883   2.596  13.365  0.1533  0.4542 -0.6279
  404TMC3     C 6035   4.106   2.925  13.471  0.9540 -0.7434  0.6995
  404TMC3     O 6036   4.085   3.046  13.486  0.4949  0.0092 -0.2308
  404TMC3     H 6037   4.078   2.706  13.622 -1.2223 -0.3855  0.4697
  404TMC3    H1 6038   3.927   2.921  13.283 -0.0657  1.8468  2.2140
  404TMC3    H2 6039   3.847   2.498  13.335  0.2797  0.5845 -1.2124
  404TMC3    C7 6040   3.865   2.724  13.155  0.5915 -0.2304  0.7207
  404TMC3    C8 6041   3.948   2.482  13.570 -0.5687  0.0273 -0.4443
  404TMC3    O1 6042   3.846   2.832  13.098  0.0006  0.2746  0.6509
  404TMC3    O2 6043   3.962   2.378  13.509  0.1874 -0.2142 -1.1279
  405MPD2     C 6044   4.095   2.893  15.022 -0.2146  0.0611 -0.3776
  405MPD2    C1 6045   4.101   2.896  14.883 -0.0203  0.1633  0.3652
  405MPD2    C2 6046   4.111   3.023  14.826 -0.2331  1.3754  0.1408
  405MPD2    C3 6047   4.131   3.136  14.908  0.1522  0.3244 -0.5796
  405MPD2    C4 6048   4.134   3.123  15.045  0.4234 -0.5838  0.7368
  405MPD2    C5 6049   4.105   3.005  15.104  0.7688  0.6032 -0.6502
  405MPD2     H 6050   4.106   3.044  14.720  1.2338  0.0695 -0.1746
  405MPD2    H1 6051   4.152   3.204  15.114  0.0327  0.3825 -0.2949
  405MPD2    H2 6052   4.087   2.803  15.082 -1.0165  1.7324  1.9883
  405MPD2    H3 6053   4.105   2.991  15.211 -0.7296  1.1935 -0.5668
  405MPD2     N 6054   4.142   3.264  14.843 -0.1599  0.1921  0.1443
  405MPD2    H5 6055   4.134   3.256  14.742  1.8637  3.2248 -0.2240
  405MPD2    N1 6056   4.087   2.778  14.802 -0.4429 -0.4535 -0.1816
  405MPD2    H7 6057   4.051   2.698  14.853  0.5849 -2.2670 -2.2997
  406TMC3    C1 6058   3.941   3.625  14.691  0.3263  0.2377 -0.1296
  406TMC3    C2 6059   4.001   3.613  14.570  0.4756 -0.3461  0.1734
  406TMC3    C3 6060   4.111   3.535  14.563  0.5787  0.7391  0.0683
  406TMC3    C4 6061   3.991   3.561  14.805  0.0083 -0.3241 -0.1031
  406TMC3    C5 6062   4.097   3.477  14.793  0.2459 -0.2691 -0.1089
  406TMC3    C6 6063   4.153   3.464  14.671 -0.8762  0.1569  0.7648
  406TMC3     C 6064   3.805   3.668  14.694 -0.4161 -0.8307  0.3659
  406TMC3     O 6065   3.775   3.742  14.605  0.3854  0.4359 -0.0960
  406TMC3     H 6066   3.948   3.653  14.484  1.6793  2.1227  0.5689
  406TMC3    H1 6067   3.941   3.574  14.900  3.5496  0.1555  1.6754
  406TMC3    H2 6068   4.240   3.400  14.669  0.6696  2.3662 -2.6382
  406TMC3    C7 6069   4.124   3.385  14.903 -0.1140  0.2041 -0.4366
  406TMC3    C8 6070   4.117   3.468  14.436  0.0858 -0.6865  0.6506
  406TMC3    O1 6071   4.081   3.414  15.014 -0.2163 -0.2008 -0.4550
  406TMC3    O2 6072   4.083   3.525  14.335  0.2046 -0.2324  0.3916
  407MPD2     C 6073   1.501   0.212   9.873 -0.0403 -0.0135  0.1567
  407MPD2    C1 6074   1.540   0.084   9.911  0.2054 -0.6065  0.1126
  407MPD2    C2 6075   1.601   0.075  10.030  0.1569 -0.5509  0.3515
  407MPD2    C3 6076   1.628   0.182  10.112  0.2370  0.4706  0.0152
  407MPD2    C4 6077   1.599   0.307  10.066 -0.8196 -0.4084 -0.3823
  407MPD2    C5 6078   1.536   0.323   9.951  0.8236 -0.0680  0.0365
  407MPD2     H 6079   1.633   4.703  10.064  0.6973 -0.5100 -0.0281
  407MPD2    H1 6080   1.619   0.390  10.133  0.4317  0.0916 -1.3772
  407MPD2    H2 6081   1.440   0.234   9.787  0.7529  0.4533 -0.2912
  407MPD2    H3 6082   1.520   0.420   9.906  0.5496 -0.0006  0.2760
  407MPD2     N 6083   1.685   0.182  10.240 -0.5532  1.0265  0.3205
  407MPD2    H5 6084   1.712   0.261  10.297  0.1865  1.4619 -0.6400
  407MPD2    N1 6085   1.523   4.688   9.834 -0.4863  0.0200 -0.7361
  407MPD2    H7 6086   1.557   4.602   9.875  2.3455  1.4539 -0.0968
  408TMC3    C1 6087   1.446   4.548   9.653  0.5983 -0.4459 -0.3034
  408TMC3    C2 6088   1.557   4.467   9.653  0.1568  0.0910 -0.1950
  408TMC3    C3 6089   1.547   4.362   9.567 -0.5121 -0.1202 -0.0588
  408TMC3    C4 6090   1.332   4.533   9.576  0.3048 -0.0493  0.1906
  408TMC3    C5 6091   1.338   4.423   9.493 -0.0780  0.7345 -0.0429
  408TMC3    C6 6092   1.442   4.335   9.487 -0.0799 -0.6518 -0.4572
  408TMC3     C 6093   1.462   4.678   9.713 -0.0205 -0.1416 -0.5201
  408TMC3     O 6094   1.417   0.044   9.645 -0.1127 -0.2744  0.1298
  408TMC3     H 6095   1.643   4.487   9.716  0.4055  1.8335 -1.0751
  408TMC3    H1 6096   1.248   4.601   9.583 -1.2939 -1.9311 -0.7713
  408TMC3    H2 6097   1.441   4.251   9.418  0.4412 -0.5310 -0.6118
  408TMC3    C7 6098   1.249   4.417   9.377 -0.5787 -0.2879  0.0901
  408TMC3    C8 6099   1.623   4.236   9.583  0.1832  0.0025 -0.6357
  408TMC3    O1 6100   1.241   4.314   9.308 -0.5269 -0.0365 -0.2946
  408TMC3    O2 6101   1.563   4.130   9.566  0.0098  0.4634  0.6335
  409MPD2     C 6102   1.601   0.945   0.112  0.0560  0.0405 -0.3916
  409MPD2    C1 6103   1.727   0.889   0.109  0.9074  0.7443  0.1233
  409MPD2    C2 6104   1.810   0.915   0.002 -0.3866 -0.1075  0.2530
  409MPD2    C3 6105   1.766   0.984  17.592  0.0360  0.3271 -0.3661
  409MPD2    C4 6106   1.645   1.030  17.599 -0.1157 -0.1525 -0.5197
  409MPD2    C5 6107   1.557   1.010   0.001 -0.1325  0.8310  0.2450
  409MPD2     H 6108   1.914   0.886   0.008 -0.1182  0.6785 -0.6993
  409MPD2    H1 6109   1.592   1.061  17.509  1.4877  3.7969 -0.0781
  409MPD2    H2 6110   1.540   0.946   0.202  1.1070  0.9827  0.3045
  409MPD2    H3 6111   1.451   1.032  17.704 -0.4607 -0.8923 -1.4408
  409MPD2     N 6112   1.848   1.006  17.480  0.7138 -0.3269 -0.4687
  409MPD2    H5 6113   1.822   1.081  17.417 -1.4186 -1.3462 -0.8159
  409MPD2    N1 6114   1.786   0.811   0.207  0.0995 -0.1962  0.0376
  409MPD2    H7 6115   1.882   0.782   0.190  0.7289  1.3556  0.8706
  410TMC3    C1 6116   2.026   1.012  17.344  0.3966  0.0164  0.7139
  410TMC3    C2 6117   2.160   1.027  17.360  0.3557  0.7414  0.3059
  410TMC3    C3 6118   2.216   1.113  17.277  0.4013  0.0917 -0.3684
  410TMC3    C4 6119   1.951   1.063  17.248  0.0323  0.4265 -0.4600
  410TMC3    C5 6120   2.012   1.160  17.172 -0.3481 -0.4189 -0.1349
  410TMC3    C6 6121   2.140   1.189  17.195 -0.5511  0.3009  0.3937
  410TMC3     C 6122   1.964   0.952  17.459 -0.1059 -0.6402 -0.3069
  410TMC3     O 6123   2.031   0.876  17.530 -0.2593  0.0702  0.7637
  410TMC3     H 6124   2.212   0.978  17.441 -0.4917  1.1782  1.1046
  410TMC3    H1 6125   1.857   1.025  17.209  0.5977 -0.0446 -1.3590
  410TMC3    H2 6126   2.182   1.275  17.143  1.5154 -1.0952 -0.2333
  410TMC3    C7 6127   1.957   1.192  17.040 -0.2350  0.1139  0.0476
  410TMC3    C8 6128   2.352   1.159  17.298 -0.1012 -0.7181 -0.0062
  410TMC3    O1 6129   1.896   1.109  16.980 -0.3230  0.1506 -0.0962
  410TMC3    O2 6130   2.374   1.278  17.296 -0.0114  0.3808  0.0808
  411MPD2     C 6131   2.222   2.086  14.558  0.1068  1.0412 -0.6016
  411MPD2    C1 6132   2.132   2.070  14.663 -0.8005 -0.4905 -0.0785
  411MPD2    C2 6133   2.065   1.952  14.677 -0.0442  0.3849  0.0182
  411MPD2    C3 6134   2.091   1.843  14.591  0.4472 -0.1266  0.0564
  411MPD2    C4 6135   2.185   1.857  14.495  0.2204 -0.0266 -0.1617
  411MPD2    C5 6136   2.250   1.976  14.480  0.0420  0.2158  0.2064
  411MPD2     H 6137   1.983   1.936  14.747  0.2409 -1.8082 -0.1473
  411MPD2    H1 6138   2.214   1.777  14.429  1.0154 -0.7269  1.0538
  411MPD2    H2 6139   2.269   2.181  14.537 -2.5853  2.3014 -0.9675
  411MPD2    H3 6140   2.333   1.986  14.411 -0.8812  1.0094 -0.7976
  411MPD2     N 6141   2.019   1.719  14.593  0.4197  0.3626 -0.0807
  411MPD2    H5 6142   2.048   1.643  14.532 -2.4973 -1.4552  0.8059
  411MPD2    N1 6143   2.095   2.183  14.727  0.4895  0.3582 -0.4585
  411MPD2    H7 6144   2.127   2.273  14.694 -2.9755  0.7939 -2.5210
  412TMC3    C1 6145   1.831   1.580  14.618  0.1291  0.5607 -0.2334
  412TMC3    C2 6146   1.702   1.577  14.669  0.4203 -0.4577 -0.3694
  412TMC3    C3 6147   1.603   1.513  14.595  0.0677 -0.3573  0.5912
  412TMC3    C4 6148   1.866   1.532  14.497 -0.0230 -0.2105  0.0471
  412TMC3    C5 6149   1.761   1.477  14.428 -0.4491 -0.0541 -0.1313
  412TMC3    C6 6150   1.633   1.474  14.469  0.5289 -0.7977  0.2288
  412TMC3     C 6151   1.907   1.692  14.668  0.0600  0.6986  0.2431
  412TMC3     O 6152   1.857   1.756  14.758  0.1197 -0.1992  0.4472
  412TMC3     H 6153   1.674   1.606  14.770  1.9241 -1.2390  0.2730
  412TMC3    H1 6154   1.961   1.536  14.446  0.1521  0.8601  0.4780
  412TMC3    H2 6155   1.558   1.419  14.412  1.3984 -0.7463 -0.9829
  412TMC3    C7 6156   1.791   1.350  14.354  0.1088  0.2067  0.4531
  412TMC3    C8 6157   1.552   1.395  14.666 -0.8932  0.2456  0.4193
  412TMC3    O1 6158   1.699   1.301  14.289  0.1640 -0.1552 -0.0492
  412TMC3    O2 6159   1.459   1.339  14.616  0.0393 -0.6279 -0.3241
  413MPD2     C 6160   3.220   3.637  15.309 -0.9792 -0.1549  0.0161
  413MPD2    C1 6161   3.280   3.711  15.409  0.0169  0.3209 -0.3072
  413MPD2    C2 6162   3.407   3.681  15.458 -0.1301 -0.1780 -0.1084
  413MPD2    C3 6163   3.483   3.592  15.392 -0.0054  0.3825 -0.5337
  413MPD2    C4 6164   3.430   3.541  15.273  0.2952  0.4195  0.2320
  413MPD2    C5 6165   3.299   3.554  15.239 -0.5587  0.0593 -0.4382
  413MPD2     H 6166   3.449   3.729  15.546  1.6085  0.8276 -1.4862
  413MPD2    H1 6167   3.484   3.480  15.201 -0.2715  1.1961 -0.8484
  413MPD2    H2 6168   3.122   3.664  15.273 -1.7319  0.0137  2.1852
  413MPD2    H3 6169   3.264   3.522  15.142 -0.3715  0.3499 -0.6027
  413MPD2     N 6170   3.610   3.569  15.439 -0.3479 -0.0587  0.7148
  413MPD2    H5 6171   3.643   3.619  15.520  0.9485 -2.1112  1.4471
  413MPD2    N1 6172   3.202   3.820  15.470  0.2220  0.1415  0.8960
  413MPD2    H7 6173   3.106   3.845  15.447  0.6065  0.9551  0.1921
  414TMC3    C1 6174   3.830   3.520  15.430 -0.7651 -0.4310 -0.0898
  414TMC3    C2 6175   3.904   3.425  15.494  0.0456  0.8044 -0.0354
  414TMC3    C3 6176   4.023   3.464  15.552  0.6083 -0.3962  0.3659
  414TMC3    C4 6177   3.864   3.652  15.419 -0.1671 -0.1398 -0.8277
  414TMC3    C5 6178   3.979   3.693  15.484 -0.3327 -0.1378  0.5965
  414TMC3    C6 6179   4.061   3.595  15.546 -0.4327  0.3932  0.0702
  414TMC3     C 6180   3.702   3.488  15.372  0.0396  0.4108 -0.2509
  414TMC3     O 6181   3.678   3.378  15.326  0.3472 -0.5608 -0.4329
  414TMC3     H 6182   3.870   3.323  15.510 -1.1465  0.9762 -1.5180
  414TMC3    H1 6183   3.808   3.717  15.354  0.2145  0.6149 -0.3985
  414TMC3    H2 6184   4.159   3.623  15.582  0.4348  0.6110 -2.4211
  414TMC3    C7 6185   4.043   3.797  15.413  0.6131  0.9934 -0.2564
  414TMC3    C8 6186   4.114   3.359  15.594  0.4514 -0.1157  0.5015
  414TMC3    O1 6187   4.127   3.865  15.475  0.1945 -0.2485 -0.9083
  414TMC3    O2 6188   4.088   3.251  15.545  0.3249 -0.0604  0.0214
  415TMC3    C1 6189   4.508   2.095  10.606 -0.1748 -0.1616  0.3223
  415TMC3    C2 6190   4.501   2.003  10.499  0.0707 -0.5863  0.8440
  415TMC3    C3 6191   4.376   1.985  10.438 -0.1351  0.3672 -0.1828
  415TMC3    C4 6192   4.403   2.179  10.640 -0.7160  0.6270  0.1768
  415TMC3    C5 6193   4.287   2.152  10.583  0.3810 -0.2315 -0.2418
  415TMC3    C6 6194   4.269   2.064  10.479 -0.4319  0.3908 -0.2390
  415TMC3     C 6195   4.585   2.049  10.713 -0.0362 -0.5327 -0.0174
  415TMC3     O 6196   4.615   1.930  10.701 -0.5353  0.4978  0.2062
  415TMC3     H 6197   4.581   1.931  10.484 -0.2087 -0.3526 -1.7423
  415TMC3    H1 6198   4.411   2.241  10.728  0.0608  0.4746  0.2154
  415TMC3    H2 6199   4.170   2.066  10.435 -0.2596 -1.3522 -0.7178
  415TMC3    C7 6200   4.184   2.238  10.626  0.0942 -0.0614 -0.0515
  415TMC3    C8 6201   4.363   1.906  10.320  0.5333  0.0472 -0.5503
  415TMC3    O1 6202   4.200   2.358  10.622  0.6439  0.5328 -0.8029
  415TMC3    O2 6203   4.248   1.893  10.287  0.0072  0.1538  0.3062
  416MPD2     C 6204   0.993   0.835  12.025  0.2069  0.1639  0.3250
  416MPD2    C1 6205   0.870   0.779  12.054  0.0644  0.1664  0.5966
  416MPD2    C2 6206   0.831   0.657  12.004 -1.1282  0.8690  0.2235
  416MPD2    C3 6207   0.915   0.588  11.917  0.1015 -0.3935  0.7664
  416MPD2    C4 6208   1.036   0.647  11.883  0.1122  0.0472  0.4667
  416MPD2    C5 6209   1.073   0.766  11.936 -0.4935 -0.1343  0.4311
  416MPD2     H 6210   0.737   0.614  12.036 -0.6210 -0.5654 -0.1906
  416MPD2    H1 6211   1.103   0.608  11.808  1.4025 -0.0134  1.6569
  416MPD2    H2 6212   1.028   0.926  12.072 -1.2029  0.4501  0.8330
  416MPD2    H3 6213   1.162   0.818  11.903  0.4170 -0.4707  2.3270
  416MPD2     N 6214   0.870   0.470  11.853  1.0021  0.4074  0.0904
  416MPD2    H5 6215   0.790   0.423  11.894  0.5507 -0.3686 -1.6564
  416MPD2    N1 6216   0.785   0.865  12.127  0.3194 -0.0594 -0.1923
  416MPD2    H7 6217   0.825   0.956  12.147  0.7264 -0.0443 -1.0775
  417TMC3    C1 6218   0.602   0.990  12.165  0.0201  0.7489 -0.0995
  417TMC3    C2 6219   0.660   1.059  12.264 -0.2142 -0.7277  0.1862
  417TMC3    C3 6220   0.624   1.190  12.276  0.3614 -1.2293 -0.1044
  417TMC3    C4 6221   0.516   1.051  12.078 -0.3315  0.3406  0.4326
  417TMC3    C5 6222   0.495   1.187  12.081 -0.2394 -0.1832  0.1728
  417TMC3    C6 6223   0.564   1.257  12.173 -0.2936  0.0542 -0.1472
  417TMC3     C 6224   0.654   0.861  12.135  0.7395 -0.2578  0.7103
  417TMC3     O 6225   0.575   0.775  12.100 -0.5193 -0.2007  0.5089
  417TMC3     H 6226   0.708   1.011  12.348 -0.4795  0.2736  0.9083
  417TMC3    H1 6227   0.468   0.995  11.999  0.4753  0.5443 -0.1994
  417TMC3    H2 6228   0.587   1.363  12.168  0.0986  0.0987  2.4738
  417TMC3    C7 6229   0.492   1.252  11.949 -0.4044  0.0904 -0.3082
  417TMC3    C8 6230   0.677   1.269  12.397  0.4190  0.5392  0.2522
  417TMC3    O1 6231   0.564   1.348  11.931  0.2397 -0.2042 -0.4555
  417TMC3    O2 6232   0.611   1.369  12.411 -0.4729 -0.3225 -0.6227
  418TMC3    C1 6233   0.117   3.089   0.539  0.2927  0.5465 -0.4862
  418TMC3    C2 6234   4.716   3.145   0.503 -0.4698  0.7112 -0.0514
  418TMC3    C3 6235   4.616   3.128   0.590  1.0781 -0.1278 -0.6870
  418TMC3    C4 6236   0.143   3.035   0.662 -0.1506  0.0215  0.3855
  418TMC3    C5 6237   0.040   3.046   0.750 -0.4384 -0.2064 -0.2910
  418TMC3    C6 6238   4.639   3.080   0.719 -0.2229  0.0341  0.0817
  418TMC3     C 6239   0.181   3.028   0.421  0.2022 -0.4525  0.8415
  418TMC3     O 6240   0.168   3.091   0.316  0.0820 -0.2743 -0.1761
  418TMC3     H 6241   4.696   3.200   0.412  1.2311 -1.8560 -1.9773
  418TMC3    H1 6242   0.242   3.007   0.698 -0.7806 -3.3292 -0.5393
  418TMC3    H2 6243   4.553   3.072   0.784 -2.3020  1.3306 -2.4711
  418TMC3    C7 6244   0.067   2.995   0.880  0.0142 -1.0696 -0.3552
  418TMC3    C8 6245   4.481   3.133   0.535 -0.1607 -0.1495 -0.2817
  418TMC3    O1 6246   0.167   2.926   0.898 -0.1424 -0.7263 -0.3735
  418TMC3    O2 6247   4.454   3.208   0.441 -0.1006  0.0811  0.2940
  419MPD2     C 6248   3.233   0.703  12.839  0.0815 -0.2693 -0.5625
  419MPD2    C1 6249   3.187   0.818  12.781 -0.9349 -0.2701  0.1695
  419MPD2    C2 6250   3.077   0.882  12.845  0.9328 -0.5490  1.2675
  419MPD2    C3 6251   3.033   0.840  12.973 -0.4828  0.4626  0.2673
  419MPD2    C4 6252   3.068   0.712  13.017  0.0959 -0.4675 -0.0450
  419MPD2    C5 6253   3.175   0.652  12.954  0.2528  0.5285 -0.1587
  419MPD2     H 6254   3.028   0.967  12.798  0.7936 -1.7329 -0.7520
  419MPD2    H1 6255   3.032   0.663  13.106  1.8368 -1.3110  0.2018
  419MPD2    H2 6256   3.314   0.642  12.801 -0.7395 -2.3381  1.0030
  419MPD2    H3 6257   3.221   0.570  13.009 -0.0675  1.1285  0.9965
  419MPD2     N 6258   2.948   0.931  13.040  0.4279 -0.1036  0.3845
  419MPD2    H5 6259   2.939   1.021  12.994  0.1328 -1.4489 -2.2133
  419MPD2    N1 6260   3.230   0.886  12.661  0.2113  0.2842  0.1800
  419MPD2    H7 6261   3.188   0.978  12.654  3.5423  1.7603 -0.4249
  420TMC3    C1 6262   2.852   1.025  13.237  0.0897 -0.1241 -1.3279
  420TMC3    C2 6263   2.789   1.103  13.148 -0.1499  0.1983  0.3793
  420TMC3    C3 6264   2.766   1.226  13.196 -0.0403 -0.0087  0.8893
  420TMC3    C4 6265   2.891   1.067  13.365 -0.2380 -0.6958  0.4772
  420TMC3    C5 6266   2.879   1.201  13.395  0.5303 -0.1683  0.4110
  420TMC3    C6 6267   2.829   1.280  13.306  0.0279 -0.7437  0.2181
  420TMC3     C 6268   2.935   0.921  13.175  0.2673  0.1380 -0.5585
  420TMC3     O 6269   2.986   0.841  13.252 -0.5873 -0.2525  0.1990
  420TMC3     H 6270   2.737   1.068  13.060 -0.8844 -1.0773  1.3063
  420TMC3    H1 6271   2.937   0.996  13.433  0.3072 -0.2026  0.6170
  420TMC3    H2 6272   2.799   1.377  13.342  0.6514 -0.9076  1.1476
  420TMC3    C7 6273   2.932   1.238  13.524  0.6277 -0.7567  0.1647
  420TMC3    C8 6274   2.659   1.302  13.134 -0.1020  0.0163 -0.7718
  420TMC3    O1 6275   2.965   1.153  13.603 -0.1758 -0.3286  0.7398
  420TMC3    O2 6276   2.672   1.422  13.135 -0.3502  0.2419  0.5811
  421TMC3    C1 6277   4.629   3.284  13.776  0.8897 -0.5472 -0.1259
  421TMC3    C2 6278   4.575   3.374  13.865  0.3735 -0.3895 -0.1163
  421TMC3    C3 6279   4.651   3.395  13.976 -0.8304  0.7529 -1.2370
  421TMC3    C4 6280   0.019   3.219  13.796  0.9325  0.2555 -0.3139
  421TMC3    C5 6281   0.078   3.232  13.917 -0.4947  0.0729 -0.2039
  421TMC3    C6 6282   0.032   3.324  14.009 -0.7460 -0.0720  0.6387
  421TMC3     C 6283   4.531   3.223  13.684  0.4418 -0.1486 -0.6694
  421TMC3     O 6284   4.416   3.254  13.679  0.8369 -0.5159  0.0707
  421TMC3     H 6285   4.482   3.419  13.834 -0.6637 -3.7831 -1.9681
  421TMC3    H1 6286   0.068   3.156  13.722  1.0796  1.3317 -1.1246
  421TMC3    H2 6287   0.085   3.333  14.103  2.2522 -0.7474 -0.9796
  421TMC3    C7 6288   0.202   3.159  13.939 -0.6966 -0.0885 -0.5615
  421TMC3    C8 6289   4.598   3.492  14.066  0.3635 -0.5248 -0.2944
  421TMC3    O1 6290   0.278   3.201  14.025  0.0913 -0.2352  0.2262
  421TMC3    O2 6291   4.479   3.485  14.088  0.3126  0.2283 -0.2682
  422TMC3    C1 6292   1.939   3.954  12.992  0.1618 -0.1720  0.3934
  422TMC3    C2 6293   1.884   4.081  13.003 -0.2435 -0.2807 -0.5712
  422TMC3    C3 6294   1.752   4.094  13.015  0.0394 -0.0923 -0.0030
  422TMC3    C4 6295   1.854   3.847  12.998 -0.0579 -0.6235 -0.6097
  422TMC3    C5 6296   1.722   3.867  13.007  0.4347 -0.1541  0.2756
  422TMC3    C6 6297   1.662   3.984  13.023 -0.0805  0.0965  0.9851
  422TMC3     C 6298   2.071   3.933  12.926 -0.4627 -0.0978 -0.1480
  422TMC3     O 6299   2.131   4.035  12.889 -0.7810 -0.4949  0.0827
  422TMC3     H 6300   1.953   4.164  13.000  0.1023 -0.6064 -1.5713
  422TMC3    H1 6301   1.896   3.748  12.982  1.7393 -0.0120  0.2605
  422TMC3    H2 6302   1.557   3.994  13.000  0.0679 -3.2159 -1.1515
  422TMC3    C7 6303   1.641   3.743  13.034 -0.3181  0.0494 -0.8486
  422TMC3    C8 6304   1.692   4.226  13.026 -0.9493 -0.4350 -0.5752
  422TMC3    O1 6305   1.695   3.637  13.010  0.7259  0.4737  0.1109
  422TMC3    O2 6306   1.766   4.315  12.994 -0.0349  0.2127 -0.0335
  423MPD2     C 6307   4.025   0.959   0.705  0.1407 -0.6471  0.5312
  423MPD2    C1 6308   4.005   0.830   0.736 -0.3993 -0.0445  0.0891
  423MPD2    C2 6309   3.970   0.739   0.636  0.1902 -0.0399 -0.0880
  423MPD2    C3 6310   3.969   0.782   0.502  0.7664 -0.0670 -0.4818
  423MPD2    C4 6311   3.992   0.916   0.478 -0.6845  0.6132 -0.2272
  423MPD2    C5 6312   4.021   1.006   0.577 -0.2336  0.2143  0.0914
  423MPD2     H 6313   3.972   0.635   0.666 -1.7818  0.4017  1.5818
  423MPD2    H1 6314   3.979   0.954   0.378  0.0155 -0.8464 -0.8599
  423MPD2    H2 6315   4.051   1.024   0.788  1.5810  1.3611 -1.5024
  423MPD2    H3 6316   4.048   1.108   0.553  0.4535 -0.4401 -1.8637
  423MPD2     N 6317   3.940   0.700   0.392 -0.3537  0.4473  0.0748
  423MPD2    H5 6318   3.932   0.749   0.303 -0.3061 -1.2465 -0.8618
  423MPD2    N1 6319   4.018   0.782   0.866  0.4690 -0.0235  0.0297
  423MPD2    H7 6320   3.990   0.686   0.881 -3.4119  0.9791 -0.7100
  424TMC3    C1 6321   4.084   0.770   1.085 -0.1908  0.5408  0.5587
  424TMC3    C2 6322   4.173   0.804   1.178  0.2652  0.0016 -0.4663
  424TMC3    C3 6323   4.175   0.734   1.299 -0.1586 -0.0794  0.2941
  424TMC3    C4 6324   3.996   0.661   1.096 -0.3240 -0.3698 -0.5589
  424TMC3    C5 6325   3.999   0.605   1.222 -0.2907 -0.0076 -0.2212
  424TMC3    C6 6326   4.081   0.640   1.324  0.2230  0.3867 -0.3116
  424TMC3     C 6327   4.090   0.842   0.960 -0.1086 -0.5708 -0.0545
  424TMC3     O 6328   4.158   0.945   0.962 -0.0797 -0.9051  0.4718
  424TMC3     H 6329   4.260   0.863   1.153  2.0642 -2.2903  0.3810
  424TMC3    H1 6330   3.917   0.623   1.032 -0.4427 -0.2865 -0.4612
  424TMC3    H2 6331   4.086   0.593   1.421  0.2808  0.8210 -0.1038
  424TMC3    C7 6332   3.920   0.491   1.239 -0.1423 -0.3917 -0.3849
  424TMC3    C8 6333   4.298   0.681   1.334  0.1807 -0.2965 -0.3712
  424TMC3    O1 6334   3.901   0.417   1.140  0.2776  0.2915 -0.0176
  424TMC3    O2 6335   4.305   0.559   1.344 -0.1389  0.3212 -0.3483
  425MPD2     C 6336   2.759   4.660  17.619 -0.6595  0.3955 -0.1129
  425MPD2    C1 6337   2.652   4.580  17.607 -0.3932 -0.5294  0.2503
  425MPD2    C2 6338   2.533   4.610  17.669 -0.6893 -0.1914  0.3912
  425MPD2    C3 6339   2.527   0.004   0.049 -0.1912  0.3032  0.4856
  425MPD2    C4 6340   2.639   0.087   0.060 -0.1776  0.2665  0.2625
  425MPD2    C5 6341   2.750   0.051  17.698 -0.5353 -0.7043 -0.2111
  425MPD2     H 6342   2.450   4.542  17.656 -1.1341  0.5962 -0.9089
  425MPD2    H1 6343   2.647   0.171   0.129 -0.2071  2.3342 -2.2266
  425MPD2    H2 6344   2.842   4.627  17.557  0.2823 -1.0591  1.9309
  425MPD2    H3 6345   2.839   0.112  17.692 -1.7640  1.1436  0.3377
  425MPD2     N 6346   2.410   0.018   0.119 -0.2306  0.1494  0.1588
  425MPD2    H5 6347   2.347   4.665   0.128 -1.0321  0.7279 -0.4252
  425MPD2    N1 6348   2.674   4.451  17.549 -0.2426  0.2233 -0.2691
  425MPD2    H7 6349   2.767   4.414  17.534 -0.2495  0.4258 -0.8326
  426TMC3    C1 6350   2.623   4.243  17.429  0.2561  0.5489 -0.4527
  426TMC3    C2 6351   2.561   4.188  17.320  0.3061  0.6583  0.0376
  426TMC3    C3 6352   2.602   4.061  17.280  0.5222 -0.4502  0.1749
  426TMC3    C4 6353   2.723   4.181  17.490  0.1220 -0.5739 -0.4242
  426TMC3    C5 6354   2.747   4.053  17.460  0.0703 -0.1313  0.2121
  426TMC3    C6 6355   2.695   3.991  17.350  0.6403 -1.0953  0.0253
  426TMC3     C 6356   2.576   4.369  17.487  0.0173 -0.0363  0.8100
  426TMC3     O 6357   2.474   4.413  17.439  0.1664 -0.4841  0.2362
  426TMC3     H 6358   2.488   4.247  17.267 -1.2840  0.8235  2.4066
  426TMC3    H1 6359   2.764   4.229  17.578 -2.7020  0.4407  0.3352
  426TMC3    H2 6360   2.727   3.891  17.323 -0.9823 -1.5066 -0.3574
  426TMC3    C7 6361   2.796   3.963  17.566 -0.1864 -0.1834 -0.8637
  426TMC3    C8 6362   2.542   3.987  17.176  0.4210  0.9413  0.8433
  426TMC3    O1 6363   2.773   3.845  17.548  0.3379 -0.0959  0.3424
  426TMC3    O2 6364   2.620   3.912  17.124 -0.3041 -0.4761  0.0052
  427MPD2     C 6365   1.104   1.928  14.902 -0.3485 -0.9124 -0.6455
  427MPD2    C1 6366   1.040   1.883  15.021 -0.7487  0.0979 -0.8804
  427MPD2    C2 6367   0.900   1.896  15.020  0.4120 -0.3866 -0.1925
  427MPD2    C3 6368   0.827   1.945  14.914 -0.0825 -0.2036  0.3508
  427MPD2    C4 6369   0.892   1.992  14.805 -0.1806 -0.1478  0.4520
  427MPD2    C5 6370   1.028   1.982  14.796 -0.6268 -0.4185  0.3380
  427MPD2     H 6371   0.854   1.850  15.107 -0.5736  0.5754 -0.2062
  427MPD2    H1 6372   0.833   2.032  14.724  0.2511 -3.1071 -1.2836
  427MPD2    H2 6373   1.210   1.946  14.890 -0.2466 -1.2775 -0.2925
  427MPD2    H3 6374   1.069   2.021  14.703  0.1013 -2.0466 -0.0225
  427MPD2     N 6375   0.689   1.955  14.912  0.2638  0.2935  0.3857
  427MPD2    H5 6376   0.649   1.987  14.824  3.1057 -0.3773 -1.1589
  427MPD2    N1 6377   1.100   1.817  15.131  0.6757 -0.6750  0.1578
  427MPD2    H7 6378   1.039   1.785  15.206 -0.8044  0.7059 -0.4515
  428TMC3    C1 6379   1.293   1.736  15.257  0.0914  0.7174 -0.4967
  428TMC3    C2 6380   1.227   1.629  15.314 -0.0417  0.3389  0.0746
  428TMC3    C3 6381   1.303   1.544  15.390 -0.5092 -0.5222 -0.0385
  428TMC3    C4 6382   1.433   1.749  15.274  0.1456  0.2689  0.1105
  428TMC3    C5 6383   1.503   1.666  15.351 -0.6058 -0.3051  0.0288
  428TMC3    C6 6384   1.433   1.560  15.411  0.0631 -0.1990 -0.6612
  428TMC3     C 6385   1.238   1.813  15.143  0.9296  0.3250  0.2209
  428TMC3     O 6386   1.327   1.876  15.081 -0.2731 -0.3747 -0.4274
  428TMC3     H 6387   1.134   1.596  15.269  0.0325 -1.0192  0.9364
  428TMC3    H1 6388   1.487   1.832  15.231 -0.9380  0.0854 -1.6128
  428TMC3    H2 6389   1.490   1.483  15.461 -1.3965 -1.2049 -0.5578
  428TMC3    C7 6390   1.629   1.710  15.405  0.3084  0.1368  0.7168
  428TMC3    C8 6391   1.244   1.431  15.469  0.0749  0.2272 -0.7515
  428TMC3    O1 6392   1.648   1.671  15.520  0.3666  0.0334  0.8530
  428TMC3    O2 6393   1.320   1.345  15.512  0.1648  0.1886 -0.1983
  429MPD2     C 6394   2.496   1.961   0.715  0.9217 -0.2366 -0.2886
  429MPD2    C1 6395   2.508   1.843   0.647 -0.1485  0.9586 -0.8528
  429MPD2    C2 6396   2.480   1.851   0.512  0.1666 -0.8823 -0.0725
  429MPD2    C3 6397   2.455   1.970   0.446 -0.0305  0.0948  0.0036
  429MPD2    C4 6398   2.439   2.082   0.522  0.0114  0.2979 -0.5599
  429MPD2    C5 6399   2.471   2.078   0.655  0.6658  0.0107 -0.1221
  429MPD2     H 6400   2.484   1.758   0.456  0.1924 -1.2345  0.5139
  429MPD2    H1 6401   2.405   2.181   0.497 -1.0406 -0.1808 -1.0197
  429MPD2    H2 6402   2.495   1.979   0.822  0.3894 -1.2312 -0.1283
  429MPD2    H3 6403   2.441   2.170   0.704 -2.6486  0.3410 -2.8375
  429MPD2     N 6404   2.430   1.976   0.309 -0.1258 -0.2447  0.0574
  429MPD2    H5 6405   2.440   1.886   0.263 -0.9597 -0.9714  1.3052
  429MPD2    N1 6406   2.524   1.709   0.700  0.3176  0.0225  0.2781
  429MPD2    H7 6407   2.523   1.630   0.637  0.2050 -0.3689  0.7724
  430TMC3    C1 6408   2.426   2.073   0.088  0.4807  0.0414 -0.4116
  430TMC3    C2 6409   2.409   2.192   0.025  0.0850  0.6259  0.0166
  430TMC3    C3 6410   2.475   2.210  17.617  0.4991  0.6729  0.8893
  430TMC3    C4 6411   2.495   1.972   0.037  0.2507  0.2495 -0.0800
  430TMC3    C5 6412   2.569   2.001  17.622  0.3902  0.1828 -0.0394
  430TMC3    C6 6413   2.568   2.126  17.570 -0.1743  0.0650  0.8145
  430TMC3     C 6414   2.411   2.088   0.230 -0.5964  0.3220 -0.3437
  430TMC3     O 6415   2.416   2.202   0.275  0.0794 -0.4477  0.1060
  430TMC3     H 6416   2.335   2.262   0.062  0.2874  1.6568 -1.5322
  430TMC3    H1 6417   2.495   1.873   0.080  0.7832  0.8806  1.3714
  430TMC3    H2 6418   2.644   2.166  17.504  0.9987 -0.6043  1.7672
  430TMC3    C7 6419   2.555   1.891  17.530 -0.4185  0.0411 -0.0526
  430TMC3    C8 6420   2.402   2.257  17.504  0.0663 -0.2188  0.1350
  430TMC3    O1 6421   2.567   1.777  17.574  0.1840  0.1663  0.2376
  430TMC3    O2 6422   2.430   2.204  17.395 -0.3116 -0.0376  0.4014
  431MPD2     C 6423   3.244   1.705  12.614 -0.2214 -0.0117  1.2208
  431MPD2    C1 6424   3.359   1.674  12.548 -0.0498 -0.7373  0.6728
  431MPD2    C2 6425   3.374   1.549  12.498  0.5506  0.1856  0.6667
  431MPD2    C3 6426   3.278   1.453  12.520  0.3067  0.2128  0.9394
  431MPD2    C4 6427   3.164   1.481  12.593  0.7916 -0.6615 -0.7145
  431MPD2    C5 6428   3.155   1.602  12.645 -0.0866  0.4044  0.1095
  431MPD2     H 6429   3.469   1.520  12.455 -0.7212 -4.0541  0.6888
  431MPD2    H1 6430   3.092   1.402  12.614  1.1991 -0.9607 -0.4362
  431MPD2    H2 6431   3.220   1.802  12.656  1.4659  0.5718  0.8142
  431MPD2    H3 6432   3.068   1.637  12.699 -0.8774 -2.3198  0.6257
  431MPD2     N 6433   3.296   1.320  12.479  0.0453 -0.1155  0.0089
  431MPD2    H5 6434   3.228   1.256  12.520 -0.9729  0.9456 -0.0207
  431MPD2    N1 6435   3.466   1.772  12.527  0.6984  0.0655  0.2729
  431MPD2    H7 6436   3.547   1.755  12.469 -0.6319  2.1119 -2.2089
  432TMC3    C1 6437   3.386   1.128  12.373  0.4559  0.7078  0.0280
  432TMC3    C2 6438   3.493   1.093  12.295  0.1092  0.0305  0.4700
  432TMC3    C3 6439   3.541   0.968  12.315  0.2448 -0.5065  0.3949
  432TMC3    C4 6440   3.336   1.050  12.465 -0.5353  0.6691 -0.3223
  432TMC3    C5 6441   3.391   0.926  12.491  0.7904 -0.6002  0.2683
  432TMC3    C6 6442   3.492   0.883  12.411  0.0202 -0.2495 -0.7904
  432TMC3     C 6443   3.389   1.269  12.393 -0.3210 -0.2963  1.1835
  432TMC3     O 6444   3.466   1.337  12.328 -0.9371 -0.2099 -0.0734
  432TMC3     H 6445   3.554   1.155  12.230  0.0105 -1.2954 -0.8757
  432TMC3    H1 6446   3.245   1.080  12.516  1.4329  1.0204  2.9904
  432TMC3    H2 6447   3.518   0.778  12.417  2.3986  0.3748 -0.1889
  432TMC3    C7 6448   3.339   0.842  12.589 -0.2807  0.2177 -0.2352
  432TMC3    C8 6449   3.673   0.937  12.254 -0.2373  0.2388  0.5571
  432TMC3    O1 6450   3.404   0.738  12.603 -0.1171 -0.0185 -0.1043
  432TMC3    O2 6451   3.689   0.992  12.143 -0.0185 -0.1529  0.1941
  433MPD2     C 6452   1.830   0.231  11.190 -0.4087 -0.5829  0.1694
  433MPD2    C1 6453   1.755   0.131  11.246  0.6338 -0.1458 -0.8243
  433MPD2    C2 6454   1.722   0.136  11.381  0.0871  0.0303  0.1184
  433MPD2    C3 6455   1.762   0.242  11.457 -0.2354  1.4812  0.6451
  433MPD2    C4 6456   1.843   0.341  11.401 -0.0700 -0.1289  0.3556
  433MPD2    C5 6457   1.873   0.334  11.271  0.0017  0.2715  0.2314
  433MPD2     H 6458   1.686   0.048  11.433  1.3369 -2.3793 -3.1016
  433MPD2    H1 6459   1.892   0.417  11.460 -0.5099  0.6587 -0.2976
  433MPD2    H2 6460   1.857   0.239  11.085 -1.7674 -0.6388 -0.1793
  433MPD2    H3 6461   1.930   0.419  11.236 -0.0517  0.7272  1.2334
  433MPD2     N 6462   1.737   0.232  11.597  0.6017 -0.0348 -0.2373
  433MPD2    H5 6463   1.691   0.147  11.628 -1.1518  0.8446 -0.4628
  433MPD2    N1 6464   1.721   0.022  11.163 -0.4383  0.5395  0.6175
  433MPD2    H7 6465   1.769   0.011  11.074  0.2302 -0.1995  1.0628
  434TMC3    C1 6466   1.688   4.521  11.135  0.2977  0.3522  0.1689
  434TMC3    C2 6467   1.734   4.429  11.216  0.0262  0.3590  0.4312
  434TMC3    C3 6468   1.826   4.338  11.177  0.4390  0.3160 -0.2380
  434TMC3    C4 6469   1.731   4.522  11.009 -0.5572 -0.3762 -0.0543
  434TMC3    C5 6470   1.831   4.430  10.972 -0.4301  0.7110 -0.0898
  434TMC3    C6 6471   1.879   4.339  11.057  0.0339 -1.1173  0.1053
  434TMC3     C 6472   1.651   4.639  11.207  0.7293  0.7555  0.0367
  434TMC3     O 6473   1.580   4.626  11.302  0.4433  0.4323  0.5940
  434TMC3     H 6474   1.696   4.435  11.317 -1.0009 -2.5137  0.2177
  434TMC3    H1 6475   1.693   4.595  10.939 -0.5093  0.5015  0.8407
  434TMC3    H2 6476   1.952   4.265  11.028 -0.1931 -1.1896 -0.2849
  434TMC3    C7 6477   1.827   4.398  10.825 -0.6871 -0.4626  0.1777
  434TMC3    C8 6478   1.882   4.266  11.287  0.4390 -0.1574  0.4481
  434TMC3    O1 6479   1.743   4.468  10.765  0.1618 -0.4675  0.2281
  434TMC3    O2 6480   1.849   4.297  11.395  0.1175  0.3319  0.1811
  435MPD2     C 6481   4.080   0.593  15.570  0.0411  0.4251  0.0309
  435MPD2    C1 6482   4.049   0.591  15.705  0.9183 -0.0746  0.4380
  435MPD2    C2 6483   4.140   0.533  15.802 -0.2485 -0.0557 -0.6435
  435MPD2    C3 6484   4.250   0.463  15.746 -0.2606 -0.0678  0.7985
  435MPD2    C4 6485   4.267   0.453  15.616 -0.4712 -0.8685  0.1283
  435MPD2    C5 6486   4.192   0.520  15.526  0.4902 -0.3866  0.0031
  435MPD2     H 6487   4.110   0.534  15.906  2.3128 -0.2496  0.0965
  435MPD2    H1 6488   4.344   0.393  15.570 -0.8171  0.4183 -2.1147
  435MPD2    H2 6489   4.026   0.644  15.491  1.6180  2.1370  0.0572
  435MPD2    H3 6490   4.209   0.506  15.420 -1.2853 -2.0130 -0.0690
  435MPD2     N 6491   4.319   0.377  15.833  0.0608 -0.1003  0.2383
  435MPD2    H5 6492   4.307   0.408  15.929 -0.3783 -1.3128  0.5645
  435MPD2    N1 6493   3.923   0.628  15.759  0.0150 -0.5866 -0.1298
  435MPD2    H7 6494   3.902   0.603  15.855 -1.1522  2.6254  0.4395
  436TMC3    C1 6495   3.616   0.787  15.965 -0.0103 -0.9105 -0.4643
  436TMC3    C2 6496   3.712   0.730  15.898 -0.1585 -0.2247 -0.2171
  436TMC3    C3 6497   3.703   0.717  15.760  0.2440 -0.2541 -0.5109
  436TMC3    C4 6498   3.497   0.818  15.902 -0.2341  0.4894  0.1739
  436TMC3    C5 6499   3.489   0.797  15.768 -0.1268 -0.0999  0.4499
  436TMC3    C6 6500   3.587   0.742  15.693 -0.4800  0.8300 -0.4970
  436TMC3     C 6501   3.652   0.868  16.083  0.8388  0.3956 -0.5149
  436TMC3     O 6502   3.766   0.909  16.095  0.0226  0.1619  0.1277
  436TMC3     H 6503   3.809   0.720  15.946 -0.8575 -0.0306  1.2327
  436TMC3    H1 6504   3.408   0.842  15.959  1.8860  1.9451  2.8165
  436TMC3    H2 6505   3.582   0.722  15.586  1.3024 -0.6534 -0.2968
  436TMC3    C7 6506   3.349   0.782  15.709 -0.4558  0.8392 -0.6950
  436TMC3    C8 6507   3.828   0.683  15.684  0.9801 -0.2631 -0.8257
  436TMC3    O1 6508   3.269   0.810  15.794 -0.0199 -0.6006  0.0560
  436TMC3    O2 6509   3.817   0.698  15.562  0.3486 -0.3820  0.4583
  437TMC3    C1 6510   3.383   1.613  12.133  0.3330 -0.0213  0.5540
  437TMC3    C2 6511   3.331   1.492  12.098 -0.1890 -0.1823 -0.2707
  437TMC3    C3 6512   3.198   1.471  12.119  0.5093 -0.1163 -0.2402
  437TMC3    C4 6513   3.306   1.708  12.193 -0.3519 -0.5418 -0.2594
  437TMC3    C5 6514   3.172   1.682  12.205  0.9318 -0.5237  0.0054
  437TMC3    C6 6515   3.115   1.564  12.176  0.5731  0.1000  0.0991
  437TMC3     C 6516   3.524   1.633  12.133  0.2052  0.7110 -0.5602
  437TMC3     O 6517   3.572   1.748  12.132  0.2104  0.2803  0.2286
  437TMC3     H 6518   3.395   1.421  12.048  1.5198  0.9022  0.3839
  437TMC3    H1 6519   3.345   1.808  12.214 -0.9588 -0.5573  0.9856
  437TMC3    H2 6520   3.014   1.542  12.208  0.0978  2.1912  0.0604
  437TMC3    C7 6521   3.090   1.770  12.281  0.0077  0.0819  0.2483
  437TMC3    C8 6522   3.154   1.337  12.138  0.3161  0.1566 -0.5567
  437TMC3    O1 6523   2.979   1.726  12.311 -0.8712  0.2241 -0.2043
  437TMC3    O2 6524   3.230   1.249  12.113 -0.4813 -0.0012  0.0140
  438MPD2     C 6525   0.237   3.312  16.903 -0.2030  0.5073 -0.4255
  438MPD2    C1 6526   0.275   3.202  16.976 -0.6422  0.4824  0.5011
  438MPD2    C2 6527   0.251   3.186  17.114  0.4793 -0.7713 -0.3136
  438MPD2    C3 6528   0.189   3.290  17.183 -0.1229  0.2183 -0.4432
  438MPD2    C4 6529   0.158   3.402  17.115 -0.1186  0.2577 -0.3537
  438MPD2    C5 6530   0.184   3.414  16.981  0.0169  0.2504 -0.4845
  438MPD2     H 6531   0.280   3.091  17.157 -0.8168 -1.6330 -1.3290
  438MPD2    H1 6532   0.122   3.488  17.170 -0.1467 -0.9706  1.5531
  438MPD2    H2 6533   0.264   3.321  16.798 -2.0473  0.3043 -0.9285
  438MPD2    H3 6534   0.164   3.509  16.933 -2.0773  0.0920  0.0636
  438MPD2     N 6535   0.134   3.276  17.312  0.2928 -0.0901  0.3971
  438MPD2    H5 6536   0.097   3.359  17.358 -0.3381 -0.1654  0.0364
  438MPD2    N1 6537   0.353   3.105  16.910  0.2032 -0.1340 -0.0241
  438MPD2    H7 6538   0.401   3.037  16.967  2.7179  1.2986 -0.4086
  439TMC3    C1 6539   0.460   2.979  16.745  0.1294 -0.2704  0.6579
  439TMC3    C2 6540   0.475   2.939  16.617 -0.1281 -0.1854  0.3765
  439TMC3    C3 6541   0.562   2.843  16.593 -0.7855 -0.6670  0.7043
  439TMC3    C4 6542   0.530   2.929  16.848 -0.3624 -0.1387 -0.5104
  439TMC3    C5 6543   0.633   2.842  16.817  0.0094  0.0084 -0.2764
  439TMC3    C6 6544   0.647   2.795  16.691  0.0979 -0.4205  0.5231
  439TMC3     C 6545   0.376   3.093  16.774 -1.1298 -0.9480 -0.0847
  439TMC3     O 6546   0.337   3.150  16.672  0.2147 -0.9243  0.8395
  439TMC3     H 6547   0.409   2.966  16.536  1.4407  0.9656 -0.5082
  439TMC3    H1 6548   0.530   2.961  16.951 -3.3290  1.1682 -0.9124
  439TMC3    H2 6549   0.728   2.725  16.670  0.3544  0.1619 -0.4420
  439TMC3    C7 6550   0.755   2.840  16.905  0.1802 -0.0520 -0.7209
  439TMC3    C8 6551   0.600   2.791  16.459 -0.7455 -0.3371  0.0860
  439TMC3    O1 6552   0.737   2.890  17.018  0.5254 -0.6443  0.5409
  439TMC3    O2 6553   0.712   2.755  16.434  0.1257  0.1116  0.3971
  440MPD2     C 6554   3.718   2.962  15.456 -0.1362 -0.1894 -0.2586
  440MPD2    C1 6555   3.823   2.998  15.538 -0.2046  0.2550 -0.4527
  440MPD2    C2 6556   3.947   2.941  15.510  0.0523 -0.0840  0.0513
  440MPD2    C3 6557   3.966   2.852  15.411  0.0773  0.2280 -0.5056
  440MPD2    C4 6558   3.858   2.814  15.336 -0.7295 -0.2824 -0.2606
  440MPD2    C5 6559   3.733   2.872  15.355  0.1768  0.1723  0.4637
  440MPD2     H 6560   4.031   2.961  15.576  0.8033  0.5261 -1.0966
  440MPD2    H1 6561   3.860   2.737  15.260  2.6779 -0.9132  0.4534
  440MPD2    H2 6562   3.617   3.000  15.458 -1.0493 -2.6694  1.7175
  440MPD2    H3 6563   3.652   2.852  15.286 -0.0879  0.2685  0.7479
  440MPD2     N 6564   4.085   2.783  15.399  0.6532  0.2018 -0.0053
  440MPD2    H5 6565   4.076   2.694  15.352 -3.2346 -0.6545  2.2716
  440MPD2    N1 6566   3.810   3.094  15.642  0.4799 -1.0288 -0.0784
  440MPD2    H7 6567   3.891   3.110  15.700 -0.6227  0.2643  1.1048
  441TMC3    C1 6568   4.312   2.723  15.478  0.1761 -0.1557 -0.4974
  441TMC3    C2 6569   4.417   2.779  15.543 -0.2289  0.8158  0.0524
  441TMC3    C3 6570   4.452   2.735  15.671 -0.4214 -0.2606  0.3710
  441TMC3    C4 6571   4.252   2.607  15.526  0.0365 -0.0940 -0.0255
  441TMC3    C5 6572   4.275   2.576  15.663  0.3768 -0.0566 -0.3337
  441TMC3    C6 6573   4.384   2.627  15.726 -0.3132 -0.2471  1.1160
  441TMC3     C 6574   4.210   2.829  15.439 -0.0378  0.4650  0.1386
  441TMC3     O 6575   4.250   2.937  15.478  0.1121  0.1551 -0.1583
  441TMC3     H 6576   4.480   2.855  15.498 -0.7590  0.0146 -2.0354
  441TMC3    H1 6577   4.157   2.572  15.486  0.1167  0.3243 -0.5834
  441TMC3    H2 6578   4.410   2.600  15.828  1.7073 -2.5279 -0.0043
  441TMC3    C7 6579   4.162   2.609  15.746 -0.1140 -0.2080 -0.1158
  441TMC3    C8 6580   4.472   2.846  15.763 -0.0319  0.6094  0.8782
  441TMC3    O1 6581   4.189   2.678  15.841  0.1995  0.1447  0.2039
  441TMC3    O2 6582   4.516   2.826  15.871  0.5443 -0.2665  0.6628
  442MPD2     C 6583   2.436   4.228  16.802 -0.1582 -0.7352 -0.7492
  442MPD2    C1 6584   2.305   4.181  16.827 -0.0306 -0.2413  0.0081
  442MPD2    C2 6585   2.253   4.072  16.760  0.2292  0.5246 -0.3717
  442MPD2    C3 6586   2.341   3.991  16.685  0.3296  1.0088 -0.3936
  442MPD2    C4 6587   2.470   4.034  16.663  0.1204 -0.4522 -0.3602
  442MPD2    C5 6588   2.514   4.147  16.723  0.2985 -0.2936 -0.2358
  442MPD2     H 6589   2.150   4.050  16.787  0.1861  1.6143  0.3626
  442MPD2    H1 6590   2.545   3.970  16.616  2.1204  0.7870  1.1418
  442MPD2    H2 6591   2.470   4.327  16.829 -0.4418 -1.0934  0.9328
  442MPD2    H3 6592   2.616   4.179  16.704  0.8687 -2.5712 -1.0132
  442MPD2     N 6593   2.305   3.866  16.630 -0.5177  0.1652  0.1132
  442MPD2    H5 6594   2.382   3.804  16.607  0.3330  0.7644  1.3939
  442MPD2    N1 6595   2.214   4.248  16.917 -0.3778  0.3876  0.0182
  442MPD2    H7 6596   2.121   4.209  16.926 -0.2273 -0.1670 -0.7694
  443TMC3    C1 6597   2.124   4.386  17.078 -0.4893 -0.1368  0.8639
  443TMC3    C2 6598   2.071   4.511  17.071 -0.6748 -0.2789  0.2583
  443TMC3    C3 6599   1.935   4.524  17.096  0.7539  0.8138  1.1241
  443TMC3    C4 6600   2.051   4.276  17.112  0.0079  0.1411  0.3641
  443TMC3    C5 6601   1.924   4.294  17.161 -0.0350 -0.1506  0.0294
  443TMC3    C6 6602   1.862   4.416  17.142 -0.3058 -0.0148  0.5710
  443TMC3     C 6603   2.238   4.357  16.997  0.5010  0.8974 -0.4258
  443TMC3     O 6604   2.328   4.438  16.996 -0.2183  0.1438  0.2170
  443TMC3     H 6605   2.121   4.589  17.014 -0.6062  1.4461  2.6618
  443TMC3    H1 6606   2.104   4.184  17.136  2.2956  1.4480  0.2991
  443TMC3    H2 6607   1.756   4.432  17.155  0.0368  1.4759  1.4968
  443TMC3    C7 6608   1.839   4.188  17.211 -0.9122 -0.3162 -0.9159
  443TMC3    C8 6609   1.855   4.600  17.000  0.1511  0.1565  0.1702
  443TMC3    O1 6610   1.842   4.071  17.171 -0.0947 -0.1936  0.1599
  443TMC3    O2 6611   1.884   4.719  16.979  0.0307  0.0890 -0.4895
  444MPD2     C 6612   2.328   3.807  17.452  0.1582 -0.7661  0.3106
  444MPD2    C1 6613   2.235   3.725  17.393  0.3347  0.4729 -0.3270
  444MPD2    C2 6614   2.289   3.624  17.312  0.7430 -0.4635  0.5233
  444MPD2    C3 6615   2.426   3.607  17.304  0.5119  0.6516  0.0865
  444MPD2    C4 6616   2.511   3.679  17.385  0.7044 -0.1568  0.4965
  444MPD2    C5 6617   2.461   3.777  17.463  0.5960  0.1427 -0.7365
  444MPD2     H 6618   2.225   3.548  17.267  0.9332  0.5016 -1.3808
  444MPD2    H1 6619   2.615   3.650  17.396  1.4724  1.1499 -3.4372
  444MPD2    H2 6620   2.300   3.895  17.509  0.6843 -0.4371  0.0647
  444MPD2    H3 6621   2.521   3.835  17.532 -0.0036 -0.3130  0.1734
  444MPD2     N 6622   2.477   3.507  17.226  0.2878  0.1829 -0.5740
  444MPD2    H5 6623   2.413   3.430  17.211  1.1591 -0.4108 -1.2520
  444MPD2    N1 6624   2.096   3.734  17.392 -0.1919 -0.1250 -0.2979
  444MPD2    H7 6625   2.038   3.664  17.346 -1.9359  0.9197  0.3096
  445TMC3    C1 6626   2.628   3.350  17.151  0.5487  0.0642 -0.1191
  445TMC3    C2 6627   2.575   3.254  17.229  0.1681 -0.1554 -0.3376
  445TMC3    C3 6628   2.642   3.129  17.223 -0.3666  0.0973 -1.0302
  445TMC3    C4 6629   2.745   3.337  17.081  0.2975  0.7179  0.4885
  445TMC3    C5 6630   2.810   3.214  17.095 -0.6402  0.3256 -0.1180
  445TMC3    C6 6631   2.751   3.103  17.155  1.1595 -0.0687 -0.4973
  445TMC3     C 6632   2.612   3.486  17.203  0.1404 -0.3609  1.1329
  445TMC3     O 6633   2.701   3.566  17.195  0.2832 -0.1521 -0.2434
  445TMC3     H 6634   2.501   3.274  17.306  0.2195  0.6713 -0.5015
  445TMC3    H1 6635   2.777   3.417  17.015  1.2571  1.2968  1.6740
  445TMC3    H2 6636   2.803   3.008  17.143  0.9191 -0.2451 -0.1567
  445TMC3    C7 6637   2.902   3.192  16.992  0.3986 -0.1158 -0.6050
  445TMC3    C8 6638   2.606   3.045  17.328  0.3458  0.2808 -0.5129
  445TMC3    O1 6639   2.883   3.254  16.889  0.2482  0.3153  0.0947
  445TMC3    O2 6640   2.531   3.090  17.415  0.5876 -0.1197  0.5136
  446MPD2     C 6641   1.620   3.937  11.776 -0.2866 -0.5165 -0.1853
  446MPD2    C1 6642   1.624   3.979  11.644  0.4026 -0.4679  0.5117
  446MPD2    C2 6643   1.684   4.105  11.609 -0.5718  0.2996 -0.0154
  446MPD2    C3 6644   1.739   4.187  11.707  0.2212  0.2943  0.3146
  446MPD2    C4 6645   1.732   4.146  11.836 -0.2896  0.0161 -0.0026
  446MPD2    C5 6646   1.672   4.026  11.867 -0.8333  0.4890 -0.0418
  446MPD2     H 6647   1.691   4.134  11.505 -0.3775 -2.7910 -0.8793
  446MPD2    H1 6648   1.753   4.209  11.922  2.9973  0.7609 -1.3585
  446MPD2    H2 6649   1.580   3.840  11.805  1.3552 -0.9798  0.5512
  446MPD2    H3 6650   1.661   3.997  11.971 -1.3887 -2.0417 -0.7995
  446MPD2     N 6651   1.807   4.305  11.666 -0.1418  0.5941 -0.1844
  446MPD2    H5 6652   1.810   4.322  11.566 -2.3183  0.0361 -0.3614
  446MPD2    N1 6653   1.570   3.895  11.541  0.5646  0.2158  0.4870
  446MPD2    H7 6654   1.555   3.932  11.448  0.3086  2.2116  1.3225
  447TMC3    C1 6655   2.001   4.447  11.673  0.2319 -0.4210  0.6580
  447TMC3    C2 6656   1.978   4.510  11.551  0.1582  0.1577  0.7258
  447TMC3    C3 6657   2.087   4.535  11.466 -0.5244 -0.5450 -0.0654
  447TMC3    C4 6658   2.129   4.426  11.718 -0.5180 -0.4804  0.4915
  447TMC3    C5 6659   2.233   4.470  11.642  0.1262  0.3016  0.3635
  447TMC3    C6 6660   2.215   4.516  11.511  0.1068 -0.1569 -0.2323
  447TMC3     C 6661   1.902   4.362  11.746  0.8987 -0.2960 -0.0652
  447TMC3     O 6662   1.935   4.333  11.859 -0.0470 -0.1100 -0.8447
  447TMC3     H 6663   1.881   4.521  11.504  0.1855  0.4811  0.7419
  447TMC3    H1 6664   2.147   4.370  11.809  1.6479 -0.8113 -0.1376
  447TMC3    H2 6665   2.305   4.542  11.456 -0.1883  0.9807 -0.1750
  447TMC3    C7 6666   2.368   4.428  11.682  0.2653  0.2533 -0.6553
  447TMC3    C8 6667   2.058   4.561  11.329  0.4255  0.7194 -0.0921
  447TMC3    O1 6668   2.452   4.425  11.590 -0.0440 -0.2976 -0.4713
  447TMC3    O2 6669   1.960   4.624  11.297 -0.3414 -0.2868  0.4832
  448TMC3    C1 6670   0.249   4.686  16.893 -0.0232  0.1659  0.1477
  448TMC3    C2 6671   0.183   4.567  16.855 -0.4212 -1.0679 -0.5329
  448TMC3    C3 6672   0.203   4.458  16.937  0.5005  0.6385  0.7406
  448TMC3    C4 6673   0.314   4.698  17.011  0.7640 -0.2534  0.3092
  448TMC3    C5 6674   0.323   4.591  17.090 -0.5241  0.4698 -0.2784
  448TMC3    C6 6675   0.261   4.473  17.060 -0.3185 -0.6114 -0.4921
  448TMC3     C 6676   0.208   0.088  16.838 -0.2500  0.0682 -0.5621
  448TMC3     O 6677   0.249   0.191  16.895  0.4172 -0.4743  0.1379
  448TMC3     H 6678   0.112   4.550  16.775 -0.4421  1.7734 -1.1115
  448TMC3    H1 6679   0.357   0.068  17.040 -0.6637  0.5427 -0.2231
  448TMC3    H2 6680   0.269   4.384  17.122  1.1076  0.9694  1.5737
  448TMC3    C7 6681   0.359   4.603  17.228 -0.4339 -0.0925  0.2761
  448TMC3    C8 6682   0.178   4.313  16.903 -0.6706 -0.2313  0.1560
  448TMC3    O1 6683   0.455   4.669  17.262 -0.0324 -0.1259 -0.9262
  448TMC3    O2 6684   0.209   4.227  16.983  0.0016 -0.0561 -0.4315
  449MPD2     C 6685   2.192   2.727  13.708  0.1032 -0.7139 -0.0945
  449MPD2    C1 6686   2.088   2.658  13.646  0.1557 -0.0647 -0.7184
  449MPD2    C2 6687   1.955   2.671  13.673  0.1119 -0.1515 -0.4392
  449MPD2    C3 6688   1.920   2.761  13.769  0.1875 -0.1546  0.0798
  449MPD2    C4 6689   2.017   2.847  13.822 -0.0322  0.7319 -0.6390
  449MPD2    C5 6690   2.152   2.819  13.795 -0.2723  0.1012 -0.0269
  449MPD2     H 6691   1.877   2.615  13.622  1.1141 -1.2113 -0.8151
  449MPD2    H1 6692   1.999   2.929  13.889 -0.3167  0.3727 -0.2777
  449MPD2    H2 6693   2.297   2.705  13.688  0.0458 -0.8812 -0.2159
  449MPD2    H3 6694   2.227   2.880  13.844  0.4834 -0.5372 -0.4001
  449MPD2     N 6695   1.786   2.785  13.785 -0.3919 -0.2597  0.2891
  449MPD2    H5 6696   1.720   2.729  13.732 -1.5185 -0.4210  1.8846
  449MPD2    N1 6697   2.112   2.555  13.549 -0.1215 -0.2883  0.2501
  449MPD2    H7 6698   2.029   2.505  13.518  0.7486 -1.0657 -0.8224
  450TMC3    C1 6699   2.220   2.403  13.406  0.7774 -0.1183 -0.5996
  450TMC3    C2 6700   2.284   2.295  13.455  0.0167 -0.6399  0.5006
  450TMC3    C3 6701   2.216   2.179  13.490 -0.0642  0.3460  0.7647
  450TMC3    C4 6702   2.086   2.393  13.373  0.1980 -0.5627  0.5110
  450TMC3    C5 6703   2.024   2.281  13.413 -0.3144 -0.0470 -0.3419
  450TMC3    C6 6704   2.084   2.170  13.468 -0.7817 -0.4108  0.6060
  450TMC3     C 6705   2.236   2.509  13.509 -0.2005 -0.0682  0.1636
  450TMC3     O 6706   2.343   2.531  13.557 -0.1812 -0.1495 -0.0368
  450TMC3     H 6707   2.387   2.301  13.488 -0.9017  1.2866  2.9962
  450TMC3    H1 6708   2.043   2.484  13.332  1.1866 -1.2648 -2.0218
  450TMC3    H2 6709   2.021   2.087  13.500 -2.2390  0.4629  0.0258
  450TMC3    C7 6710   1.895   2.316  13.461 -0.3133 -0.8124  0.0682
  450TMC3    C8 6711   2.303   2.069  13.487  0.0586 -0.8515  0.9766
  450TMC3    O1 6712   1.878   2.435  13.468  0.0158  0.2745  0.0391
  450TMC3    O2 6713   2.248   1.959  13.507  0.2752 -0.5492  0.1158
  451MPD2     C 6714   3.547   2.388   2.161 -0.1137  0.1134  0.5833
  451MPD2    C1 6715   3.495   2.339   2.043  0.0048 -0.6752  0.1504
  451MPD2    C2 6716   3.542   2.222   1.984  0.2215 -0.6302 -0.2026
  451MPD2    C3 6717   3.647   2.158   2.043  0.4518 -0.5907  0.0173
  451MPD2    C4 6718   3.700   2.205   2.162  0.4664  0.5333  0.0013
  451MPD2    C5 6719   3.653   2.324   2.222 -0.3863 -0.1329  0.5809
  451MPD2     H 6720   3.495   2.182   1.895 -1.4093 -2.3084  1.4117
  451MPD2    H1 6721   3.787   2.154   2.203  0.2916 -0.1776 -0.5222
  451MPD2    H2 6722   3.503   2.480   2.198 -1.5506 -0.9411  1.5013
  451MPD2    H3 6723   3.692   2.359   2.316  0.7193  0.6241 -0.1590
  451MPD2     N 6724   3.708   2.042   1.997 -0.3620 -0.0204  0.3781
  451MPD2    H5 6725   3.782   1.999   2.052  2.4915  1.6526 -2.1300
  451MPD2    N1 6726   3.387   2.412   1.982  0.0955 -0.7885  0.1306
  451MPD2    H7 6727   3.334   2.478   2.037 -1.5343 -1.6398 -0.4186
  452TMC3    C1 6728   3.744   1.848   1.879  0.1068  0.2941 -0.9544
  452TMC3    C2 6729   3.789   1.784   1.992 -0.2470 -0.3646  0.1724
  452TMC3    C3 6730   3.815   1.648   1.989  0.0099 -0.1634 -0.3576
  452TMC3    C4 6731   3.731   1.777   1.762 -0.7969 -0.4989  0.4422
  452TMC3    C5 6732   3.749   1.642   1.767  0.4004  0.9361 -0.0742
  452TMC3    C6 6733   3.787   1.572   1.881  0.6642  0.2260  0.0719
  452TMC3     C 6734   3.675   1.975   1.876  0.0660 -0.7644 -0.0792
  452TMC3     O 6735   3.594   2.004   1.791  0.6086 -0.0012  0.2147
  452TMC3     H 6736   3.789   1.831   2.090  0.7682  0.8981 -0.4290
  452TMC3    H1 6737   3.694   1.827   1.673 -1.6769 -0.4636  0.8258
  452TMC3    H2 6738   3.819   1.470   1.864 -2.1067 -0.3692 -1.5715
  452TMC3    C7 6739   3.693   1.574   1.660  0.2256 -0.5635  0.3072
  452TMC3    C8 6740   3.871   1.575   2.107  0.1014  0.4372 -0.4969
  452TMC3    O1 6741   3.669   1.644   1.565  0.2656 -0.0719  0.2450
  452TMC3    O2 6742   3.876   1.451   2.104  0.3273 -0.4115  0.5211
  453TMC3    C1 6743   4.605   3.169  11.779  0.1237  0.0758 -0.4081
  453TMC3    C2 6744   4.562   3.038  11.778 -0.2317  1.1697  0.3464
  453TMC3    C3 6745   4.455   2.999  11.710 -0.5917  0.5584 -0.1121
  453TMC3    C4 6746   4.550   3.255  11.691  0.3618  0.6073 -0.0965
  453TMC3    C5 6747   4.436   3.220  11.628  0.8092  0.1120 -0.3766
  453TMC3    C6 6748   4.380   3.097  11.651 -0.6667  0.3263  0.5225
  453TMC3     C 6749   4.679   3.225  11.889  0.0804 -0.1371 -0.3179
  453TMC3     O 6750   0.020   3.327  11.865  0.2019  0.3141 -0.0154
  453TMC3     H 6751   4.616   2.964  11.836  1.1156  1.4737 -0.5245
  453TMC3    H1 6752   4.591   3.355  11.689  2.5649 -0.3293 -1.6039
  453TMC3    H2 6753   4.281   3.071  11.618 -1.0183  1.0779  0.9747
  453TMC3    C7 6754   4.369   3.335  11.566  0.0529 -0.7136 -0.0974
  453TMC3    C8 6755   4.386   2.882  11.749  0.2928 -0.2336  0.8361
  453TMC3    O1 6756   4.429   3.438  11.547  0.0850 -0.1173 -0.2766
  453TMC3    O2 6757   4.264   2.888  11.768 -0.3457 -0.4331  0.0259
  454MPD2     C 6758   2.974   2.872  16.371 -0.2757 -0.0768 -0.2045
  454MPD2    C1 6759   2.908   2.986  16.332  0.6215  0.3381 -0.2365
  454MPD2    C2 6760   2.837   3.063  16.420 -0.4655  0.2837 -0.7451
  454MPD2    C3 6761   2.832   3.023  16.554 -0.7474 -0.7175 -0.3508
  454MPD2    C4 6762   2.896   2.909  16.596  0.0430  0.6390  0.3920
  454MPD2    C5 6763   2.965   2.837  16.503  0.9734  0.0980 -0.1653
  454MPD2     H 6764   2.775   3.147  16.390  1.8543  2.3353  0.2504
  454MPD2    H1 6765   2.900   2.875  16.699 -0.1490 -0.0178  0.1802
  454MPD2    H2 6766   3.026   2.808  16.300 -0.1086  1.5394 -1.5340
  454MPD2    H3 6767   3.000   2.737  16.526  3.0111  0.9365  0.3772
  454MPD2     N 6768   2.747   3.083  16.639 -0.0505 -0.3722  0.1195
  454MPD2    H5 6769   2.733   3.032  16.726 -0.9709 -1.8956 -0.9454
  454MPD2    N1 6770   2.898   3.021  16.198  0.9952  0.2883 -0.2039
  454MPD2    H7 6771   2.846   3.105  16.174 -0.5874 -0.0599  2.0883
  455TMC3    C1 6772   2.580   3.226  16.715  0.1807  0.6678  0.1432
  455TMC3    C2 6773   2.566   3.349  16.776  0.1712 -0.7418 -0.1862
  455TMC3    C3 6774   2.446   3.401  16.809 -0.3532  1.3841 -0.9929
  455TMC3    C4 6775   2.469   3.171  16.664 -0.7642  0.2266 -0.2423
  455TMC3    C5 6776   2.351   3.234  16.685  0.1047  0.1161 -0.3704
  455TMC3    C6 6777   2.331   3.344  16.761 -0.3464 -0.2616  0.9055
  455TMC3     C 6778   2.700   3.213  16.634  0.1207  1.0186  0.3642
  455TMC3     O 6779   2.735   3.306  16.566  0.2581 -0.0450  0.1796
  455TMC3     H 6780   2.655   3.401  16.811 -1.3588  0.3674  2.0661
  455TMC3    H1 6781   2.478   3.077  16.611  0.0661  0.5254 -0.6293
  455TMC3    H2 6782   2.239   3.400  16.749  0.6999  1.8171  2.5308
  455TMC3    C7 6783   2.234   3.169  16.632 -0.1982 -0.0025  0.0587
  455TMC3    C8 6784   2.445   3.527  16.875 -0.1808 -0.1849 -0.3195
  455TMC3    O1 6785   2.129   3.189  16.689  0.0246  0.5471 -0.6571
  455TMC3    O2 6786   2.551   3.575  16.898  0.1425  0.2018  0.1465
  456MPD2     C 6787   0.627   3.043  16.236 -0.8592  0.1086  1.1223
  456MPD2    C1 6788   0.718   3.070  16.331 -0.0471  0.0727  0.1397
  456MPD2    C2 6789   0.693   3.164  16.427 -0.5187 -0.8406  0.1271
  456MPD2    C3 6790   0.571   3.233  16.427 -0.4645  0.1907  0.0121
  456MPD2    C4 6791   0.487   3.210  16.325 -0.5689 -0.3610  0.5095
  456MPD2    C5 6792   0.513   3.118  16.236 -0.1822 -0.6836 -1.0669
  456MPD2     H 6793   0.770   3.188  16.499 -0.6080  0.0999 -0.0920
  456MPD2    H1 6794   0.398   3.270  16.308 -1.5351 -1.8932  0.1528
  456MPD2    H2 6795   0.646   2.973  16.155 -0.1359  1.0499  0.4803
  456MPD2    H3 6796   0.443   3.100  16.155 -0.3985 -0.6767 -0.8831
  456MPD2     N 6797   0.550   3.336  16.522 -0.6227  0.3920 -0.1977
  456MPD2    H5 6798   0.616   3.342  16.600 -2.2815 -1.8912  1.3826
  456MPD2    N1 6799   0.844   3.004  16.323  1.0922 -0.0113  0.3577
  456MPD2    H7 6800   0.854   2.944  16.242  0.6484  0.0167  0.2848
  457TMC3    C1 6801   0.445   3.495  16.659 -0.0425 -0.2110 -0.0881
  457TMC3    C2 6802   0.358   3.604  16.654  0.7013 -0.2669 -0.0853
  457TMC3    C3 6803   0.345   3.669  16.770 -0.5355 -0.7158  0.3259
  457TMC3    C4 6804   0.509   3.454  16.776  0.4437 -0.2604  0.5792
  457TMC3    C5 6805   0.499   3.538  16.883  1.0543 -0.3715  0.5637
  457TMC3    C6 6806   0.420   3.649  16.881 -0.7245  0.1420 -0.1561
  457TMC3     C 6807   0.433   3.411  16.539 -0.0434 -0.4924  0.1415
  457TMC3     O 6808   0.329   3.420  16.476 -0.2395 -0.5374  0.0217
  457TMC3     H 6809   0.282   3.625  16.581  0.4816 -0.1473  0.1772
  457TMC3    H1 6810   0.567   3.362  16.782 -0.3770 -0.8922 -1.2436
  457TMC3    H2 6811   0.425   3.722  16.961 -2.2803  0.8071 -0.6635
  457TMC3    C7 6812   0.577   3.524  17.007 -0.7269  0.1767  0.0300
  457TMC3    C8 6813   0.261   3.794  16.779 -0.7948  0.1599  0.0247
  457TMC3    O1 6814   0.523   3.551  17.117  0.1270  0.6964  0.1939
  457TMC3    O2 6815   0.266   3.859  16.885  0.0359 -0.0515 -0.3755
  458MPD2     C 6816   3.071   2.101  12.668 -0.7604  1.1090  0.7441
  458MPD2    C1 6817   3.168   2.146  12.580 -0.3784 -0.2028  0.3878
  458MPD2    C2 6818   3.194   2.066  12.470 -1.1223 -0.9188  0.4890
  458MPD2    C3 6819   3.117   1.956  12.444 -0.1869 -0.1689 -0.3743
  458MPD2    C4 6820   3.011   1.923  12.532  0.5097 -0.3293 -0.5604
  458MPD2    C5 6821   2.983   1.996  12.640  0.0753  0.3754  0.0655
  458MPD2     H 6822   3.271   2.096  12.400 -0.5119 -0.1713  1.4621
  458MPD2    H1 6823   2.947   1.838  12.508 -1.5790  1.6643 -2.1409
  458MPD2    H2 6824   3.054   2.163  12.756 -1.5447  1.4541  0.3439
  458MPD2    H3 6825   2.890   1.979  12.693  0.3142  0.0490  0.3778
  458MPD2     N 6826   3.154   1.879  12.327 -0.6364  0.1513  0.1009
  458MPD2    H5 6827   3.241   1.905  12.283 -0.0651 -0.2877  0.9642
  458MPD2    N1 6828   3.232   2.270  12.609  0.4779 -0.7854  0.2432
  458MPD2    H7 6829   3.219   2.314  12.700 -1.1034 -0.3378 -0.2040
  459TMC3    C1 6830   3.408   2.428  12.614  0.5438  0.5313 -0.2908
  459TMC3    C2 6831   3.503   2.490  12.542 -0.2382 -0.5106  0.3875
  459TMC3    C3 6832   3.586   2.575  12.608 -0.0105 -0.5253  0.5763
  459TMC3    C4 6833   3.387   2.453  12.744 -0.4246  0.0221 -0.3198
  459TMC3    C5 6834   3.476   2.541  12.808 -0.2175  0.1975 -0.4217
  459TMC3    C6 6835   3.576   2.597  12.741  0.2386 -1.3821  0.7489
  459TMC3     C 6836   3.344   2.312  12.550 -0.0554  0.6413 -0.6165
  459TMC3     O 6837   3.407   2.268  12.455  0.4958 -0.0084  0.3861
  459TMC3     H 6838   3.510   2.468  12.436  3.4355  0.6194  0.4087
  459TMC3    H1 6839   3.299   2.419  12.797 -1.3063  3.7502  0.6685
  459TMC3    H2 6840   3.646   2.665  12.790 -1.7361  1.3819 -0.2713
  459TMC3    C7 6841   3.500   2.515  12.941  0.0872 -0.4312  0.1676
  459TMC3    C8 6842   3.697   2.623  12.542 -0.3111 -0.0235  0.4572
  459TMC3    O1 6843   3.486   2.401  12.986 -0.4086  0.4260  0.1527
  459TMC3    O2 6844   3.749   2.548  12.465 -0.0889 -0.0798  0.1384
  460MPD2     C 6845   2.263   4.432  11.059  0.1430 -0.8065 -0.0905
  460MPD2    C1 6846   2.170   4.515  11.111  0.3855  0.7569 -0.1694
  460MPD2    C2 6847   2.105   4.606  11.023  0.2466  0.8631  0.8365
  460MPD2    C3 6848   2.111   4.598  10.886 -0.2700  0.3692 -0.2728
  460MPD2    C4 6849   2.198   4.507  10.838 -0.5605  0.1030 -0.6431
  460MPD2    C5 6850   2.272   4.419  10.921  0.1505 -0.5298  0.8405
  460MPD2     H 6851   2.030   4.672  11.063 -2.4582 -2.1568  0.7409
  460MPD2    H1 6852   2.223   4.496  10.733 -1.5403  1.7561 -1.0475
  460MPD2    H2 6853   2.330   4.384  11.130  2.5941  1.2342 -1.0293
  460MPD2    H3 6854   2.339   4.347  10.875  1.0640  0.5391  0.4744
  460MPD2     N 6855   2.027   4.677  10.806  0.2350  0.1559  0.0087
  460MPD2    H5 6856   1.974   0.019  10.861 -0.1896 -0.2353  0.0851
  460MPD2    N1 6857   2.156   4.504  11.250  0.0040  0.1038 -0.0784
  460MPD2    H7 6858   2.219   4.450  11.309  0.3606 -1.3340 -1.7870
  461TMC3    C1 6859   1.937   0.044  10.604  0.1575  1.1517 -0.0919
  461TMC3    C2 6860   1.871   0.001  10.492  0.3118  0.0197 -0.2631
  461TMC3    C3 6861   1.826   0.108  10.408 -0.1614 -0.4042 -0.2283
  461TMC3    C4 6862   1.985   0.176  10.621 -0.2890  0.4921  0.3393
  461TMC3    C5 6863   1.939   0.272  10.527 -0.4563  0.1725  1.6230
  461TMC3    C6 6864   1.851   0.241  10.429  0.1668  0.1949  0.1466
  461TMC3     C 6865   2.011   4.669  10.670 -0.3002 -0.9216  0.0470
  461TMC3     O 6866   2.070   4.592  10.587 -0.4216 -0.1714  0.2020
  461TMC3     H 6867   1.864   4.619  10.479 -2.2003  0.2189 -0.5572
  461TMC3    H1 6868   2.025   0.209  10.716  1.7577  2.8057 -1.3484
  461TMC3    H2 6869   1.840   0.318  10.354 -1.3191  0.4895  0.6760
  461TMC3    C7 6870   1.991   0.407  10.529 -0.1742  1.0260 -0.0037
  461TMC3    C8 6871   1.733   0.067  10.302 -0.3645  0.5369 -0.0981
  461TMC3    O1 6872   1.912   0.491  10.499 -0.4058 -0.0870 -0.2915
  461TMC3    O2 6873   1.728   4.673  10.275  0.1024 -0.2898  0.0416
  462TMC3    C1 6874   3.279   1.630   1.449  0.5571 -0.4820  0.5711
  462TMC3    C2 6875   3.315   1.707   1.335  0.0539 -0.3996  0.5807
  462TMC3    C3 6876   3.293   1.648   1.218  0.5834  1.1121 -0.4775
  462TMC3    C4 6877   3.225   1.502   1.437 -0.3837  0.2557  0.1688
  462TMC3    C5 6878   3.203   1.450   1.310 -0.2860 -0.1571 -0.5062
  462TMC3    C6 6879   3.233   1.526   1.200 -0.1165 -0.0109  0.0015
  462TMC3     C 6880   3.327   1.678   1.583 -0.2063 -0.1932  0.4371
  462TMC3     O 6881   3.378   1.788   1.591 -0.1735 -0.3623  0.3931
  462TMC3     H 6882   3.368   1.801   1.343  1.0615 -0.9514  0.4292
  462TMC3    H1 6883   3.189   1.440   1.518 -0.8722  2.6636  1.7989
  462TMC3    H2 6884   3.215   1.475   1.106  1.5367 -0.2643 -0.1763
  462TMC3    C7 6885   3.123   1.327   1.284 -0.4081  0.6889  0.3736
  462TMC3    C8 6886   3.331   1.724   1.100 -0.7242 -0.3208 -0.6444
  462TMC3    O1 6887   3.079   1.309   1.172 -0.1266 -0.2097  0.7091
  462TMC3    O2 6888   3.397   1.828   1.109 -0.0890  0.5427 -0.3376
  463MPD2     C 6889   3.730   4.671   2.531  0.6063  0.6446  0.1216
  463MPD2    C1 6890   3.763   4.634   2.395  0.0277  0.4293  0.2264
  463MPD2    C2 6891   3.847   4.722   2.324  0.4401 -0.2024  0.1483
  463MPD2    C3 6892   3.914   0.098   2.385  0.2359  0.2704 -0.2190
  463MPD2    C4 6893   3.902   0.109   2.520 -0.2984 -0.0614  0.1565
  463MPD2    C5 6894   3.805   0.046   2.594  0.0492  0.0989  0.3299
  463MPD2     H 6895   3.863   4.691   2.221  1.1415 -0.2488  0.2692
  463MPD2    H1 6896   3.961   0.171   2.587 -0.2870 -0.7699  0.8122
  463MPD2    H2 6897   3.665   4.615   2.596 -1.1055  1.6749 -0.6938
  463MPD2    H3 6898   3.807   0.066   2.700  0.0607 -0.8067  0.5026
  463MPD2     N 6899   4.000   0.187   2.303 -0.1098 -0.1104  0.2054
  463MPD2    H5 6900   4.063   0.255   2.345  1.0340 -1.6545  0.9974
  463MPD2    N1 6901   3.709   4.524   2.322  0.2603  0.1603  0.5675
  463MPD2    H7 6902   3.735   4.506   2.226  0.6397 -0.3525  0.7642
  464TMC3    C1 6903   3.531   4.381   2.279  0.2754  0.4578  0.2336
  464TMC3    C2 6904   3.538   4.426   2.147 -0.1974  0.2105 -0.2486
  464TMC3    C3 6905   3.455   4.364   2.059  0.1524  0.3544  0.6484
  464TMC3    C4 6906   3.451   4.271   2.317  0.3372 -0.4847  0.3711
  464TMC3    C5 6907   3.372   4.214   2.219 -0.1545 -0.5439 -0.0606
  464TMC3    C6 6908   3.362   4.269   2.099 -0.4401  0.2714 -0.4001
  464TMC3     C 6909   3.609   4.453   2.374 -0.1169 -0.5841  0.1812
  464TMC3     O 6910   3.577   4.432   2.493  0.7830 -0.0304  0.1640
  464TMC3     H 6911   3.603   4.506   2.115  2.5498 -0.8230  2.7180
  464TMC3    H1 6912   3.468   4.215   2.408  1.3636  0.4504  0.7591
  464TMC3    H2 6913   3.312   4.214   2.020  0.7425 -0.9396 -0.3047
  464TMC3    C7 6914   3.250   4.137   2.270  0.0316  0.0571  0.6225
  464TMC3    C8 6915   3.443   4.432   1.933  0.4242  0.2474 -0.7073
  464TMC3    O1 6916   3.264   4.095   2.382  0.1225 -0.1082 -0.0946
  464TMC3    O2 6917   3.496   4.542   1.917  0.0138  0.7371 -0.6061
  465MPD2     C 6918   4.557   3.329  17.093  0.1624  0.4754  0.8631
  465MPD2    C1 6919   4.459   3.425  17.107 -0.4758 -0.2134 -0.4057
  465MPD2    C2 6920   4.372   3.444  17.001  0.2391  0.6067  0.3195
  465MPD2    C3 6921   4.383   3.375  16.878 -0.0898  0.9636 -0.0527
  465MPD2    C4 6922   4.475   3.272  16.871 -0.4057  0.2224  0.1740
  465MPD2    C5 6923   4.565   3.251  16.977  0.2470 -0.1416  0.1580
  465MPD2     H 6924   4.289   3.513  17.011 -0.9288 -0.6456 -0.8450
  465MPD2    H1 6925   4.494   3.221  16.777 -0.5945  1.0028 -0.2847
  465MPD2    H2 6926   4.616   3.302  17.179  3.2439  0.3102 -1.3227
  465MPD2    H3 6927   4.648   3.182  16.968 -1.0031 -1.3621 -2.1169
  465MPD2     N 6928   4.295   3.410  16.775  0.5834 -0.3601 -0.2516
  465MPD2    H5 6929   4.231   3.486  16.795  0.2283 -0.5718 -0.5647
  465MPD2    N1 6930   4.432   3.485  17.234  0.2820  0.0768  0.6239
  465MPD2    H7 6931   4.346   3.538  17.242  1.5411  1.9363  2.0098
  466TMC3    C1 6932   3.950   3.468  16.619  0.2769  0.5860 -0.5622
  466TMC3    C2 6933   3.977   3.604  16.606  0.0884 -0.0221  0.0408
  466TMC3    C3 6934   4.107   3.639  16.576 -0.1320  0.1305  0.8510
  466TMC3    C4 6935   4.046   3.369  16.609 -0.0517 -1.0601  0.0456
  466TMC3    C5 6936   4.175   3.410  16.576 -0.5432  0.2337  0.0911
  466TMC3    C6 6937   4.204   3.543  16.562 -0.2587  0.3296  0.2190
  466TMC3     C 6938   3.817   3.438  16.672 -0.4525 -0.2166  0.6362
  466TMC3     O 6939   3.734   3.525  16.656  0.1189  0.4533  0.2005
  466TMC3     H 6940   3.892   3.671  16.598  0.3807  0.9811  5.1271
  466TMC3    H1 6941   4.016   3.265  16.620  2.0758 -1.6960 -0.1553
  466TMC3    H2 6942   4.307   3.573  16.545 -0.3598  0.5077 -0.0847
  466TMC3    C7 6943   4.280   3.344  16.658  0.1654 -0.4586 -0.2417
  466TMC3    C8 6944   4.144   3.774  16.566 -0.6801  0.1356  0.5603
  466TMC3    O1 6945   4.316   3.234  16.620  0.3971  0.1037  0.1956
  466TMC3    O2 6946   4.243   3.786  16.497 -0.2858  0.1387  1.0684
  467TMC3    C1 6947   0.594   2.015  13.873  0.2992 -0.2096 -0.3285
  467TMC3    C2 6948   0.596   2.053  13.735 -0.7649  0.3604  0.4536
  467TMC3    C3 6949   0.482   2.060  13.658  0.1664  0.1606  0.4083
  467TMC3    C4 6950   0.476   1.983  13.938  0.7793 -0.1890  0.4174
  467TMC3    C5 6951   0.368   1.987  13.856  0.4159  0.3509 -0.2561
  467TMC3    C6 6952   0.366   2.033  13.724  0.7679  0.4496  0.2901
  467TMC3     C 6953   0.733   1.986  13.921  0.0403 -0.3454  0.2994
  467TMC3     O 6954   0.825   2.041  13.863 -0.0337  0.6810  0.1230
  467TMC3     H 6955   0.685   2.070  13.677 -1.4839  0.0017 -0.7445
  467TMC3    H1 6956   0.481   1.939  14.037  1.2376 -1.3411 -0.1206
  467TMC3    H2 6957   0.270   2.047  13.674  0.7382  1.1949  0.5515
  467TMC3    C7 6958   0.243   1.959  13.917 -0.2275 -0.4443 -0.7502
  467TMC3    C8 6959   0.487   2.168  13.558  0.2033 -0.0096 -0.2308
  467TMC3    O1 6960   0.238   1.876  14.009 -0.1647 -0.1528  0.1355
  467TMC3    O2 6961   0.571   2.259  13.567 -0.1732 -0.3032  0.1564
  468MPD2     C 6962   3.716   4.184  10.698  0.2104 -0.0953 -0.6509
  468MPD2    C1 6963   3.839   4.196  10.762  0.2214  0.1387 -0.4878
  468MPD2    C2 6964   3.887   4.084  10.830 -0.7441 -0.4948 -0.9423
  468MPD2    C3 6965   3.822   3.961  10.828  0.2592  0.0783  0.1440
  468MPD2    C4 6966   3.696   3.958  10.771 -0.0737 -0.1973  0.2791
  468MPD2    C5 6967   3.647   4.071  10.708 -0.2124 -0.0286  0.1181
  468MPD2     H 6968   3.986   4.088  10.874 -1.3965  0.7814  0.3817
  468MPD2    H1 6969   3.630   3.872  10.774  1.5993 -1.4028  2.6576
  468MPD2    H2 6970   3.672   4.262  10.637 -1.2041  0.7847  1.4952
  468MPD2    H3 6971   3.549   4.062  10.663 -0.0116  1.0136 -0.5191
  468MPD2     N 6972   3.859   3.842  10.897 -0.4968 -0.4175 -0.2972
  468MPD2    H5 6973   3.790   3.767  10.895 -1.7101  0.6963 -0.0553
  468MPD2    N1 6974   3.917   4.312  10.764 -0.7786  0.1969 -0.4737
  468MPD2    H7 6975   4.008   4.311  10.809 -1.4409 -0.0937  0.8455
  469TMC3    C1 6976   3.967   4.546  10.724  0.9091 -0.1790 -0.5395
  469TMC3    C2 6977   4.082   4.529  10.800  0.1962 -0.3214  0.2658
  469TMC3    C3 6978   4.126   4.644  10.871  0.6049 -0.0562 -0.3580
  469TMC3    C4 6979   3.909   4.668  10.713  0.0729 -0.5142 -0.3664
  469TMC3    C5 6980   3.952   0.043  10.791  0.2071 -0.8404 -0.0037
  469TMC3    C6 6981   4.063   0.038  10.876  1.5316  0.3092  0.5023
  469TMC3     C 6982   3.875   4.436  10.713  0.2698  0.0753 -0.0452
  469TMC3     O 6983   3.767   4.464  10.657 -0.7223 -0.3581 -0.5112
  469TMC3     H 6984   4.137   4.437  10.812  0.3016 -0.4154 -0.9386
  469TMC3    H1 6985   3.817   4.685  10.658  0.4679 -0.3243 -0.9741
  469TMC3    H2 6986   4.111   0.123  10.921  0.8053  1.6176 -1.1892
  469TMC3    C7 6987   3.855   0.153  10.814 -0.6354 -0.4985  0.4288
  469TMC3    C8 6988   4.262   4.635  10.928 -0.1408 -0.3055 -0.1185
  469TMC3    O1 6989   3.763   0.168  10.737  0.2844  0.4675 -0.2315
  469TMC3    O2 6990   4.340   4.546  10.892 -0.4356  0.5487  0.8156
  470TMC3    C1 6991   2.071   1.887   0.510  0.2742 -0.2714 -0.1677
  470TMC3    C2 6992   2.101   2.010   0.556 -0.4061 -0.5897 -0.1590
  470TMC3    C3 6993   2.103   2.028   0.696 -1.0402  0.6429  0.3712
  470TMC3    C4 6994   2.049   1.778   0.593  0.3030 -0.9434 -0.2121
  470TMC3    C5 6995   2.060   1.799   0.730 -0.2070  0.4878  0.3826
  470TMC3    C6 6996   2.083   1.923   0.781  0.2389  0.1690  0.3302
  470TMC3     C 6997   2.074   1.857   0.362 -0.1353  0.6706  0.5016
  470TMC3     O 6998   2.064   1.737   0.331  0.3665 -0.3424  0.7122
  470TMC3     H 6999   2.137   2.086   0.488  0.0529  0.8733  1.7269
  470TMC3    H1 7000   2.031   1.678   0.555 -0.8670 -0.1411 -1.7644
  470TMC3    H2 7001   2.086   1.942   0.888 -0.5725 -0.1178  0.4028
  470TMC3    C7 7002   2.090   1.676   0.804 -0.2474  0.0668  0.3051
  470TMC3    C8 7003   2.113   2.156   0.754 -0.1188  0.0501  0.2313
  470TMC3    O1 7004   2.067   1.576   0.742  0.0086  0.3897 -0.4190
  470TMC3    O2 7005   2.099   2.176   0.877  0.5273  0.0015  0.2659
  471MPD2     C 7006   1.979   2.458  17.287  0.6385  0.3325 -0.2245
  471MPD2    C1 7007   2.052   2.347  17.253 -0.1783 -0.2050 -1.2286
  471MPD2    C2 7008   2.159   2.313  17.330  0.0045 -0.4751  0.2156
  471MPD2    C3 7009   2.201   2.384  17.442 -0.1536  0.4795 -1.1272
  471MPD2    C4 7010   2.125   2.495  17.475 -0.3058 -0.3486  0.7569
  471MPD2    C5 7011   2.011   2.525  17.401  0.5706  0.0562 -0.4660
  471MPD2     H 7012   2.216   2.224  17.309 -2.3333 -2.0624  0.5511
  471MPD2    H1 7013   2.149   2.543  17.569  0.2852 -1.6227  1.2564
  471MPD2    H2 7014   1.893   2.493  17.231  1.4222  1.3712 -0.7749
  471MPD2    H3 7015   1.949   2.610  17.430  1.0124  0.7307 -1.4992
  471MPD2     N 7016   2.306   2.352  17.526  0.0421 -0.0583  0.0650
  471MPD2    H5 7017   2.320   2.399  17.615  1.3638  2.6419 -1.5658
  471MPD2    N1 7018   2.035   2.275  17.137 -0.3708  0.0824 -0.3643
  471MPD2    H7 7019   2.093   2.193  17.124 -0.7521  0.1304 -2.4413
  472TMC3    C1 7020   1.946   2.210  16.933 -0.1090  0.0968 -0.7623
  472TMC3    C2 7021   1.893   2.249  16.814  0.2068 -0.0253  0.1012
  472TMC3    C3 7022   1.864   2.146  16.727 -0.0753  0.3274  0.1779
  472TMC3    C4 7023   1.957   2.076  16.964 -0.7376  0.0348 -0.1051
  472TMC3    C5 7024   1.923   1.982  16.874 -0.7376  0.4714 -0.4518
  472TMC3    C6 7025   1.882   2.012  16.751 -0.1799  0.1757  0.0132
  472TMC3     C 7026   1.943   2.308  17.043  0.2740 -0.3923  0.3102
  472TMC3     O 7027   1.886   2.414  17.026  0.2489 -0.4637  0.1859
  472TMC3     H 7028   1.874   2.353  16.792 -2.5708 -0.5461  0.0725
  472TMC3    H1 7029   1.980   2.043  17.065  0.7823 -1.1202 -0.8315
  472TMC3    H2 7030   1.876   1.934  16.676  3.0971 -0.2230  0.1568
  472TMC3    C7 7031   1.931   1.835  16.918  0.3591 -0.8379  0.8590
  472TMC3    C8 7032   1.803   2.182  16.596 -0.6083  0.2116  0.2153
  472TMC3    O1 7033   2.004   1.814  17.011 -0.5336  0.2802 -0.5858
  472TMC3    O2 7034   1.811   2.294  16.554  0.1336  0.4070  0.4346
  473MPD2     C 7035   2.010   4.050  14.271 -0.6175 -0.3076  0.1598
  473MPD2    C1 7036   2.009   4.154  14.184 -0.1854 -0.3032 -0.0360
  473MPD2    C2 7037   2.068   4.273  14.220 -0.4786 -0.2196 -0.7335
  473MPD2    C3 7038   2.114   4.291  14.347  0.6410 -0.0536 -0.7788
  473MPD2    C4 7039   2.124   4.183  14.432 -0.2141  0.2919 -0.3117
  473MPD2    C5 7040   2.073   4.064  14.391  0.1745  0.1585  0.4477
  473MPD2     H 7041   2.072   4.350  14.143  0.3480  1.1934  0.7409
  473MPD2    H1 7042   2.168   4.194  14.530 -1.5001  0.7559  0.2244
  473MPD2    H2 7043   1.962   3.956  14.251  1.3267 -1.5987  1.5625
  473MPD2    H3 7044   2.092   3.980  14.456 -0.7262  0.1094  0.6351
  473MPD2     N 7045   2.163   4.415  14.383 -0.1174  0.2975  0.2575
  473MPD2    H5 7046   2.243   4.409  14.446 -1.4839  0.0114  1.9695
  473MPD2    N1 7047   1.938   4.160  14.064 -0.0613  0.0521  0.2160
  473MPD2    H7 7048   1.948   4.243  14.006  0.8050  0.3477  0.7981
  474TMC3    C1 7049   2.183   4.645  14.361  0.1804  0.6988  0.9509
  474TMC3    C2 7050   2.151   0.021  14.275  0.5882 -0.1341 -1.0080
  474TMC3    C3 7051   2.159   0.153  14.315  0.5062  0.7941 -0.0521
  474TMC3    C4 7052   2.236   4.671  14.485 -0.3683  0.5045  0.1803
  474TMC3    C5 7053   2.239   0.073  14.527 -0.1646 -0.2495  0.6131
  474TMC3    C6 7054   2.191   0.176  14.447  0.1831 -0.7415 -0.6896
  474TMC3     C 7055   2.109   4.527  14.325  0.3623 -0.1352  0.3650
  474TMC3     O 7056   1.999   4.551  14.272 -0.0838  0.1377 -0.1529
  474TMC3     H 7057   2.115   4.721  14.176 -0.0719  0.1085 -0.8305
  474TMC3    H1 7058   2.280   4.593  14.546 -0.7448 -0.1040 -0.3190
  474TMC3    H2 7059   2.209   0.278  14.479  1.5605 -0.2814 -2.8856
  474TMC3    C7 7060   2.259   0.104  14.670  0.7705 -0.4241 -0.4807
  474TMC3    C8 7061   2.173   0.240  14.212  0.0415 -0.0224  0.0170
  474TMC3    O1 7062   2.294   0.217  14.703 -0.2675 -0.0630 -0.1627
  474TMC3    O2 7063   2.208   0.183  14.110  1.3411 -0.2552  1.1013
  475MPD2     C 7064   0.259   2.399  10.659 -0.3808  0.6745  0.3881
  475MPD2    C1 7065   0.272   2.308  10.563 -1.3898 -0.4173  0.8578
  475MPD2    C2 7066   0.157   2.283  10.480 -0.1113  0.2208  0.4961
  475MPD2    C3 7067   0.041   2.351  10.512 -0.0360  0.3093 -0.2052
  475MPD2    C4 7068   0.033   2.435  10.619 -0.1601  0.1625 -0.2756
  475MPD2    C5 7069   0.143   2.462  10.683  0.3481  0.2798  0.1299
  475MPD2     H 7070   0.160   2.224  10.390 -2.0517  1.2054 -0.1981
  475MPD2    H1 7071   4.666   2.483  10.649 -0.1840 -0.6894  0.9818
  475MPD2    H2 7072   0.348   2.424  10.716  0.7593 -0.8379 -0.7109
  475MPD2    H3 7073   0.138   2.511  10.780 -1.0385  0.3363  0.0270
  475MPD2     N 7074   4.663   2.332  10.420 -0.4027 -0.1332  0.3592
  475MPD2    H5 7075   4.688   2.280  10.337 -0.8585  2.1152 -1.1919
  475MPD2    N1 7076   0.407   2.268  10.527  0.3070  0.4744  0.0490
  475MPD2    H7 7077   0.481   2.316  10.577 -0.8792  0.4727  1.8174
  476TMC3    C1 7078   0.576   2.155  10.391 -0.6255 -0.7778 -0.1677
  476TMC3    C2 7079   0.603   2.118  10.263 -0.3614  0.3927  0.2193
  476TMC3    C3 7080   0.728   2.117  10.213 -0.1069  0.7844 -0.7326
  476TMC3    C4 7081   0.673   2.210  10.471 -0.0497  0.2704 -0.2699
  476TMC3    C5 7082   0.800   2.209  10.416 -0.5023 -0.3900 -0.1846
  476TMC3    C6 7083   0.825   2.159  10.295  0.0168 -0.2214 -0.2986
  476TMC3     C 7084   0.437   2.177  10.425 -0.9595 -0.2035 -0.5057
  476TMC3     O 7085   0.357   2.104  10.370  0.2860 -0.3821 -0.1430
  476TMC3     H 7086   0.524   2.078  10.200 -0.2347 -0.9835  0.9200
  476TMC3    H1 7087   0.665   2.224  10.578 -1.0594  0.6264 -0.3992
  476TMC3    H2 7088   0.924   2.153  10.252  0.1455 -2.4866  0.3130
  476TMC3    C7 7089   0.913   2.254  10.499  0.3196  0.0704  0.0411
  476TMC3    C8 7090   0.763   2.054  10.085  0.3391  0.1448  0.0821
  476TMC3    O1 7091   1.021   2.215  10.462  0.0003  0.2722  0.4813
  476TMC3    O2 7092   0.870   2.078  10.034 -0.8337 -0.0263  0.4015
  477MPD2     C 7093   2.495   3.450  12.017 -0.2370  0.3446  0.2129
  477MPD2    C1 7094   2.452   3.544  12.111  0.7100 -0.5322  0.2698
  477MPD2    C2 7095   2.520   3.554  12.232 -0.4291  0.4277  0.1286
  477MPD2    C3 7096   2.634   3.468  12.251 -0.0717  0.0281  0.1969
  477MPD2    C4 7097   2.664   3.378  12.151 -0.2759  0.2303 -0.0397
  477MPD2    C5 7098   2.596   3.368  12.040  0.0212 -0.1371 -0.7888
  477MPD2     H 7099   2.494   3.626  12.308  1.8791  1.3344  0.0659
  477MPD2    H1 7100   2.746   3.308  12.161 -1.4092 -0.8717  1.4608
  477MPD2    H2 7101   2.446   3.430  11.922 -0.7006  0.7299  0.3745
  477MPD2    H3 7102   2.627   3.303  11.959  2.5242  1.8784 -1.4526
  477MPD2     N 7103   2.714   3.479  12.369  0.8320 -0.4668  0.5928
  477MPD2    H5 7104   2.682   3.554  12.430  0.8968 -0.0065  0.0693
  477MPD2    N1 7105   2.343   3.629  12.073 -0.3745 -0.2953 -0.5949
  477MPD2    H7 7106   2.313   3.627  11.976 -3.7324 -0.1610  0.4276
  478TMC3    C1 7107   2.211   3.823  12.084  0.3365  0.6876 -0.1501
  478TMC3    C2 7108   2.128   3.904  12.159 -0.4331 -0.6909 -0.8762
  478TMC3    C3 7109   2.095   4.025  12.113  0.7911 -0.6091 -0.1707
  478TMC3    C4 7110   2.257   3.861  11.958  0.3078  0.1167  0.4720
  478TMC3    C5 7111   2.208   3.983  11.906 -0.0389 -0.1862  0.2024
  478TMC3    C6 7112   2.140   4.068  11.988 -0.4183  0.4469 -1.0727
  478TMC3     C 7113   2.279   3.716  12.158  0.6106 -0.2495 -0.5222
  478TMC3     O 7114   2.287   3.724  12.281 -0.2455 -0.1574  0.2544
  478TMC3     H 7115   2.092   3.870  12.256  2.6920  0.0474  0.5178
  478TMC3    H1 7116   2.336   3.807  11.908  0.1059 -0.3016  0.6053
  478TMC3    H2 7117   2.098   4.157  11.943  2.2355  3.1746  1.7978
  478TMC3    C7 7118   2.260   4.026  11.777  0.2412  0.1654 -0.0356
  478TMC3    C8 7119   2.041   4.120  12.206  0.0740 -0.8001 -0.1215
  478TMC3    O1 7120   2.378   3.998  11.757  0.2881 -0.3035  0.1862
  478TMC3    O2 7121   2.058   4.085  12.324 -0.1552 -0.4762 -1.2212
  479MPD2     C 7122   1.875   1.945  15.269 -0.1798  0.1809  0.5492
  479MPD2    C1 7123   1.823   1.859  15.358 -0.3007 -0.2780 -0.2413
  479MPD2    C2 7124   1.891   1.845  15.477  0.8854  1.0540 -0.7815
  479MPD2    C3 7125   2.009   1.924  15.505 -0.3007 -0.0828  0.0271
  479MPD2    C4 7126   2.057   1.999  15.404 -0.2821  0.2728 -0.0846
  479MPD2    C5 7127   1.995   2.006  15.282 -0.0434 -0.1074  0.2220
  479MPD2     H 7128   1.857   1.775  15.553  3.0050  1.5937  0.6933
  479MPD2    H1 7129   2.151   2.051  15.420 -1.1765  1.0058  2.7298
  479MPD2    H2 7130   1.830   1.964  15.172 -0.2457  1.7575  0.8930
  479MPD2    H3 7131   2.039   2.062  15.200  1.1743 -1.0743  0.2169
  479MPD2     N 7132   2.082   1.928  15.630  0.3609  0.1496 -0.4735
  479MPD2    H5 7133   2.170   1.980  15.622 -1.1749  2.5165 -2.1188
  479MPD2    N1 7134   1.705   1.787  15.321 -0.5612 -0.6645  0.9326
  479MPD2    H7 7135   1.688   1.786  15.221 -0.7209 -4.3786  1.0053
  480TMC3    C1 7136   1.741   1.741  15.881 -0.4964  0.4158  0.0513
  480TMC3    C2 7137   1.643   1.811  15.821 -0.7954  0.6058  0.6661
  480TMC3    C3 7138   1.672   1.921  15.744 -0.4616 -0.7902 -0.7918
  480TMC3    C4 7139   1.871   1.773  15.870  0.6727  0.4497 -0.6426
  480TMC3    C5 7140   1.900   1.869  15.777 -0.1327  1.0217 -0.2745
  480TMC3    C6 7141   1.803   1.947  15.724 -0.4257  0.0003 -0.1893
  480TMC3     C 7142   1.712   1.603  15.906 -0.3698 -0.3180  0.6537
  480TMC3     O 7143   1.771   1.541  15.997  0.0311  0.2926  0.1453
  480TMC3     H 7144   1.541   1.795  15.852 -1.2564  0.6526 -0.8390
  480TMC3    H1 7145   1.942   1.706  15.917  0.7673 -0.3320 -1.9057
  480TMC3    H2 7146   1.835   2.039  15.677 -0.5070  0.3627  0.4609
  480TMC3    C7 7147   2.041   1.890  15.756  0.1956 -0.6525  0.7257
  480TMC3    C8 7148   1.568   1.987  15.660 -0.5793  0.0327 -0.4836
  480TMC3    O1 7149   2.107   1.879  15.860 -0.0273  0.7014  0.4644
  480TMC3    O2 7150   1.454   1.980  15.691 -0.1291  0.0832 -0.0213
  481MPD2     C 7151   3.445   1.308  14.650 -0.1079  0.2211  0.3670
  481MPD2    C1 7152   3.314   1.289  14.680  0.1116 -0.1737  1.0886
  481MPD2    C2 7153   3.273   1.305  14.814 -0.8965 -0.5832 -0.8636
  481MPD2    C3 7154   3.367   1.347  14.904  1.0665 -1.6685  0.1955
  481MPD2    C4 7155   3.500   1.363  14.872 -0.2954  0.4918  0.2189
  481MPD2    C5 7156   3.541   1.335  14.744  0.3591 -1.0376 -0.1541
  481MPD2     H 7157   3.168   1.296  14.837 -1.0553  1.3145 -0.8095
  481MPD2    H1 7158   3.569   1.386  14.952  0.6943 -1.2333 -0.1352
  481MPD2    H2 7159   3.474   1.305  14.545  0.5832  1.5375  0.5266
  481MPD2    H3 7160   3.646   1.337  14.717  0.4881 -0.9365  0.3509
  481MPD2     N 7161   3.339   1.368  15.039 -0.0581 -0.1501  0.1306
  481MPD2    H5 7162   3.417   1.385  15.102 -1.4678  2.2372  1.2342
  481MPD2    N1 7163   3.217   1.277  14.582 -0.7619  0.1548  0.3220
  481MPD2    H7 7164   3.249   1.287  14.486  0.7445 -0.0009  0.8173
  482TMC3    C1 7165   3.009   1.248  14.477  0.4773  0.1745  0.7135
  482TMC3    C2 7166   2.929   1.139  14.451 -0.5699 -0.3556  0.5166
  482TMC3    C3 7167   2.891   1.118  14.316 -0.2489 -0.1650  0.5595
  482TMC3    C4 7168   3.036   1.342  14.380  0.4275  0.4601 -0.0479
  482TMC3    C5 7169   3.005   1.316  14.250 -0.4079 -0.8516 -0.1636
  482TMC3    C6 7170   2.919   1.213  14.218 -0.1278  0.6989 -0.1769
  482TMC3     C 7171   3.083   1.255  14.603 -0.0241 -0.4208  0.0190
  482TMC3     O 7172   3.023   1.210  14.699 -0.0334  0.3347  0.1060
  482TMC3     H 7173   2.908   1.063  14.526  1.7512 -0.6445  0.8598
  482TMC3    H1 7174   3.087   1.436  14.396 -1.8910  1.9149 -1.1172
  482TMC3    H2 7175   2.890   1.205  14.114 -2.6225 -1.0154  0.6611
  482TMC3    C7 7176   2.987   1.427  14.153 -0.1884  0.0784  0.1875
  482TMC3    C8 7177   2.808   1.002  14.282  0.1655  0.4555  0.2411
  482TMC3    O1 7178   2.944   1.532  14.202  0.4968  0.2500  0.4796
  482TMC3    O2 7179   2.798   0.913  14.364 -0.2646  0.2656 -0.1351
  483TMC3    C1 7180   1.470   0.652   1.117 -0.1978  0.7953  0.6858
  483TMC3    C2 7181   1.483   0.783   1.167 -0.2197  0.5360 -0.3608
  483TMC3    C3 7182   1.554   0.801   1.282  0.1491 -0.4359 -0.3263
  483TMC3    C4 7183   1.494   0.544   1.191  0.3543 -0.5151 -0.3275
  483TMC3    C5 7184   1.549   0.568   1.314 -0.1148 -0.3830  0.0104
  483TMC3    C6 7185   1.575   0.697   1.363 -0.8201 -0.0143 -0.3307
  483TMC3     C 7186   1.388   0.637   1.001  0.2302  0.0787  0.6575
  483TMC3     O 7187   1.344   0.740   0.951 -0.1084  0.1425 -0.0643
  483TMC3     H 7188   1.451   0.870   1.110  2.5015  1.3543 -0.6589
  483TMC3    H1 7189   1.478   0.442   1.160  1.6463  0.0792 -2.8827
  483TMC3    H2 7190   1.635   0.716   1.452  1.7691 -0.0578 -2.0934
  483TMC3    C7 7191   1.647   0.470   1.360 -0.2476  0.3493 -0.4134
  483TMC3    C8 7192   1.681   0.871   1.249 -0.1356 -0.0117  0.3230
  483TMC3    O1 7193   1.757   0.512   1.396 -0.0958 -0.0439  0.5124
  483TMC3    O2 7194   1.711   0.878   1.133  0.0992 -0.1324  0.4832
  484MPD2     C 7195   3.832   2.965  12.549  0.1367 -0.3684  0.1484
  484MPD2    C1 7196   3.828   2.833  12.512 -0.1131 -0.1998 -0.6001
  484MPD2    C2 7197   3.927   2.775  12.437 -0.3963  0.3977 -0.0318
  484MPD2    C3 7198   4.043   2.848  12.409  0.6232  0.4585 -0.1788
  484MPD2    C4 7199   4.046   2.981  12.443 -0.2515  0.0481 -0.3391
  484MPD2    C5 7200   3.941   3.036  12.512 -0.0228  0.2608  0.4580
  484MPD2     H 7201   3.912   2.674  12.401 -1.7987  0.7002 -0.2786
  484MPD2    H1 7202   4.130   3.049  12.431 -0.9863  0.8822 -0.7823
  484MPD2    H2 7203   3.759   3.015  12.612 -2.3724 -0.8461 -2.3588
  484MPD2    H3 7204   3.952   3.140  12.541 -2.1240  0.3585  0.9015
  484MPD2     N 7205   4.154   2.791  12.348 -0.7231 -1.0471  0.7198
  484MPD2    H5 7206   4.223   2.861  12.322 -2.3360  0.5380  0.7023
  484MPD2    N1 7207   3.719   2.755  12.566 -0.0026  0.5500 -0.3584
  484MPD2    H7 7208   3.659   2.799  12.635  1.0044 -1.2648  1.6798
  485TMC3    C1 7209   4.315   2.634  12.280  0.4553 -0.1630 -0.8455
  485TMC3    C2 7210   4.361   2.507  12.287 -0.7028 -0.6314 -0.5862
  485TMC3    C3 7211   4.465   2.476  12.209 -0.6547 -0.0544  0.0159
  485TMC3    C4 7212   4.374   2.725  12.191 -0.1651  0.5994 -0.0767
  485TMC3    C5 7213   4.477   2.681  12.116 -0.4019  0.0275  0.5951
  485TMC3    C6 7214   4.515   2.551  12.115 -0.9656  0.2589  0.4150
  485TMC3     C 7215   4.193   2.665  12.354  0.2837 -0.0910 -0.0029
  485TMC3     O 7216   4.146   2.577  12.422 -0.0958 -0.3475  0.1370
  485TMC3     H 7217   4.336   2.429  12.358  1.4739 -0.0921  0.7773
  485TMC3    H1 7218   4.329   2.822  12.174  0.1259  0.5897 -0.9278
  485TMC3    H2 7219   4.589   2.508  12.049 -3.0380 -2.1349 -0.3469
  485TMC3    C7 7220   4.588   2.769  12.096 -0.0509  0.0740  0.0144
  485TMC3    C8 7221   4.576   2.405  12.269 -0.8571 -0.2371  0.0228
  485TMC3    O1 7222   4.563   2.888  12.075 -0.0220 -0.6323  0.1293
  485TMC3    O2 7223   4.680   2.470  12.272 -0.9610  0.1289  0.1370
  486MPD2     C 7224   1.234   1.656  13.571 -0.3478 -0.3942 -0.1561
  486MPD2    C1 7225   1.133   1.618  13.489  0.1284  0.2014 -0.0711
  486MPD2    C2 7226   1.053   1.710  13.421  0.0386 -0.0298 -0.1311
  486MPD2    C3 7227   1.065   1.845  13.449  0.4513  0.0403 -0.7393
  486MPD2    C4 7228   1.171   1.883  13.533 -0.1450 -0.2065 -0.5757
  486MPD2    C5 7229   1.259   1.790  13.592 -0.0216 -0.5700  0.4618
  486MPD2     H 7230   0.962   1.671  13.378  1.5864 -2.6137 -1.1093
  486MPD2    H1 7231   1.187   1.983  13.572 -0.1963 -0.7211  0.7866
  486MPD2    H2 7232   1.305   1.583  13.610 -1.5648 -0.8848  1.1368
  486MPD2    H3 7233   1.336   1.816  13.664  1.7360 -0.4798 -1.4342
  486MPD2     N 7234   0.970   1.938  13.398 -0.0571 -0.1751  0.0382
  486MPD2    H5 7235   0.894   1.911  13.336 -0.9301  1.6472  0.3114
  486MPD2    N1 7236   1.093   1.483  13.496  0.4590 -0.5399 -0.0971
  486MPD2    H7 7237   1.142   1.422  13.560  0.3999 -0.3069  0.1701
  487TMC3    C1 7238   0.973   1.279  13.434  0.3672  0.7550  0.1288
  487TMC3    C2 7239   0.856   1.233  13.383 -0.1812  0.0728 -0.8832
  487TMC3    C3 7240   0.799   1.117  13.426  0.1294 -0.1890  0.5156
  487TMC3    C4 7241   1.032   1.210  13.537 -0.3416  0.0050 -0.0623
  487TMC3    C5 7242   0.972   1.093  13.584 -0.0323 -0.0362  0.8207
  487TMC3    C6 7243   0.868   1.031  13.511  0.6123 -0.3503  0.6557
  487TMC3     C 7244   1.014   1.416  13.401  0.3660  0.0979 -0.4246
  487TMC3     O 7245   0.964   1.455  13.297 -0.1375 -0.2317  0.7177
  487TMC3     H 7246   0.809   1.300  13.312  0.1883 -0.7919 -1.9525
  487TMC3    H1 7247   1.115   1.255  13.589  0.4330  0.1956 -1.4712
  487TMC3    H2 7248   0.815   0.947  13.553  1.1284 -2.3267 -2.6960
  487TMC3    C7 7249   1.021   1.042  13.711 -0.9239 -0.1235 -0.1861
  487TMC3    C8 7250   0.654   1.128  13.428  0.3860 -0.3508 -0.1836
  487TMC3    O1 7251   1.119   1.103  13.757 -0.7071 -0.7371 -0.1456
  487TMC3    O2 7252   0.614   1.242  13.417  0.2051  0.6144 -0.2381
  488MPD2     C 7253   1.401   3.488  16.561 -0.5084  0.2564  0.3358
  488MPD2    C1 7254   1.426   3.607  16.628  0.5538  0.7079 -0.4635
  488MPD2    C2 7255   1.427   3.599  16.767 -0.3802  0.1752  0.4240
  488MPD2    C3 7256   1.402   3.483  16.843  0.5663 -0.4164  0.2080
  488MPD2    C4 7257   1.364   3.370  16.769  0.0107 -0.1691  0.1328
  488MPD2    C5 7258   1.373   3.376  16.631  0.2544  0.1465  0.2218
  488MPD2     H 7259   1.433   3.687  16.830 -0.0877 -0.0470  0.7038
  488MPD2    H1 7260   1.328   3.280  16.817 -1.5721  0.6917  0.5866
  488MPD2    H2 7261   1.391   3.479  16.454 -1.1585  0.7013  0.3510
  488MPD2    H3 7262   1.326   3.303  16.565 -1.6459  1.8926 -0.3583
  488MPD2     N 7263   1.411   3.496  16.985  0.1106  0.5669 -0.3249
  488MPD2    H5 7264   1.452   3.584  17.016  1.0794  0.4186 -1.1646
  488MPD2    N1 7265   1.446   3.729  16.565  0.0162 -0.6441  0.1594
  488MPD2    H7 7266   1.453   3.812  16.623 -0.1430 -0.2310 -0.4109
  489TMC3    C1 7267   1.405   3.454  17.217 -0.4697 -0.2006 -0.4280
  489TMC3    C2 7268   1.476   3.571  17.226  0.0196 -0.4823  0.5656
  489TMC3    C3 7269   1.439   3.649  17.332  0.3622  0.7813  0.3815
  489TMC3    C4 7270   1.329   3.409  17.321  0.1175 -0.2710 -0.2959
  489TMC3    C5 7271   1.327   3.479  17.435  0.5900 -0.5887 -0.4618
  489TMC3    C6 7272   1.356   3.611  17.429 -0.2370  0.7070 -0.3147
  489TMC3     C 7273   1.386   3.404  17.079  0.6332  0.8524 -0.0380
  489TMC3     O 7274   1.339   3.292  17.071  0.2887 -0.1529 -1.0811
  489TMC3     H 7275   1.544   3.611  17.151  0.6483 -1.1080  0.8060
  489TMC3    H1 7276   1.303   3.304  17.314 -1.3413 -0.0513  1.7046
  489TMC3    H2 7277   1.335   3.679  17.511  2.4002 -0.4427  1.3005
  489TMC3    C7 7278   1.289   3.431  17.560  0.1703  0.7976  0.8012
  489TMC3    C8 7279   1.497   3.781  17.322 -0.6912 -0.3379  0.2359
  489TMC3    O1 7280   1.346   3.482  17.654  0.3596  0.1554  0.1685
  489TMC3    O2 7281   1.600   3.796  17.253 -0.2163 -0.3560 -0.3528
  490MPD2     C 7282   2.090   3.555   0.022 -0.0244 -0.2009  0.0951
  490MPD2    C1 7283   2.123   3.433   0.081 -0.5602  0.0572  0.0542
  490MPD2    C2 7284   2.210   3.433   0.190 -0.4711  0.0561  0.4700
  490MPD2    C3 7285   2.266   3.550   0.234 -0.1657  0.1216  0.4783
  490MPD2    C4 7286   2.239   3.669   0.168 -0.1272 -0.9191 -0.3932
  490MPD2    C5 7287   2.149   3.672   0.060  0.0560  0.4051 -0.3653
  490MPD2     H 7288   2.232   3.339   0.239  1.1627  1.3189  2.1037
  490MPD2    H1 7289   2.286   3.762   0.200 -2.5600 -0.4067  1.7222
  490MPD2    H2 7290   2.021   3.554  17.642  1.0595  0.5238 -0.7879
  490MPD2    H3 7291   2.126   3.760   0.001  1.8937  0.2645 -1.2715
  490MPD2     N 7292   2.371   3.560   0.326  0.1175  0.0994  0.1190
  490MPD2    H5 7293   2.428   3.643   0.312  0.0394  0.4219  1.7141
  490MPD2    N1 7294   2.084   3.306   0.027 -0.2829 -0.1520 -0.2856
  490MPD2    H7 7295   2.094   3.231   0.094 -1.4784 -1.0054 -1.0824
  491TMC3    C1 7296   1.968   3.162  17.587  0.3638  0.2101  0.6710
  491TMC3    C2 7297   1.940   3.084  17.695  0.1926 -0.1929  0.1655
  491TMC3    C3 7298   1.918   2.945  17.671 -0.0439  0.6031 -0.0084
  491TMC3    C4 7299   1.962   3.113  17.461 -0.5829  0.6751 -0.2386
  491TMC3    C5 7300   1.960   2.972  17.442  0.1494 -0.4601  1.1940
  491TMC3    C6 7301   1.933   2.889  17.552  0.4812  0.6695  0.4746
  491TMC3     C 7302   2.015   3.297  17.614 -1.2525 -0.9376 -0.1704
  491TMC3     O 7303   2.034   3.362  17.517  0.2897  0.2645 -0.1187
  491TMC3     H 7304   1.915   3.123   0.089 -0.0414 -0.4295  0.2012
  491TMC3    H1 7305   1.978   3.180  17.377  0.0774  0.3040 -0.4153
  491TMC3    H2 7306   1.911   2.784  17.544  1.7614  0.2570  2.1744
  491TMC3    C7 7307   1.909   2.925  17.313  0.3886 -0.1460 -0.5308
  491TMC3    C8 7308   1.860   2.871   0.080 -0.1162  0.1169  0.8068
  491TMC3    O1 7309   1.827   2.835  17.323 -0.1113  0.0279 -0.3902
  491TMC3    O2 7310   1.896   2.913   0.190 -0.2387  0.3137  0.2072
  492MPD2     C 7311   2.365   2.432  11.536  0.7456 -1.1936  0.2298
  492MPD2    C1 7312   2.271   2.361  11.471  0.1962 -0.0655 -0.2817
  492MPD2    C2 7313   2.206   2.255  11.536 -0.0348 -0.0730 -0.1077
  492MPD2    C3 7314   2.225   2.244  11.673 -0.4292 -0.4006  0.5824
  492MPD2    C4 7315   2.321   2.322  11.739  0.0428  0.4098  0.5023
  492MPD2    C5 7316   2.388   2.416  11.664  0.7901  0.0549 -0.2356
  492MPD2     H 7317   2.134   2.196  11.482  0.4853 -0.1130 -0.7538
  492MPD2    H1 7318   2.350   2.291  11.839  1.4801  4.0746  1.2282
  492MPD2    H2 7319   2.426   2.509  11.490  0.5543 -0.1235  1.7614
  492MPD2    H3 7320   2.463   2.473  11.718  0.2657  0.0881  0.4686
  492MPD2     N 7321   2.148   2.151  11.746 -0.2610 -0.2814  0.0116
  492MPD2    H5 7322   2.146   2.153  11.847  0.8553 -1.5890  0.0600
  492MPD2    N1 7323   2.258   2.389  11.330 -0.1803 -0.5349 -0.0178
  492MPD2    H7 7324   2.320   2.464  11.299 -1.5243  0.8219  0.5944
  493TMC3    C1 7325   2.185   2.367  11.101  0.0716  0.1912  0.5490
  493TMC3    C2 7326   2.297   2.436  11.058 -0.1603 -0.7282 -0.5071
  493TMC3    C3 7327   2.320   2.448  10.921  0.5573 -0.4269 -0.1880
  493TMC3    C4 7328   2.118   2.301  11.004  0.3495 -0.5000  0.6918
  493TMC3    C5 7329   2.138   2.321  10.870 -0.4807 -0.2359  0.2301
  493TMC3    C6 7330   2.241   2.391  10.825  0.1581 -0.2712 -0.1380
  493TMC3     C 7331   2.187   2.313  11.241 -0.7548 -0.9811  0.3070
  493TMC3     O 7332   2.119   2.216  11.264 -0.1280 -0.3823 -0.2504
  493TMC3     H 7333   2.377   2.461  11.125  0.4520 -1.0025 -1.1388
  493TMC3    H1 7334   2.026   2.253  11.035 -0.6922 -0.9800 -3.2133
  493TMC3    H2 7335   2.266   2.394  10.720 -0.7053  1.9584 -0.2724
  493TMC3    C7 7336   2.057   2.251  10.773  0.3178 -0.0878  0.1291
  493TMC3    C8 7337   2.452   2.502  10.889 -0.3678  0.5854 -0.6379
  493TMC3    O1 7338   2.056   2.306  10.659  0.2029 -0.4284  0.6223
  493TMC3    O2 7339   2.540   2.468  10.965  0.4920 -0.4409  0.0058
  494TMC3    C1 7340   3.668   0.329   0.546  0.2821 -0.6934  0.4727
  494TMC3    C2 7341   3.741   0.214   0.539  0.7424  0.2106 -0.1923
  494TMC3    C3 7342   3.723   0.128   0.429  0.3840 -0.6817  0.9095
  494TMC3    C4 7343   3.582   0.367   0.449 -0.1029 -0.5369  0.1787
  494TMC3    C5 7344   3.574   0.285   0.334  0.5266 -0.3268 -0.1952
  494TMC3    C6 7345   3.632   0.161   0.322  0.4693  0.1552  0.2574
  494TMC3     C 7346   3.637   0.366   0.681 -0.0758  0.2911  0.2553
  494TMC3     O 7347   3.641   0.286   0.773  0.6798 -0.2837  0.1388
  494TMC3     H 7348   3.798   0.168   0.619  1.8535 -0.0800 -1.1545
  494TMC3    H1 7349   3.519   0.454   0.464  0.1104 -0.7169  2.0813
  494TMC3    H2 7350   3.620   0.087   0.243  2.3627 -1.3011  1.3543
  494TMC3    C7 7351   3.527   0.343   0.212  0.2791 -0.8798  0.1020
  494TMC3    C8 7352   3.782   4.722   0.435  0.5631 -0.5172  0.2287
  494TMC3    O1 7353   3.537   0.278   0.110  0.1121 -0.2161 -0.5075
  494TMC3    O2 7354   3.881   4.713   0.504 -0.2293  0.1253  0.3473
  495TMC3    C1 7355   1.962   2.312  14.855 -0.3179  0.7061  0.0655
  495TMC3    C2 7356   1.874   2.333  14.744  0.2328 -0.3484 -1.0123
  495TMC3    C3 7357   1.736   2.360  14.769 -0.0084 -0.3434 -0.1888
  495TMC3    C4 7358   1.912   2.315  14.982 -0.3926 -0.4413  0.2843
  495TMC3    C5 7359   1.780   2.340  14.997 -0.8241 -0.1607 -0.3576
  495TMC3    C6 7360   1.690   2.366  14.898  0.2164  0.2968  0.7941
  495TMC3     C 7361   2.025   2.188  14.845  0.3245  0.2245  0.0800
  495TMC3     O 7362   1.989   2.102  14.923 -0.2092 -0.6652 -0.5202
  495TMC3     H 7363   1.905   2.356  14.643 -1.0482  1.5014 -0.9607
  495TMC3    H1 7364   1.980   2.303  15.066 -0.0448  0.6851  0.1678
  495TMC3    H2 7365   1.586   2.394  14.917 -0.1162 -0.2305 -0.2904
  495TMC3    C7 7366   1.731   2.303  15.128 -0.7844  0.4891  0.2836
  495TMC3    C8 7367   1.656   2.275  14.682  0.5888 -0.5685 -0.4907
  495TMC3    O1 7368   1.815   2.310  15.219  0.3717 -0.3482  0.0132
  495TMC3    O2 7369   1.537   2.290  14.676  0.3984 -0.2845 -0.1684
  496MPD2     C 7370   4.128   2.088  15.743  0.0005  0.1292  0.0402
  496MPD2    C1 7371   4.012   2.046  15.683 -0.2869  0.1213 -0.0535
  496MPD2    C2 7372   3.894   2.121  15.689  0.1143  0.0989  0.7156
  496MPD2    C3 7373   3.897   2.237  15.768  0.2913 -0.2221  0.2481
  496MPD2    C4 7374   4.001   2.266  15.841  0.2754 -0.5576  0.1560
  496MPD2    C5 7375   4.116   2.198  15.825  0.6379  0.4657  0.1314
  496MPD2     H 7376   3.803   2.080  15.646 -0.4501  2.4339 -0.2864
  496MPD2    H1 7377   4.008   2.343  15.918  1.5457 -0.1497 -0.3682
  496MPD2    H2 7378   4.216   2.024  15.740  1.1999  1.8173 -0.3074
  496MPD2    H3 7379   4.203   2.223  15.884  0.5624 -1.4951  1.0690
  496MPD2     N 7380   3.782   2.318  15.787 -0.7800 -0.1587  0.9249
  496MPD2    H5 7381   3.788   2.390  15.858  0.2738 -0.7117  1.4061
  496MPD2    N1 7382   4.027   1.928  15.605 -0.0971 -0.4135  0.0476
  496MPD2    H7 7383   4.112   1.874  15.615 -0.0756 -0.7058 -1.6911
  497TMC3    C1 7384   3.558   2.399  15.752 -0.4207 -0.3787 -0.2853
  497TMC3    C2 7385   3.461   2.423  15.657  0.1011  0.1247 -0.2043
  497TMC3    C3 7386   3.339   2.478  15.689  0.0236 -0.4249 -0.6363
  497TMC3    C4 7387   3.552   2.447  15.882  0.3704  0.2941  0.1632
  497TMC3    C5 7388   3.425   2.495  15.912  0.3481  0.3837  0.0170
  497TMC3    C6 7389   3.317   2.508  15.825  0.0212  0.2175 -0.0129
  497TMC3     C 7390   3.663   2.309  15.713 -0.2462 -0.0463  0.6194
  497TMC3     O 7391   3.634   2.230  15.622  0.2681  1.2480  0.0593
  497TMC3     H 7392   3.473   2.383  15.557 -1.5020  2.0591 -1.1689
  497TMC3    H1 7393   3.631   2.414  15.948  1.0908 -1.3608 -1.5152
  497TMC3    H2 7394   3.216   2.540  15.848 -0.2745  0.1653 -1.2395
  497TMC3    C7 7395   3.403   2.549  16.041  0.0385  0.7772  0.0874
  497TMC3    C8 7396   3.226   2.418  15.617 -0.3025 -0.4263  0.2338
  497TMC3    O1 7397   3.287   2.593  16.056  0.2892  0.8144 -0.0170
  497TMC3    O2 7398   3.131   2.366  15.681 -0.4078  0.6206  0.5354
  498MPD2     C 7399   4.480   1.728   9.854 -0.0587 -0.1762 -0.5625
  498MPD2    C1 7400   4.596   1.784   9.904  0.0177  0.1839  0.5540
  498MPD2    C2 7401   4.587   1.837  10.032  0.4191 -0.4466 -0.2298
  498MPD2    C3 7402   4.477   1.827  10.116 -0.1729  0.0762 -0.0755
  498MPD2    C4 7403   4.367   1.759  10.066  0.1153 -0.4669 -0.3631
  498MPD2    C5 7404   4.371   1.713   9.941 -0.3196  0.6243  0.4610
  498MPD2     H 7405   4.676   1.890  10.066 -0.2544  0.9496 -0.6601
  498MPD2    H1 7406   4.274   1.741  10.118  0.3574 -0.2271  0.1575
  498MPD2    H2 7407   4.479   1.699   9.750 -0.8122 -2.3614  0.0608
  498MPD2    H3 7408   4.285   1.652   9.914  0.0297  0.7611 -0.9158
  498MPD2     N 7409   4.480   1.884  10.249 -0.3523 -0.0056  0.1047
  498MPD2    H5 7410   4.565   1.922  10.287  0.1024  0.6283 -1.5398
  498MPD2    N1 7411   4.722   1.798   9.835 -0.1132  0.6753 -0.4938
  498MPD2    H7 7412   0.067   1.857   9.879 -1.4193  1.8070  0.0557
  499TMC3    C1 7413   0.155   1.741   9.670  0.0773  0.0812 -0.1757
  499TMC3    C2 7414   0.186   1.675   9.553 -0.2368 -0.7868  0.8515
  499TMC3    C3 7415   0.305   1.714   9.487  0.5225 -0.4816 -0.4574
  499TMC3    C4 7416   0.239   1.840   9.723 -0.6636  0.3239  0.5662
  499TMC3    C5 7417   0.353   1.873   9.657 -0.3185 -0.3937 -0.4231
  499TMC3    C6 7418   0.388   1.813   9.535  0.7297  0.0531  0.4776
  499TMC3     C 7419   0.024   1.729   9.723  0.4223  0.1207 -0.2355
  499TMC3     O 7420   4.677   1.655   9.657  0.3345 -0.1192 -0.1257
  499TMC3     H 7421   0.127   1.587   9.529  0.3386 -0.8903 -0.2204
  499TMC3    H1 7422   0.218   1.884   9.820 -3.3535  1.2665 -0.4376
  499TMC3    H2 7423   0.475   1.850   9.482  0.3956  0.5112  0.2504
  499TMC3    C7 7424   0.433   1.993   9.690 -0.4755  0.7996 -0.1390
  499TMC3    C8 7425   0.370   1.613   9.405  0.4152 -0.1445 -0.4027
  499TMC3    O1 7426   0.535   2.001   9.625 -0.1608  0.4214 -0.1660
  499TMC3    O2 7427   0.494   1.611   9.404  0.4993  0.0143 -0.2915
  500MPD2     C 7428   1.485   3.311  11.084 -0.3011  0.1558  0.6016
  500MPD2    C1 7429   1.503   3.420  10.999  0.1951 -0.3293 -0.1050
  500MPD2    C2 7430   1.396   3.488  10.938 -0.1470  0.2282  0.3642
  500MPD2    C3 7431   1.269   3.441  10.951 -0.6315 -0.5954 -0.2917
  500MPD2    C4 7432   1.244   3.336  11.036 -0.1888 -0.4659 -0.0798
  500MPD2    C5 7433   1.349   3.273  11.097 -0.5665  0.2324 -0.0673
  500MPD2     H 7434   1.431   3.552  10.858 -0.6278 -0.1945 -0.1837
  500MPD2    H1 7435   1.140   3.308  11.049 -0.7321  0.6938 -1.8823
  500MPD2    H2 7436   1.559   3.248  11.132 -0.0392 -1.2693 -1.6583
  500MPD2    H3 7437   1.332   3.181  11.152  1.2928  0.3214  0.6536
  500MPD2     N 7438   1.168   3.471  10.858 -0.4119 -0.4367  0.0179
  500MPD2    H5 7439   1.078   3.431  10.882 -0.2371  0.1500  1.6119
  500MPD2    N1 7440   1.631   3.473  10.982  0.0495 -0.8402  0.4130
  500MPD2    H7 7441   1.636   3.561  10.932 -4.2351  0.4807  2.3257
  501TMC3    C1 7442   1.871   3.498  11.003 -0.2328 -0.1924  0.2887
  501TMC3    C2 7443   1.859   3.602  10.916 -0.2016 -0.0076  0.0616
  501TMC3    C3 7444   1.971   3.645  10.850 -0.5905  0.3747  0.1785
  501TMC3    C4 7445   1.989   3.440  11.032  0.6069  0.9273 -0.8379
  501TMC3    C5 7446   2.102   3.497  10.980  0.7119  0.1509 -0.5147
  501TMC3    C6 7447   2.098   3.598  10.890 -0.3564 -0.1212 -0.5096
  501TMC3     C 7448   1.750   3.420  11.035  0.8223  0.7447 -0.4839
  501TMC3     O 7449   1.768   3.332  11.117 -0.2046  0.5189 -0.2913
  501TMC3     H 7450   1.765   3.652  10.896  0.1696 -0.2962 -2.3511
  501TMC3    H1 7451   2.001   3.367  11.111 -3.0040 -0.7674 -1.9169
  501TMC3    H2 7452   2.185   3.648  10.849 -0.6651 -0.7466 -1.9516
  501TMC3    C7 7453   2.225   3.428  11.003 -0.0277  1.0752 -0.5595
  501TMC3    C8 7454   1.973   3.775  10.795 -0.3256  0.5315  0.2814
  501TMC3    O1 7455   2.225   3.319  11.055  0.0700  0.5460 -0.0157
  501TMC3    O2 7456   2.066   3.845  10.826  0.4987 -0.5476  0.3733
  502TMC3    C1 7457   1.198   2.960  15.008  0.1167 -0.4461 -0.2775
  502TMC3    C2 7458   1.140   3.083  14.979  0.1621 -0.5692  0.5108
  502TMC3    C3 7459   1.007   3.081  14.931 -0.0073 -0.3061 -0.0993
  502TMC3    C4 7460   1.131   2.839  14.983 -0.2577 -0.0669  0.4746
  502TMC3    C5 7461   0.998   2.847  14.948  0.0119  0.0649 -0.4928
  502TMC3    C6 7462   0.942   2.965  14.906  0.3692  0.1377  0.3213
  502TMC3     C 7463   1.294   2.962  15.112  0.3834 -0.7097 -1.0402
  502TMC3     O 7464   1.339   3.071  15.149 -0.0536 -0.0213  0.4219
  502TMC3     H 7465   1.188   3.172  15.018 -1.3028  0.5211 -0.1633
  502TMC3    H1 7466   1.180   2.742  14.984  1.0807  0.6046  0.0344
  502TMC3    H2 7467   0.834   2.975  14.893  0.6057 -1.1337 -2.5633
  502TMC3    C7 7468   0.908   2.739  14.995  0.2116 -0.5019 -0.5700
  502TMC3    C8 7469   0.933   3.199  14.961 -0.2089 -0.5644 -0.7087
  502TMC3    O1 7470   0.970   2.659  15.062  0.1096  0.0173  0.1148
  502TMC3    O2 7471   0.969   3.313  14.938  0.0145 -0.2407  0.1386
  503MPD2     C 7472   3.129   3.775  17.459 -0.0444 -0.6207 -0.0143
  503MPD2    C1 7473   3.228   3.834  17.527  0.0538  0.2267 -0.0425
  503MPD2    C2 7474   3.326   3.757  17.596  0.1606 -0.6694 -0.3180
  503MPD2    C3 7475   3.311   3.623  17.602  0.1261  0.1444  0.6750
  503MPD2    C4 7476   3.200   3.564  17.544  0.8776 -0.1231  0.0151
  503MPD2    C5 7477   3.104   3.644  17.482 -0.0199 -0.1124 -0.8238
  503MPD2     H 7478   3.414   3.807  17.634 -0.2534  0.2241 -0.5321
  503MPD2    H1 7479   3.183   3.457  17.541  1.0675 -0.1804  0.9585
  503MPD2    H2 7480   3.059   3.834  17.401  0.7014  0.9508  0.6787
  503MPD2    H3 7481   3.018   3.588  17.449 -0.2784 -0.9894  1.3165
  503MPD2     N 7482   3.420   3.548  17.650  0.2572 -0.0255  0.4091
  503MPD2    H5 7483   3.496   3.606  17.686 -1.4620  3.1449 -1.0798
  503MPD2    N1 7484   3.261   3.971  17.494 -0.5086  0.4604  0.4496
  503MPD2    H7 7485   3.340   4.013  17.542 -1.8665  3.3005  0.1623
  504TMC3    C1 7486   3.536   3.366   0.040  0.1984 -0.5914 -0.0216
  504TMC3    C2 7487   3.518   3.267   0.136  0.0603 -0.2532 -0.5222
  504TMC3    C3 7488   3.631   3.208   0.189  0.6332  0.1558  0.1718
  504TMC3    C4 7489   3.662   3.394  17.690 -0.1121  0.4362 -0.3110
  504TMC3    C5 7490   3.772   3.323   0.037  0.5980  0.8514  0.7492
  504TMC3    C6 7491   3.755   3.236   0.139  0.1322 -0.2193 -0.2872
  504TMC3     C 7492   3.421   3.411  17.670 -0.7629  1.1289  0.2492
  504TMC3     O 7493   3.330   3.331  17.654  0.5524 -0.0056 -0.1658
  504TMC3     H 7494   3.424   3.238   0.181 -0.9741  1.1066 -1.8136
  504TMC3    H1 7495   3.675   3.467  17.611 -2.0831  0.4380 -0.6271
  504TMC3    H2 7496   3.832   3.174   0.183 -0.5179 -1.5421 -1.0430
  504TMC3    C7 7497   3.898   3.334  17.665 -0.2013 -0.5135 -0.2708
  504TMC3    C8 7498   3.614   3.068   0.228 -0.1928 -0.0866  0.1032
  504TMC3    O1 7499   3.884   3.333  17.545 -0.7125 -0.4227 -0.0916
  504TMC3    O2 7500   3.534   3.012   0.160  0.3490 -0.1340  0.0447
  505MPD2     C 7501   3.859   2.142  11.549 -0.1183 -0.6380  0.9117
  505MPD2    C1 7502   3.852   2.038  11.459  0.4947  0.1479 -0.1150
  505MPD2    C2 7503   3.960   1.953  11.442  0.2404 -0.1800 -0.0127
  505MPD2    C3 7504   4.075   1.962  11.514  0.1108  0.2368 -0.4410
  505MPD2    C4 7505   4.081   2.075  11.600 -0.5230 -0.2982 -0.3105
  505MPD2    C5 7506   3.973   2.158  11.622  0.4558  0.1752  0.1863
  505MPD2     H 7507   3.953   1.879  11.363 -0.8736 -2.8178  2.5563
  505MPD2    H1 7508   4.163   2.091  11.669 -0.6369 -0.9886 -0.0211
  505MPD2    H2 7509   3.781   2.211  11.579  3.0508  3.6577 -0.5989
  505MPD2    H3 7510   3.975   2.228  11.705  1.1094 -1.5464  1.6320
  505MPD2     N 7511   4.180   1.868  11.508  0.1330 -0.5117  0.6082
  505MPD2    H5 7512   4.265   1.898  11.555  0.3745 -0.5870  0.2111
  505MPD2    N1 7513   3.730   2.021  11.391 -0.3033 -0.0208  0.1138
  505MPD2    H7 7514   3.656   2.087  11.414  1.7575  2.4146 -0.2483
  506TMC3    C1 7515   3.568   1.916  11.240  0.4968 -0.0409 -0.2332
  506TMC3    C2 7516   3.538   2.027  11.171 -1.0198  0.5010  0.5522
  506TMC3    C3 7517   3.511   2.015  11.036 -0.5561  0.2622  0.0540
  506TMC3    C4 7518   3.551   1.788  11.181 -0.6046 -0.3318 -0.3577
  506TMC3    C5 7519   3.539   1.781  11.051  0.0279  0.0519  0.1138
  506TMC3    C6 7520   3.512   1.893  10.978 -0.0705 -0.4494 -0.1197
  506TMC3     C 7521   3.696   1.909  11.311  0.2212  0.3632 -0.1568
  506TMC3     O 7522   3.759   1.809  11.290 -0.0122 -0.3089  0.4795
  506TMC3     H 7523   3.546   2.125  11.217 -0.2514  0.1284  1.2035
  506TMC3    H1 7524   3.586   1.700  11.234 -1.4144  0.5910  1.7028
  506TMC3    H2 7525   3.494   1.876  10.873  3.0442  0.6757 -0.8332
  506TMC3    C7 7526   3.620   1.680  10.981  0.2417 -0.1336 -0.4208
  506TMC3    C8 7527   3.548   2.125  10.955  0.0420 -0.2395  0.6334
  506TMC3    O1 7528   3.597   1.654  10.866  0.1214 -0.0798  0.3918
  506TMC3    O2 7529   3.506   2.234  10.989  0.0828  0.5510  0.3865
  507TMC3    C1 7530   3.826   2.654  14.507  0.9866  0.0625  0.1308
  507TMC3    C2 7531   3.871   2.654  14.381 -0.2377 -0.2914  0.5545
  507TMC3    C3 7532   4.006   2.664  14.358 -0.3285 -0.2241 -0.8518
  507TMC3    C4 7533   3.910   2.647  14.617  0.1211  0.0042  0.3051
  507TMC3    C5 7534   4.045   2.667  14.590 -0.5562  0.0667 -0.5310
  507TMC3    C6 7535   4.090   2.668  14.465 -0.3263 -0.4581 -0.2196
  507TMC3     C 7536   3.685   2.690  14.530  0.0304  0.1397  0.0102
  507TMC3     O 7537   3.647   2.718  14.641 -0.4006 -0.0189 -0.0945
  507TMC3     H 7538   3.806   2.675  14.296  2.4063  0.5526 -1.2745
  507TMC3    H1 7539   3.869   2.660  14.717 -1.2948 -2.0019 -0.0170
  507TMC3    H2 7540   4.197   2.677  14.448 -0.4408  0.7831 -0.3313
  507TMC3    C7 7541   4.111   2.774  14.668  0.2286  0.0433 -0.3262
  507TMC3    C8 7542   4.029   2.772  14.265 -0.5654  0.2356  0.1262
  507TMC3    O1 7543   4.179   2.848  14.595  0.4524  0.0381 -0.7625
  507TMC3    O2 7544   3.969   2.757  14.161  0.1068 -0.0414 -0.5261
  508MPD2     C 7545   0.306   1.065  15.946 -0.3137  0.0374  0.0549
  508MPD2    C1 7546   0.347   0.946  15.989  0.2166  0.2757 -0.2388
  508MPD2    C2 7547   0.314   0.837  15.903 -0.0476  0.4213  0.2442
  508MPD2    C3 7548   0.231   0.850  15.791  0.0232  0.9112 -0.5415
  508MPD2    C4 7549   0.182   0.978  15.760  0.1758 -0.4794 -0.5490
  508MPD2    C5 7550   0.224   1.078  15.839 -0.5520  0.5440  0.2448
  508MPD2     H 7551   0.342   0.736  15.932 -0.6081 -0.0795 -0.9466
  508MPD2    H1 7552   0.111   0.997  15.681  1.2464  1.2514 -1.0900
  508MPD2    H2 7553   0.328   1.155  16.001  1.5143 -2.1956  2.9748
  508MPD2    H3 7554   0.202   1.180  15.809  1.4426  0.7978 -0.3446
  508MPD2     N 7555   0.202   0.737  15.706  0.1764  0.0977  0.5072
  508MPD2    H5 7556   0.209   0.645  15.747  1.1258 -0.2538 -0.4493
  508MPD2    N1 7557   0.428   0.942  16.109  0.2966  0.4651 -0.3065
  508MPD2    H7 7558   0.448   1.027  16.160  1.6943  0.4964 -0.8803
  509TMC3    C1 7559   0.115   1.018  15.360  0.1688 -0.3907 -0.8989
  509TMC3    C2 7560   0.246   1.078  15.352 -0.3134 -0.3576 -0.5785
  509TMC3    C3 7561   0.344   1.017  15.427 -0.1085  0.1840  0.6550
  509TMC3    C4 7562   0.097   0.902  15.423 -0.2555  0.1259 -0.0554
  509TMC3    C5 7563   0.203   0.848  15.496 -0.4647  1.3040  0.6121
  509TMC3    C6 7564   0.322   0.907  15.500 -0.1242  1.3326 -1.3224
  509TMC3     C 7565   4.725   1.099  15.318 -0.4575 -0.3162  0.1072
  509TMC3     O 7566   4.620   1.051  15.288  0.9777  1.1180 -0.2310
  509TMC3     H 7567   0.273   1.156  15.282 -0.3303 -2.5432 -2.9998
  509TMC3    H1 7568   0.009   0.841  15.405 -0.0990  0.3371 -1.4778
  509TMC3    H2 7569   0.401   0.865  15.561  1.5477  2.8473 -2.4475
  509TMC3    C7 7570   0.166   0.735  15.574  0.6391 -0.8068  0.7120
  509TMC3    C8 7571   0.476   1.060  15.381 -0.1857 -0.4793  0.3984
  509TMC3    O1 7572   0.108   0.642  15.516  0.2158  0.3843  0.6605
  509TMC3    O2 7573   0.562   0.972  15.377  0.1356 -0.3171 -0.3930
  510MPD2     C 7574   2.915   2.479  14.598 -0.4534  0.1478 -0.0500
  510MPD2    C1 7575   2.968   2.397  14.694 -0.3503  1.2079 -0.2905
  510MPD2    C2 7576   3.101   2.356  14.673  0.1265 -0.2007  0.4154
  510MPD2    C3 7577   3.170   2.394  14.562 -0.7064 -0.1449  0.1513
  510MPD2    C4 7578   3.113   2.476  14.471  0.0606  0.5366 -0.3272
  510MPD2    C5 7579   2.982   2.518  14.488  0.5137 -0.6759  0.1763
  510MPD2     H 7580   3.157   2.297  14.744 -0.1040 -2.1591 -1.0414
  510MPD2    H1 7581   3.159   2.507  14.378  2.1838 -1.3256  0.0773
  510MPD2    H2 7582   2.810   2.503  14.612 -0.5084 -0.5475  0.7370
  510MPD2    H3 7583   2.936   2.568  14.403  2.7887  1.9865  0.5276
  510MPD2     N 7584   3.299   2.340  14.545  0.2697 -0.0692  0.2139
  510MPD2    H5 7585   3.340   2.290  14.624  1.2178 -1.0087 -0.8858
  510MPD2    N1 7586   2.878   2.356  14.793 -0.0296  0.7077 -0.3208
  510MPD2    H7 7587   2.795   2.411  14.810 -1.0315 -0.2031 -2.2728
  511TMC3    C1 7588   2.804   2.186  14.953  0.1944 -0.4302 -0.5297
  511TMC3    C2 7589   2.722   2.272  15.026  1.0845  0.3487 -0.0120
  511TMC3    C3 7590   2.631   2.210  15.118 -0.9164 -0.1548 -0.4602
  511TMC3    C4 7591   2.804   2.047  14.962 -0.4837  0.4112  0.1446
  511TMC3    C5 7592   2.704   1.997  15.045 -0.1986 -0.3682  0.1235
  511TMC3    C6 7593   2.626   2.074  15.125  0.5230  0.0224 -0.2261
  511TMC3     C 7594   2.902   2.235  14.853  0.2702  0.4603 -0.1750
  511TMC3     O 7595   2.997   2.154  14.836  0.6905  0.3212 -0.0323
  511TMC3     H 7596   2.725   2.380  15.019  1.1544  0.3956  0.8034
  511TMC3    H1 7597   2.857   1.976  14.898  0.1632  1.4364 -0.4590
  511TMC3    H2 7598   2.538   2.027  15.167 -0.1511  2.0195  0.6184
  511TMC3    C7 7599   2.666   1.856  15.026 -0.7435  0.0316 -0.1205
  511TMC3    C8 7600   2.580   2.289  15.227  0.0978  0.0655  0.1683
  511TMC3    O1 7601   2.699   1.806  14.921 -0.0383 -0.6724 -0.1546
  511TMC3    O2 7602   2.564   2.410  15.207  0.6916  0.0780 -0.2696
  512TMC3    C1 7603   2.050   1.513  13.053 -0.1368  0.1244  0.2817
  512TMC3    C2 7604   2.091   1.502  13.185 -1.0699  0.7702  0.2997
  512TMC3    C3 7605   2.074   1.382  13.247  0.5314  0.2749  0.0848
  512TMC3    C4 7606   1.969   1.418  12.999 -0.0723 -0.1939  0.0434
  512TMC3    C5 7607   1.967   1.296  13.056  0.0514 -0.2389  0.0295
  512TMC3    C6 7608   2.023   1.274  13.177 -0.3618 -0.2196  0.6128
  512TMC3     C 7609   2.084   1.626  12.971 -0.1753 -0.0176  0.0227
  512TMC3     O 7610   2.020   1.639  12.867 -0.7070  0.1093 -0.6228
  512TMC3     H 7611   2.129   1.590  13.237  0.2917  0.7381 -0.6291
  512TMC3    H1 7612   1.913   1.430  12.907 -1.9161  0.0761  1.2159
  512TMC3    H2 7613   2.006   1.181  13.230 -0.8200 -0.5271 -0.0693
  512TMC3    C7 7614   1.863   1.208  13.005 -0.3533 -0.5036 -0.6765
  512TMC3    C8 7615   2.119   1.352  13.379  0.7046 -0.4814  0.4829
  512TMC3    O1 7616   1.773   1.255  12.939  0.0334  0.0397 -0.7005
  512TMC3    O2 7617   2.083   1.245  13.427  0.1767 -0.0601 -0.7299
  513MPD2     C 7618   3.284   1.325  13.424  0.1072  0.3011 -0.2725
  513MPD2    C1 7619   3.296   1.292  13.288 -0.3287 -0.3310  0.0676
  513MPD2    C2 7620   3.324   1.401  13.205 -0.2914  0.1743 -0.0686
  513MPD2    C3 7621   3.349   1.530  13.251 -0.1247  0.5438  0.0386
  513MPD2    C4 7622   3.344   1.552  13.385  0.6320  0.3587 -0.2304
  513MPD2    C5 7623   3.303   1.448  13.463  0.1654 -0.6117  0.2402
  513MPD2     H 7624   3.340   1.387  13.098 -1.0949  0.0994 -0.1801
  513MPD2    H1 7625   3.353   1.651  13.428  1.3050  0.3842 -0.4298
  513MPD2    H2 7626   3.262   1.252  13.501  1.5748 -1.0738 -1.1520
  513MPD2    H3 7627   3.304   1.468  13.569 -2.0136  1.0096 -0.0637
  513MPD2     N 7628   3.390   1.629  13.154  0.7211 -0.2202  0.0062
  513MPD2    H5 7629   3.405   1.602  13.057  1.6938  0.7967 -0.1332
  513MPD2    N1 7630   3.285   1.166  13.238  0.5159  0.5884 -0.4149
  513MPD2    H7 7631   3.321   1.152  13.144  1.1549  2.3637 -0.4266
  514TMC3    C1 7632   3.305   0.935  13.216  0.1433  0.1117  0.0374
  514TMC3    C2 7633   3.403   0.847  13.252 -0.0934  0.4405 -0.3970
  514TMC3    C3 7634   3.495   0.807  13.163  0.4973  0.1277 -0.4497
  514TMC3    C4 7635   3.304   0.980  13.088 -0.7614 -0.3713  0.3661
  514TMC3    C5 7636   3.406   0.955  13.007 -0.3220  0.2719 -0.2523
  514TMC3    C6 7637   3.510   0.865  13.045  0.2418  0.5954  0.2113
  514TMC3     C 7638   3.285   1.045  13.306  0.1554 -0.0577  0.4082
  514TMC3     O 7639   3.284   1.034  13.430 -0.2281  0.3419 -0.2829
  514TMC3     H 7640   3.410   0.805  13.352  0.0482 -2.2609 -1.5451
  514TMC3    H1 7641   3.213   1.026  13.051 -1.0163 -0.0417  1.3801
  514TMC3    H2 7642   3.591   0.854  12.974  0.0896  0.8295  0.0006
  514TMC3    C7 7643   3.440   1.066  12.927  0.6570  0.6582 -0.4631
  514TMC3    C8 7644   3.582   0.703  13.195  0.0861  0.3013  0.6342
  514TMC3    O1 7645   3.395   1.165  12.978 -0.1486  0.1093 -0.7043
  514TMC3    O2 7646   3.528   0.606  13.248 -0.5058  0.0139 -0.9893
  515MPD2     C 7647   1.686   3.708  14.866  0.3699 -0.2229 -0.5726
  515MPD2    C1 7648   1.755   3.594  14.845 -0.4156  0.1889 -0.1823
  515MPD2    C2 7649   1.852   3.549  14.934 -0.0009 -0.0927 -0.2498
  515MPD2    C3 7650   1.859   3.604  15.061  0.1380 -0.5597 -0.1891
  515MPD2    C4 7651   1.775   3.715  15.088  0.0677  0.0186 -0.0725
  515MPD2    C5 7652   1.693   3.766  14.992  1.0368  0.8741 -0.3901
  515MPD2     H 7653   1.899   3.452  14.918  2.9074  1.0168  1.6927
  515MPD2    H1 7654   1.786   3.757  15.188 -2.2186  0.1018  0.1506
  515MPD2    H2 7655   1.613   3.742  14.794 -1.2918 -2.5460  0.0210
  515MPD2    H3 7656   1.624   3.848  15.008  0.1827 -0.1198  0.9814
  515MPD2     N 7657   1.927   3.546  15.164  0.2421  0.6194 -0.1188
  515MPD2    H5 7658   1.919   3.595  15.253  1.2625 -0.6071  0.6423
  515MPD2    N1 7659   1.730   3.519  14.730  0.4198  0.4571  0.0831
  515MPD2    H7 7660   1.798   3.446  14.708 -0.8972 -0.4949 -0.8069
  516TMC3    C1 7661   1.614   3.419  14.553  1.0982  0.9122 -0.4428
  516TMC3    C2 7662   1.729   3.379  14.484 -0.2657 -0.2134 -0.0793
  516TMC3    C3 7663   1.730   3.256  14.420  0.3850 -0.4763 -0.6626
  516TMC3    C4 7664   1.497   3.355  14.535 -0.0802 -0.0181 -0.4044
  516TMC3    C5 7665   1.498   3.226  14.476  0.4703 -0.1804  0.2965
  516TMC3    C6 7666   1.617   3.179  14.429  0.3925 -0.0432  0.0113
  516TMC3     C 7667   1.616   3.522  14.658 -0.1770  0.4868 -0.2379
  516TMC3     O 7668   1.513   3.589  14.666  0.8189  0.0631 -0.0501
  516TMC3     H 7669   1.817   3.442  14.484 -0.2095 -0.2845 -0.9865
  516TMC3    H1 7670   1.410   3.383  14.594  1.0575 -0.2302  1.3855
  516TMC3    H2 7671   1.619   3.079  14.385  0.8312  0.5845 -1.3934
  516TMC3    C7 7672   1.417   3.129  14.553  0.0553 -0.9347  1.3290
  516TMC3    C8 7673   1.783   3.249  14.286  0.2306 -0.6716 -0.3884
  516TMC3    O1 7674   1.354   3.175  14.647 -0.3430 -0.2501 -0.1934
  516TMC3    O2 7675   1.703   3.202  14.205 -0.2321  0.5445 -0.4877
  517MPD2     C 7676   1.967   0.380   0.703  0.6844  0.5653  0.7429
  517MPD2    C1 7677   2.100   0.341   0.710  0.5986 -0.3788 -0.3595
  517MPD2    C2 7678   2.184   0.421   0.783 -0.2340  0.1872  0.0450
  517MPD2    C3 7679   2.139   0.534   0.854  0.1255  0.8054 -0.2506
  517MPD2    C4 7680   2.003   0.564   0.840  0.1807  0.3658 -0.0273
  517MPD2    C5 7681   1.923   0.487   0.760 -0.0212 -0.4636  0.1622
  517MPD2     H 7682   2.287   0.390   0.790 -0.7339 -1.2263  1.0412
  517MPD2    H1 7683   1.966   0.642   0.904  2.3584  0.8173  0.6923
  517MPD2    H2 7684   1.886   0.330   0.650  1.7195 -2.3003  1.8600
  517MPD2    H3 7685   1.818   0.512   0.746 -0.5476 -2.4059  0.6458
  517MPD2     N 7686   2.219   0.622   0.921  0.1775 -0.3297 -0.6042
  517MPD2    H5 7687   2.163   0.698   0.959  2.5460  0.2635  1.7114
  517MPD2    N1 7688   2.146   0.233   0.629  0.8366 -1.0483  0.9721
  517MPD2    H7 7689   2.246   0.236   0.613  0.8655 -0.7303  1.2039
  518TMC3    C1 7690   2.131   0.057   0.470  0.7111 -0.8348  0.3105
  518TMC3    C2 7691   2.060   4.673   0.423  0.9937 -0.3342  0.0364
  518TMC3    C3 7692   2.092   4.616   0.303  0.2292 -0.4861 -0.5608
  518TMC3    C4 7693   2.230   0.120   0.399  0.2368  0.2249  0.4076
  518TMC3    C5 7694   2.244   0.067   0.274 -0.0151 -0.0576  0.1926
  518TMC3    C6 7695   2.180   4.686   0.219 -0.5650  0.3275 -0.5384
  518TMC3     C 7696   2.065   0.138   0.568  0.1816 -0.3411 -0.1784
  518TMC3     O 7697   1.946   0.113   0.572 -0.5169  0.1761  0.5883
  518TMC3     H 7698   1.972   4.634   0.474 -0.3584  2.3483 -0.2455
  518TMC3    H1 7699   2.278   0.217   0.407 -0.3033  0.5256 -0.0229
  518TMC3    H2 7700   2.193   4.656   0.116  1.7916  0.0043 -0.1475
  518TMC3    C7 7701   2.374   0.107   0.214 -0.0944  0.0583 -0.4637
  518TMC3    C8 7702   2.020   4.510   0.246 -0.0026 -0.3877  0.3979
  518TMC3    O1 7703   2.447   0.190   0.268 -0.0900 -0.8204  0.8641
  518TMC3    O2 7704   2.076   4.456   0.155 -0.4732  0.1171 -0.6348
  519MPD2     C 7705   3.563   3.531  14.367 -0.1548  0.1131  0.7498
  519MPD2    C1 7706   3.484   3.506  14.254  0.1889  0.2346 -0.3801
  519MPD2    C2 7707   3.539   3.435  14.150  0.4512  0.7147  0.1502
  519MPD2    C3 7708   3.660   3.375  14.148  0.1329 -0.5788  0.0671
  519MPD2    C4 7709   3.733   3.393  14.258  0.2627  0.3519 -0.4839
  519MPD2    C5 7710   3.691   3.474  14.364 -0.2767 -0.4425  0.0804
  519MPD2     H 7711   3.470   3.393  14.078  0.4128  2.0011 -0.5618
  519MPD2    H1 7712   3.820   3.329  14.268  0.9226  1.0448 -1.7734
  519MPD2    H2 7713   3.532   3.590  14.453 -2.1041 -1.0942  0.8574
  519MPD2    H3 7714   3.761   3.487  14.446  0.7868 -0.8660 -0.7751
  519MPD2     N 7715   3.704   3.298  14.041  0.6255  0.1416 -0.1236
  519MPD2    H5 7716   3.798   3.261  14.052  1.6854  1.7023 -4.0515
  519MPD2    N1 7717   3.358   3.567  14.251  0.5041 -0.3808  0.0864
  519MPD2    H7 7718   3.325   3.610  14.337 -0.7013 -2.2504  0.5463
  520TMC3    C1 7719   3.710   3.186  13.834  0.0694  0.7442  0.8743
  520TMC3    C2 7720   3.662   3.190  13.713 -0.1240  0.3373 -0.3980
  520TMC3    C3 7721   3.667   3.082  13.632 -0.2553 -0.1605  0.5354
  520TMC3    C4 7722   3.785   3.081  13.883  0.6501  0.6648  0.1231
  520TMC3    C5 7723   3.780   2.969  13.803 -0.7179  0.1593  0.3574
  520TMC3    C6 7724   3.724   2.966  13.678  0.2288 -0.9359  1.0140
  520TMC3     C 7725   3.644   3.280  13.920  0.2005  0.9108  0.2157
  520TMC3     O 7726   3.531   3.309  13.887  0.0206  0.5939 -0.1668
  520TMC3     H 7727   3.622   3.285  13.679 -0.0752  1.1773  1.8738
  520TMC3    H1 7728   3.794   3.073  13.991 -1.5585 -1.3368  0.1595
  520TMC3    H2 7729   3.730   2.879  13.614 -1.7045 -1.6241  1.7676
  520TMC3    C7 7730   3.888   2.880  13.824 -0.2625 -0.5363 -0.2689
  520TMC3    C8 7731   3.626   3.090  13.496  0.2868 -0.0097 -0.0245
  520TMC3    O1 7732   3.863   2.758  13.817  0.2658  0.7615  0.2920
  520TMC3    O2 7733   3.693   3.030  13.413 -0.2443 -0.9168  0.2272
  521MPD2     C 7734   4.302   1.952  17.223 -0.0479  0.5070  0.1794
  521MPD2    C1 7735   4.281   1.862  17.114  0.5465  0.9536  0.6542
  521MPD2    C2 7736   4.396   1.833  17.037  0.5356  0.0509  0.7223
  521MPD2    C3 7737   4.519   1.896  17.052 -0.4158 -0.1137  0.5874
  521MPD2    C4 7738   4.525   2.004  17.140  0.0257 -0.5235  1.0857
  521MPD2    C5 7739   4.416   2.024  17.227  0.0666 -0.2016 -0.1887
  521MPD2     H 7740   4.386   1.756  16.961 -2.4845  0.3707  0.7908
  521MPD2    H1 7741   4.613   2.066  17.152  1.1460 -2.0878  0.9875
  521MPD2    H2 7742   4.222   1.972  17.294  0.9255  0.2269  1.3446
  521MPD2    H3 7743   4.415   2.102  17.302  0.3239  0.6018 -1.0111
  521MPD2     N 7744   4.634   1.863  16.976  0.2299  0.3888 -0.4440
  521MPD2    H5 7745   4.627   1.794  16.901  2.0982 -0.7425  0.4403
  521MPD2    N1 7746   4.158   1.798  17.107  0.2544 -0.3501  0.0275
  521MPD2    H7 7747   4.092   1.820  17.181  0.6389  1.5747 -0.1807
  522TMC3    C1 7748   0.093   1.877  16.858  0.3252 -0.3954 -0.0327
  522TMC3    C2 7749   0.218   1.832  16.869 -0.5001  0.6628  0.1534
  522TMC3    C3 7750   0.271   1.768  16.764 -0.2765  0.2789 -0.2297
  522TMC3    C4 7751   0.022   1.866  16.744  0.2864  0.8285 -0.2762
  522TMC3    C5 7752   0.082   1.809  16.640  0.4292  0.0865 -0.0236
  522TMC3    C6 7753   0.209   1.764  16.645 -0.7539 -0.1186  0.4455
  522TMC3     C 7754   0.030   1.924  16.975  0.2165 -0.2266  0.4454
  522TMC3     O 7755   0.095   1.989  17.058 -0.1481  0.1600  0.1834
  522TMC3     H 7756   0.275   1.827  16.961  0.3682  1.3630 -0.3447
  522TMC3    H1 7757   4.648   1.908  16.738  0.3466  0.8329 -1.2141
  522TMC3    H2 7758   0.255   1.714  16.560  0.7248  2.6061 -0.3604
  522TMC3    C7 7759   0.030   1.810  16.507 -0.3807 -0.3675 -0.6393
  522TMC3    C8 7760   0.406   1.726  16.776 -0.3065 -0.2574  0.9844
  522TMC3    O1 7761   0.111   1.814  16.412 -0.3179 -0.0531  0.3634
  522TMC3    O2 7762   0.476   1.779  16.862 -0.1801  1.0222 -0.1123
  523MPD2     C 7763   2.274   0.549  10.716 -0.3011 -0.0650  0.0896
  523MPD2    C1 7764   2.178   0.544  10.617 -0.2388 -0.7596 -0.6239
  523MPD2    C2 7765   2.137   0.656  10.549 -0.0065  0.8134 -0.1463
  523MPD2    C3 7766   2.197   0.775  10.569 -0.2012  0.1423  0.3996
  523MPD2    C4 7767   2.304   0.788  10.663 -0.2716 -0.1378  0.0508
  523MPD2    C5 7768   2.332   0.669  10.736  0.0170 -0.2352  0.4519
  523MPD2     H 7769   2.055   0.651  10.479  0.1163  1.2308 -0.3173
  523MPD2    H1 7770   2.361   0.878  10.685  1.5111 -1.6246  1.5261
  523MPD2    H2 7771   2.313   0.473  10.782  2.1993  0.8585 -0.3218
  523MPD2    H3 7772   2.402   0.677  10.818 -0.7268 -0.0728  1.0683
  523MPD2     N 7773   2.164   0.893  10.504 -0.6128 -0.2798  0.4184
  523MPD2    H5 7774   2.200   0.978  10.546 -2.3365  0.3968  0.5305
  523MPD2    N1 7775   2.116   0.417  10.588 -0.1152 -0.2057  0.1915
  523MPD2    H7 7776   2.165   0.331  10.613  1.6769  1.0686  1.1220
  524TMC3    C1 7777   2.072   1.035  10.349  0.1463 -0.3054 -0.4036
  524TMC3    C2 7778   2.171   1.128  10.364  0.5722  0.0041  0.1121
  524TMC3    C3 7779   2.172   1.225  10.268 -0.3535 -0.5000  0.2751
  524TMC3    C4 7780   1.957   1.062  10.278  0.6308 -0.7053  0.3350
  524TMC3    C5 7781   1.955   1.168  10.193 -0.1305 -0.7245  0.3062
  524TMC3    C6 7782   2.060   1.251  10.187 -0.2874  0.2237  0.3759
  524TMC3     C 7783   2.085   0.899  10.393  0.2562  0.0653  0.0709
  524TMC3     O 7784   2.002   0.817  10.355 -0.1207 -0.4241 -0.6145
  524TMC3     H 7785   2.266   1.110  10.414  0.9962 -2.3283 -1.5114
  524TMC3    H1 7786   1.874   0.992  10.285 -0.7562  0.9907  1.0325
  524TMC3    H2 7787   2.048   1.355  10.157 -0.4511  0.3383  0.8477
  524TMC3    C7 7788   1.827   1.196  10.142 -0.6012 -0.3571  0.6600
  524TMC3    C8 7789   2.267   1.330  10.280 -0.1784  0.0453  0.1877
  524TMC3    O1 7790   1.741   1.108  10.165 -0.5889  1.1645  0.9111
  524TMC3    O2 7791   2.330   1.324  10.383 -0.0067 -0.0042  0.0988
  525MPD2     C 7792   4.547   2.700  14.243 -1.0088 -0.1633  0.3097
  525MPD2    C1 7793   4.668   2.740  14.300 -0.7306  0.0964  0.9724
  525MPD2    C2 7794   4.704   2.873  14.292  0.1738  0.1485 -0.2838
  525MPD2    C3 7795   4.619   2.963  14.227  0.4379  0.7242 -0.0344
  525MPD2    C4 7796   4.506   2.917  14.171  0.2423 -0.3589  0.4089
  525MPD2    C5 7797   4.470   2.786  14.179 -0.2757  0.5541  0.2682
  525MPD2     H 7798   0.065   2.901  14.351 -0.2719 -0.9741  0.8952
  525MPD2    H1 7799   4.426   2.980  14.133  0.1340 -0.4255  0.5256
  525MPD2    H2 7800   4.522   2.595  14.254  0.7795 -0.6001  0.2812
  525MPD2    H3 7801   4.376   2.753  14.136 -0.1590  0.8149 -0.1961
  525MPD2     N 7802   4.629   3.106  14.238  0.0484  0.3639  0.9072
  525MPD2    H5 7803   4.548   3.160  14.211 -0.9629 -1.4089  0.3375
  525MPD2    N1 7804   0.018   2.650  14.379 -0.2997  0.3361  0.0134
  525MPD2    H7 7805   0.108   2.677  14.416 -1.2278  3.2581  0.1023
  526TMC3    C1 7806   0.100   2.460  14.482  0.1695  0.2820  0.1001
  526TMC3    C2 7807   0.072   2.405  14.600 -0.1372  0.9503 -0.1879
  526TMC3    C3 7808   0.167   2.404  14.701 -0.1806  0.0156 -0.4047
  526TMC3    C4 7809   0.225   2.503  14.450 -0.4933 -1.2749  0.7311
  526TMC3    C5 7810   0.328   2.478  14.546  0.0355  0.5776  0.0403
  526TMC3    C6 7811   0.296   2.444  14.674  0.0057  0.1114 -0.1103
  526TMC3     C 7812   4.707   2.523  14.420 -0.6938  0.7752  0.2084
  526TMC3     O 7813   4.600   2.460  14.427  0.1745  0.6268  0.1645
  526TMC3     H 7814   4.694   2.387  14.624 -0.3495  2.1682 -0.1860
  526TMC3    H1 7815   0.244   2.544  14.351  1.2593 -1.6333  0.9207
  526TMC3    H2 7816   0.377   2.433  14.745  0.1500  2.1607  0.0409
  526TMC3    C7 7817   0.452   2.432  14.497  0.2884  0.3477 -0.1741
  526TMC3    C8 7818   0.127   2.386  14.841  0.2425 -0.0078  0.0023
  526TMC3    O1 7819   0.516   2.362  14.573 -0.1615  0.8637 -0.9009
  526TMC3    O2 7820   0.203   2.428  14.926  0.1377  0.2444  0.2682
  527MPD2     C 7821   3.638   0.161   1.512  0.9564 -0.2183 -0.2093
  527MPD2    C1 7822   3.698   0.250   1.601 -0.1830  0.0549  0.2922
  527MPD2    C2 7823   3.791   0.337   1.551 -0.0012 -0.4807  0.1681
  527MPD2    C3 7824   3.799   0.355   1.418  0.4602 -0.2709 -0.8613
  527MPD2    C4 7825   3.733   0.272   1.329  0.5584 -0.2003  0.0869
  527MPD2    C5 7826   3.664   0.168   1.376 -0.9211  0.0652  0.3876
  527MPD2     H 7827   3.854   0.404   1.608  0.7562 -0.9785 -0.0832
  527MPD2    H1 7828   3.760   0.272   1.224  0.7631  0.7546  0.1415
  527MPD2    H2 7829   3.589   0.073   1.553 -3.4460  2.0109 -0.7514
  527MPD2    H3 7830   3.625   0.094   1.308  0.2655  1.1597 -1.4918
  527MPD2     N 7831   3.877   0.472   1.372  0.3164 -0.4194  0.6608
  527MPD2    H5 7832   3.913   0.528   1.449  1.5675 -0.8497  0.3851
  527MPD2    N1 7833   3.679   0.248   1.745  0.3499  0.4059 -0.2430
  527MPD2    H7 7834   3.742   0.305   1.800  1.6199 -0.5671 -0.6984
  528TMC3    C1 7835   3.548   0.200   1.940  1.1290  0.6954 -0.0277
  528TMC3    C2 7836   3.621   0.292   2.016  0.2516 -0.6833  0.2687
  528TMC3    C3 7837   3.595   0.302   2.152  0.3789 -0.1335  0.2792
  528TMC3    C4 7838   3.455   0.124   1.998 -0.3093 -0.1252  0.1272
  528TMC3    C5 7839   3.442   0.130   2.137  0.1280  0.0096  0.1887
  528TMC3    C6 7840   3.510   0.220   2.220  0.1857  0.9075 -0.3023
  528TMC3     C 7841   3.564   0.190   1.794 -0.3810 -0.3405  0.5366
  528TMC3     O 7842   3.471   0.136   1.732  0.1220  0.1146  0.7401
  528TMC3     H 7843   3.684   0.366   1.967  2.3196 -1.4929  1.7004
  528TMC3    H1 7844   3.387   0.062   1.941  1.5653 -0.8019 -1.4034
  528TMC3    H2 7845   3.493   0.231   2.326 -1.8297  1.1216 -0.6391
  528TMC3    C7 7846   3.343   0.059   2.206  0.1381  0.4396 -0.4695
  528TMC3    C8 7847   3.680   0.390   2.232  0.5733 -0.4245  0.1758
  528TMC3    O1 7848   3.349   0.052   2.327 -0.0716 -0.0644  0.5471
  528TMC3    O2 7849   3.763   0.464   2.176 -0.0724  0.3556 -0.4795
  529MPD2     C 7850   4.684   3.491   0.634  0.1363 -0.1703 -0.0842
  529MPD2    C1 7851   0.004   3.602   0.697 -0.0046 -0.0004  0.1408
  529MPD2    C2 7852   4.715   3.726   0.640  0.2056 -0.1928  0.5841
  529MPD2    C3 7853   4.651   3.736   0.514 -0.3511 -0.1150  0.5427
  529MPD2    C4 7854   4.603   3.624   0.454  0.0419  0.1828 -0.7923
  529MPD2    C5 7855   4.614   3.500   0.511 -0.3357  0.0198  0.0042
  529MPD2     H 7856   0.017   3.813   0.698  0.7094 -0.6429  1.0134
  529MPD2    H1 7857   4.552   3.634   0.359  1.9664  1.4507 -1.6902
  529MPD2    H2 7858   4.707   3.392   0.673  0.7870  0.0820  0.1734
  529MPD2    H3 7859   4.578   3.414   0.455  0.4749 -1.0416  1.1090
  529MPD2     N 7860   4.631   3.856   0.444  0.2578  0.7058  0.1890
  529MPD2    H5 7861   4.582   3.845   0.356  1.0556 -2.5297  0.1501
  529MPD2    N1 7862   0.078   3.591   0.821  0.2664  0.1929 -0.3014
  529MPD2    H7 7863   0.115   3.678   0.857 -0.7549  0.2826  0.5586
  530TMC3    C1 7864   0.137   3.509   1.035 -0.6125 -0.2224 -0.4325
  530TMC3    C2 7865   0.247   3.585   1.043  0.4041  0.8920  0.5336
  530TMC3    C3 7866   0.338   3.557   1.146  0.3075 -0.2262  0.2989
  530TMC3    C4 7867   0.109   3.418   1.129  0.4905  0.3173  0.0677
  530TMC3    C5 7868   0.190   3.409   1.236  0.6177 -1.0159  0.0394
  530TMC3    C6 7869   0.309   3.474   1.239  0.4679  0.2740 -0.5011
  530TMC3     C 7870   0.060   3.493   0.914 -0.2177  0.7192  0.0706
  530TMC3     O 7871   4.720   3.387   0.902 -0.7478  0.1574  0.0162
  530TMC3     H 7872   0.276   3.646   0.959  1.4667  3.2875  2.6449
  530TMC3    H1 7873   0.019   3.358   1.124  1.1864 -0.8150  1.0687
  530TMC3    H2 7874   0.360   3.481   1.334  1.4885 -1.8382 -0.8884
  530TMC3    C7 7875   0.178   3.286   1.312 -0.0987  0.0621  0.2044
  530TMC3    C8 7876   0.441   3.666   1.175  0.7885  0.4178  0.5584
  530TMC3    O1 7877   0.073   3.231   1.303 -0.4358 -0.1414 -0.1319
  530TMC3    O2 7878   0.427   3.767   1.110 -0.7345 -0.0380 -0.3444
  531MPD2     C 7879   3.694   1.358  12.597  0.3947  0.4151  0.2849
  531MPD2    C1 7880   3.620   1.388  12.711  1.4488 -0.6265 -0.1316
  531MPD2    C2 7881   3.567   1.284  12.780  0.0565  0.3882 -0.0504
  531MPD2    C3 7882   3.584   1.155  12.741 -0.0414  0.1005 -0.5725
  531MPD2    C4 7883   3.651   1.125  12.624  0.6616 -0.0292 -0.0676
  531MPD2    C5 7884   3.708   1.233  12.560  0.8906 -0.1579  0.2071
  531MPD2     H 7885   3.520   1.301  12.877 -0.0647 -0.1675 -0.0127
  531MPD2    H1 7886   3.669   1.024  12.589  3.9998  0.8634 -0.9581
  531MPD2    H2 7887   3.754   1.434  12.547  0.3631  0.5874  0.5113
  531MPD2    H3 7888   3.769   1.219  12.471  0.0738 -0.2026 -0.3376
  531MPD2     N 7889   3.527   1.050  12.818  0.2283  0.2231  0.5354
  531MPD2    H5 7890   3.536   0.954  12.789  1.3219  1.2206 -2.4309
  531MPD2    N1 7891   3.622   1.519  12.753 -0.0775  0.3098 -0.6207
  531MPD2    H7 7892   3.682   1.581  12.698  0.4224  0.7815  0.4600
  532TMC3    C1 7893   3.568   1.708  12.881 -0.0898  0.3121 -0.0938
  532TMC3    C2 7894   3.463   1.760  12.951  0.4750  0.9810 -0.5232
  532TMC3    C3 7895   3.488   1.818  13.076 -0.0978 -0.4812 -0.4024
  532TMC3    C4 7896   3.696   1.713  12.926  0.3890  0.3524  0.0982
  532TMC3    C5 7897   3.730   1.784  13.044 -0.2842 -0.3156 -0.1795
  532TMC3    C6 7898   3.621   1.825  13.121  0.0483  0.2147 -0.3691
  532TMC3     C 7899   3.536   1.572  12.837  0.1549  0.5219 -0.2662
  532TMC3     O 7900   3.428   1.533  12.883  0.1676 -0.3750 -0.3423
  532TMC3     H 7901   3.370   1.774  12.897 -0.2526  0.2311  0.5244
  532TMC3    H1 7902   3.773   1.671  12.862 -0.0959  2.5914 -1.9656
  532TMC3    H2 7903   3.645   1.877  13.213  2.5594 -0.7692 -0.4914
  532TMC3    C7 7904   3.822   1.725  13.133  0.2111 -0.0184  0.5841
  532TMC3    C8 7905   3.404   1.763  13.181 -0.2415  0.2612  0.3619
  532TMC3    O1 7906   3.785   1.683  13.241  0.3581  0.4261 -0.3957
  532TMC3    O2 7907   3.368   1.832  13.279 -0.4455 -0.8776  0.3455
  533TMC3    C1 7908   4.680   3.292  14.348 -0.4577  0.0845  0.4225
  533TMC3    C2 7909   0.058   3.380  14.374  0.1596 -0.0389 -0.6022
  533TMC3    C3 7910   0.031   3.471  14.471 -0.8328  0.3520  0.8244
  533TMC3    C4 7911   4.554   3.297  14.399 -0.3985 -0.2866  0.2885
  533TMC3    C5 7912   4.533   3.384  14.500 -0.0551  0.9010  0.0418
  533TMC3    C6 7913   4.627   3.487  14.518  0.5485 -0.1214  0.3795
  533TMC3     C 7914   4.725   3.168  14.308  0.4863 -0.5069  0.5411
  533TMC3     O 7915   0.105   3.133  14.353  0.2231  0.1219 -0.1358
  533TMC3     H 7916   0.160   3.356  14.348  0.0748 -1.8886  0.7635
  533TMC3    H1 7917   4.475   3.226  14.376 -0.2415  0.1272 -1.5091
  533TMC3    H2 7918   4.603   3.565  14.589  1.8488  1.4616 -0.9377
  533TMC3    C7 7919   4.472   3.317  14.622  0.0451  0.5188 -0.0947
  533TMC3    C8 7920   0.126   3.567  14.525  0.3204  0.0392 -0.1243
  533TMC3    O1 7921   4.415   3.211  14.599  0.2131  0.3705  0.0335
  533TMC3    O2 7922   0.104   3.617  14.638 -0.2996  0.3101 -0.0267
  534MPD2     C 7923   2.977   4.010   2.317 -0.4577  0.1577 -0.5578
  534MPD2    C1 7924   3.023   4.068   2.199 -0.2759  0.6797 -0.0076
  534MPD2    C2 7925   2.938   4.055   2.086  0.2282  0.1949  0.3243
  534MPD2    C3 7926   2.805   4.010   2.104  0.3264  0.0832 -0.1327
  534MPD2    C4 7927   2.767   3.958   2.225  0.0013  0.2489 -0.4577
  534MPD2    C5 7928   2.854   3.958   2.325 -0.1080 -0.2754  0.2077
  534MPD2     H 7929   2.973   4.083   1.988 -4.5023  0.7529 -1.2470
  534MPD2    H1 7930   2.675   3.908   2.255  0.6219 -0.5315  0.1472
  534MPD2    H2 7931   3.043   4.013   2.404 -0.1897 -1.5087 -0.7077
  534MPD2    H3 7932   2.827   3.910   2.419 -2.2553 -0.3473 -0.4555
  534MPD2     N 7933   2.718   4.020   1.995 -0.0617  0.2671  0.1062
  534MPD2    H5 7934   2.764   4.068   1.918 -0.6023  1.7737  0.7245
  534MPD2    N1 7935   3.151   4.121   2.176 -0.0909  0.1450 -0.1678
  534MPD2    H7 7936   3.168   4.160   2.084 -0.3736 -1.7592 -1.0350
  535TMC3    C1 7937   2.551   3.964   1.845 -0.0410 -0.0769 -0.2234
  535TMC3    C2 7938   2.422   4.007   1.824 -0.8015  0.2289  0.3888
  535TMC3    C3 7939   2.386   4.068   1.710 -0.8076 -0.5765  0.4055
  535TMC3    C4 7940   2.639   3.985   1.738  0.3975 -0.5900  0.4788
  535TMC3    C5 7941   2.590   4.033   1.622  0.0232 -0.9899 -0.3648
  535TMC3    C6 7942   2.467   4.084   1.604  0.6379 -0.4511 -0.2874
  535TMC3     C 7943   2.592   3.963   1.985 -0.2131 -0.0743 -0.1598
  535TMC3     O 7944   2.519   3.916   2.068 -0.6954  0.1669 -0.2252
  535TMC3     H 7945   2.353   3.990   1.906 -0.9966  0.2120  0.2205
  535TMC3    H1 7946   2.745   3.963   1.748  0.7340  1.9869  2.8139
  535TMC3    H2 7947   2.433   4.120   1.508  0.5567 -0.5374 -0.2914
  535TMC3    C7 7948   2.693   4.074   1.530 -0.2194  0.8515 -0.6187
  535TMC3    C8 7949   2.252   4.106   1.707  0.7358 -0.5879 -0.1083
  535TMC3    O1 7950   2.790   4.004   1.521 -0.3575  0.0040 -0.5732
  535TMC3    O2 7951   2.184   4.085   1.610  0.0033  0.0934  0.2192
  536MPD2     C 7952   1.328   2.147  16.372  0.1805  0.2322 -0.5528
  536MPD2    C1 7953   1.372   2.275  16.402  0.2746  0.3570 -0.0718
  536MPD2    C2 7954   1.344   2.371  16.308 -0.0314 -0.2810 -0.1839
  536MPD2    C3 7955   1.283   2.339  16.184  0.9857 -0.3953  0.1705
  536MPD2    C4 7956   1.252   2.212  16.153  0.3989  0.1800 -0.3503
  536MPD2    C5 7957   1.272   2.115  16.250 -0.2720 -0.1250 -0.4244
  536MPD2     H 7958   1.360   2.475  16.333 -1.5851 -0.0421 -0.1468
  536MPD2    H1 7959   1.202   2.182  16.062 -1.0741 -0.4483  0.6539
  536MPD2    H2 7960   1.352   2.065  16.439  0.1202  0.3474 -0.3901
  536MPD2    H3 7961   1.242   2.013  16.231 -0.1812 -0.0325 -1.0575
  536MPD2     N 7962   1.255   2.432  16.086 -0.2454  0.0731 -0.5764
  536MPD2    H5 7963   1.233   2.400  15.992  1.9879  0.1056 -1.1066
  536MPD2    N1 7964   1.440   2.297  16.520 -0.0176  0.2484 -0.5098
  536MPD2    H7 7965   1.433   2.224  16.591 -0.4858  1.1184  0.3465
  537TMC3    C1 7966   1.563   2.416  16.686  0.1080  0.6089 -0.1629
  537TMC3    C2 7967   1.585   2.541  16.736  0.1295 -0.1801 -0.7118
  537TMC3    C3 7968   1.588   2.557  16.868 -0.1147  0.3223 -0.1258
  537TMC3    C4 7969   1.550   2.309  16.768  0.4942 -0.3064 -0.7158
  537TMC3    C5 7970   1.554   2.326  16.902 -0.0921 -0.2612  0.0861
  537TMC3    C6 7971   1.581   2.449  16.953  0.0609 -0.0915  1.0784
  537TMC3     C 7972   1.505   2.414  16.554 -0.0243  0.4739 -0.1197
  537TMC3     O 7973   1.516   2.521  16.494 -0.1842 -0.0341  0.3431
  537TMC3     H 7974   1.584   2.631  16.676 -1.7271 -0.3824 -1.0076
  537TMC3    H1 7975   1.533   2.210  16.726 -1.9937 -0.4375  0.5668
  537TMC3    H2 7976   1.591   2.462  17.060  1.2609  2.6765  0.6258
  537TMC3    C7 7977   1.575   2.202  16.979 -0.7858  0.5047  0.2779
  537TMC3    C8 7978   1.639   2.679  16.924  0.4126 -0.3922  0.1097
  537TMC3    O1 7979   1.555   2.093  16.927 -0.2149  0.0197  0.7861
  537TMC3    O2 7980   1.600   2.702  17.038  0.1437  0.2161  0.1920
  538TMC3    C1 7981   2.527   4.696  11.175 -0.0055  0.8305  0.0201
  538TMC3    C2 7982   2.598   4.641  11.067 -0.1113 -0.0940 -0.6023
  538TMC3    C3 7983   2.555   4.653  10.940  0.2892 -0.3997 -0.2901
  538TMC3    C4 7984   2.421   0.048  11.148  1.2124 -0.4264  0.7942
  538TMC3    C5 7985   2.378   0.071  11.021 -0.7188  0.0512  0.0897
  538TMC3    C6 7986   2.438   0.002  10.920  0.1728 -0.2337 -0.5520
  538TMC3     C 7987   2.586   4.712  11.306  0.4493 -0.2237  0.1396
  538TMC3     O 7988   2.698   4.668  11.320 -0.0617  0.1235 -0.0106
  538TMC3     H 7989   2.688   4.586  11.089  0.1269 -0.1344 -1.7021
  538TMC3    H1 7990   2.391   0.116  11.228  2.5904 -0.2121  1.1202
  538TMC3    H2 7991   2.380   0.015  10.830 -0.6981 -0.6089 -0.0437
  538TMC3    C7 7992   2.289   0.176  10.990  0.0354  0.0646  0.4608
  538TMC3    C8 7993   2.652   4.697  10.845 -0.0176 -1.0446 -0.2780
  538TMC3    O1 7994   2.192   0.156  10.917 -0.0778  0.1305 -0.1274
  538TMC3    O2 7995   2.612   0.064  10.782  0.1331  0.1445 -0.0708
  539MPD2     C 7996   1.974   4.368  12.371  0.0091  0.1482  0.1396
  539MPD2    C1 7997   1.970   4.362  12.233 -0.3716  0.1398 -0.1448
  539MPD2    C2 7998   1.938   4.479  12.160  0.1371 -0.3973  0.5205
  539MPD2    C3 7999   1.910   4.600  12.224  0.4159  0.2292 -0.6183
  539MPD2    C4 8000   1.929   4.608  12.357 -0.2445 -0.4534  0.4470
  539MPD2    C5 8001   1.954   4.489  12.426 -0.7330  0.0087  0.0211
  539MPD2     H 8002   1.930   4.459  12.054  1.6457 -0.8027  0.4787
  539MPD2    H1 8003   1.928   4.702  12.411  0.2939 -0.0610 -0.2262
  539MPD2    H2 8004   1.986   4.288  12.443  1.3297 -0.5173 -0.8265
  539MPD2    H3 8005   1.956   4.504  12.533  1.6744 -0.1039 -0.0018
  539MPD2     N 8006   1.871   4.721  12.156  0.1401  0.9930  0.3374
  539MPD2    H5 8007   1.869   0.079  12.214  2.9977  0.8901  0.5906
  539MPD2    N1 8008   2.002   4.244  12.153  0.6675 -0.5932 -0.1041
  539MPD2    H7 8009   1.986   4.257  12.054  2.1130 -2.4041 -0.5752
  540TMC3    C1 8010   1.791   0.127  11.987 -0.2432 -0.4548  0.2041
  540TMC3    C2 8011   1.768   0.154  11.854 -0.1427 -0.1180 -0.2006
  540TMC3    C3 8012   1.725   0.277  11.823  0.1186  0.0376  0.2528
  540TMC3    C4 8013   1.730   0.195  12.091 -0.9190  0.2715  0.0631
  540TMC3    C5 8014   1.682   0.322  12.053 -0.5759 -0.0167 -0.0283
  540TMC3    C6 8015   1.689   0.363  11.922 -0.3749 -0.0101 -0.3311
  540TMC3     C 8016   1.848   0.000  12.023 -0.0972 -0.4774  0.6850
  540TMC3     O 8017   1.890   4.655  11.935 -0.1798 -0.1587  0.0599
  540TMC3     H 8018   1.806   0.093  11.773  1.0201 -2.0360  1.8170
  540TMC3    H1 8019   1.710   0.168  12.194 -0.7634 -1.8818 -0.4765
  540TMC3    H2 8020   1.643   0.452  11.882 -0.2185  1.3690  2.5999
  540TMC3    C7 8021   1.580   0.385  12.143 -0.2220 -0.2709 -0.2269
  540TMC3    C8 8022   1.758   0.331  11.692 -0.0514  0.1757 -0.2886
  540TMC3    O1 8023   1.514   0.314  12.220 -0.3631  0.2470  0.1415
  540TMC3    O2 8024   1.789   0.447  11.677  0.1777 -0.2620  0.1341
  541MPD2     C 8025   0.578   1.686  13.727 -0.0346  0.2884 -0.7769
  541MPD2    C1 8026   0.452   1.700  13.672  0.2639 -0.3211  0.2157
  541MPD2    C2 8027   0.450   1.734  13.534  0.2238 -0.3033  0.3273
  541MPD2    C3 8028   0.565   1.765  13.468 -0.2108  0.3138  0.1149
  541MPD2    C4 8029   0.689   1.762  13.531  0.8665 -1.1260  0.7883
  541MPD2    C5 8030   0.694   1.708  13.656  0.0857 -0.2824 -0.0444
  541MPD2     H 8031   0.364   1.725  13.469  2.3205 -0.2135 -2.4583
  541MPD2    H1 8032   0.783   1.770  13.479  0.7981 -2.0852  0.5092
  541MPD2    H2 8033   0.589   1.663  13.833  0.8551 -2.8488 -1.5394
  541MPD2    H3 8034   0.789   1.702  13.708  0.8899  1.1253 -1.3153
  541MPD2     N 8035   0.548   1.784  13.328  0.6774 -0.2480 -0.5548
  541MPD2    H5 8036   0.459   1.762  13.284  0.2192  0.8448 -0.1977
  541MPD2    N1 8037   0.334   1.660  13.743 -1.0463  0.1157 -0.1893
  541MPD2    H7 8038   0.354   1.618  13.834 -0.3704 -1.0505 -0.8780
  542TMC3    C1 8039   0.589   1.792  13.101 -0.3286  0.2975 -0.2004
  542TMC3    C2 8040   0.639   1.683  13.030 -0.2539  0.2357  0.9921
  542TMC3    C3 8041   0.562   1.641  12.923  0.5892  0.4924  0.4167
  542TMC3    C4 8042   0.459   1.828  13.079 -0.7808  0.5052  0.3250
  542TMC3    C5 8043   0.381   1.773  12.979 -0.4573 -0.3233  0.4625
  542TMC3    C6 8044   0.435   1.679  12.897  0.3325  0.3022 -0.5326
  542TMC3     C 8045   0.641   1.803  13.234 -0.4499  0.0243 -0.1771
  542TMC3     O 8046   0.763   1.798  13.240 -0.1494 -0.1540 -0.0521
  542TMC3     H 8047   0.741   1.654  13.053  0.7948  0.9664 -2.8515
  542TMC3    H1 8048   0.403   1.892  13.147 -0.7300  0.8610  0.0359
  542TMC3    H2 8049   0.372   1.649  12.814 -0.1470  0.7904 -0.3415
  542TMC3    C7 8050   0.232   1.795  12.990 -0.0522  0.2570  0.3076
  542TMC3    C8 8051   0.608   1.528  12.847 -0.1332  0.5811 -0.6162
  542TMC3    O1 8052   0.186   1.895  13.043  0.0109  0.0496  0.2343
  542TMC3    O2 8053   0.527   1.468  12.777  0.3049  0.3537 -0.2054
  543TMC3    C1 8054   0.050   3.167  17.505 -0.0173 -0.0295 -0.7018
  543TMC3    C2 8055   0.029   3.047  17.559  0.3269 -0.5353 -0.3901
  543TMC3    C3 8056   4.723   3.034  17.689  0.3879 -0.1731  0.1244
  543TMC3    C4 8057   0.041   3.279  17.588 -0.3011  0.2877  0.3927
  543TMC3    C5 8058   0.017   3.262   0.020  0.6003  0.5663 -0.2302
  543TMC3    C6 8059   0.006   3.141   0.075  0.2103  0.7766 -0.3723
  543TMC3     C 8060   0.115   3.157  17.373 -0.3453  0.1819  0.4350
  543TMC3     O 8061   0.153   3.044  17.342 -0.1074 -0.5563  0.2629
  543TMC3     H 8062   0.018   2.956  17.502  1.1689 -1.1408  0.4130
  543TMC3    H1 8063   0.064   3.378  17.549  1.9748 -0.5763 -0.4838
  543TMC3    H2 8064   4.701   3.131   0.178  1.7119 -5.3273 -0.5554
  543TMC3    C7 8065   0.040   3.378   0.108  0.4726 -0.3574 -0.0453
  543TMC3    C8 8066   0.004   2.894   0.036 -0.7042 -0.1111 -1.0261
  543TMC3    O1 8067   0.028   3.488   0.055 -0.1739  0.1490 -0.7158
  543TMC3    O2 8068   0.045   2.806  17.666  0.8449 -0.7171 -0.7868
  544MPD2     C 8069   4.660   2.584   0.445 -0.7010  0.3774  1.0144
  544MPD2    C1 8070   4.720   2.558   0.320 -0.0412  0.5220 -0.0389
  544MPD2    C2 8071   0.003   2.656   0.225 -0.0436 -0.0682 -0.0902
  544MPD2    C3 8072   4.677   2.778   0.253 -0.2530 -0.0311 -0.8346
  544MPD2    C4 8073   4.612   2.803   0.372 -0.0023  0.1866  0.2698
  544MPD2    C5 8074   4.608   2.709   0.468  0.0968  0.8442 -0.1034
  544MPD2     H 8075   0.073   2.648   0.142 -0.9203  0.2562 -0.8682
  544MPD2    H1 8076   4.558   2.892   0.401  1.4419  0.4399  2.2231
  544MPD2    H2 8077   4.650   2.509   0.523 -0.1789 -0.2347  0.4983
  544MPD2    H3 8078   4.551   2.716   0.560 -0.2271 -0.3293 -0.2139
  544MPD2     N 8079   4.690   2.889   0.165 -0.0234  0.1019 -1.2357
  544MPD2    H5 8080   4.649   2.977   0.196 -1.1957 -1.1072  0.6303
  544MPD2    N1 8081   0.024   2.424   0.297 -0.4723  0.0155  0.6938
  544MPD2    H7 8082   0.013   2.366   0.380 -0.8576  2.5639  2.4305
  545TMC3    C1 8083   0.051   2.216   0.186 -0.5177  0.4421 -0.3023
  545TMC3    C2 8084   0.031   2.143   0.076  0.1915 -0.3578 -0.1282
  545TMC3    C3 8085   0.079   2.014   0.056 -0.4311 -0.4485 -0.6257
  545TMC3    C4 8086   0.129   2.162   0.286  0.6018  0.5016  0.2643
  545TMC3    C5 8087   0.176   2.036   0.261  0.6201  1.0117 -0.4579
  545TMC3    C6 8088   0.150   1.959   0.157 -0.4230 -0.3955 -0.2293
  545TMC3     C 8089   0.051   2.366   0.175 -0.0741  0.6309  0.1097
  545TMC3     O 8090   0.049   2.421   0.065 -0.0234 -0.4838 -0.4577
  545TMC3     H 8091   4.694   2.191   0.002  1.8974 -1.8280 -2.5480
  545TMC3    H1 8092   0.162   2.213   0.376 -0.1681  0.8429  0.3531
  545TMC3    H2 8093   0.168   1.852   0.152 -0.8446 -0.5295  1.3076
  545TMC3    C7 8094   0.246   1.972   0.370  0.1465  0.2113 -0.0268
  545TMC3    C8 8095   0.042   1.947  17.636  0.5702  0.1188  0.0465
  545TMC3    O1 8096   0.226   2.015   0.481  0.1653  0.3061  0.2212
  545TMC3    O2 8097   4.682   2.003  17.566 -0.6966  0.2789 -0.2973
  546MPD2     C 8098   1.589   3.111   0.210  0.4775  0.4860 -0.0741
  546MPD2    C1 8099   1.592   3.123   0.072 -0.4385  0.0125 -0.2072
  546MPD2    C2 8100   1.633   3.245   0.015  0.1287  0.3384  0.9122
  546MPD2    C3 8101   1.673   3.351   0.096  0.9261  1.0485  0.4481
  546MPD2    C4 8102   1.661   3.331   0.229 -0.1605 -0.6730 -0.1095
  546MPD2    C5 8103   1.633   3.210   0.284  0.4064  0.3371  0.1454
  546MPD2     H 8104   1.629   3.252  17.610 -2.9013  0.6412  1.0441
  546MPD2    H1 8105   1.691   3.410   0.298  2.2348  0.0712 -2.0037
  546MPD2    H2 8106   1.564   3.018   0.262 -0.2509  0.6420 -0.1403
  546MPD2    H3 8107   1.642   3.199   0.392  2.2851  1.8062  0.1266
  546MPD2     N 8108   1.715   3.475   0.046  0.0984  0.0822 -0.0777
  546MPD2    H5 8109   1.750   3.539   0.117  2.5797 -0.7838 -0.5290
  546MPD2    N1 8110   1.525   3.021  17.701 -0.2150  0.8582 -0.0390
  546MPD2    H7 8111   1.473   2.955   0.054  0.5096 -0.3932 -0.8364
  547TMC3    C1 8112   1.403   2.918  17.524  0.7632  0.6800  0.5278
  547TMC3    C2 8113   1.318   2.950  17.422  0.1041 -0.2877  0.1526
  547TMC3    C3 8114   1.187   2.906  17.433  0.1100 -0.5744  1.0362
  547TMC3    C4 8115   1.373   2.827  17.620 -0.3075 -0.0115  0.0885
  547TMC3    C5 8116   1.244   2.778  17.630 -0.3595  0.1111 -0.1270
  547TMC3    C6 8117   1.150   2.815  17.534 -0.1370  0.2662 -0.2842
  547TMC3     C 8118   1.506   3.012  17.564 -0.3253  0.2071  0.4987
  547TMC3     O 8119   1.550   3.077  17.473  0.0067  0.5028 -1.2866
  547TMC3     H 8120   1.357   3.023  17.352  0.8899 -1.5252 -0.7082
  547TMC3    H1 8121   1.436   2.786  17.698 -0.0139  1.3011  0.5391
  547TMC3    H2 8122   1.050   2.774  17.542  0.2952 -1.0511 -1.6583
  547TMC3    C7 8123   1.194   2.752   0.057 -0.6632 -0.5454  0.5275
  547TMC3    C8 8124   1.108   2.903  17.312  0.8904 -0.1397 -0.3468
  547TMC3    O1 8125   1.257   2.810   0.143  0.1744 -0.8448  0.1139
  547TMC3    O2 8126   0.989   2.868  17.315 -0.4673  0.2793 -0.0736
  548MPD2     C 8127   1.542   3.394  12.656 -0.1823  0.3319 -0.4137
  548MPD2    C1 8128   1.497   3.275  12.709  0.2038  0.3306 -0.5309
  548MPD2    C2 8129   1.573   3.161  12.690  0.2443 -0.8063 -0.3339
  548MPD2    C3 8130   1.681   3.171  12.610  0.0741  0.5339  0.1953
  548MPD2    C4 8131   1.719   3.286  12.544 -0.4007  0.0537  0.6386
  548MPD2    C5 8132   1.650   3.398  12.572  0.2913  0.2884  0.0128
  548MPD2     H 8133   1.534   3.065  12.724 -2.7812  0.6011  0.1491
  548MPD2    H1 8134   1.806   3.284  12.480 -1.1705  1.0706 -0.4298
  548MPD2    H2 8135   1.489   3.487  12.674  0.0051  0.0542  1.6064
  548MPD2    H3 8136   1.684   3.487  12.521  0.3647 -0.0843 -0.5961
  548MPD2     N 8137   1.753   3.047  12.587 -0.1985 -0.0123 -0.1418
  548MPD2    H5 8138   1.723   2.962  12.634  2.3681 -1.3680 -0.9559
  548MPD2    N1 8139   1.381   3.283  12.794 -0.0950  0.2168 -0.2704
  548MPD2    H7 8140   1.334   3.372  12.802 -0.6162 -0.2945  2.2013
  549TMC3    C1 8141   1.191   3.196  12.916 -0.0329  0.0015 -0.0079
  549TMC3    C2 8142   1.106   3.285  12.851 -0.1457  0.1055 -0.4616
  549TMC3    C3 8143   0.974   3.295  12.888 -0.6339 -1.9581  0.1477
  549TMC3    C4 8144   1.138   3.114  13.014  0.2204  0.2644  0.2892
  549TMC3    C5 8145   1.003   3.131  13.049  0.0901  0.2710 -0.2755
  549TMC3    C6 8146   0.914   3.218  12.985 -0.0258 -0.2557 -0.2568
  549TMC3     C 8147   1.323   3.173  12.855 -0.2280 -0.2473  0.0040
  549TMC3     O 8148   1.356   3.055  12.860  0.1574 -0.3759 -0.4624
  549TMC3     H 8149   1.139   3.333  12.759  1.8158 -0.9207 -0.3010
  549TMC3    H1 8150   1.207   3.056  13.074 -0.0435 -1.6688 -1.2623
  549TMC3    H2 8151   0.810   3.234  13.009  0.5264  0.5208  1.5809
  549TMC3    C7 8152   0.956   3.094  13.178 -0.4600 -0.1060  0.5093
  549TMC3    C8 8153   0.891   3.391  12.820  0.0051  0.6781  0.3016
  549TMC3    O1 8154   0.886   3.172  13.241 -0.0019  0.4640  0.3811
  549TMC3    O2 8155   0.771   3.358  12.814  0.0665 -0.0186  0.2833
  550TMC3    C1 8156   0.263   0.468  12.027 -0.2213 -0.1133 -0.4387
  550TMC3    C2 8157   0.258   0.602  12.059 -0.9437 -0.7413  0.4367
  550TMC3    C3 8158   0.296   0.637  12.185 -0.0270 -0.4986 -0.9128
  550TMC3    C4 8159   0.305   0.372  12.118 -0.3984  0.3536 -0.2539
  550TMC3    C5 8160   0.332   0.412  12.248  0.3807 -0.8354 -0.0156
  550TMC3    C6 8161   0.327   0.547  12.281 -0.3214 -0.0154  0.5834
  550TMC3     C 8162   0.262   0.418  11.891  0.3875 -0.2883 -0.2618
  550TMC3     O 8163   0.333   0.322  11.871 -0.4969  0.2847 -0.0130
  550TMC3     H 8164   0.209   0.680  12.002  0.1669  0.5292  1.2127
  550TMC3    H1 8165   0.291   0.267  12.094 -0.7007  0.1469  0.8524
  550TMC3    H2 8166   0.359   0.575  12.380  0.9894  0.4395  0.0351
  550TMC3    C7 8167   0.276   0.320  12.344 -0.4987 -0.1521 -0.7943
  550TMC3    C8 8168   0.268   0.775  12.238 -0.0986  0.3610 -0.4930
  550TMC3    O1 8169   0.178   0.252  12.317  0.6342  0.1627  0.1215
  550TMC3    O2 8170   0.208   0.849  12.165 -0.4912 -0.0991 -0.5111
  551TMC3    C1 8171   2.316   3.712  13.690 -0.7420  1.1524 -0.3823
  551TMC3    C2 8172   2.387   3.769  13.587 -0.1868  0.1710  0.5321
  551TMC3    C3 8173   2.431   3.890  13.613 -0.0287  0.0434 -0.5906
  551TMC3    C4 8174   2.294   3.768  13.814  0.5293 -0.4233 -0.1967
  551TMC3    C5 8175   2.358   3.889  13.841 -0.4871 -0.3638 -0.0257
  551TMC3    C6 8176   2.419   3.955  13.739  0.2654  0.4204  0.3333
  551TMC3     C 8177   2.221   3.617  13.640  0.2012  0.7220 -0.2489
  551TMC3     O 8178   2.274   3.544  13.556  0.1749  0.5628  0.3112
  551TMC3     H 8179   2.392   3.723  13.489  0.5117  2.2926 -0.4279
  551TMC3    H1 8180   2.239   3.719  13.894 -0.2329  0.3617 -0.2464
  551TMC3    H2 8181   2.483   4.039  13.761  0.9967 -0.0372 -0.0696
  551TMC3    C7 8182   2.361   3.937  13.978  0.3380 -0.4553 -0.2035
  551TMC3    C8 8183   2.513   3.947  13.511 -0.2312 -0.0454  0.9514
  551TMC3    O1 8184   2.359   3.860  14.070  0.3713 -0.7696  0.2549
  551TMC3    O2 8185   2.564   3.874  13.425 -0.8166  0.6297  0.1463
  552MPD2     C 8186   4.594   1.594  14.094 -0.4694  0.1780 -0.1416
  552MPD2    C1 8187   4.511   1.517  14.172 -0.4178  0.1307 -0.1009
  552MPD2    C2 8188   4.558   1.479  14.298 -0.6411 -0.0998 -1.2522
  552MPD2    C3 8189   4.668   1.530  14.353  1.1720  0.2355 -0.2654
  552MPD2    C4 8190   0.019   1.614  14.273  0.3195  0.3573 -0.4096
  552MPD2    C5 8191   4.711   1.639  14.145 -0.2253  0.5899 -0.3634
  552MPD2     H 8192   4.498   1.411  14.358  0.2424  0.6427  0.4728
  552MPD2    H1 8193   0.115   1.649  14.308  0.3191 -2.1281  2.1305
  552MPD2    H2 8194   4.572   1.635  13.996  0.3404 -1.0195 -0.8248
  552MPD2    H3 8195   0.060   1.685  14.082  0.0656  2.8416  1.6381
  552MPD2     N 8196   4.722   1.499  14.483  0.3465  0.8108 -0.0152
  552MPD2    H5 8197   0.086   1.541  14.506  1.0694 -1.6476  1.6672
  552MPD2    N1 8198   4.396   1.464  14.124 -0.4961 -0.3647  0.2829
  552MPD2    H7 8199   4.346   1.404  14.189 -0.2583 -0.1233  0.6903
  553TMC3    C1 8200   4.232   1.382  13.964  0.0887 -0.7508 -0.6870
  553TMC3    C2 8201   4.175   1.397  13.839 -0.0483  0.0010  0.5929
  553TMC3    C3 8202   4.067   1.323  13.810  0.3709  0.8247 -0.4813
  553TMC3    C4 8203   4.180   1.297  14.055 -0.2980  0.2033  0.2933
  553TMC3    C5 8204   4.086   1.209  14.016  0.3411  0.1855 -0.0693
  553TMC3    C6 8205   4.019   1.227  13.898  0.0821 -0.0667 -0.0739
  553TMC3     C 8206   4.336   1.480  14.000  0.0699  0.4928  0.3371
  553TMC3     O 8207   4.355   1.566  13.913  0.0781  0.2618 -0.6362
  553TMC3     H 8208   4.209   1.458  13.756  0.5078 -1.3392 -0.1636
  553TMC3    H1 8209   4.210   1.302  14.159 -0.7885 -1.2945  0.5015
  553TMC3    H2 8210   3.956   1.146  13.865 -2.8381  1.8805  0.6984
  553TMC3    C7 8211   4.069   1.092  14.098  0.0520 -0.1975 -0.1214
  553TMC3    C8 8212   4.034   1.307  13.668  0.5972  0.5283  0.2303
  553TMC3    O1 8213   3.975   1.024  14.075 -0.4499 -0.2476  0.0901
  553TMC3    O2 8214   4.129   1.305  13.594 -0.2581  0.7600 -0.2380
  554TMC3    C1 8215   0.986   4.706  11.975  0.8819  0.7216  0.5765
  554TMC3    C2 8216   0.950   4.599  11.895 -0.4269 -1.1220 -0.1369
  554TMC3    C3 8217   1.017   4.568  11.777 -0.3379 -0.3488 -0.8308
  554TMC3    C4 8218   1.079   0.071  11.925 -1.1464  0.6322  0.5953
  554TMC3    C5 8219   1.154   0.037  11.817  0.2276 -0.0566 -0.5951
  554TMC3    C6 8220   1.117   4.653  11.743 -0.0312 -0.2171  0.3028
  554TMC3     C 8221   0.965   4.702  12.116  0.5136 -0.1120  0.4977
  554TMC3     O 8222   0.951   0.080  12.184  0.2060  0.1013 -0.3800
  554TMC3     H 8223   0.878   4.523  11.923 -0.1532 -1.1663  0.4413
  554TMC3    H1 8224   1.099   0.164  11.977 -1.4468  0.5351  0.8830
  554TMC3    H2 8225   1.182   4.632  11.658  0.3471 -1.4161  0.8750
  554TMC3    C7 8226   1.209   0.141  11.734 -0.7315  0.5965  0.4582
  554TMC3    C8 8227   0.959   4.474  11.682 -0.2079 -0.2748  0.3469
  554TMC3    O1 8228   1.172   0.126  11.619  0.2070  0.5121 -0.4245
  554TMC3    O2 8229   1.036   4.425  11.599 -0.3594  0.0268 -0.2372
  555TMC3    C1 8230   0.624   4.643  15.411 -0.4073  0.1064 -0.4913
  555TMC3    C2 8231   0.736   4.641  15.485  0.8125  0.8160  0.1060
  555TMC3    C3 8232   0.791   4.516  15.514  0.5920 -0.3356 -0.4417
  555TMC3    C4 8233   0.563   4.527  15.369  0.1163 -0.1957 -0.0625
  555TMC3    C5 8234   0.615   4.409  15.407 -0.6662  0.0916  0.5010
  555TMC3    C6 8235   0.728   4.400  15.478  0.3889  0.1524  0.2102
  555TMC3     C 8236   0.568   0.046  15.371  0.0381 -0.2108 -0.7153
  555TMC3     O 8237   0.647   0.142  15.366 -0.4953  0.6559 -0.4776
  555TMC3     H 8238   0.783   0.009  15.513  1.4625  0.4373  0.2859
  555TMC3    H1 8239   0.476   4.535  15.305  0.6689  0.2276 -0.7765
  555TMC3    H2 8240   0.768   4.299  15.481 -3.0001 -1.0780  5.2530
  555TMC3    C7 8241   0.548   4.288  15.370  0.4453  0.9317 -0.7604
  555TMC3    C8 8242   0.900   4.510  15.613  0.4361  0.3385 -0.0379
  555TMC3    O1 8243   0.579   4.182  15.430 -0.1297  0.3488 -0.9681
  555TMC3    O2 8244   0.958   4.620  15.619  0.1545 -0.1116 -0.0098
  556MPD2     C 8245   3.002   0.969  10.705 -0.3670  0.1234 -0.2125
  556MPD2    C1 8246   2.993   0.846  10.766  0.0998  0.2683 -0.8236
  556MPD2    C2 8247   2.950   0.738  10.695 -0.5325 -0.3835 -0.0606
  556MPD2    C3 8248   2.937   0.755  10.556  0.0750 -0.1026 -0.3198
  556MPD2    C4 8249   2.945   0.881  10.489  0.1938  0.8372 -0.1110
  556MPD2    C5 8250   2.979   0.986  10.567  0.5483  0.2294  0.6689
  556MPD2     H 8251   2.927   0.649  10.753 -0.9979 -0.2287 -0.0008
  556MPD2    H1 8252   2.937   0.907  10.384  1.0073 -3.1390 -1.1627
  556MPD2    H2 8253   3.023   1.060  10.760  2.5266 -1.2289  0.8696
  556MPD2    H3 8254   2.986   1.085  10.523  2.6435  0.3631  1.3357
  556MPD2     N 8255   2.908   0.639  10.485  0.4068  0.1811  0.0776
  556MPD2    H5 8256   2.908   0.551  10.535 -0.0910  1.3540  2.1452
  556MPD2    N1 8257   3.026   0.831  10.906 -0.1507 -0.0703 -0.2874
  556MPD2    H7 8258   3.014   0.738  10.944  0.3768  0.0204  0.1053
  557TMC3    C1 8259   2.890   0.497  10.298 -0.7344  0.6404 -0.0090
  557TMC3    C2 8260   2.820   0.475  10.180 -0.0761  0.5382  0.4161
  557TMC3    C3 8261   2.824   0.358  10.117  0.2841  0.2783  0.5136
  557TMC3    C4 8262   2.967   0.400  10.346  0.1899 -0.1865  1.0081
  557TMC3    C5 8263   2.976   0.284  10.286  0.9212 -0.9381 -0.3251
  557TMC3    C6 8264   2.907   0.262  10.163 -0.2935  0.3879 -0.5161
  557TMC3     C 8265   2.881   0.627  10.350  0.1826 -0.1194  0.4388
  557TMC3     O 8266   2.867   0.711  10.265 -0.7510  0.0590 -0.2613
  557TMC3     H 8267   2.750   0.548  10.141 -1.4019 -0.9778 -0.0427
  557TMC3    H1 8268   3.025   0.396  10.438  2.7534  0.3609 -0.5858
  557TMC3    H2 8269   2.920   0.166  10.113  1.4008 -1.1338  2.8346
  557TMC3    C7 8270   3.022   0.174  10.361  0.4725  0.4136 -0.5082
  557TMC3    C8 8271   2.689   0.322  10.069  0.5151  1.1015 -0.5016
  557TMC3    O1 8272   3.085   0.089  10.300 -0.2660 -0.5668  0.1034
  557TMC3    O2 8273   2.601   0.411  10.073  0.5220 -0.3867 -0.3539
  558TMC3    C1 8274   1.070   3.520  10.660 -0.6720  0.8795 -0.3065
  558TMC3    C2 8275   0.951   3.483  10.719 -0.2784  0.0902 -0.6530
  558TMC3    C3 8276   0.859   3.433  10.636 -0.4283  0.2098  0.4070
  558TMC3    C4 8277   1.103   3.483  10.529 -0.1071  0.8079 -0.5673
  558TMC3    C5 8278   1.008   3.424  10.450 -0.2214 -0.3244 -0.4944
  558TMC3    C6 8279   0.880   3.402  10.504 -0.5565  0.2568 -0.5189
  558TMC3     C 8280   1.179   3.550  10.750  0.3733 -0.4371 -0.1297
  558TMC3     O 8281   1.270   3.618  10.706 -0.6123  0.1462  0.7711
  558TMC3     H 8282   0.912   3.514  10.815  0.3007 -0.9023 -0.1008
  558TMC3    H1 8283   1.204   3.495  10.491 -0.2461 -0.7273 -1.4186
  558TMC3    H2 8284   0.803   3.370  10.435 -1.3550  0.0531  0.4627
  558TMC3    C7 8285   1.042   3.414  10.310  0.4614  0.1767 -0.3480
  558TMC3    C8 8286   0.718   3.404  10.677  1.0881  0.2312  0.1143
  558TMC3    O1 8287   1.100   3.515  10.274  0.4441  0.2953 -0.5807
  558TMC3    O2 8288   0.622   3.434  10.608  0.0459 -0.2362 -0.2235
  559MPD2     C 8289   0.860   3.966  10.915  0.4090 -0.5842  0.1772
  559MPD2    C1 8290   0.825   3.861  10.996 -0.3492  0.3630 -0.2699
  559MPD2    C2 8291   0.916   3.798  11.073  0.2208 -0.3689  0.1438
  559MPD2    C3 8292   1.052   3.848  11.077 -0.1947 -0.3779  0.1812
  559MPD2    C4 8293   1.082   3.963  11.011 -0.2198  0.2694 -0.8047
  559MPD2    C5 8294   0.982   4.024  10.939  0.6719 -0.4437  0.4704
  559MPD2     H 8295   0.902   3.713  11.139  1.0676 -0.1908  0.5536
  559MPD2    H1 8296   1.177   4.013  11.026  0.8976 -2.6297  2.0220
  559MPD2    H2 8297   0.788   4.003  10.842  2.7533 -0.3452 -2.0296
  559MPD2    H3 8298   1.013   4.103  10.871 -0.0586 -2.2132 -1.9060
  559MPD2     N 8299   1.146   3.781  11.154  0.6583 -0.2616  0.8912
  559MPD2    H5 8300   1.111   3.707  11.216 -0.8019  0.7906  1.3247
  559MPD2    N1 8301   0.687   3.822  10.989 -0.0230 -0.4921  0.3389
  559MPD2    H7 8302   0.628   3.873  10.923 -2.2616 -3.3451  0.1346
  560TMC3    C1 8303   1.343   3.723  11.259 -1.1176 -0.2585  1.0703
  560TMC3    C2 8304   1.279   3.605  11.282  0.2652 -0.1673  0.1058
  560TMC3    C3 8305   1.324   3.542  11.396  0.1929 -0.1489 -0.2060
  560TMC3    C4 8306   1.447   3.776  11.336 -0.4384 -0.1446 -0.1435
  560TMC3    C5 8307   1.499   3.697  11.436  0.1300 -0.5322 -0.6334
  560TMC3    C6 8308   1.429   3.586  11.477  0.4638  0.6873  0.4650
  560TMC3     C 8309   1.280   3.801  11.159 -0.1912  0.1991 -0.0000
  560TMC3     O 8310   1.352   3.892  11.110  0.0347 -0.0359  0.0522
  560TMC3     H 8311   1.203   3.559  11.220 -0.0348 -0.0468  0.3861
  560TMC3    H1 8312   1.498   3.859  11.290  3.2486 -1.8719  0.8637
  560TMC3    H2 8313   1.477   3.512  11.540  0.1145  0.4947  0.5097
  560TMC3    C7 8314   1.567   3.756  11.550 -0.0878 -0.0870 -0.0001
  560TMC3    C8 8315   1.270   3.410  11.414  0.7922  0.3964  0.5018
  560TMC3    O1 8316   1.607   3.685  11.642 -0.5800  0.2101  0.3428
  560TMC3    O2 8317   1.151   3.402  11.379  0.3423  0.1338  0.1284
  561TMC3    C1 8318   3.425   2.879  11.621 -0.8331  0.1574  0.0117
  561TMC3    C2 8319   3.439   2.847  11.753  0.3642 -0.3300  0.8750
  561TMC3    C3 8320   3.393   2.941  11.838 -0.3109  0.1023  0.1437
  561TMC3    C4 8321   3.364   2.992  11.570  0.4722 -0.4422 -0.2947
  561TMC3    C5 8322   3.314   3.082  11.660  0.3362 -0.1384  0.0743
  561TMC3    C6 8323   3.326   3.053  11.796  0.4980  0.1315 -0.1177
  561TMC3     C 8324   3.498   2.797  11.519 -0.2729  0.6429  0.2315
  561TMC3     O 8325   3.442   2.789  11.409  0.5185 -0.1293  0.4357
  561TMC3     H 8326   3.479   2.755  11.793 -0.3085 -1.2788 -0.6026
  561TMC3    H1 8327   3.357   3.009  11.463 -1.3592 -0.6914 -0.2190
  561TMC3    H2 8328   3.296   3.132  11.864  0.4994  1.0628 -1.2029
  561TMC3    C7 8329   3.298   3.224  11.627 -0.1211  0.6881 -0.3568
  561TMC3    C8 8330   3.426   2.918  11.977  0.4077  0.0292  0.0499
  561TMC3    O1 8331   3.229   3.300  11.695  1.0518 -0.2543 -0.1611
  561TMC3    O2 8332   3.484   2.818  12.013  0.0220  0.4800 -0.3762
  562TMC3    C1 8333   0.350   4.700  16.220 -0.1052  0.4149  0.3446
  562TMC3    C2 8334   0.290   0.094  16.200  0.2204  0.0966 -0.4800
  562TMC3    C3 8335   0.244   0.119  16.072  0.1735  0.1852  0.5027
  562TMC3    C4 8336   0.347   4.602  16.121 -0.0105 -0.0789  0.7418
  562TMC3    C5 8337   0.287   4.629  16.002 -0.0386 -1.1329  0.7366
  562TMC3    C6 8338   0.245   0.026  15.969 -0.4813  0.1130 -0.7560
  562TMC3     C 8339   0.393   4.662  16.349  0.6539  0.4456  0.1294
  562TMC3     O 8340   0.424   4.548  16.368 -0.2400 -0.5136 -0.0644
  562TMC3     H 8341   0.274   0.153  16.290 -1.9777  0.0155 -0.8278
  562TMC3    H1 8342   0.400   4.509  16.140  1.1393  0.2733 -0.7303
  562TMC3    H2 8343   0.228   0.051  15.865  1.3103 -0.3909 -1.1750
  562TMC3    C7 8344   0.313   4.534  15.892 -0.0383  0.2912  0.1145
  562TMC3    C8 8345   0.205   0.255  16.042 -0.2776 -0.6116  0.1836
  562TMC3    O1 8346   0.328   4.581  15.783 -0.4285  0.0802  0.2286
  562TMC3    O2 8347   0.212   0.336  16.135 -0.2145 -0.4000  0.0708
  563MPD2     C 8348   2.266   1.429  16.150  0.4232 -0.0046  0.1672
  563MPD2    C1 8349   2.362   1.509  16.213 -0.7237 -0.7544  0.0457
  563MPD2    C2 8350   2.476   1.446  16.244  0.1864  0.5304  0.1655
  563MPD2    C3 8351   2.510   1.321  16.204  0.5451  0.5688  0.1300
  563MPD2    C4 8352   2.427   1.259  16.116  0.1941  0.3665  0.3626
  563MPD2    C5 8353   2.302   1.309  16.101 -0.4779 -0.9948  0.2731
  563MPD2     H 8354   2.551   1.497  16.303  1.2113 -0.3142 -0.3991
  563MPD2    H1 8355   2.436   1.156  16.084  1.4781  0.0639  1.6879
  563MPD2    H2 8356   2.160   1.454  16.141 -0.0071 -1.0748  2.2696
  563MPD2    H3 8357   2.216   1.251  16.068  0.5250 -0.6624 -2.9431
  563MPD2     N 8358   2.634   1.272  16.252  0.1997  0.0562 -0.0116
  563MPD2    H5 8359   2.688   1.330  16.316 -1.1581 -0.3813  1.5114
  563MPD2    N1 8360   2.330   1.633  16.272 -0.2100 -0.3277  0.0600
  563MPD2    H7 8361   2.233   1.664  16.271 -0.0696  0.0933 -0.2457
  564TMC3    C1 8362   2.353   1.759  16.473 -0.4261  0.7006  0.0738
  564TMC3    C2 8363   2.228   1.705  16.494  0.7097  0.5440 -0.1993
  564TMC3    C3 8364   2.212   1.632  16.611  0.2032 -0.1282 -0.0560
  564TMC3    C4 8365   2.451   1.746  16.569 -1.0185  0.3617  0.1560
  564TMC3    C5 8366   2.433   1.681  16.688 -1.1741  0.2397 -0.1124
  564TMC3    C6 8367   2.308   1.632  16.712  0.6433 -0.4088  0.2919
  564TMC3     C 8368   2.413   1.707  16.345  0.1856 -0.0252  0.3894
  564TMC3     O 8369   2.537   1.716  16.337  0.1559  0.6088  0.0098
  564TMC3     H 8370   2.150   1.719  16.421  0.6181 -0.7505 -0.3600
  564TMC3    H1 8371   2.550   1.785  16.548 -0.6297 -0.9151 -0.3401
  564TMC3    H2 8372   2.291   1.578  16.804 -2.8707  0.9020  0.4514
  564TMC3    C7 8373   2.543   1.581  16.694  0.1563  0.0405 -0.2868
  564TMC3    C8 8374   2.139   1.505  16.605 -0.0484 -0.0142 -0.8343
  564TMC3    O1 8375   2.654   1.615  16.736  0.2695  0.4788  0.4242
  564TMC3    O2 8376   2.193   1.420  16.677  0.0765  0.7524 -0.6810
  565TMC3    C1 8377   2.975   2.603  10.392  0.3968  0.0933  0.2010
  565TMC3    C2 8378   2.978   2.497  10.480  0.0070  0.0641  0.1689
  565TMC3    C3 8379   2.861   2.444  10.523 -0.3568  0.4127 -0.6266
  565TMC3    C4 8380   2.858   2.651  10.345  0.0495  0.6161  0.4276
  565TMC3    C5 8381   2.740   2.598  10.400 -0.2037  0.2384 -0.3585
  565TMC3    C6 8382   2.741   2.490  10.484 -0.1710 -0.2544 -0.1328
  565TMC3     C 8383   3.101   2.659  10.347 -0.2979  0.4560 -0.3683
  565TMC3     O 8384   3.101   2.781  10.326 -0.2579 -0.2460  0.0739
  565TMC3     H 8385   3.073   2.456  10.514 -0.4365 -2.2075 -1.3300
  565TMC3    H1 8386   2.857   2.718  10.259 -0.6815 -0.9872 -0.8035
  565TMC3    H2 8387   2.657   2.455  10.543  2.2546 -2.5850  1.8993
  565TMC3    C7 8388   2.621   2.647  10.345  0.3521  0.4991 -0.0335
  565TMC3    C8 8389   2.867   2.337  10.615 -0.1262 -0.2365 -0.2763
  565TMC3    O1 8390   2.629   2.759  10.299 -0.2619  0.2438 -0.2195
  565TMC3    O2 8391   2.977   2.323  10.672  0.5949  0.2616 -0.1149
  566MPD2     C 8392   3.871   4.494  14.549 -0.4227  0.4829 -0.4716
  566MPD2    C1 8393   4.000   4.482  14.494  0.5508  0.5251 -0.0001
  566MPD2    C2 8394   4.034   4.366  14.426  0.0087  0.3869  0.4153
  566MPD2    C3 8395   3.941   4.271  14.408  0.4770  0.7343  0.2128
  566MPD2    C4 8396   3.815   4.285  14.461 -0.4820 -0.2606  0.4965
  566MPD2    C5 8397   3.791   4.398  14.535 -0.3877  0.0850  0.2872
  566MPD2     H 8398   4.128   4.359  14.372  0.2319  1.1094  0.6943
  566MPD2    H1 8399   3.730   4.224  14.433  0.4006 -1.3990  0.3418
  566MPD2    H2 8400   3.829   4.587  14.586 -1.5292 -0.6632  1.1610
  566MPD2    H3 8401   3.698   4.414  14.589 -0.3569 -1.0920  0.6873
  566MPD2     N 8402   3.951   4.169  14.311  0.2217  0.1549 -0.3801
  566MPD2    H5 8403   3.859   4.148  14.272 -0.0829 -1.2013  1.0594
  566MPD2    N1 8404   4.083   4.600  14.509  0.4573  0.2081  1.0096
  566MPD2    H7 8405   4.040   4.685  14.543 -0.4861 -0.2277  0.8980
  567TMC3    C1 8406   4.278   4.720  14.521 -0.1012  0.2129  0.2437
  567TMC3    C2 8407   4.226   0.104  14.453 -0.1532 -0.2180 -0.2554
  567TMC3    C3 8408   4.313   0.210  14.432 -0.2429  0.3280 -0.2941
  567TMC3    C4 8409   4.402   0.002  14.578  0.2188  0.4888 -0.5649
  567TMC3    C5 8410   4.481   0.114  14.550  0.2609 -0.1228 -0.0556
  567TMC3    C6 8411   4.437   0.222  14.481 -0.4796 -0.2738  0.0224
  567TMC3     C 8412   4.219   4.590  14.498 -0.3992  0.0794  0.7013
  567TMC3     O 8413   4.292   4.491  14.502 -0.8091 -0.1979 -0.4034
  567TMC3     H 8414   4.131   0.099  14.401 -1.7023  0.4308  2.4807
  567TMC3    H1 8415   4.437   4.635  14.622 -0.7283  0.8087  0.8857
  567TMC3    H2 8416   4.511   0.301  14.473 -1.8141  0.6833 -2.7051
  567TMC3    C7 8417   4.610   0.132  14.621  0.1505  0.6284 -0.8538
  567TMC3    C8 8418   4.301   0.277  14.308  0.0026 -0.1568  0.5639
  567TMC3    O1 8419   4.681   0.226  14.604  0.2741 -0.1513  0.1839
  567TMC3    O2 8420   4.243   0.212  14.229 -0.1245  0.2623  0.0841
  568MPD2     C 8421   2.106   0.100  16.774  0.9522  0.1811  0.2857
  568MPD2    C1 8422   2.113   0.194  16.876  0.2145  0.4281 -0.1401
  568MPD2    C2 8423   2.028   0.302  16.866 -0.2215  0.0791  0.3368
  568MPD2    C3 8424   1.943   0.326  16.766  0.2450  0.5166 -0.3702
  568MPD2    C4 8425   1.937   0.231  16.667  0.7010  0.1242  0.1135
  568MPD2    C5 8426   2.018   0.121  16.676 -0.3562  0.4694  0.5201
  568MPD2     H 8427   2.031   0.377  16.944  2.4972  0.8976 -0.5536
  568MPD2    H1 8428   1.866   0.235  16.586  2.7192 -0.0639 -1.6871
  568MPD2    H2 8429   2.167   0.011  16.767  1.6330  0.6549  0.3106
  568MPD2    H3 8430   2.005   0.040  16.605 -3.1684 -0.1360  1.7058
  568MPD2     N 8431   1.876   0.453  16.755  0.3521 -0.2787 -0.0340
  568MPD2    H5 8432   1.902   0.517  16.829  3.4065 -2.4520  0.7422
  568MPD2    N1 8433   2.217   0.175  16.966  0.0310  0.3293 -0.3341
  568MPD2    H7 8434   2.261   0.084  16.974 -0.6442 -0.0901 -1.2998
  569TMC3    C1 8435   1.732   0.622  16.698 -0.2205  0.4673 -0.9114
  569TMC3    C2 8436   1.745   0.655  16.827 -0.4241 -0.0248  0.0043
  569TMC3    C3 8437   1.811   0.770  16.858 -0.1724  0.1460  0.5938
  569TMC3    C4 8438   1.744   0.716  16.596  0.4480  0.3519 -0.6408
  569TMC3    C5 8439   1.810   0.834  16.629  0.5354 -0.0788  0.5276
  569TMC3    C6 8440   1.854   0.862  16.757 -0.3335  0.0418 -0.6856
  569TMC3     C 8441   1.773   0.491  16.667 -0.0050  0.1649 -1.0404
  569TMC3     O 8442   1.743   0.441  16.560 -0.4629  0.2631  0.0230
  569TMC3     H 8443   1.728   0.575  16.898  2.1373  0.8527  1.5760
  569TMC3    H1 8444   1.695   0.695  16.502 -0.0222  0.6441 -0.4574
  569TMC3    H2 8445   1.903   0.956  16.779 -0.0764 -0.4105  0.6638
  569TMC3    C7 8446   1.806   0.941  16.534 -0.1088 -0.3950  0.1834
  569TMC3    C8 8447   1.912   0.742  16.957 -0.3964  0.3332  0.4460
  569TMC3    O1 8448   1.710   0.938  16.460 -0.3840 -0.0979  0.8228
  569TMC3    O2 8449   1.918   0.622  16.989 -0.0997  0.3262 -0.5041
  570TMC3    C1 8450   1.510   3.876  16.391  0.0700  0.0995  0.4313
  570TMC3    C2 8451   1.591   3.882  16.287 -0.5800  1.0089 -0.0294
  570TMC3    C3 8452   1.674   3.990  16.290  0.4619  0.6840  0.1839
  570TMC3    C4 8453   1.512   3.970  16.489  0.5545 -0.0804  0.7594
  570TMC3    C5 8454   1.575   4.084  16.466  0.0601 -0.5686 -0.6573
  570TMC3    C6 8455   1.666   4.107  16.365  0.2670  0.3931 -0.2419
  570TMC3     C 8456   1.476   3.742  16.433  0.6780 -0.1565 -0.0478
  570TMC3     O 8457   1.487   3.657  16.347  0.1440  0.1763 -0.4269
  570TMC3     H 8458   1.593   3.802  16.214 -3.0839 -0.4540  1.4796
  570TMC3    H1 8459   1.432   3.970  16.562 -0.7928 -1.4542 -0.7140
  570TMC3    H2 8460   1.729   4.193  16.347  2.0327 -1.2434 -1.8158
  570TMC3    C7 8461   1.585   4.176  16.584 -0.6664  0.6573 -0.4153
  570TMC3    C8 8462   1.777   3.996  16.185 -0.0565 -0.2347 -0.0501
  570TMC3    O1 8463   1.569   4.136  16.699 -0.6654  0.2093  0.0506
  570TMC3    O2 8464   1.876   4.061  16.207 -0.2590 -0.4007  0.0153
  571MPD2     C 8465   4.326   1.403  17.216 -0.4613 -0.8882  0.1974
  571MPD2    C1 8466   4.228   1.326  17.275 -0.0401 -0.5531  0.5840
  571MPD2    C2 8467   4.160   1.371  17.387  0.3522  0.3146  0.5259
  571MPD2    C3 8468   4.178   1.503  17.427  0.1750  0.0615  0.0202
  571MPD2    C4 8469   4.270   1.582  17.356  0.5699  0.0203 -0.2485
  571MPD2    C5 8470   4.351   1.531  17.254  0.9072  0.6669  0.4500
  571MPD2     H 8471   4.080   1.313  17.431  1.5347 -0.3324  1.7990
  571MPD2    H1 8472   4.279   1.687  17.380 -0.9529  1.0181 -3.9797
  571MPD2    H2 8473   4.376   1.364  17.128 -0.0278 -2.7562  1.2680
  571MPD2    H3 8474   4.421   1.595  17.201  1.2178 -1.2769 -1.4949
  571MPD2     N 8475   4.101   1.555  17.530 -0.2235 -0.5420  0.2415
  571MPD2    H5 8476   4.101   1.655  17.548  0.8289 -0.2791 -1.2302
  571MPD2    N1 8477   4.209   1.197  17.220 -0.0137 -0.2605 -0.1182
  571MPD2    H7 8478   4.302   1.162  17.195  0.0312 -0.0939 -0.1830
  572TMC3    C1 8479   3.964   1.566   0.015 -0.0946 -0.4400 -0.0745
  572TMC3    C2 8480   3.899   1.489   0.112 -0.4190 -0.1030 -0.5205
  572TMC3    C3 8481   3.905   1.524   0.244  0.3617  0.6906  0.4524
  572TMC3    C4 8482   4.037   1.672   0.058  0.4876  0.2026  0.2893
  572TMC3    C5 8483   4.047   1.700   0.192  0.7424 -0.3645 -0.7556
  572TMC3    C6 8484   3.978   1.631   0.291  0.5917  0.1784 -0.6433
  572TMC3     C 8485   4.033   1.483  17.622  0.8013  0.4841  0.1275
  572TMC3     O 8486   4.044   1.365  17.659  0.8835  0.7556 -0.3897
  572TMC3     H 8487   3.819   1.428   0.072 -1.5709 -0.8109  2.8048
  572TMC3    H1 8488   4.089   1.737  17.692 -0.4599 -0.1294 -0.7293
  572TMC3    H2 8489   3.970   1.660   0.395  0.9673 -0.5025 -0.4233
  572TMC3    C7 8490   4.111   1.821   0.231  0.3868  0.0016  0.1998
  572TMC3    C8 8491   3.827   1.439   0.333  0.1454  0.2908 -0.7122
  572TMC3    O1 8492   4.135   1.906   0.146  0.2110 -0.0311 -0.2611
  572TMC3    O2 8493   3.742   1.367   0.278 -0.2013  0.3833  1.1918
  573MPD2     C 8494   1.442   2.262   0.479 -0.4848  0.0266  0.1452
  573MPD2    C1 8495   1.370   2.199   0.576 -0.3712 -0.5477  0.2386
  573MPD2    C2 8496   1.318   2.079   0.544 -0.6487  0.3307 -0.1416
  573MPD2    C3 8497   1.345   2.012   0.422  0.1200  0.0920 -0.2050
  573MPD2    C4 8498   1.422   2.078   0.331  0.3929  0.1022  0.0987
  573MPD2    C5 8499   1.465   2.207   0.358 -0.0356 -0.7389  0.6052
  573MPD2     H 8500   1.253   2.031   0.617 -0.0069 -1.3945 -0.6902
  573MPD2    H1 8501   1.434   2.026   0.237 -0.1333 -2.4376  1.4190
  573MPD2    H2 8502   1.499   2.353   0.498 -1.0693  0.4951 -0.3555
  573MPD2    H3 8503   1.530   2.258   0.288 -1.4988  0.5713  0.2080
  573MPD2     N 8504   1.290   1.885   0.381 -0.5896 -0.6874  0.0993
  573MPD2    H5 8505   1.309   1.864   0.284 -0.5309 -2.8076  0.5664
  573MPD2    N1 8506   1.347   2.270   0.697 -0.3178 -0.2519 -0.3162
  573MPD2    H7 8507   1.403   2.354   0.714  0.0086 -0.4016 -0.6540
  574TMC3    C1 8508   1.167   1.688   0.405 -0.3110 -0.0991 -0.3615
  574TMC3    C2 8509   1.060   1.630   0.464 -0.0076 -0.4105  0.6795
  574TMC3    C3 8510   0.955   1.563   0.404  0.3214 -0.5343  0.5787
  574TMC3    C4 8511   1.169   1.678   0.269 -0.1393 -0.5209  0.4133
  574TMC3    C5 8512   1.065   1.613   0.204  0.7435 -0.5736 -0.8192
  574TMC3    C6 8513   0.953   1.553   0.266 -0.6071  0.3619 -0.7750
  574TMC3     C 8514   1.230   1.796   0.473 -0.1425 -1.3581 -0.6483
  574TMC3     O 8515   1.227   1.793   0.596 -0.1040 -0.0748  0.0818
  574TMC3     H 8516   1.039   1.649   0.569 -0.8165 -0.0554  0.4530
  574TMC3    H1 8517   1.246   1.715   0.203 -0.5127 -0.2866  0.1174
  574TMC3    H2 8518   0.876   1.504   0.208 -0.9850  0.2083 -0.1312
  574TMC3    C7 8519   1.079   1.577   0.058  0.3515  0.0588 -0.0326
  574TMC3    C8 8520   0.828   1.563   0.470 -0.3794 -0.0282 -0.8439
  574TMC3    O1 8521   1.009   1.483   0.017 -0.3255  0.3408  0.4121
  574TMC3    O2 8522   0.828   1.530   0.591 -0.2751 -0.0553  0.1968
  575TMC3    C1 8523   2.814   2.108  11.472 -0.8760 -0.7142 -0.4218
  575TMC3    C2 8524   2.823   1.973  11.507  0.3806 -0.7608  0.0647
  575TMC3    C3 8525   2.824   1.882  11.406 -0.1344  0.3789 -0.0556
  575TMC3    C4 8526   2.802   2.149  11.348  0.7776  0.1608 -0.2518
  575TMC3    C5 8527   2.813   2.053  11.251 -0.3191 -0.4229 -0.2207
  575TMC3    C6 8528   2.827   1.916  11.279 -0.1146  0.5096 -0.2779
  575TMC3     C 8529   2.807   2.207  11.577  0.1722 -0.2738  0.3378
  575TMC3     O 8530   2.824   2.156  11.688 -0.3614 -0.1670 -0.3048
  575TMC3     H 8531   2.838   1.943  11.610  1.4070 -1.1521 -0.1975
  575TMC3    H1 8532   2.771   2.249  11.323 -0.2236  0.0031  0.3540
  575TMC3    H2 8533   2.869   1.852  11.202  1.0589 -1.9483  2.4350
  575TMC3    C7 8534   2.805   2.095  11.110  0.0481  0.2938  0.1310
  575TMC3    C8 8535   2.886   1.753  11.448  0.0499 -0.5783 -0.3769
  575TMC3    O1 8536   2.796   2.216  11.097 -0.7729 -0.0502 -0.1015
  575TMC3    O2 8537   2.920   1.733  11.561  0.0546  0.4427 -0.0050
  576MPD2     C 8538   2.571   3.379  13.079  0.1701  0.1996  0.0805
  576MPD2    C1 8539   2.605   3.481  12.997 -0.0934 -0.1360  0.6558
  576MPD2    C2 8540   2.541   3.605  13.011  0.6105  0.2838  0.2177
  576MPD2    C3 8541   2.453   3.626  13.107  0.0651 -0.0184 -0.4831
  576MPD2    C4 8542   2.415   3.526  13.194 -0.2615 -0.3353  1.0656
  576MPD2    C5 8543   2.472   3.398  13.173  0.0909 -0.0919  0.4189
  576MPD2     H 8544   2.555   3.694  12.950  0.6909  0.0708 -0.0780
  576MPD2    H1 8545   2.343   3.532  13.274 -0.6753 -0.3102  0.6964
  576MPD2    H2 8546   2.616   3.281  13.068  1.5050  1.2299 -3.4826
  576MPD2    H3 8547   2.450   3.314  13.238  1.2094 -0.6960  0.0211
  576MPD2     N 8548   2.413   3.756  13.134 -0.5640 -0.1432 -0.5290
  576MPD2    H5 8549   2.459   3.824  13.073  0.0638 -1.7036 -1.7963
  576MPD2    N1 8550   2.692   3.471  12.884  0.1899 -0.0281  0.3207
  576MPD2    H7 8551   2.703   3.558  12.833 -0.1162 -0.3927 -0.3680
  577TMC3    C1 8552   2.842   3.368  12.733  0.1364 -0.9952 -0.3169
  577TMC3    C2 8553   2.964   3.303  12.728  0.3328  0.3141 -0.6116
  577TMC3    C3 8554   3.046   3.320  12.618 -0.3934 -0.2629 -0.1205
  577TMC3    C4 8555   2.806   3.449  12.628  0.0774 -0.0520 -0.5209
  577TMC3    C5 8556   2.890   3.459  12.515  0.1434  0.2508 -0.4843
  577TMC3    C6 8557   3.017   3.403  12.516  0.0676  0.1130  0.4175
  577TMC3     C 8558   2.772   3.364  12.860 -0.0734  0.2255  0.4437
  577TMC3     O 8559   2.791   3.263  12.925 -0.0458  0.1638 -0.0083
  577TMC3     H 8560   2.985   3.236  12.811  0.2429  1.6097  0.4535
  577TMC3    H1 8561   2.712   3.503  12.632  0.3188  0.3271  0.2150
  577TMC3    H2 8562   3.069   3.415  12.422  0.4736  0.5552  0.7012
  577TMC3    C7 8563   2.830   3.417  12.396  0.1319 -0.3429  0.6411
  577TMC3    C8 8564   3.122   3.199  12.587  0.1737 -0.6732  0.0520
  577TMC3    O1 8565   2.877   3.319  12.342 -0.1137 -0.4348  0.0374
  577TMC3    O2 8566   3.139   3.129  12.687 -0.3043 -0.3441 -0.1501
  578MPD2     C 8567   0.973   4.581   1.132  1.3506  0.3466 -1.0873
  578MPD2    C1 8568   1.060   4.489   1.075 -0.3191 -0.0225  0.5747
  578MPD2    C2 8569   1.143   4.419   1.160  0.7255  0.0673  0.3221
  578MPD2    C3 8570   1.142   4.439   1.297 -0.8153 -0.1879  0.3354
  578MPD2    C4 8571   1.063   4.542   1.347 -0.1295  0.2533  0.0727
  578MPD2    C5 8572   0.971   4.607   1.268 -0.0254 -0.3426  0.0505
  578MPD2     H 8573   1.213   4.349   1.116 -0.8399 -1.3898  0.1527
  578MPD2    H1 8574   1.067   4.574   1.450  0.0702  0.4917 -0.0115
  578MPD2    H2 8575   0.904   4.640   1.074  1.1150  0.5580 -0.5929
  578MPD2    H3 8576   0.909   4.683   1.313  1.2985  0.9937 -0.3810
  578MPD2     N 8577   1.239   4.359   1.375 -0.5381  0.2498 -0.0881
  578MPD2    H5 8578   1.270   4.283   1.316 -0.0394  0.0682  0.4173
  578MPD2    N1 8579   1.071   4.477   0.932  0.8559 -0.0695  0.2588
  578MPD2    H7 8580   1.005   4.536   0.883  0.1926 -0.5366  0.5914
  579TMC3    C1 8581   1.367   4.274   1.553  0.2041  0.4195 -0.7819
  579TMC3    C2 8582   1.455   4.316   1.651  0.5601 -0.6625  0.0659
  579TMC3    C3 8583   1.517   4.214   1.719  0.1891 -0.5480 -0.1307
  579TMC3    C4 8584   1.343   4.141   1.525 -0.3415  0.8235 -0.5111
  579TMC3    C5 8585   1.412   4.051   1.603 -0.2576 -0.0908 -0.0260
  579TMC3    C6 8586   1.497   4.082   1.699  0.0415  0.1465 -0.0321
  579TMC3     C 8587   1.269   4.378   1.506  0.6844  0.1194  0.1382
  579TMC3     O 8588   1.228   4.458   1.590  0.2872 -0.8936 -0.1936
  579TMC3     H 8589   1.475   4.420   1.673  0.0897 -0.2981 -1.2291
  579TMC3    H1 8590   1.253   4.125   1.467 -1.3192  0.8535  0.9701
  579TMC3    H2 8591   1.562   4.012   1.750 -0.3821  1.3222  2.1535
  579TMC3    C7 8592   1.389   3.907   1.579 -0.4527  0.0905 -0.5265
  579TMC3    C8 8593   1.604   4.249   1.817 -0.2462 -0.2433  0.0919
  579TMC3    O1 8594   1.404   3.828   1.670  0.0316  0.3570 -0.1867
  579TMC3    O2 8595   1.562   4.330   1.900  0.5250 -0.2682 -0.1564
  580TMC3    C1 8596   0.731   2.977  12.508 -0.0080  0.1027  0.1780
  580TMC3    C2 8597   0.825   3.069  12.542 -0.8439 -0.1229  0.2409
  580TMC3    C3 8598   0.931   3.028  12.616  0.3920 -0.1847  0.3539
  580TMC3    C4 8599   0.753   2.839  12.531  0.1695  0.0290  0.3287
  580TMC3    C5 8600   0.864   2.802  12.607 -0.3305  0.4565 -0.5265
  580TMC3    C6 8601   0.955   2.898  12.652  0.6737 -0.1669  0.9076
  580TMC3     C 8602   0.656   3.000  12.392 -0.4245 -0.3815 -0.5329
  580TMC3     O 8603   0.617   2.901  12.326 -0.3675  0.3858  0.2344
  580TMC3     H 8604   0.799   3.172  12.522 -0.3805  0.5962  3.2809
  580TMC3    H1 8605   0.671   2.773  12.505  0.1795 -0.1191  0.6728
  580TMC3    H2 8606   1.025   2.879  12.733  0.4921  1.9653  1.5585
  580TMC3    C7 8607   0.865   2.675  12.676 -0.3979 -0.2256  0.3792
  580TMC3    C8 8608   1.048   3.091  12.558  0.0544 -1.0838 -0.2939
  580TMC3    O1 8609   0.933   2.663  12.776 -0.8473  0.5375  0.3387
  580TMC3    O2 8610   1.031   3.209  12.559  0.2001 -0.4573  0.0358
  581MPD2     C 8611   3.192   2.601  14.966  0.5025 -0.3431 -0.8013
  581MPD2    C1 8612   3.060   2.636  14.977 -0.0435 -0.4649  0.6091
  581MPD2    C2 8613   2.991   2.695  14.871 -0.3895 -0.5532  0.7778
  581MPD2    C3 8614   3.054   2.726  14.756 -0.1732  0.5712 -0.2281
  581MPD2    C4 8615   3.188   2.687  14.745  0.6254 -0.0910  0.4745
  581MPD2    C5 8616   3.252   2.620  14.848 -0.4660  0.2984  0.3471
  581MPD2     H 8617   2.887   2.726  14.871  0.3678  1.9500  0.7724
  581MPD2    H1 8618   3.240   2.695  14.650  1.4774 -0.1586  0.9348
  581MPD2    H2 8619   3.247   2.546  15.041 -0.9573 -0.5469  0.1103
  581MPD2    H3 8620   3.350   2.576  14.834 -0.3645  0.2590  1.1916
  581MPD2     N 8621   3.000   2.814  14.665  0.4505  1.5218  0.1616
  581MPD2    H5 8622   3.060   2.873  14.608 -0.1239 -1.6414 -3.6449
  581MPD2    N1 8623   3.006   2.616  15.110  0.7999 -0.1245 -0.0523
  581MPD2    H7 8624   3.071   2.590  15.183  0.7832  1.1018  0.4027
  582TMC3    C1 8625   2.847   2.618  15.279  0.1268  0.3999 -0.3977
  582TMC3    C2 8626   2.944   2.602  15.376 -0.0452  0.4187  0.1482
  582TMC3    C3 8627   2.904   2.612  15.510 -0.0478 -0.4074 -0.4556
  582TMC3    C4 8628   2.716   2.640  15.319  0.5035 -0.1687 -0.5467
  582TMC3    C5 8629   2.676   2.632  15.450  0.4505 -0.2228  0.2152
  582TMC3    C6 8630   2.774   2.624  15.543 -0.0148  0.4003  0.2949
  582TMC3     C 8631   2.872   2.630  15.140  0.3145  0.0882 -0.0842
  582TMC3     O 8632   2.776   2.626  15.068 -0.4540 -0.5321 -0.1670
  582TMC3     H 8633   3.049   2.596  15.350 -0.3382  0.8703 -1.1455
  582TMC3    H1 8634   2.635   2.645  15.248 -1.3723  1.4224  1.7024
  582TMC3    H2 8635   2.741   2.630  15.646  0.8296  0.3021  0.5712
  582TMC3    C7 8636   2.578   2.734  15.487  0.6266 -0.1985 -0.0013
  582TMC3    C8 8637   2.983   2.674  15.608  0.6894 -0.9084 -0.1246
  582TMC3    O1 8638   2.457   2.724  15.456 -0.1627 -0.4181 -0.6731
  582TMC3    O2 8639   2.947   2.661  15.723 -0.6657 -0.0526 -0.3928
  583MPD2     C 8640   3.322   4.526  16.782  0.2184 -0.4895 -0.5794
  583MPD2    C1 8641   3.425   4.610  16.747  0.1000 -0.4347  0.2301
  583MPD2    C2 8642   3.420   0.017  16.774 -0.2808  0.0766 -0.4953
  583MPD2    C3 8643   3.326   0.071  16.857  0.3555  0.4682  0.4429
  583MPD2    C4 8644   3.224   4.714  16.892  0.2612  0.2140 -0.6898
  583MPD2    C5 8645   3.217   4.584  16.855  0.2388 -0.2903 -0.4415
  583MPD2     H 8646   3.503   0.076  16.738  0.5314 -0.9317 -0.2391
  583MPD2    H1 8647   3.133   0.018  16.942  0.1348  1.7932 -1.8580
  583MPD2    H2 8648   3.307   4.425  16.747  3.1392 -0.7736 -1.0312
  583MPD2    H3 8649   3.128   4.524  16.874  0.9828 -1.8978 -2.0228
  583MPD2     N 8650   3.338   0.205  16.910  0.2500  0.1235 -0.6033
  583MPD2    H5 8651   3.412   0.264  16.873  1.3000  0.4759  2.0708
  583MPD2    N1 8652   3.536   4.566  16.668 -0.4293 -0.6014 -1.0493
  583MPD2    H7 8653   3.592   4.644  16.634  1.7968 -0.6815  2.4361
  584TMC3    C1 8654   3.309   0.377  17.070 -0.5220 -0.3781  0.7955
  584TMC3    C2 8655   3.349   0.474  16.983  0.0887 -0.6534  0.3249
  584TMC3    C3 8656   3.423   0.577  17.027 -1.3723  0.5469  1.0795
  584TMC3    C4 8657   3.345   0.389  17.204  0.2417 -0.4341 -0.1197
  584TMC3    C5 8658   3.424   0.488  17.247 -0.4647  0.6320 -0.0478
  584TMC3    C6 8659   3.460   0.590  17.159  0.6595 -0.5302  0.7499
  584TMC3     C 8660   3.268   0.250  17.016  0.7286  0.4071  0.1351
  584TMC3     O 8661   3.201   0.192  17.100  0.7947  0.3152  0.1912
  584TMC3     H 8662   3.320   0.469  16.879 -0.8760 -1.5049  0.6370
  584TMC3    H1 8663   3.314   0.318  17.280 -0.7822  1.3504  1.1369
  584TMC3    H2 8664   3.526   0.668  17.197  0.3146  0.8185 -1.4600
  584TMC3    C7 8665   3.465   0.478  17.384  0.2721  0.9175 -0.2735
  584TMC3    C8 8666   3.486   0.663  16.928 -0.4167  0.4397 -0.0842
  584TMC3    O1 8667   3.511   0.368  17.423 -0.2366 -0.5631  0.2076
  584TMC3    O2 8668   3.501   0.620  16.814 -0.2043 -0.4230 -0.7674
  585MPD2     C 8669   2.880   3.744   1.100 -0.0882 -0.4463 -0.3596
  585MPD2    C1 8670   2.959   3.764   0.986  0.0790 -0.4381  0.0664
  585MPD2    C2 8671   2.926   3.695   0.865  0.0102  0.3587 -0.0508
  585MPD2    C3 8672   2.819   3.605   0.871  0.4540  0.0055 -0.7769
  585MPD2    C4 8673   2.738   3.594   0.982  0.0031  0.0120 -0.2613
  585MPD2    C5 8674   2.772   3.660   1.094 -0.2365 -0.2516  0.3745
  585MPD2     H 8675   2.984   3.715   0.776  0.5058  0.6259  0.3319
  585MPD2    H1 8676   2.645   3.538   0.977 -0.3133  0.5926 -0.8797
  585MPD2    H2 8677   2.900   3.789   1.196 -0.3025 -0.5188 -0.2808
  585MPD2    H3 8678   2.709   3.638   1.179 -1.4700  1.7510 -0.0200
  585MPD2     N 8679   2.779   3.525   0.760  0.1237  0.4457 -0.2907
  585MPD2    H5 8680   2.692   3.474   0.767  0.3283  0.1170 -0.1320
  585MPD2    N1 8681   3.071   3.848   1.003 -0.4667 -0.5991 -0.3300
  585MPD2    H7 8682   3.078   3.893   1.094 -3.5008 -0.8931  0.0286
  586TMC3    C1 8683   2.776   3.466   0.536 -0.4401 -0.1336  0.2173
  586TMC3    C2 8684   2.847   3.460   0.415 -0.2194  0.0500  0.1006
  586TMC3    C3 8685   2.776   3.474   0.301 -0.4129  1.0375 -0.0604
  586TMC3    C4 8686   2.636   3.455   0.540 -0.7412 -0.8077 -0.3925
  586TMC3    C5 8687   2.571   3.490   0.423  0.2828  0.2418  0.7271
  586TMC3    C6 8688   2.640   3.491   0.306 -0.5977  0.5858  0.3831
  586TMC3     C 8689   2.856   3.508   0.650  0.5828  0.2268  0.5467
  586TMC3     O 8690   2.975   3.533   0.628  0.1036  0.6503 -0.4623
  586TMC3     H 8691   2.955   3.457   0.408 -0.2660 -1.9486  0.1018
  586TMC3    H1 8692   2.571   3.450   0.625 -1.6641 -2.2140 -1.1809
  586TMC3    H2 8693   2.592   3.523   0.214  2.2818 -0.8144 -1.6078
  586TMC3    C7 8694   2.433   3.463   0.401  0.2378  0.1342  0.4553
  586TMC3    C8 8695   2.818   3.384   0.197 -0.1241 -0.5194 -0.0802
  586TMC3    O1 8696   2.389   3.348   0.421  0.3378  0.3905  0.2708
  586TMC3    O2 8697   2.876   3.284   0.241 -0.0121  0.7312  0.2063
  587TMC3    C1 8698   0.232   2.427  16.363  0.1500  0.1280  0.7714
  587TMC3    C2 8699   0.250   2.476  16.485  0.0815  0.1846 -0.1275
  587TMC3    C3 8700   0.372   2.480  16.539 -0.6061  0.7027 -0.8158
  587TMC3    C4 8701   0.339   2.386  16.285 -0.5308 -0.1611  0.1186
  587TMC3    C5 8702   0.468   2.389  16.343  0.7402 -0.2173  0.2937
  587TMC3    C6 8703   0.486   2.443  16.469  0.1707  0.1581 -0.3899
  587TMC3     C 8704   0.119   2.339  16.345 -0.4511  1.0429 -0.3190
  587TMC3     O 8705   0.136   2.237  16.280 -0.4652 -0.1176 -0.4996
  587TMC3     H 8706   0.162   2.490  16.546 -0.2910 -2.4844 -0.0514
  587TMC3    H1 8707   0.320   2.340  16.189  2.5421  0.2135 -0.6711
  587TMC3    H2 8708   0.583   2.455  16.514  0.5438  0.1248 -1.1843
  587TMC3    C7 8709   0.585   2.356  16.262 -0.2557 -0.3023  0.0204
  587TMC3    C8 8710   0.393   2.531  16.677  0.1484  0.1928  0.0713
  587TMC3    O1 8711   0.694   2.338  16.313 -0.0082 -0.0922  0.7505
  587TMC3    O2 8712   0.510   2.524  16.717 -0.2176  0.2457  0.0702
  588TMC3    C1 8713   2.066   4.313  10.011  0.1710  0.0351  0.2377
  588TMC3    C2 8714   2.011   4.188  10.005  0.1184  0.4246 -0.7574
  588TMC3    C3 8715   2.084   4.084  10.041  0.3249 -0.3472 -0.4089
  588TMC3    C4 8716   2.189   4.338  10.059 -0.5935 -0.8416 -1.2347
  588TMC3    C5 8717   2.264   4.235  10.102  0.2588  0.0607 -0.0974
  588TMC3    C6 8718   2.213   4.103  10.098  0.6070 -0.0411 -0.4844
  588TMC3     C 8719   1.981   4.430   9.981 -0.0947  0.5981  0.4281
  588TMC3     O 8720   1.893   4.421   9.900 -0.3135  0.0403  0.6642
  588TMC3     H 8721   1.915   4.170   9.956 -0.0737 -0.6994  0.0471
  588TMC3    H1 8722   2.237   4.434  10.044  1.7778 -1.4911  2.2401
  588TMC3    H2 8723   2.278   4.032  10.146  0.3450 -0.5811 -0.9263
  588TMC3    C7 8724   2.388   4.263  10.175 -0.4720 -0.6366  0.3048
  588TMC3    C8 8725   2.033   3.952  10.014 -0.5031  0.9399  0.2845
  588TMC3    O1 8726   2.478   4.179  10.176 -0.0121 -0.1004  0.2378
  588TMC3    O2 8727   1.920   3.945   9.968 -0.4452 -0.4759 -0.4154
  589TMC3    C1 8728   2.086   2.881   1.288 -0.0363 -0.2254 -0.1070
  589TMC3    C2 8729   2.138   2.831   1.399 -0.2774  0.5499  0.1104
  589TMC3    C3 8730   2.217   2.721   1.395  0.5129  0.7425 -0.4100
  589TMC3    C4 8731   2.109   2.815   1.171 -0.6449 -0.3932 -0.7003
  589TMC3    C5 8732   2.195   2.707   1.162  0.1880  0.2619 -0.1695
  589TMC3    C6 8733   2.251   2.656   1.277  0.6941 -0.3658 -0.2676
  589TMC3     C 8734   1.983   2.982   1.286 -0.4446 -0.6491  0.1920
  589TMC3     O 8735   1.946   3.011   1.172 -0.2903 -0.2968 -0.0728
  589TMC3     H 8736   2.115   2.880   1.493  2.0803  3.8879 -1.0557
  589TMC3    H1 8737   2.060   2.851   1.082 -3.8481 -1.8695  0.4432
  589TMC3    H2 8738   2.315   2.568   1.274  1.9021  0.5313 -0.5498
  589TMC3    C7 8739   2.180   2.611   1.050 -0.0733 -0.4173 -0.3405
  589TMC3    C8 8740   2.268   2.674   1.523  0.0968 -0.4322  0.3071
  589TMC3    O1 8741   2.219   2.498   1.071  0.0251  0.4288 -0.6594
  589TMC3    O2 8742   2.195   2.700   1.621  0.5160  0.5385 -0.3426
  590MPD2     C 8743   1.019   0.479  16.395  0.2452  0.2383  0.2578
  590MPD2    C1 8744   1.015   0.614  16.368 -0.8211 -0.0722 -1.1153
  590MPD2    C2 8745   1.129   0.674  16.338 -0.0415 -0.2198 -0.8849
  590MPD2    C3 8746   1.251   0.607  16.345  0.5901  0.2321  0.0695
  590MPD2    C4 8747   1.255   0.466  16.376 -0.0446 -0.5551  0.1768
  590MPD2    C5 8748   1.136   0.401  16.395  1.0524 -0.2609 -0.2274
  590MPD2     H 8749   1.128   0.776  16.301  0.8858  0.1922  0.2297
  590MPD2    H1 8750   1.346   0.410  16.359 -0.2543 -0.7305 -0.3800
  590MPD2    H2 8751   0.929   0.420  16.411  1.1884 -0.8545  1.4675
  590MPD2    H3 8752   1.131   0.293  16.387  0.4910 -0.4191  2.4037
  590MPD2     N 8753   1.367   0.676  16.320  0.2056  0.5262 -0.0885
  590MPD2    H5 8754   1.359   0.766  16.273  1.2888  1.4572  1.5263
  590MPD2    N1 8755   0.892   0.685  16.363  0.1867 -0.3330 -0.4372
  590MPD2    H7 8756   0.808   0.628  16.357  0.0793 -0.4071  1.9197
  591TMC3    C1 8757   1.574   0.731  16.262  0.0063 -0.3793  0.0967
  591TMC3    C2 8758   1.694   0.686  16.201 -0.1586  0.3542  0.4859
  591TMC3    C3 8759   1.741   0.764  16.095  0.5856 -0.1231  0.1551
  591TMC3    C4 8760   1.510   0.851  16.226 -0.8836  1.2861 -0.3812
  591TMC3    C5 8761   1.569   0.925  16.128  0.0274 -0.0039  0.1004
  591TMC3    C6 8762   1.673   0.875  16.055  0.1738 -0.8342  0.6321
  591TMC3     C 8763   1.498   0.632  16.327  0.2571  0.0566 -0.0313
  591TMC3     O 8764   1.555   0.529  16.368  0.2710  0.3198 -0.2346
  591TMC3     H 8765   1.739   0.591  16.226  3.5760  1.9392 -0.2690
  591TMC3    H1 8766   1.449   0.903  16.299  1.3422 -0.2836  2.5763
  591TMC3    H2 8767   1.693   0.918  15.957  0.6830  0.9706  1.5313
  591TMC3    C7 8768   1.483   1.026  16.081  0.2753 -0.4016  0.4089
  591TMC3    C8 8769   1.858   0.723  16.021 -0.0407 -0.2832 -0.5645
  591TMC3    O1 8770   1.367   1.011  16.100  0.1524 -0.0318  0.6510
  591TMC3    O2 8771   1.866   0.761  15.907 -0.0700 -0.0394 -0.2333
  592MPD2     C 8772   1.764   2.180  11.769 -0.3198 -0.5684  0.0390
  592MPD2    C1 8773   1.809   2.238  11.890  0.0035 -0.0013  0.0761
  592MPD2    C2 8774   1.788   2.168  12.001 -0.3830 -0.3047 -0.4105
  592MPD2    C3 8775   1.706   2.050  12.005  0.2806  0.0685 -0.4937
  592MPD2    C4 8776   1.651   2.007  11.891  0.0753  0.3404 -0.2684
  592MPD2    C5 8777   1.691   2.064  11.768 -0.0642  0.2749  0.1503
  592MPD2     H 8778   1.831   2.196  12.097  1.8539 -0.4098 -1.3895
  592MPD2    H1 8779   1.584   1.922  11.887  3.0570 -1.8942 -2.4563
  592MPD2    H2 8780   1.793   2.215  11.670  0.0801  0.2212  0.4331
  592MPD2    H3 8781   1.673   2.027  11.668 -0.8384 -0.2294  0.4702
  592MPD2     N 8782   1.686   1.983  12.134  0.0470 -0.0937 -0.6789
  592MPD2    H5 8783   1.709   2.036  12.217 -2.2575 -2.3202  1.3769
  592MPD2    N1 8784   1.892   2.347  11.878  0.3555 -0.3897  0.1878
  592MPD2    H7 8785   1.917   2.377  11.785 -2.8490  1.5715 -0.0670
  593TMC3    C1 8786   2.013   2.528  11.957  0.7347 -0.2638  0.1665
  593TMC3    C2 8787   2.041   2.616  12.059  0.0756  0.1285 -0.2404
  593TMC3    C3 8788   2.107   2.737  12.028  0.0458 -0.4478 -0.3297
  593TMC3    C4 8789   2.043   2.561  11.826 -0.5250  0.3097  0.2010
  593TMC3    C5 8790   2.113   2.675  11.802 -0.1535 -0.2148  0.4397
  593TMC3    C6 8791   2.147   2.770  11.900 -0.2306  0.1801  0.2800
  593TMC3     C 8792   1.947   2.407  11.990 -0.2555 -0.1498  0.2718
  593TMC3     O 8793   1.936   2.382  12.110  0.4691 -0.0461  0.2987
  593TMC3     H 8794   2.019   2.598  12.164  0.3065  0.9709 -0.0432
  593TMC3    H1 8795   2.031   2.487  11.748  2.8342 -1.0842  1.0231
  593TMC3    H2 8796   2.184   2.865  11.864  1.5909  0.1134  1.9574
  593TMC3    C7 8797   2.155   2.709  11.667 -0.9509  0.1046  0.4964
  593TMC3    C8 8798   2.121   2.836  12.132  0.1273 -0.3937  0.1047
  593TMC3    O1 8799   2.266   2.763  11.659  0.3245  0.3484 -0.5214
  593TMC3    O2 8800   2.029   2.872  12.203  0.0510  0.2932 -0.5704
  594MPD2     C 8801   0.675   1.524  14.978  0.7173 -0.0302 -0.0359
  594MPD2    C1 8802   0.602   1.533  14.859 -0.1630  0.0885  0.5279
  594MPD2    C2 8803   0.666   1.596  14.754  0.1952 -0.1782 -0.1129
  594MPD2    C3 8804   0.796   1.626  14.751  0.4626  0.2857  0.5123
  594MPD2    C4 8805   0.873   1.606  14.863 -0.4498  0.6198 -0.2716
  594MPD2    C5 8806   0.806   1.563  14.972  0.0942  0.4306  0.2350
  594MPD2     H 8807   0.605   1.598  14.664 -1.3413 -1.3647  0.9007
  594MPD2    H1 8808   0.978   1.630  14.873  0.0138 -1.5028  0.0757
  594MPD2    H2 8809   0.639   1.480  15.070  0.2320  2.7068  1.0777
  594MPD2    H3 8810   0.872   1.554  15.057  0.5494 -0.3222 -0.2001
  594MPD2     N 8811   0.849   1.685  14.630 -0.2052 -0.7016 -0.4846
  594MPD2    H5 8812   0.782   1.708  14.557 -0.9436  3.7680  1.6193
  594MPD2    N1 8813   0.465   1.486  14.858 -0.1812  0.3423 -0.3764
  594MPD2    H7 8814   0.433   1.446  14.946 -0.3302 -0.1139 -0.6418
  595TMC3    C1 8815   1.170   1.915  14.391 -0.0466 -0.6082 -0.0179
  595TMC3    C2 8816   1.138   1.798  14.446  0.8095  0.5075 -0.3301
  595TMC3    C3 8817   1.005   1.781  14.474  0.0420  0.2156  0.1904
  595TMC3    C4 8818   1.070   1.998  14.338  0.4779 -0.4489  0.2484
  595TMC3    C5 8819   0.936   1.967  14.346  0.0936  0.2366  1.0412
  595TMC3    C6 8820   0.898   1.861  14.425  0.2697 -0.2192  0.1338
  595TMC3     C 8821   1.298   1.967  14.413 -0.8357 -0.2353  0.2784
  595TMC3     O 8822   1.300   2.094  14.416  0.3472 -0.0052 -0.2569
  595TMC3     H 8823   1.211   1.742  14.504 -0.6554 -0.4247  0.6309
  595TMC3    H1 8824   1.108   2.094  14.302 -1.0005 -0.3718 -1.0921
  595TMC3    H2 8825   0.795   1.859  14.460 -0.1782 -0.8275 -1.2203
  595TMC3    C7 8826   0.841   2.073  14.346 -0.7470 -0.4838 -0.3800
  595TMC3    C8 8827   0.978   1.711  14.601  0.4385  0.6217  0.7367
  595TMC3    O1 8828   0.778   2.079  14.451 -0.4158 -0.4770  0.2205
  595TMC3    O2 8829   1.069   1.665  14.663 -0.0508 -0.2178  0.0086
  596MPD2     C 8830   4.559   4.674  16.771 -0.1158 -0.4652 -0.2002
  596MPD2    C1 8831   4.476   0.017  16.685 -0.1635  0.7749 -0.1384
  596MPD2    C2 8832   4.427   4.687  16.575  0.5046  0.4617 -0.1976
  596MPD2    C3 8833   4.454   4.562  16.535 -0.1906 -0.3244  0.5102
  596MPD2    C4 8834   4.518   4.478  16.630 -0.0095  0.1677 -0.2027
  596MPD2    C5 8835   4.570   4.540  16.747  0.5068 -0.1088  0.2015
  596MPD2     H 8836   4.375   0.020  16.501 -0.8458  0.6334  0.8823
  596MPD2    H1 8837   4.531   4.371  16.617 -0.9061  0.1263 -0.6871
  596MPD2    H2 8838   4.588   4.717  16.867  1.0138  1.2873 -1.3162
  596MPD2    H3 8839   4.615   4.481  16.826  2.8685  1.3792 -0.0233
  596MPD2     N 8840   4.398   4.511  16.416 -0.3928 -0.2489  0.6128
  596MPD2    H5 8841   4.330   4.566  16.364  1.0760  1.9979  1.0719
  596MPD2    N1 8842   4.438   0.149  16.720 -0.4583 -0.5703  0.4865
  596MPD2    H7 8843   4.403   0.214  16.649  0.7264 -0.4990 -0.0358
  597TMC3    C1 8844   4.382   0.315  16.863 -0.0445 -0.0477  0.1144
  597TMC3    C2 8845   4.444   0.402  16.775 -0.1006 -0.0021  0.1565
  597TMC3    C3 8846   4.423   0.537  16.814 -0.0529  0.3542 -0.3222
  597TMC3    C4 8847   4.296   0.339  16.964  0.0426  0.0980 -0.6428
  597TMC3    C5 8848   4.270   0.473  16.984 -0.1177 -0.0421  0.2457
  597TMC3    C6 8849   4.335   0.567  16.917  0.2589  0.4878  0.7607
  597TMC3     C 8850   4.417   0.183  16.850 -0.5631  0.0876  0.0394
  597TMC3     O 8851   4.403   0.108  16.946 -0.1478  0.2910 -0.1723
  597TMC3     H 8852   4.520   0.368  16.706  0.4847 -0.0955  0.8491
  597TMC3    H1 8853   4.255   0.265  17.032  0.5702  0.1713 -0.2487
  597TMC3    H2 8854   4.307   0.671  16.924  1.2524  0.8902 -1.0377
  597TMC3    C7 8855   4.196   0.498  17.106 -0.3677  0.0139  0.0566
  597TMC3    C8 8856   4.507   0.635  16.748  0.2518  0.3213  0.4096
  597TMC3    O1 8857   4.223   0.437  17.208  0.1206 -0.1184  0.5883
  597TMC3    O2 8858   4.545   0.608  16.632  0.1945  0.3129 -0.5808
  598TMC3    C1 8859   2.536   1.379  15.800 -0.5279  0.0410  0.2893
  598TMC3    C2 8860   2.574   1.249  15.816 -0.7205 -0.0975 -0.3961
  598TMC3    C3 8861   2.519   1.147  15.739  1.0435  0.2115 -0.0223
  598TMC3    C4 8862   2.449   1.409  15.695  0.4279  0.7593 -0.4252
  598TMC3    C5 8863   2.407   1.306  15.614 -0.2853  0.0978  0.4967
  598TMC3    C6 8864   2.436   1.179  15.636 -0.0933 -0.4654 -0.3299
  598TMC3     C 8865   2.589   1.488  15.879  0.0023 -0.1998 -0.4195
  598TMC3     O 8866   2.537   1.604  15.859  0.1639  0.6973 -0.0371
  598TMC3     H 8867   2.628   1.221  15.905  0.3022  0.2588 -0.9134
  598TMC3    H1 8868   2.431   1.510  15.661 -0.5356  0.7787  0.1294
  598TMC3    H2 8869   2.413   1.100  15.565  0.9584 -1.2873  0.2392
  598TMC3    C7 8870   2.395   1.334  15.471 -0.3878  0.0857  0.2181
  598TMC3    C8 8871   2.552   1.011  15.758  0.4868  0.0235  0.0814
  598TMC3    O1 8872   2.350   1.239  15.409 -0.5825 -0.2585 -0.2417
  598TMC3    O2 8873   2.473   0.925  15.720 -0.4052  0.5354  0.6221
  599MPD2     C 8874   2.223   3.213  15.885 -0.1752 -0.1109 -0.4637
  599MPD2    C1 8875   2.330   3.219  15.971  0.2498  0.1121  0.0178
  599MPD2    C2 8876   2.309   3.278  16.099  0.5663 -0.0739  0.2653
  599MPD2    C3 8877   2.188   3.324  16.130 -0.1235  0.7833  0.4633
  599MPD2    C4 8878   2.084   3.323  16.046  0.1655  0.1315 -0.6448
  599MPD2    C5 8879   2.105   3.262  15.926  0.3091  0.0971  0.2880
  599MPD2     H 8880   2.378   3.267  16.182  0.2699  0.4834  0.5823
  599MPD2    H1 8881   1.987   3.344  16.088  1.3147  2.1031  1.0253
  599MPD2    H2 8882   2.239   3.172  15.786 -1.8752 -0.0441 -0.7612
  599MPD2    H3 8883   2.026   3.253  15.852  0.0435  0.3433  0.5469
  599MPD2     N 8884   2.163   3.383  16.257 -0.2200  0.0963 -0.5482
  599MPD2    H5 8885   2.067   3.393  16.288 -0.6088 -0.5207 -1.5377
  599MPD2    N1 8886   2.448   3.155  15.931  0.7233  0.1994 -0.3655
  599MPD2    H7 8887   2.449   3.114  15.838  0.9291 -2.0942  0.6535
  600TMC3    C1 8888   2.195   3.486  16.463 -0.2111 -0.0521  0.1665
  600TMC3    C2 8889   2.074   3.433  16.499  0.4303  0.3047  0.1702
  600TMC3    C3 8890   2.015   3.500  16.598 -0.2524  0.9030  0.1730
  600TMC3    C4 8891   2.258   3.595  16.521  0.2878  0.1477  0.2086
  600TMC3    C5 8892   2.184   3.666  16.619 -0.3208  0.3844  0.4576
  600TMC3    C6 8893   2.063   3.617  16.657  0.0472  0.5904  0.2544
  600TMC3     C 8894   2.260   3.430  16.344 -0.1792 -0.1804  0.8690
  600TMC3     O 8895   2.378   3.443  16.339  0.0318  0.0192  0.3191
  600TMC3     H 8896   2.047   3.332  16.469 -0.2410  0.7097 -0.5733
  600TMC3    H1 8897   2.354   3.623  16.479 -0.4882  0.6363 -1.2198
  600TMC3    H2 8898   2.019   3.647  16.752 -0.1346  1.0004  0.0408
  600TMC3    C7 8899   2.185   3.808  16.639  0.0479 -0.6848  0.8453
  600TMC3    C8 8900   1.906   3.433  16.673 -0.1587 -0.6178 -0.1506
  600TMC3    O1 8901   2.073   3.855  16.653 -0.6174  0.8770  0.3303
  600TMC3    O2 8902   1.892   3.457  16.792  0.2503  0.0440  0.2590
  601MPD2     C 8903   4.323   2.141   0.583 -0.0368 -0.3505 -0.1487
  601MPD2    C1 8904   4.283   2.153   0.452  0.0471  0.0256  0.1538
  601MPD2    C2 8905   4.227   2.050   0.383  0.3979  0.1291 -0.3754
  601MPD2    C3 8906   4.208   1.930   0.443 -0.5777 -0.3065 -0.1283
  601MPD2    C4 8907   4.249   1.913   0.571 -0.4085  0.3890 -0.1938
  601MPD2    C5 8908   4.302   2.016   0.637 -0.4322 -0.0566 -0.8287
  601MPD2     H 8909   4.180   2.068   0.287 -2.6741  0.1638  1.1431
  601MPD2    H1 8910   4.236   1.815   0.615 -1.1228  0.8192  0.5556
  601MPD2    H2 8911   4.370   2.227   0.630  2.1767 -2.3137  1.2232
  601MPD2    H3 8912   4.326   1.998   0.741  0.4840  2.3585 -0.6297
  601MPD2     N 8913   4.148   1.824   0.368  0.4014 -0.0379 -0.5903
  601MPD2    H5 8914   4.142   1.739   0.424 -0.0160  0.3973  0.0323
  601MPD2    N1 8915   4.306   2.272   0.382  0.7289  0.8658  0.8008
  601MPD2    H7 8916   4.302   2.265   0.281 -2.5293  2.6070  0.8049
  602TMC3    C1 8917   4.352   2.489   0.307  0.6454 -0.4024  0.5072
  602TMC3    C2 8918   4.311   2.618   0.312 -0.6966 -0.5539 -0.5662
  602TMC3    C3 8919   4.317   2.688   0.201  0.0306 -0.1117 -0.7526
  602TMC3    C4 8920   4.419   2.431   0.206  0.3739 -0.1799 -0.0652
  602TMC3    C5 8921   4.422   2.502   0.093 -0.2934 -0.3634 -0.1545
  602TMC3    C6 8922   4.384   2.633   0.091 -0.8355 -0.4339  0.3343
  602TMC3     C 8923   4.333   2.403   0.428 -0.2184  0.8179 -0.6195
  602TMC3     O 8924   4.362   2.438   0.542  0.2413 -0.3163 -0.6830
  602TMC3     H 8925   4.261   2.656   0.400  1.7371  1.8404 -0.2071
  602TMC3    H1 8926   4.458   2.330   0.200  1.7264  0.2622  1.3167
  602TMC3    H2 8927   4.377   2.674  17.694  1.2597  2.2145  1.2883
  602TMC3    C7 8928   4.365   2.444  17.677  0.5464  0.9577 -0.1283
  602TMC3    C8 8929   4.222   2.794   0.177  0.0111  0.4661 -0.0897
  602TMC3    O1 8930   4.440   2.383  17.605 -0.8178  0.1329  0.3941
  602TMC3    O2 8931   4.271   2.885   0.119  0.2419  0.2638 -0.3643
  603TMC3    C1 8932   2.458   1.466  11.254  0.2326  0.5183 -0.0172
  603TMC3    C2 8933   2.536   1.455  11.362  0.3325  0.9905 -1.2551
  603TMC3    C3 8934   2.561   1.566  11.442 -0.1251  0.5900  0.1706
  603TMC3    C4 8935   2.403   1.583  11.214  0.7902 -0.8159 -0.0794
  603TMC3    C5 8936   2.434   1.695  11.288 -0.3443  0.1603 -0.6466
  603TMC3    C6 8937   2.503   1.690  11.409  0.0737 -0.0487  0.4489
  603TMC3     C 8938   2.455   1.356  11.168  0.4119  0.1177  0.3562
  603TMC3     O 8939   2.562   1.295  11.156  0.2348  0.2321  0.2845
  603TMC3     H 8940   2.564   1.360  11.407 -0.3373  0.7064 -1.4484
  603TMC3    H1 8941   2.365   1.590  11.113  1.0131 -0.7150 -0.1578
  603TMC3    H2 8942   2.538   1.780  11.458 -1.5150  1.7313 -1.6915
  603TMC3    C7 8943   2.421   1.820  11.224 -0.8231 -0.1174 -0.3451
  603TMC3    C8 8944   2.631   1.547  11.568  0.4476  0.5393  0.2063
  603TMC3    O1 8945   2.473   1.917  11.277  0.4492 -0.0295  0.0462
  603TMC3    O2 8946   2.694   1.443  11.576  0.2661 -0.2332 -0.1936
  604MPD2     C 8947   3.571   1.112  16.523  0.3274 -0.3149 -0.5650
  604MPD2    C1 8948   3.461   1.032  16.502  0.6709 -0.0321 -0.0460
  604MPD2    C2 8949   3.451   0.964  16.381  0.0822  0.3821  0.4157
  604MPD2    C3 8950   3.548   0.978  16.282  0.5272 -0.3245  0.0358
  604MPD2    C4 8951   3.653   1.068  16.298 -0.4168 -0.5984 -0.1772
  604MPD2    C5 8952   3.656   1.134  16.415 -0.5666  0.4280  0.5633
  604MPD2     H 8953   3.372   0.891  16.369  2.2939 -1.6008 -2.0042
  604MPD2    H1 8954   3.730   1.098  16.228  1.6934 -1.2972  1.8456
  604MPD2    H2 8955   3.594   1.139  16.626  0.8633 -0.4233 -0.6556
  604MPD2    H3 8956   3.735   1.203  16.443 -0.3129 -0.6346  2.4432
  604MPD2     N 8957   3.549   0.888  16.169 -0.1160  0.4623  0.6710
  604MPD2    H5 8958   3.470   0.825  16.174  0.8664 -0.6833  1.8615
  604MPD2    N1 8959   3.383   1.019  16.622  0.7107 -0.9539  0.2569
  604MPD2    H7 8960   3.405   1.080  16.699 -0.8510  0.3825 -0.3487
  605TMC3    C1 8961   3.211   0.966  16.758 -0.0209 -0.6930  0.1185
  605TMC3    C2 8962   3.305   1.009  16.844 -0.0074 -0.2012  0.7614
  605TMC3    C3 8963   3.275   1.116  16.922  0.2957  0.1006 -0.4907
  605TMC3    C4 8964   3.091   1.017  16.749 -0.4160 -0.2475 -0.1308
  605TMC3    C5 8965   3.062   1.121  16.829  0.3540  0.2635  0.4112
  605TMC3    C6 8966   3.156   1.174  16.916  0.8372  0.2807 -0.4142
  605TMC3     C 8967   3.268   0.952  16.626 -0.6770 -0.8117 -0.7080
  605TMC3     O 8968   3.201   0.900  16.536 -0.0798  0.0363  0.5462
  605TMC3     H 8969   3.397   0.952  16.850 -0.2897 -0.6604  0.7963
  605TMC3    H1 8970   3.030   0.995  16.662 -1.5921 -0.4160  0.7387
  605TMC3    H2 8971   3.136   1.262  16.975 -1.1438  0.8178 -1.9191
  605TMC3    C7 8972   2.930   1.195  16.823 -0.1371  0.6161  0.4645
  605TMC3    C8 8973   3.384   1.211  16.914  0.4396  0.1457  0.4258
  605TMC3    O1 8974   2.934   1.310  16.857  0.2183 -0.1585 -0.0074
  605TMC3    O2 8975   3.442   1.197  16.807  0.0021 -0.2430  0.6777
  606TMC3    C1 8976   4.079   4.077  17.105 -0.0272 -1.2900 -0.3982
  606TMC3    C2 8977   4.047   4.176  17.201 -0.1561  0.1620  0.0614
  606TMC3    C3 8978   3.956   4.145  17.305 -0.1660 -0.1042  1.3495
  606TMC3    C4 8979   4.025   3.957  17.109 -0.0325 -0.7107  0.5265
  606TMC3    C5 8980   3.922   3.939  17.192  0.3978  0.5488 -0.2440
  606TMC3    C6 8981   3.881   4.032  17.284 -0.2818 -0.5386  0.2935
  606TMC3     C 8982   4.208   4.084  17.040  0.1066  0.7386 -0.1318
  606TMC3     O 8983   4.251   4.193  16.997 -0.1694 -0.0074  0.4399
  606TMC3     H 8984   4.116   4.259  17.208 -0.2546  0.2016  0.5958
  606TMC3    H1 8985   4.050   3.880  17.037  3.4156 -0.6573  1.6512
  606TMC3    H2 8986   3.814   3.999  17.362  1.5584  0.5146  2.3222
  606TMC3    C7 8987   3.866   3.802  17.203 -0.8274 -0.8955 -0.1375
  606TMC3    C8 8988   4.004   4.166  17.439 -0.1005  0.0709  0.5873
  606TMC3    O1 8989   3.938   3.701  17.186  0.3765 -0.6579  0.3742
  606TMC3    O2 8990   4.110   4.228  17.456 -0.0604  0.1178 -0.5301
  607MPD2     C 8991   1.685   1.386  11.848 -0.1428  0.4525  0.1691
  607MPD2    C1 8992   1.701   1.485  11.940 -0.8858 -0.3976  0.0073
  607MPD2    C2 8993   1.647   1.459  12.064 -0.7953  0.1454 -0.2264
  607MPD2    C3 8994   1.600   1.335  12.103 -0.2568  0.2697  0.1821
  607MPD2    C4 8995   1.601   1.230  12.015 -1.2547 -0.2585 -0.0817
  607MPD2    C5 8996   1.634   1.262  11.886 -0.4532  0.0948 -0.5507
  607MPD2     H 8997   1.650   1.542  12.134 -0.1101 -0.0907  0.0192
  607MPD2    H1 8998   1.551   1.137  12.043  0.3384 -1.1545 -0.2246
  607MPD2    H2 8999   1.714   1.395  11.744 -1.3915 -0.9026 -0.2896
  607MPD2    H3 9000   1.636   1.192  11.803  0.9871 -0.1836 -0.2721
  607MPD2     N 9001   1.564   1.315  12.236 -0.4025 -0.4485  0.1297
  607MPD2    H5 9002   1.568   1.393  12.300  1.1651 -0.3306 -0.1109
  607MPD2    N1 9003   1.756   1.608  11.912 -0.0052  0.3743 -0.4592
  607MPD2    H7 9004   1.728   1.680  11.978  1.5725  0.8512 -0.3081
  608TMC3    C1 9005   1.922   1.753  11.851 -0.5229  0.1377 -0.5665
  608TMC3    C2 9006   1.948   1.772  11.985  0.9203  0.3822  0.7439
  608TMC3    C3 9007   2.015   1.884  12.025  0.2116  0.3201  0.0002
  608TMC3    C4 9008   1.967   1.840  11.759  0.0302  0.0910  0.0874
  608TMC3    C5 9009   2.041   1.949  11.800  0.2059 -0.0350 -0.2053
  608TMC3    C6 9010   2.063   1.974  11.935  0.1071 -0.0563  0.5691
  608TMC3     C 9011   1.850   1.642  11.817 -0.4441 -0.8001 -0.1551
  608TMC3     O 9012   1.889   1.577  11.719 -0.7199 -0.1744 -0.1159
  608TMC3     H 9013   1.931   1.694  12.058 -1.0541 -1.4416 -1.6855
  608TMC3    H1 9014   1.946   1.825  11.654 -1.6198 -1.8170  0.6946
  608TMC3    H2 9015   2.104   2.065  11.977 -1.0177  1.5906 -1.8873
  608TMC3    C7 9016   2.063   2.051  11.699 -0.5291  0.5121  0.0632
  608TMC3    C8 9017   2.013   1.923  12.166  0.1703  0.7009  0.0940
  608TMC3    O1 9018   2.026   2.032  11.585  0.5515 -0.2332  0.8250
  608TMC3    O2 9019   2.067   2.030  12.197 -0.2610  0.3693  0.2192
  609TMC3    C1 9020   0.674   4.565   9.383 -1.0923 -0.1584  0.3034
  609TMC3    C2 9021   0.633   4.445   9.330  0.2382  0.4795  0.3274
  609TMC3    C3 9022   0.694   4.328   9.363  1.0096 -1.0683 -0.3113
  609TMC3    C4 9023   0.789   4.574   9.452 -0.4745 -0.1890 -0.3790
  609TMC3    C5 9024   0.853   4.457   9.485  0.2613  0.2344  0.4538
  609TMC3    C6 9025   0.801   4.336   9.448  0.1221 -0.2484 -0.1878
  609TMC3     C 9026   0.594   4.681   9.350  0.2679  0.0042  0.0568
  609TMC3     O 9027   0.488   4.654   9.295  0.2001  0.2749  0.0586
  609TMC3     H 9028   0.531   4.428   9.296  0.8133 -0.0953 -1.1182
  609TMC3    H1 9029   0.829   4.669   9.484 -1.0961 -0.7799  2.1604
  609TMC3    H2 9030   0.867   4.254   9.474 -0.1912 -0.5757 -0.4440
  609TMC3    C7 9031   0.971   4.467   9.570 -0.1114 -0.7194  0.1014
  609TMC3    C8 9032   0.648   4.204   9.312 -0.2590 -0.6863 -0.7248
  609TMC3    O1 9033   0.997   4.572   9.625  0.0641 -0.0072 -0.9383
  609TMC3    O2 9034   0.528   4.201   9.309  0.5984  0.0315 -0.2900
  610TMC3    C1 9035   2.472   1.852  12.496  0.5838 -0.2508  0.1752
  610TMC3    C2 9036   2.379   1.816  12.399  0.5465 -0.0391 -0.2921
  610TMC3    C3 9037   2.338   1.689  12.396 -0.2374 -0.5262  0.5440
  610TMC3    C4 9038   2.511   1.767  12.595  0.2838  0.9240 -1.1065
  610TMC3    C5 9039   2.459   1.645  12.599 -0.1728  0.2612 -0.2592
  610TMC3    C6 9040   2.360   1.607  12.507  1.0532  0.5470 -0.5239
  610TMC3     C 9041   2.570   1.956  12.480 -0.6682 -0.1459 -0.2259
  610TMC3     O 9042   2.670   1.954  12.551  0.0345  1.0863 -0.5846
  610TMC3     H 9043   2.361   1.884  12.317 -0.0914 -3.3519 -2.8844
  610TMC3    H1 9044   2.579   1.791  12.676  0.4111 -1.1289 -0.5871
  610TMC3    H2 9045   2.318   1.507  12.509  2.9063 -0.2682 -2.1583
  610TMC3    C7 9046   2.463   1.577  12.724  0.3317  0.0753 -0.3449
  610TMC3    C8 9047   2.248   1.644  12.298 -0.4373  0.7224  0.0914
  610TMC3    O1 9048   2.567   1.594  12.786  0.2922 -0.0926 -0.0514
  610TMC3    O2 9049   2.250   1.711  12.198  0.0913  0.0612  0.2480
  611MPD2     C 9050   1.838   1.278  10.585  0.1370  0.0457 -0.6946
  611MPD2    C1 9051   1.794   1.355  10.482 -0.1432 -0.3473  0.3837
  611MPD2    C2 9052   1.873   1.456  10.429  0.5448  0.1426  1.0264
  611MPD2    C3 9053   2.007   1.468  10.472  0.2524 -0.3030 -0.3583
  611MPD2    C4 9054   2.052   1.389  10.572 -0.0624 -0.5075 -0.1093
  611MPD2    C5 9055   1.968   1.294  10.629  0.1134 -0.0095 -0.2204
  611MPD2     H 9056   1.833   1.506  10.341 -1.1526 -0.4808  1.4514
  611MPD2    H1 9057   2.156   1.386  10.600 -0.5198 -1.9695  1.3976
  611MPD2    H2 9058   1.777   1.198  10.625  0.1381  0.9385  1.0798
  611MPD2    H3 9059   2.004   1.219  10.698 -0.1745  1.9035  2.0207
  611MPD2     N 9060   2.085   1.565  10.415  0.1821 -0.1569 -0.1492
  611MPD2    H5 9061   2.169   1.580  10.469 -2.8719  3.4677  3.6065
  611MPD2    N1 9062   1.657   1.332  10.444 -0.7198  0.4387 -0.1483
  611MPD2    H7 9063   1.602   1.262  10.492  2.4140 -0.4138  2.1631
  612TMC3    C1 9064   2.131   1.747  10.301  0.2659 -0.0487 -0.8537
  612TMC3    C2 9065   2.180   1.808  10.414  0.2204  0.1462 -0.3606
  612TMC3    C3 9066   2.234   1.932  10.408 -0.2585  0.4721 -0.2517
  612TMC3    C4 9067   2.131   1.821  10.185  0.0912 -0.4669 -0.3249
  612TMC3    C5 9068   2.193   1.943  10.175 -0.7572 -0.0365 -0.0471
  612TMC3    C6 9069   2.254   1.994  10.286 -0.6931 -0.2467  0.6493
  612TMC3     C 9070   2.057   1.631  10.306 -0.5514 -0.0563 -0.5501
  612TMC3     O 9071   1.979   1.615  10.215 -0.0662 -0.5160 -0.1904
  612TMC3     H 9072   2.141   1.774  10.510 -0.5328  2.5263  0.1787
  612TMC3    H1 9073   2.073   1.784  10.101 -1.8646  0.2325  0.7086
  612TMC3    H2 9074   2.294   2.095  10.279 -0.2877 -0.3530  1.4105
  612TMC3    C7 9075   2.158   2.024  10.064 -0.0299  0.4311 -0.0075
  612TMC3    C8 9076   2.290   2.001  10.524 -0.0349 -0.2428 -0.0923
  612TMC3    O1 9077   2.131   1.968   9.959 -0.0714  0.5020  0.7081
  612TMC3    O2 9078   2.352   2.104  10.502  0.4572  0.5121 -0.2076
  613MPD2     C 9079   0.734   3.841  16.527 -0.1955 -0.0286 -0.2868
  613MPD2    C1 9080   0.768   3.739  16.440 -0.7095  0.5407  0.2598
  613MPD2    C2 9081   0.667   3.691  16.362 -0.0512  0.2466 -0.2815
  613MPD2    C3 9082   0.535   3.728  16.374  0.4669  0.3993  0.0890
  613MPD2    C4 9083   0.506   3.820  16.472  0.2773 -0.1573 -0.0013
  613MPD2    C5 9084   0.603   3.877  16.542 -0.5233  0.5247 -0.8611
  613MPD2     H 9085   0.695   3.620  16.284  2.1175 -0.9222  1.5765
  613MPD2    H1 9086   0.405   3.845  16.504 -0.4125  1.0024 -3.0502
  613MPD2    H2 9087   0.808   3.890  16.589 -2.0198  0.7802  1.2495
  613MPD2    H3 9088   0.574   3.949  16.617  0.6138  0.3669 -0.2652
  613MPD2     N 9089   0.442   3.664  16.289  0.0266 -0.2609 -0.0334
  613MPD2    H5 9090   0.476   3.602  16.217 -1.5725 -0.5715 -0.5315
  613MPD2    N1 9091   0.898   3.699  16.403 -0.2149  0.6102  0.4363
  613MPD2    H7 9092   0.906   3.637  16.323  0.0066  0.4612  0.5739
  614TMC3    C1 9093   1.113   3.760  16.328  0.2975  0.3630  0.1766
  614TMC3    C2 9094   1.082   3.663  16.235 -0.8286 -0.3807  0.2967
  614TMC3    C3 9095   1.067   3.702  16.103 -0.0227 -0.6088 -0.3563
  614TMC3    C4 9096   1.143   3.892  16.297  0.0080  0.0150 -0.4634
  614TMC3    C5 9097   1.133   3.918  16.167 -0.0785 -0.0959  0.6064
  614TMC3    C6 9098   1.094   3.830  16.070  0.6007 -0.0099  0.5417
  614TMC3     C 9099   1.019   3.762  16.436  0.2959 -0.0300  0.7224
  614TMC3     O 9100   1.043   3.834  16.531 -0.3888  0.0014  0.1058
  614TMC3     H 9101   1.047   3.567  16.270 -3.2146  0.3356 -0.1559
  614TMC3    H1 9102   1.157   3.974  16.366 -1.8628  0.3968 -0.5553
  614TMC3    H2 9103   1.112   3.854  15.966  0.5059 -1.2479  0.2500
  614TMC3    C7 9104   1.168   4.054  16.120 -0.1676 -0.0572  0.0183
  614TMC3    C8 9105   0.947   3.635  16.044  0.2400 -0.4614  0.6592
  614TMC3    O1 9106   1.235   4.117  16.196  0.5012 -0.0102  0.2638
  614TMC3    O2 9107   0.871   3.590  16.129  0.2121  0.2551 -0.3276
  615MPD2     C 9108   4.680   1.569  15.832 -0.4589  0.7009 -0.8569
  615MPD2    C1 9109   4.712   1.461  15.910 -0.0315  0.5188 -0.1710
  615MPD2    C2 9110   4.666   1.337  15.891 -0.6605  0.2555 -0.0656
  615MPD2    C3 9111   4.582   1.309  15.784 -0.1746 -0.2750  0.7322
  615MPD2    C4 9112   4.553   1.420  15.700  0.2348 -1.1019 -0.2500
  615MPD2    C5 9113   4.586   1.544  15.738  0.1358  0.4067  0.0343
  615MPD2     H 9114   4.709   1.257  15.950  1.2883  1.6255  0.3464
  615MPD2    H1 9115   4.473   1.417  15.626 -0.3456 -1.4408  0.3879
  615MPD2    H2 9116   4.706   1.673  15.845  0.6421  0.4055 -0.6515
  615MPD2    H3 9117   4.565   1.633  15.680 -0.4580  0.8761  0.9768
  615MPD2     N 9118   4.543   1.179  15.744 -0.2564  0.6114 -0.0088
  615MPD2    H5 9119   4.484   1.181  15.661 -0.1284 -0.0937 -0.1215
  615MPD2    N1 9120   0.080   1.472  16.013  0.0678 -0.7197 -0.4687
  615MPD2    H7 9121   0.098   1.389  16.068 -0.6433 -0.7145 -0.2282
  616TMC3    C1 9122   0.272   1.559  16.129  0.4089 -0.5036 -0.3829
  616TMC3    C2 9123   0.343   1.440  16.129  0.1741 -0.0495  0.4986
  616TMC3    C3 9124   0.455   1.430  16.209  0.4852  0.2792 -1.1374
  616TMC3    C4 9125   0.311   1.669  16.203  0.3011 -0.5934  0.1771
  616TMC3    C5 9126   0.420   1.653  16.281 -0.3323 -1.0899  0.3558
  616TMC3    C6 9127   0.492   1.535  16.287 -0.0552 -0.7728 -0.8270
  616TMC3     C 9128   0.167   1.583  16.031 -0.0059 -1.0574  0.7783
  616TMC3     O 9129   0.154   1.696  15.988  0.2587  0.1103  0.2476
  616TMC3     H 9130   0.310   1.364  16.060  1.0017  0.6211 -0.6323
  616TMC3    H1 9131   0.262   1.765  16.188  0.5117 -0.0840  2.7481
  616TMC3    H2 9132   0.574   1.529  16.358 -0.3823 -0.0979 -0.3923
  616TMC3    C7 9133   0.488   1.773  16.336 -1.0013 -0.9655  0.7782
  616TMC3    C8 9134   0.543   1.312  16.180  0.6941  0.3763  0.1782
  616TMC3    O1 9135   0.606   1.765  16.366 -0.6979 -0.2275 -0.2911
  616TMC3    O2 9136   0.486   1.209  16.154  0.0423  0.3468  0.4602
  617MPD2     C 9137   3.415   3.956  14.412 -0.8242  0.1428 -0.3627
  617MPD2    C1 9138   3.384   3.943  14.283 -0.0626  0.1349 -0.1066
  617MPD2    C2 9139   3.259   3.993  14.234  0.1040 -0.4696  0.4001
  617MPD2    C3 9140   3.173   4.052  14.323  0.0035 -0.1667 -0.5131
  617MPD2    C4 9141   3.202   4.055  14.460  0.0022 -0.2331 -0.4158
  617MPD2    C5 9142   3.319   4.001  14.500  0.3401  0.0092  0.3462
  617MPD2     H 9143   3.241   3.993  14.127  1.3767 -2.2420  0.1753
  617MPD2    H1 9144   3.140   4.101  14.535 -0.8791  2.3266 -2.6915
  617MPD2    H2 9145   3.511   3.929  14.453 -1.1857 -2.9939 -1.6186
  617MPD2    H3 9146   3.347   4.009  14.605  0.8805 -1.1014  0.2819
  617MPD2     N 9147   3.044   4.103  14.285 -0.4239  0.4956  0.7681
  617MPD2    H5 9148   2.993   4.155  14.356 -3.2757 -1.3015  0.0427
  617MPD2    N1 9149   3.488   3.893  14.200  0.1747  0.3688 -0.3477
  617MPD2    H7 9150   3.574   3.866  14.245  0.4602  0.1671 -1.0181
  618TMC3    C1 9151   3.605   3.823  14.006 -0.0629  0.4466 -0.2459
  618TMC3    C2 9152   3.588   3.729  13.908  0.1424 -0.3029  0.7651
  618TMC3    C3 9153   3.695   3.652  13.878  0.5500  0.0766  0.3603
  618TMC3    C4 9154   3.723   3.843  14.080 -0.3678 -0.2921 -0.5249
  618TMC3    C5 9155   3.827   3.749  14.052  0.1813  0.4874  0.4651
  618TMC3    C6 9156   3.815   3.662  13.948  0.5269 -0.2063 -0.4376
  618TMC3     C 9157   3.480   3.868  14.069  0.7271 -0.0607  0.1756
  618TMC3     O 9158   3.394   3.883  13.979  0.4156 -0.3741  0.1792
  618TMC3     H 9159   3.490   3.717  13.863 -0.7017  3.3204  1.6380
  618TMC3    H1 9160   3.737   3.918  14.156 -0.0536  0.7831 -1.6532
  618TMC3    H2 9161   3.894   3.589  13.933 -1.0904 -1.8553 -1.0528
  618TMC3    C7 9162   3.951   3.774  14.127 -0.1441 -0.2002  0.2790
  618TMC3    C8 9163   3.695   3.594  13.745 -0.7341 -0.4844  0.2805
  618TMC3    O1 9164   3.927   3.809  14.239 -0.0589  0.1278  0.2103
  618TMC3    O2 9165   3.587   3.562  13.708 -0.6672 -0.2052  0.4160
  619MPD2     C 9166   4.222   0.966  13.578 -0.4044 -0.2228  0.2297
  619MPD2    C1 9167   4.185   0.854  13.503 -0.2419 -0.2103  0.0306
  619MPD2    C2 9168   4.096   0.759  13.560 -0.6391 -0.1786 -0.3493
  619MPD2    C3 9169   4.065   0.769  13.698 -0.3030  1.0599 -0.0150
  619MPD2    C4 9170   4.107   0.884  13.769 -0.4323  0.7332  0.1672
  619MPD2    C5 9171   4.188   0.975  13.708 -0.1499 -0.2594  1.0672
  619MPD2     H 9172   4.076   0.665  13.509  1.1970 -0.1254 -1.1508
  619MPD2    H1 9173   4.091   0.890  13.876  0.0069 -1.2681  0.3624
  619MPD2    H2 9174   4.290   1.044  13.545  0.2256 -0.4194  1.0605
  619MPD2    H3 9175   4.233   1.061  13.755  0.2544 -0.4870  1.0910
  619MPD2     N 9176   3.988   0.676  13.776  0.1135  0.0238 -0.8081
  619MPD2    H5 9177   3.961   0.702  13.870 -2.3421 -1.0997 -1.1901
  619MPD2    N1 9178   4.219   0.836  13.366  0.3845 -0.4144 -0.2971
  619MPD2    H7 9179   4.211   0.748  13.316 -1.3728  0.7652 -2.1114
  620TMC3    C1 9180   4.237   0.919  13.144  0.5247 -0.2376 -0.1491
  620TMC3    C2 9181   4.103   0.886  13.121 -0.8934 -0.0379 -0.0975
  620TMC3    C3 9182   4.024   0.955  13.033 -0.6168 -0.2870  0.0675
  620TMC3    C4 9183   4.289   1.021  13.069 -0.1823 -0.2264  0.5792
  620TMC3    C5 9184   4.207   1.086  12.973 -0.4104  0.9751 -0.6639
  620TMC3    C6 9185   4.075   1.054  12.961  0.3311 -0.0754 -0.4751
  620TMC3     C 9186   4.251   0.947  13.288 -0.5647  0.0509 -0.5860
  620TMC3     O 9187   4.248   1.068  13.308  0.2327 -0.5471 -0.2787
  620TMC3     H 9188   4.058   0.819  13.193  1.9241  0.0246  1.7256
  620TMC3    H1 9189   4.390   1.057  13.088 -1.2838  2.0231  2.1584
  620TMC3    H2 9190   4.013   1.134  12.922 -2.2028 -1.5965  0.4049
  620TMC3    C7 9191   4.223   1.229  12.980 -0.3877 -0.4547 -0.9081
  620TMC3    C8 9192   3.905   1.003  13.097 -0.2353 -0.3959  0.1619
  620TMC3    O1 9193   4.198   1.296  12.882 -0.0313 -0.3214 -0.2935
  620TMC3    O2 9194   3.800   0.953  13.064 -0.1654 -0.0180 -0.4213
  621MPD2     C 9195   0.141   0.093   9.915 -0.0021  0.2897 -0.0224
  621MPD2    C1 9196   0.248   0.048   9.987 -0.2093 -0.8787  0.4493
  621MPD2    C2 9197   0.346   0.137  10.026  0.3583 -0.6440 -0.3708
  621MPD2    C3 9198   0.321   0.274  10.017 -0.1380  0.5293  0.0157
  621MPD2    C4 9199   0.200   0.316   9.958 -0.1555  0.1928 -0.4504
  621MPD2    C5 9200   0.121   0.227   9.900 -0.3634  0.4163 -1.3424
  621MPD2     H 9201   0.429   0.107  10.090  1.0469  0.7378 -0.6024
  621MPD2    H1 9202   0.174   0.420   9.938 -1.3462  0.3098  1.7282
  621MPD2    H2 9203   0.069   0.033   9.862 -2.6223  2.2262  1.3554
  621MPD2    H3 9204   0.039   0.268   9.842 -1.0018  0.2206 -0.5712
  621MPD2     N 9205   0.410   0.374  10.057  0.0199  1.0429 -0.0434
  621MPD2    H5 9206   0.374   0.468  10.044 -0.7430  0.8950  1.0256
  621MPD2    N1 9207   0.263   4.637  10.023  0.9984  0.0558 -0.4573
  621MPD2    H7 9208   0.321   4.612  10.103  1.2602 -2.1897 -1.3416
  622TMC3    C1 9209   0.201   4.409  10.042 -0.5485 -0.2145  0.0443
  622TMC3    C2 9210   0.237   4.393  10.168  0.2490  0.3377 -0.5383
  622TMC3    C3 9211   0.239   4.268  10.226 -0.7055  0.0533  0.0572
  622TMC3    C4 9212   0.160   4.302   9.968  0.3982  0.0509  0.5677
  622TMC3    C5 9213   0.183   4.173  10.020 -0.3248 -0.4338  1.0336
  622TMC3    C6 9214   0.225   4.156  10.148 -0.8179  0.5260 -1.1041
  622TMC3     C 9215   0.179   4.538   9.978  0.1826 -0.2469  0.4534
  622TMC3     O 9216   0.092   4.541   9.892 -0.6697 -0.1322 -0.4979
  622TMC3     H 9217   0.271   4.477  10.227 -2.1130  0.6532  0.3485
  622TMC3    H1 9218   0.117   4.325   9.872 -0.0543 -1.5542  0.3775
  622TMC3    H2 9219   0.230   4.060  10.198  2.1037  2.6213  2.6245
  622TMC3    C7 9220   0.137   4.053   9.941 -0.2492  0.0865  0.4212
  622TMC3    C8 9221   0.187   4.258  10.366  0.2589  0.7904  0.2447
  622TMC3    O1 9222   0.116   4.075   9.823 -0.3807 -0.2181 -0.0452
  622TMC3    O2 9223   0.198   4.153  10.427  0.0225 -0.2340 -0.0826
  623MPD2     C 9224   3.322   1.299  15.916 -0.3053  0.4026  0.2331
  623MPD2    C1 9225   3.340   1.251  16.046  0.2470 -0.3706 -0.0302
  623MPD2    C2 9226   3.457   1.279  16.119 -0.1913 -0.7728  0.1698
  623MPD2    C3 9227   3.545   1.373  16.073  0.2676 -0.3984 -0.4877
  623MPD2    C4 9228   3.521   1.437  15.954  0.0687 -0.8607  0.4331
  623MPD2    C5 9229   3.408   1.399  15.876  0.0521  0.2140 -0.3704
  623MPD2     H 9230   3.467   1.250  16.223 -0.7434 -1.8576 -0.0826
  623MPD2    H1 9231   3.585   1.517  15.917 -1.0511 -0.1208  0.1113
  623MPD2    H2 9232   3.242   1.265  15.852  0.6107 -0.9745 -0.1972
  623MPD2    H3 9233   3.389   1.463  15.791  0.4923 -0.3967 -0.9290
  623MPD2     N 9234   3.637   1.421  16.174  0.7969 -0.1713 -0.3499
  623MPD2    H5 9235   3.630   1.393  16.271  0.6325 -0.5164 -0.4613
  623MPD2    N1 9236   3.245   1.172  16.113  0.1546 -0.4235 -0.2403
  623MPD2    H7 9237   3.263   1.144  16.209 -2.3118  2.2571  1.0068
  624TMC3    C1 9238   3.973   1.653  16.401  0.7198 -0.1720  1.4996
  624TMC3    C2 9239   3.894   1.644  16.520  0.4312  0.2814 -0.1098
  624TMC3    C3 9240   3.761   1.595  16.503  0.1912  0.2314  0.1255
  624TMC3    C4 9241   3.930   1.611  16.278  0.3446  0.0261  0.9072
  624TMC3    C5 9242   3.802   1.555  16.277 -0.2176 -0.7700  0.0684
  624TMC3    C6 9243   3.708   1.570  16.380 -1.0768  0.5859  0.1951
  624TMC3     C 9244   4.114   1.693  16.419 -0.2783  0.0576  0.1587
  624TMC3     O 9245   4.156   1.682  16.537  0.3498 -0.1791 -0.2518
  624TMC3     H 9246   3.940   1.657  16.618  0.0708 -1.1310  0.2449
  624TMC3    H1 9247   3.997   1.600  16.193 -1.1340  0.5097 -0.3183
  624TMC3    H2 9248   3.604   1.539  16.373 -0.3007 -2.1023  0.6550
  624TMC3    C7 9249   3.743   1.506  16.152 -0.4968 -0.1339 -0.0888
  624TMC3    C8 9250   3.692   1.524  16.610  0.4544 -0.6267  0.2214
  624TMC3    O1 9251   3.799   1.536  16.049  0.0045 -0.1351 -0.1111
  624TMC3    O2 9252   3.623   1.427  16.581  0.0180 -0.4172 -0.6347
  625MPD2     C 9253   4.030   2.325   1.273 -0.0861 -0.4013 -0.0385
  625MPD2    C1 9254   4.111   2.425   1.218  0.1177  0.1954  0.2410
  625MPD2    C2 9255   4.248   2.423   1.228  0.6281  0.3231 -0.6182
  625MPD2    C3 9256   4.308   2.324   1.304 -0.0258  0.5271  0.5941
  625MPD2    C4 9257   4.230   2.230   1.365  0.0399  0.1503 -0.6735
  625MPD2    C5 9258   4.095   2.236   1.351  0.1500 -0.2348 -0.3308
  625MPD2     H 9259   4.307   2.503   1.184 -0.3415  1.6356  0.4741
  625MPD2    H1 9260   4.268   2.148   1.425 -0.3761 -0.1877 -0.8688
  625MPD2    H2 9261   3.921   2.324   1.270 -0.1097  1.2153  0.4506
  625MPD2    H3 9262   4.035   2.160   1.400 -0.9494  0.6768 -0.2503
  625MPD2     N 9263   4.449   2.322   1.323  0.5531 -0.3931  0.0514
  625MPD2    H5 9264   4.505   2.376   1.257  0.5374 -1.3017 -0.7004
  625MPD2    N1 9265   4.049   2.530   1.145  0.4645  0.0614 -0.2582
  625MPD2    H7 9266   4.102   2.614   1.125  0.4086  0.2328  0.3305
  626TMC3    C1 9267   3.876   2.659   1.097  0.4208  0.1121  0.1393
  626TMC3    C2 9268   3.884   2.716   0.972 -0.1214 -0.2436  0.5539
  626TMC3    C3 9269   3.826   2.834   0.959  0.0406 -0.6771 -0.4623
  626TMC3    C4 9270   3.823   2.723   1.207 -0.3913  0.1616  0.0112
  626TMC3    C5 9271   3.765   2.843   1.186 -0.1196 -0.0276  0.2502
  626TMC3    C6 9272   3.770   2.904   1.064 -0.0233  0.1421  0.3379
  626TMC3     C 9273   3.918   2.529   1.115  0.2078  0.3131 -0.1477
  626TMC3     O 9274   3.833   2.435   1.101  0.0289 -0.3283  0.0212
  626TMC3     H 9275   3.938   2.663   0.894  0.0650 -1.5354  1.5477
  626TMC3    H1 9276   3.832   2.673   1.303 -1.1721 -0.1311 -0.0694
  626TMC3    H2 9277   3.727   2.999   1.037 -1.1744 -0.6359 -0.5613
  626TMC3    C7 9278   3.715   2.913   1.302 -0.0123 -0.0760  0.2157
  626TMC3    C8 9279   3.786   2.876   0.831  0.1475  0.1965 -0.1970
  626TMC3    O1 9280   3.720   2.846   1.403  0.2319 -0.4700 -1.1124
  626TMC3    O2 9281   3.773   2.995   0.817  0.5695  0.1771 -0.1870
  627MPD2     C 9282   2.329   3.021  14.172 -0.0812  0.3733 -0.1290
  627MPD2    C1 9283   2.410   2.926  14.225 -0.2262  0.3856  0.3175
  627MPD2    C2 9284   2.368   2.792  14.227  0.2999 -0.0011 -0.4785
  627MPD2    C3 9285   2.238   2.767  14.181  0.2009  0.2705  0.0432
  627MPD2    C4 9286   2.153   2.872  14.149  0.1128 -0.2978  0.4516
  627MPD2    C5 9287   2.194   2.999  14.142 -0.2360 -0.0141  0.0926
  627MPD2     H 9288   2.434   2.712  14.259  0.5511  0.0476 -0.8759
  627MPD2    H1 9289   2.056   2.858  14.104 -0.4667 -2.4112  2.3092
  627MPD2    H2 9290   2.364   3.123  14.173 -1.3445  0.8052  0.9410
  627MPD2    H3 9291   2.126   3.075  14.108 -0.8274 -0.5904 -0.0186
  627MPD2     N 9292   2.176   2.638  14.169 -0.4892 -0.1444  0.1238
  627MPD2    H5 9293   2.074   2.642  14.167 -0.4167  0.4591 -2.0909
  627MPD2    N1 9294   2.533   2.959  14.287  0.3264  0.3359  0.0767
  627MPD2    H7 9295   2.591   2.880  14.315  1.1489  1.1017  0.5414
  628TMC3    C1 9296   2.689   3.063  14.426 -0.0087 -0.7812 -0.0768
  628TMC3    C2 9297   2.722   2.944  14.487 -0.8574  0.2133  0.2102
  628TMC3    C3 9298   2.837   2.947  14.558 -0.4653  0.1956  0.3257
  628TMC3    C4 9299   2.750   3.182  14.443 -0.8975  0.1805  0.2018
  628TMC3    C5 9300   2.863   3.182  14.522 -0.1294  0.3563  0.6624
  628TMC3    C6 9301   2.908   3.065  14.583  0.2414  0.5283 -0.2178
  628TMC3     C 9302   2.567   3.076  14.343  0.3371 -0.4824  0.1068
  628TMC3     O 9303   2.524   3.191  14.331 -0.5804 -0.0010  0.0040
  628TMC3     H 9304   2.656   2.859  14.477 -0.4048 -0.0567 -0.4307
  628TMC3    H1 9305   2.731   3.260  14.370 -1.8713 -0.0327  0.2258
  628TMC3    H2 9306   3.000   3.060  14.639 -0.6781 -2.5530  1.0267
  628TMC3    C7 9307   2.924   3.308  14.553  0.0868  0.0882 -0.0168
  628TMC3    C8 9308   2.864   2.835  14.638  0.1924  0.3891 -0.3514
  628TMC3    O1 9309   3.032   3.298  14.607  0.2450 -0.5979 -0.0465
  628TMC3    O2 9310   2.773   2.764  14.667 -0.0975 -0.2399  0.2292
  629MPD2     C 9311   0.997   1.072  16.119 -0.6219  0.3713 -0.3604
  629MPD2    C1 9312   1.016   1.206  16.144  0.6637 -0.2762 -0.6964
  629MPD2    C2 9313   0.912   1.296  16.168 -0.8077 -0.5931 -0.0297
  629MPD2    C3 9314   0.787   1.249  16.172  0.6649 -0.1331  0.1346
  629MPD2    C4 9315   0.770   1.111  16.148 -0.3588  0.2944 -0.7355
  629MPD2    C5 9316   0.873   1.027  16.116  0.1441 -0.0864 -0.3520
  629MPD2     H 9317   0.935   1.402  16.167  1.3512 -1.0256  3.3461
  629MPD2    H1 9318   0.670   1.070  16.152  0.0318 -0.4518  1.4671
  629MPD2    H2 9319   1.084   1.010  16.102 -1.0183 -0.5648  1.0375
  629MPD2    H3 9320   0.855   0.923  16.094 -1.1825 -0.2509  1.4916
  629MPD2     N 9321   0.681   1.340  16.195  0.3496  0.9462  0.3483
  629MPD2    H5 9322   0.706   1.437  16.211 -2.1760  1.5810  0.4508
  629MPD2    N1 9323   1.150   1.249  16.153  0.6816 -0.1538 -0.3308
  629MPD2    H7 9324   1.226   1.183  16.157  0.2623 -0.5072  2.0285
  630TMC3    C1 9325   1.319   1.393  16.228  0.0782 -0.6704  0.4030
  630TMC3    C2 9326   1.398   1.503  16.206 -0.4913  0.1606  0.0102
  630TMC3    C3 9327   1.505   1.520  16.284 -0.3858  0.0576 -0.2562
  630TMC3    C4 9328   1.351   1.302  16.329  0.2146  0.2616 -0.3202
  630TMC3    C5 9329   1.471   1.316  16.395 -0.0444  0.1667 -0.2207
  630TMC3    C6 9330   1.549   1.423  16.363  0.0498  0.3858  0.1584
  630TMC3     C 9331   1.183   1.383  16.178 -0.1842 -0.1131  0.2583
  630TMC3     O 9332   1.129   1.486  16.141  0.0964  0.5533  0.2407
  630TMC3     H 9333   1.381   1.577  16.128 -1.7561 -0.1488 -0.0138
  630TMC3    H1 9334   1.286   1.218  16.352  1.7769 -0.6881  0.6241
  630TMC3    H2 9335   1.648   1.428  16.406  0.8495 -1.0572 -1.5322
  630TMC3    C7 9336   1.460   1.290  16.534 -0.4797  0.6020 -0.8072
  630TMC3    C8 9337   1.578   1.646  16.300 -0.0686  0.3981 -0.5890
  630TMC3    O1 9338   1.457   1.389  16.605 -0.1684 -0.0849 -0.5036
  630TMC3    O2 9339   1.664   1.639  16.387  0.0773  0.4074 -0.1036
  631MPD2     C 9340   3.759   1.248  15.743  0.4534  0.0623 -0.3762
  631MPD2    C1 9341   3.830   1.258  15.626  1.0475  0.9155 -0.6133
  631MPD2    C2 9342   3.927   1.163  15.601  0.4442  0.1730 -0.6298
  631MPD2    C3 9343   3.950   1.060  15.697  0.0102 -0.2034 -0.3003
  631MPD2    C4 9344   3.868   1.046  15.808  0.3637  0.8969 -0.4980
  631MPD2    C5 9345   3.771   1.142  15.831 -1.1754 -0.2330  0.1430
  631MPD2     H 9346   3.988   1.170  15.511  1.3132 -0.4575 -0.0914
  631MPD2    H1 9347   3.876   0.964  15.879 -0.0430  0.3047 -1.1310
  631MPD2    H2 9348   3.680   1.320  15.763 -0.7095 -1.4289  0.4623
  631MPD2    H3 9349   3.707   1.142  15.919  0.3078  1.8665  1.2362
  631MPD2     N 9350   4.069   0.986  15.686 -0.2218  0.1687  0.1572
  631MPD2    H5 9351   4.116   1.001  15.597  0.6057 -6.3396 -0.5277
  631MPD2    N1 9352   3.811   1.378  15.549 -0.3710  0.1536 -0.6213
  631MPD2    H7 9353   3.758   1.451  15.597  0.5931  1.1074 -1.0291
  632TMC3    C1 9354   3.880   1.537  15.391  0.1768  0.2875  0.2959
  632TMC3    C2 9355   3.880   1.631  15.488 -0.4312  0.0273  0.3719
  632TMC3    C3 9356   3.954   1.743  15.471 -0.1393 -0.3903 -0.3418
  632TMC3    C4 9357   3.970   1.548  15.285  0.6581  1.0569  0.1320
  632TMC3    C5 9358   4.048   1.666  15.279  0.1463  0.6383  0.5433
  632TMC3    C6 9359   4.035   1.771  15.359  0.0253 -0.4911  0.0037
  632TMC3     C 9360   3.854   1.400  15.423  0.0181 -0.0497 -0.2760
  632TMC3     O 9361   3.895   1.314  15.348 -0.9285  0.0452 -0.3440
  632TMC3     H 9362   3.801   1.626  15.563  0.6855  0.9734  1.6086
  632TMC3    H1 9363   3.985   1.475  15.207 -0.0830  1.1810 -0.1268
  632TMC3    H2 9364   4.065   1.872  15.334 -0.7534  0.0105  1.0880
  632TMC3    C7 9365   4.144   1.678  15.169  0.1788  0.4060  0.4030
  632TMC3    C8 9366   3.920   1.858  15.556 -0.0264 -0.3109 -0.4582
  632TMC3    O1 9367   4.099   1.625  15.066 -0.1480  0.0805 -0.3501
  632TMC3    O2 9368   3.800   1.865  15.575  0.0260  0.1993 -0.1202
  633MPD2     C 9369   3.144   4.334  17.100  0.0743  0.7343  0.4054
  633MPD2    C1 9370   3.247   4.255  17.060 -0.0352  0.2919 -0.5313
  633MPD2    C2 9371   3.220   4.125  17.038  1.0051  0.1080  0.6532
  633MPD2    C3 9372   3.096   4.064  17.062 -0.2944  0.9081 -0.3921
  633MPD2    C4 9373   2.999   4.150  17.106  0.3953  0.6772 -0.6133
  633MPD2    C5 9374   3.020   4.280  17.113 -0.3606 -0.3218  0.2957
  633MPD2     H 9375   3.302   4.061  17.008  1.6278  1.4081 -0.4192
  633MPD2    H1 9376   2.898   4.120  17.126  1.4996 -0.1564  3.6174
  633MPD2    H2 9377   3.152   4.442  17.112  0.9567  0.8034 -0.7607
  633MPD2    H3 9378   2.944   4.354  17.134 -1.5654 -1.0223 -1.6465
  633MPD2     N 9379   3.069   3.921  17.035 -0.1156 -0.7065 -0.6430
  633MPD2    H5 9380   2.976   3.886  17.053  0.0831 -0.4374  0.9078
  633MPD2    N1 9381   3.386   4.302  17.057  0.2645 -0.3939  0.4155
  633MPD2    H7 9382   3.456   4.237  17.022 -0.0552  0.0093 -0.9747
  634TMC3    C1 9383   3.570   4.458  17.025  0.1431  0.4295  0.6478
  634TMC3    C2 9384   3.653   4.356  16.994 -0.8888 -0.3336 -0.3620
  634TMC3    C3 9385   3.776   4.380  16.936 -0.0296 -0.6640  0.0266
  634TMC3    C4 9386   3.608   4.588  17.016 -0.3051  0.0621 -0.5183
  634TMC3    C5 9387   3.733   4.610  16.960 -0.4357  0.3892 -0.0536
  634TMC3    C6 9388   3.818   4.511  16.911  0.3430 -0.6409  0.5826
  634TMC3     C 9389   3.437   4.427  17.080 -0.2093  0.4761 -0.2441
  634TMC3     O 9390   3.382   4.524  17.132 -0.7778 -0.3327  0.2499
  634TMC3     H 9391   3.614   4.259  17.022  0.8689 -0.2630  2.4171
  634TMC3    H1 9392   3.533   4.665  17.029 -0.2691 -0.2401  1.4755
  634TMC3    H2 9393   3.901   4.534  16.846  0.8124  2.2925  2.2420
  634TMC3    C7 9394   3.756   0.015  16.903 -0.0475  0.1315  0.6451
  634TMC3    C8 9395   3.851   4.270  16.882 -1.0208  0.4497 -0.0201
  634TMC3    O1 9396   3.786   0.011  16.784 -0.3190 -1.2835  0.6275
  634TMC3    O2 9397   3.799   4.160  16.903 -0.5579 -0.0914 -0.4682
  635TMC3    C1 9398   4.160   0.977  17.289 -0.8845  0.0287 -0.0410
  635TMC3    C2 9399   4.263   0.931  17.216  0.5029 -0.6410  0.5024
  635TMC3    C3 9400   4.356   0.845  17.277 -0.3058  0.1953  0.5671
  635TMC3    C4 9401   4.136   0.924  17.415  0.0016 -0.0506  0.5328
  635TMC3    C5 9402   4.234   0.844  17.471  0.9296 -0.2243  1.0694
  635TMC3    C6 9403   4.352   0.812  17.406  0.2945 -1.1603 -0.7239
  635TMC3     C 9404   4.110   1.118  17.271  0.5563  0.7929  0.4776
  635TMC3     O 9405   3.997   1.143  17.310  0.2403  0.1059  0.1679
  635TMC3     H 9406   4.275   0.948  17.109  1.5128  1.5042  0.9684
  635TMC3    H1 9407   4.042   0.939  17.466  0.8606  2.5007  1.3621
  635TMC3    H2 9408   4.446   0.780  17.450  0.3701 -1.3648 -1.0344
  635TMC3    C7 9409   4.217   0.789  17.608 -0.2634 -0.3603 -0.1825
  635TMC3    C8 9410   4.452   0.778  17.197 -0.6318  0.4398 -0.2032
  635TMC3    O1 9411   4.168   0.874  17.683  0.1539  0.2958 -0.0476
  635TMC3    O2 9412   4.442   0.813  17.081 -0.2541  0.0893  0.0061
  636MPD2     C 9413   0.343   4.292  15.718 -0.4272 -0.5138  0.3244
  636MPD2    C1 9414   0.328   4.288  15.856  0.3033  0.1191 -0.3082
  636MPD2    C2 9415   0.299   4.169  15.914  0.3461 -0.0331  0.4039
  636MPD2    C3 9416   0.277   4.055  15.839  0.3801  0.5218  0.1674
  636MPD2    C4 9417   0.300   4.064  15.701 -0.8738 -0.1402 -0.1412
  636MPD2    C5 9418   0.335   4.181  15.642  0.0666 -0.0123 -0.5211
  636MPD2     H 9419   0.280   4.175  16.021  2.2556 -0.0062  0.7502
  636MPD2    H1 9420   0.288   3.976  15.638 -2.4750  0.2788 -0.4012
  636MPD2    H2 9421   0.365   4.388  15.673  1.7664 -1.2248 -0.0957
  636MPD2    H3 9422   0.350   4.184  15.534  0.6679  0.6323 -0.4215
  636MPD2     N 9423   0.252   3.932  15.904  0.3790 -0.8080  0.1112
  636MPD2    H5 9424   0.263   3.930  16.005  0.6126  0.4512  0.1052
  636MPD2    N1 9425   0.311   4.403  15.935  0.2841  0.7602  0.7512
  636MPD2    H7 9426   0.304   4.391  16.035  0.5933  0.2577  0.7104
  637TMC3    C1 9427   0.223   3.700  15.938  0.0055  1.0813  0.0883
  637TMC3    C2 9428   0.198   3.727  16.068  0.1664  0.9482 -0.4246
  637TMC3    C3 9429   0.245   3.640  16.162 -0.3774 -0.0327 -0.0623
  637TMC3    C4 9430   0.273   3.579  15.900 -0.0387 -0.0942 -0.0519
  637TMC3    C5 9431   0.320   3.485  15.994  0.6162 -0.5562 -0.5403
  637TMC3    C6 9432   0.294   3.520  16.123  0.5165  0.8653 -0.2631
  637TMC3     C 9433   0.225   3.809  15.839 -1.0115 -0.0629  0.4375
  637TMC3     O 9434   0.235   3.784  15.720 -0.8168 -0.1732  0.2185
  637TMC3     H 9435   0.158   3.822  16.102 -1.1703  0.9477 -2.0248
  637TMC3    H1 9436   0.300   3.580  15.795 -0.5732  0.3408 -0.1819
  637TMC3    H2 9437   0.315   3.445  16.197 -1.3788  0.3756 -0.2206
  637TMC3    C7 9438   0.460   3.448  15.980 -0.5237  0.0306  0.5296
  637TMC3    C8 9439   0.306   3.701  16.282 -0.2269 -0.1600 -0.4504
  637TMC3    O1 9440   0.529   3.464  16.082  0.1323  0.8292 -0.9021
  637TMC3    O2 9441   0.240   3.780  16.348  1.1018  0.0863 -0.2671
  638MPD2     C 9442   4.486   3.440  14.968 -0.3660 -0.4835  0.1839
  638MPD2    C1 9443   4.496   3.344  14.865  0.3575  0.3945 -0.7230
  638MPD2    C2 9444   4.503   3.205  14.897 -0.5779  0.1302  0.3302
  638MPD2    C3 9445   4.507   3.170  15.025 -0.5133  0.6262  0.6784
  638MPD2    C4 9446   4.504   3.265  15.126 -0.3156  0.4252 -0.4957
  638MPD2    C5 9447   4.501   3.402  15.103 -0.0622 -0.3685  0.4824
  638MPD2     H 9448   4.520   3.137  14.814 -1.8271  0.4126 -0.1691
  638MPD2    H1 9449   4.514   3.238  15.230  1.0024  3.2548  0.1047
  638MPD2    H2 9450   4.465   3.543  14.943 -1.1024 -0.6030  0.3186
  638MPD2    H3 9451   4.492   3.474  15.184  0.2953  0.7254 -0.4543
  638MPD2     N 9452   4.523   3.037  15.054  0.2668 -0.8389 -0.0630
  638MPD2    H5 9453   4.533   2.969  14.979  1.9349 -1.2424  0.5103
  638MPD2    N1 9454   4.503   3.390  14.731 -0.1462 -0.1974  0.4812
  638MPD2    H7 9455   4.511   3.490  14.714  0.0008 -0.1276  0.9637
  639TMC3    C1 9456   4.605   2.852  15.161  0.1754  0.3073  0.1828
  639TMC3    C2 9457   4.544   2.796  15.050  0.4096 -0.1866  0.0977
  639TMC3    C3 9458   4.618   2.724  14.967 -0.4374  0.0271  0.2112
  639TMC3    C4 9459   0.008   2.842  15.190  0.2035  0.3810 -0.4503
  639TMC3    C5 9460   0.084   2.767  15.102 -0.2789 -0.2142  0.0478
  639TMC3    C6 9461   0.028   2.718  14.990  0.1682  0.4773  0.5237
  639TMC3     C 9462   4.556   2.987  15.182  0.4024  0.5522 -0.7046
  639TMC3     O 9463   4.593   3.039  15.287 -0.3117  0.3575  0.2787
  639TMC3     H 9464   4.438   2.811  15.035  0.6939 -0.3089 -2.0306
  639TMC3    H1 9465   0.046   2.900  15.273  1.6976 -0.0950 -0.7945
  639TMC3    H2 9466   0.081   2.649  14.925 -1.8814 -2.4250  1.9390
  639TMC3    C7 9467   0.192   2.699  15.164 -0.2197  0.3027  0.5238
  639TMC3    C8 9468   4.561   2.653  14.856  1.3413  0.6578 -0.1125
  639TMC3    O1 9469   0.169   2.634  15.265 -0.3809 -0.5936 -0.0215
  639TMC3    O2 9470   4.634   2.625  14.763 -0.1269 -0.3233  0.1650
  640MPD2     C 9471   0.457   0.517   9.706  0.6373 -0.5623  0.5532
  640MPD2    C1 9472   0.550   0.617   9.675  0.4424  0.1431 -0.5317
  640MPD2    C2 9473   0.505   0.743   9.685  0.2126  0.1299  0.1017
  640MPD2    C3 9474   0.380   0.779   9.727 -0.0833 -0.2749  0.8882
  640MPD2    C4 9475   0.285   0.685   9.757 -0.3012 -1.0470 -0.4319
  640MPD2    C5 9476   0.326   0.555   9.738  0.1954  0.8191  0.0672
  640MPD2     H 9477   0.581   0.818   9.666  0.1491  0.5051  1.2999
  640MPD2    H1 9478   0.184   0.703   9.794 -0.8668 -2.5712 -1.2357
  640MPD2    H2 9479   0.487   0.413   9.702  0.9402 -0.5107  1.8018
  640MPD2    H3 9480   0.260   0.470   9.752 -1.3185  1.6110 -2.1930
  640MPD2     N 9481   0.344   0.915   9.740  0.2683  0.2108 -1.2317
  640MPD2    H5 9482   0.273   0.941   9.807  1.2164  1.5721 -0.7379
  640MPD2    N1 9483   0.683   0.578   9.657 -0.3444 -0.3701 -0.5442
  640MPD2    H7 9484   0.704   0.479   9.668  1.1989  0.1512  1.2874
  641TMC3    C1 9485   0.915   0.590   9.616 -0.4292 -0.5301 -0.6922
  641TMC3    C2 9486   0.946   0.570   9.751 -0.1045  0.0282  0.0607
  641TMC3    C3 9487   1.071   0.597   9.794 -0.9726 -0.2230 -0.0563
  641TMC3    C4 9488   1.003   0.648   9.530 -0.3209  0.1535  0.3349
  641TMC3    C5 9489   1.125   0.677   9.587 -0.1455  0.6427  0.2032
  641TMC3    C6 9490   1.164   0.654   9.720  0.2964  0.3179  0.0925
  641TMC3     C 9491   0.788   0.658   9.611  0.0099 -0.3089  0.2735
  641TMC3     O 9492   0.784   0.769   9.559  0.0572 -0.5631 -0.2754
  641TMC3     H 9493   0.887   0.509   9.817  1.6295 -2.6259 -0.8429
  641TMC3    H1 9494   0.968   0.678   9.432 -0.4595 -1.2284 -0.0279
  641TMC3    H2 9495   1.268   0.645   9.749  0.5339  0.7197 -0.6411
  641TMC3    C7 9496   1.238   0.726   9.509  0.8642  0.2137  0.5501
  641TMC3    C8 9497   1.103   0.536   9.924  0.0764 -0.4406 -0.2598
  641TMC3    O1 9498   1.351   0.737   9.558 -0.4562 -0.5179 -0.5863
  641TMC3    O2 9499   1.038   0.438   9.962 -0.0273 -0.7350  0.2585
  642TMC3    C1 9500   1.898   2.885  12.499  0.1631  0.2518 -0.6998
  642TMC3    C2 9501   2.033   2.858  12.486  0.0816 -0.3421  0.3335
  642TMC3    C3 9502   2.060   2.722  12.458 -0.2012 -0.0183 -0.9628
  642TMC3    C4 9503   1.796   2.792  12.490  0.1902  0.8996  0.2681
  642TMC3    C5 9504   1.835   2.666  12.451  0.0613 -0.3658 -0.6234
  642TMC3    C6 9505   1.965   2.631  12.435 -0.3988 -0.4549  0.6354
  642TMC3     C 9506   1.874   3.026  12.520 -0.7076 -0.4292 -0.7331
  642TMC3     O 9507   1.952   3.113  12.494 -0.1687  0.3520 -0.2580
  642TMC3     H 9508   2.115   2.921  12.515 -1.4571  2.1639 -0.7784
  642TMC3    H1 9509   1.696   2.832  12.500 -0.2544 -0.2564  0.4270
  642TMC3    H2 9510   1.993   2.534  12.394  1.8840  0.7771 -0.7239
  642TMC3    C7 9511   1.747   2.550  12.480 -0.5857  0.8992 -0.2774
  642TMC3    C8 9512   2.190   2.669  12.432 -0.1708  0.4600  0.3145
  642TMC3    O1 9513   1.701   2.488  12.384 -0.0520  0.3022 -0.0980
  642TMC3    O2 9514   2.203   2.582  12.348 -0.2270 -0.6936 -0.4211
  643TMC3    C1 9515   0.869   3.206   0.687  0.3546  0.4707 -0.1085
  643TMC3    C2 9516   0.735   3.182   0.721 -0.1546  0.0927 -0.2309
  643TMC3    C3 9517   0.699   3.051   0.715  0.0078  0.5403  0.3274
  643TMC3    C4 9518   0.950   3.106   0.650  0.7855  0.1410  0.2070
  643TMC3    C5 9519   0.915   2.975   0.661 -0.2478 -0.9817 -0.9003
  643TMC3    C6 9520   0.788   2.943   0.697 -0.2588  0.7348  0.1006
  643TMC3     C 9521   0.917   3.343   0.691  0.3210  0.4170  0.6361
  643TMC3     O 9522   0.831   3.415   0.645 -0.4340 -0.1899  0.0728
  643TMC3     H 9523   0.670   3.267   0.738 -1.6698 -1.2836  0.7873
  643TMC3    H1 9524   1.052   3.128   0.623  0.1431  0.5350 -1.8797
  643TMC3    H2 9525   0.749   2.842   0.705  2.3829 -0.1660  1.2658
  643TMC3    C7 9526   0.971   2.903   0.540  0.1670  0.4198 -0.4062
  643TMC3    C8 9527   0.564   3.037   0.658 -0.4752 -0.7285  0.0518
  643TMC3    O1 9528   1.068   2.952   0.481  0.4820 -0.3197 -0.1220
  643TMC3    O2 9529   0.498   3.140   0.650 -0.1007 -0.0748 -0.3244
  644MPD2     C 9530   1.098   2.353  10.034  0.3005  0.7657 -0.3207
  644MPD2    C1 9531   1.231   2.373  10.024  0.5116  0.0341 -0.7853
  644MPD2    C2 9532   1.273   2.497  10.064  0.5576  0.0449 -0.3135
  644MPD2    C3 9533   1.191   2.592  10.115 -0.4878 -0.2865 -0.4108
  644MPD2    C4 9534   1.056   2.560  10.128 -0.9179  0.1445 -0.3691
  644MPD2    C5 9535   1.014   2.439  10.092 -0.4042  0.8673 -0.2563
  644MPD2     H 9536   1.378   2.522  10.059  0.1941  1.0976 -2.6130
  644MPD2    H1 9537   0.987   2.635  10.165 -0.0939  0.2915  0.8448
  644MPD2    H2 9538   1.056   2.260   9.996  0.2093  0.2911  0.9367
  644MPD2    H3 9539   0.907   2.421  10.088 -0.2705 -0.1518  0.7702
  644MPD2     N 9540   1.249   2.716  10.154 -0.1205  0.2064  0.2537
  644MPD2    H5 9541   1.349   2.709  10.170 -0.0253  1.3792  0.1306
  644MPD2    N1 9542   1.305   2.270   9.967  0.1842 -0.5110  0.2400
  644MPD2    H7 9543   1.262   2.179   9.954 -2.8004  0.7675  1.2888
  645TMC3    C1 9544   1.263   2.931  10.252  0.3702  0.2459  0.0592
  645TMC3    C2 9545   1.394   2.954  10.220 -0.8291  0.4069  0.0440
  645TMC3    C3 9546   1.466   3.043  10.296 -0.0031 -0.1284  0.2212
  645TMC3    C4 9547   1.208   2.999  10.358  0.1043 -0.2098 -0.3719
  645TMC3    C5 9548   1.278   3.097  10.426 -0.1870  0.2331  0.8490
  645TMC3    C6 9549   1.408   3.123  10.393 -1.1900  0.3181 -0.1196
  645TMC3     C 9550   1.179   2.824  10.202 -0.0128  0.0971 -0.2063
  645TMC3     O 9551   1.059   2.846  10.192 -0.2165 -0.1159  0.2821
  645TMC3     H 9552   1.415   2.927  10.117  2.0183  0.0986  0.7197
  645TMC3    H1 9553   1.104   2.975  10.374  0.3151  0.4112  1.9508
  645TMC3    H2 9554   1.469   3.190  10.451 -0.3518  0.9945 -1.7814
  645TMC3    C7 9555   1.239   3.160  10.549  0.6017  0.1748  0.0254
  645TMC3    C8 9556   1.587   3.091  10.230 -0.3380 -0.4421  0.4809
  645TMC3    O1 9557   1.330   3.200  10.618  0.3884  0.2302 -0.2321
  645TMC3    O2 9558   1.608   3.212  10.226 -0.0981 -0.4200 -0.0087
  646MPD2     C 9559   0.375   2.083  14.413  0.7542 -0.4085  0.4652
  646MPD2    C1 9560   0.266   2.070  14.502  0.1971  0.4253 -0.7172
  646MPD2    C2 9561   0.139   2.112  14.460  0.0080  0.5280  0.0285
  646MPD2    C3 9562   0.119   2.149  14.327  0.1120  0.4853 -0.0285
  646MPD2    C4 9563   0.232   2.147  14.237  0.3195 -1.0155  0.1958
  646MPD2    C5 9564   0.363   2.118  14.283 -0.0681 -0.0236  0.1586
  646MPD2     H 9565   0.053   2.108  14.526  0.2261 -0.6811  0.2430
  646MPD2    H1 9566   0.234   2.179  14.133 -0.6706  0.6234  0.6989
  646MPD2    H2 9567   0.474   2.053  14.443  0.9931  1.6155  1.7611
  646MPD2    H3 9568   0.444   2.125  14.211  0.6009  0.3461  0.9460
  646MPD2     N 9569   4.720   2.191  14.295  0.5409  0.1755 -0.3570
  646MPD2    H5 9570   4.645   2.178  14.362  0.6297  0.8197 -0.1340
  646MPD2    N1 9571   0.301   2.035  14.633 -0.6076 -0.5130  1.3506
  646MPD2    H7 9572   0.398   2.020  14.657 -0.4463 -1.0670  0.3408
  647TMC3    C1 9573   0.277   1.957  14.860 -0.6556 -0.2548  0.2015
  647TMC3    C2 9574   0.197   1.880  14.941 -0.5092 -0.4951  0.3931
  647TMC3    C3 9575   0.261   1.796  15.034  0.4107 -0.5655  0.3302
  647TMC3    C4 9576   0.410   1.964  14.877 -0.3795  0.0258  0.5032
  647TMC3    C5 9577   0.464   1.895  14.978  0.1911 -0.2793  0.2649
  647TMC3    C6 9578   0.395   1.807  15.048  0.3894 -0.3026  0.3385
  647TMC3     C 9579   0.210   2.010  14.740  0.3037  0.4458  0.2200
  647TMC3     O 9580   0.090   1.984  14.727  0.2376  1.1851  0.5580
  647TMC3     H 9581   0.089   1.882  14.926 -0.7879  1.2819  2.6061
  647TMC3    H1 9582   0.466   2.024  14.806 -0.7939 -2.0342 -1.5743
  647TMC3    H2 9583   0.436   1.744  15.127  0.9593  0.4482  0.6392
  647TMC3    C7 9584   0.602   1.898  15.006 -0.3323 -0.2902  0.2498
  647TMC3    C8 9585   0.199   1.671  15.080 -0.3458  0.6277  0.4406
  647TMC3    O1 9586   0.626   1.864  15.120  0.4132 -0.4609  0.0459
  647TMC3    O2 9587   0.282   1.590  15.124  0.0843 -0.0064 -0.0296
  648TMC3    C1 9588   4.352   4.353  16.237 -0.1235  0.2592  0.5541
  648TMC3    C2 9589   4.388   4.230  16.180 -0.5037  0.1031  0.5548
  648TMC3    C3 9590   4.366   4.218  16.044 -0.5255  0.4998  0.6594
  648TMC3    C4 9591   4.283   4.453  16.167  0.1340  0.5868 -0.2051
  648TMC3    C5 9592   4.266   4.432  16.033 -0.1047 -0.7031  0.0274
  648TMC3    C6 9593   4.305   4.316  15.973 -0.1366  0.3603 -1.3453
  648TMC3     C 9594   4.423   4.391  16.364  0.2414  0.5594 -0.9383
  648TMC3     O 9595   4.508   4.311  16.405  0.3436  0.0289  0.4499
  648TMC3     H 9596   4.446   4.157  16.234  1.7515  0.8117 -0.9175
  648TMC3    H1 9597   4.284   4.556  16.203  1.4333  0.2715  0.6810
  648TMC3    H2 9598   4.285   4.304  15.867 -0.8031  1.2483 -1.3216
  648TMC3    C7 9599   4.215   4.534  15.946  0.0775  0.4026 -0.1603
  648TMC3    C8 9600   4.386   4.093  15.964  0.6074 -1.4347 -0.0896
  648TMC3    O1 9601   4.239   4.522  15.825 -0.3256 -0.2999  0.1670
  648TMC3    O2 9602   4.381   4.098  15.843 -0.0641  0.5106  0.1035
  649TMC3    C1 9603   3.268   0.128  13.432  0.2174  0.4168 -0.5140
  649TMC3    C2 9604   3.359   0.219  13.476  0.9328  0.0904  0.3813
  649TMC3    C3 9605   3.364   0.234  13.619 -0.5300  0.0651 -0.5577
  649TMC3    C4 9606   3.186   0.053  13.516  0.0354  0.5477  0.3901
  649TMC3    C5 9607   3.199   0.071  13.657  0.1310 -0.4214  0.3905
  649TMC3    C6 9608   3.282   0.167  13.706  0.3562  1.1012 -0.1499
  649TMC3     C 9609   3.248   0.112  13.288  0.0603 -0.1290 -0.2920
  649TMC3     O 9610   3.136   0.116  13.248 -0.3014  0.0332  0.7087
  649TMC3     H 9611   3.401   0.295  13.412  0.1851  0.1031 -0.1041
  649TMC3    H1 9612   3.118   4.715  13.461  1.5266 -0.2071 -0.5732
  649TMC3    H2 9613   3.291   0.182  13.813  2.3311 -0.2040 -0.1367
  649TMC3    C7 9614   3.087   0.056  13.746 -0.1887  0.4793  0.2078
  649TMC3    C8 9615   3.400   0.371  13.674  0.2364  0.6332 -0.0263
  649TMC3    O1 9616   3.083   0.134  13.845  0.2895  0.5256 -0.3595
  649TMC3    O2 9617   3.339   0.403  13.778  0.3927  0.3271 -0.3022
  650TMC3    C1 9618   0.887   2.151  13.352  0.5396 -0.1067  0.0427
  650TMC3    C2 9619   0.848   2.278  13.399 -0.1877 -0.5571  0.1870
  650TMC3    C3 9620   0.760   2.344  13.316 -0.4849 -0.5419  0.3820
  650TMC3    C4 9621   0.830   2.102  13.239  0.2239 -0.5502 -0.3113
  650TMC3    C5 9622   0.739   2.165  13.168 -0.6643  0.1648  0.4907
  650TMC3    C6 9623   0.697   2.285  13.205 -0.5442 -0.3581 -0.3378
  650TMC3     C 9624   0.970   2.070  13.430 -0.3306  0.2996  0.3792
  650TMC3     O 9625   1.031   2.123  13.522 -0.8651  0.8261 -0.0433
  650TMC3     H 9626   0.899   2.315  13.487  0.2707 -1.3562  0.2633
  650TMC3    H1 9627   0.865   2.011  13.193 -1.3786 -0.4225 -1.8001
  650TMC3    H2 9628   0.632   2.338  13.136 -2.1177 -1.1413  0.5338
  650TMC3    C7 9629   0.766   2.147  13.025  0.4446 -0.2519  0.2412
  650TMC3    C8 9630   0.804   2.481  13.293  0.4025 -0.1335 -0.6700
  650TMC3    O1 9631   0.774   2.031  12.986  0.3495  0.2283  0.1530
  650TMC3    O2 9632   0.820   2.510  13.174 -0.3452 -0.2552 -0.3446
  651MPD2     C 9633   4.464   3.320  11.242  0.1026 -0.9794  0.1850
  651MPD2    C1 9634   4.441   3.428  11.159 -0.7921  0.1961  0.6171
  651MPD2    C2 9635   4.556   3.497  11.127  0.0966 -0.4092 -0.0525
  651MPD2    C3 9636   4.684   3.462  11.165 -0.3011  0.4799  0.9112
  651MPD2    C4 9637   4.705   3.345  11.239 -0.3883 -0.1282  0.5837
  651MPD2    C5 9638   4.590   3.280  11.279  0.0646  0.3643  0.1678
  651MPD2     H 9639   4.552   3.589  11.069 -1.0353 -1.3886 -1.5092
  651MPD2    H1 9640   0.076   3.318  11.279  0.5021 -1.2449 -2.3665
  651MPD2    H2 9641   4.390   3.254  11.286 -2.3298  0.4615 -1.7433
  651MPD2    H3 9642   4.592   3.196  11.347  0.6595  1.2791  1.2783
  651MPD2     N 9643   0.067   3.537  11.112 -0.2223  0.0026 -0.6208
  651MPD2    H5 9644   0.047   3.611  11.045  0.4757 -1.2024 -2.1556
  651MPD2    N1 9645   4.322   3.481  11.117  0.2155  0.2729  0.0071
  651MPD2    H7 9646   4.323   3.570  11.068 -2.8835 -0.2780 -1.0836
  652TMC3    C1 9647   0.487   3.733  11.059 -0.2604  0.2760 -0.4159
  652TMC3    C2 9648   0.416   3.625  11.094  0.3902 -0.1814  0.8560
  652TMC3    C3 9649   0.280   3.639  11.099  0.4598 -0.5396  0.6010
  652TMC3    C4 9650   0.424   3.854  11.045  0.0292 -0.1318 -0.7711
  652TMC3    C5 9651   0.287   3.876  11.060 -0.1951  0.5929 -0.5800
  652TMC3    C6 9652   0.214   3.760  11.086  0.1684 -0.6387 -0.1956
  652TMC3     C 9653   0.625   3.729  11.070  1.0750 -0.5157  0.0802
  652TMC3     O 9654   0.667   3.644  11.147 -0.4770  0.5020 -0.4115
  652TMC3     H 9655   0.458   3.531  11.129 -0.3206 -1.2903 -1.3237
  652TMC3    H1 9656   0.477   3.944  11.015 -0.2779 -0.4028 -2.1513
  652TMC3    H2 9657   0.115   3.784  11.121  0.3917 -0.7782  0.5393
  652TMC3    C7 9658   0.209   3.998  11.043  0.1778  0.0562 -0.7023
  652TMC3    C8 9659   0.204   3.529  11.152  0.5656 -1.0470  0.1205
  652TMC3    O1 9660   0.086   3.993  11.052  0.3834  0.4341  0.0163
  652TMC3    O2 9661   0.257   3.445  11.226 -0.3223  0.0511  0.7184
  653MPD2     C 9662   3.917   4.616   0.039 -0.0226  0.0683  0.2264
  653MPD2    C1 9663   3.811   4.705   0.011  0.5189 -0.4644 -0.0058
  653MPD2    C2 9664   3.696   4.664  17.646  0.5953 -0.1766  0.3016
  653MPD2    C3 9665   3.684   4.531  17.598 -0.2526 -0.4242 -0.4999
  653MPD2    C4 9666   3.785   4.446  17.624 -0.0765  0.8762  0.5997
  653MPD2    C5 9667   3.898   4.486  17.692 -0.1623  0.9822  0.0061
  653MPD2     H 9668   3.621   0.013  17.625  0.5787 -0.0158  0.9434
  653MPD2    H1 9669   3.786   4.340  17.602 -0.5439  1.0697 -0.3609
  653MPD2    H2 9670   4.005   4.642   0.096  0.5248 -1.1698 -0.0537
  653MPD2    H3 9671   3.977   4.415   0.010 -0.6241  0.1392 -1.0507
  653MPD2     N 9672   3.561   4.497  17.525  0.3405 -0.2365  0.1525
  653MPD2    H5 9673   3.489   4.568  17.519  0.2834 -0.3088 -0.0069
  653MPD2    N1 9674   3.822   0.119   0.053  0.1893  0.2897 -0.0544
  653MPD2    H7 9675   3.745   0.181   0.032 -0.5523 -1.0245 -1.1998
  654TMC3    C1 9676   3.402   4.356  17.421 -0.7254 -0.2995 -0.0139
  654TMC3    C2 9677   3.309   4.461  17.429 -0.1217  0.1848 -0.5742
  654TMC3    C3 9678   3.175   4.435  17.425  0.0671  1.0290  0.2339
  654TMC3    C4 9679   3.361   4.222  17.428  0.2219 -0.1074  0.1387
  654TMC3    C5 9680   3.226   4.195  17.442  0.6435  0.4375  0.1624
  654TMC3    C6 9681   3.137   4.299  17.428  0.1811 -0.1194  0.3885
  654TMC3     C 9682   3.536   4.377  17.466 -0.2036  0.3272 -0.5935
  654TMC3     O 9683   3.616   4.285  17.446 -0.2872  0.0496  0.6599
  654TMC3     H 9684   3.341   4.563  17.410  0.6286  0.0145 -0.2161
  654TMC3    H1 9685   3.437   4.145  17.418  0.4289  0.3039 -1.4337
  654TMC3    H2 9686   3.031   4.276  17.429  0.4211 -1.1464  1.9199
  654TMC3    C7 9687   3.177   4.060  17.435  0.0184  0.4249  0.0446
  654TMC3    C8 9688   3.069   4.527  17.396 -0.4788 -0.3081  0.2638
  654TMC3    O1 9689   3.064   4.042  17.397  0.1521  0.1785 -0.7030
  654TMC3    O2 9690   2.951   4.497  17.397 -0.4271 -0.7150 -0.1299
  655MPD2     C 9691   4.676   4.329  15.980 -0.0898 -0.3218  0.1247
  655MPD2    C1 9692   4.670   4.419  15.877  0.1873  0.2053  0.8496
  655MPD2    C2 9693   4.704   4.386  15.744 -1.1438 -0.1234 -1.2951
  655MPD2    C3 9694   4.706   4.253  15.710  0.7206 -0.6656 -0.6032
  655MPD2    C4 9695   4.695   4.161  15.811 -0.0630 -0.6346 -0.0897
  655MPD2    C5 9696   4.688   4.199  15.943  0.0425 -0.2969 -0.1459
  655MPD2     H 9697   4.700   4.466  15.670 -0.8575  1.3802  0.2922
  655MPD2    H1 9698   4.691   4.056  15.788  1.0279 -0.6813 -0.0620
  655MPD2    H2 9699   4.638   4.350  16.079  2.0920  1.2064  0.6360
  655MPD2    H3 9700   4.658   4.124  16.014  0.4129 -0.6587 -0.3724
  655MPD2     N 9701   4.721   4.201  15.578  0.5863 -0.0611  0.0020
  655MPD2    H5 9702   4.715   4.100  15.568  0.0748 -0.1235  0.9896
  655MPD2    N1 9703   4.625   4.552  15.901 -0.3377  0.3177  0.1115
  655MPD2    H7 9704   4.616   4.616  15.823 -0.6319  3.3472  2.6382
  656TMC3    C1 9705   4.568   0.022  16.017 -0.0520  0.3186  0.3883
  656TMC3    C2 9706   4.546   0.081  16.141  0.7220  0.5731 -0.7406
  656TMC3    C3 9707   4.472   0.194  16.157  0.6339  0.2555  0.4137
  656TMC3    C4 9708   4.512   0.081  15.906 -0.1297 -0.2911  0.3120
  656TMC3    C5 9709   4.445   0.198  15.924  0.6119 -0.4447 -0.0425
  656TMC3    C6 9710   4.422   0.251  16.040  0.1748  0.6645 -0.6613
  656TMC3     C 9711   4.619   4.612  16.021 -0.7450  0.0570  0.2538
  656TMC3     O 9712   4.659   4.565  16.124  0.1143  0.3037 -0.2737
  656TMC3     H 9713   4.570   0.021  16.229 -0.3385  0.7269 -0.3518
  656TMC3    H1 9714   4.516   0.035  15.808 -0.0654 -1.9501  1.0911
  656TMC3    H2 9715   4.352   0.332  16.057 -1.2036 -1.1535  2.2176
  656TMC3    C7 9716   4.395   0.264  15.803  0.2811  0.5868 -0.2455
  656TMC3    C8 9717   4.354   0.170  16.236  0.4416  0.3169  0.1430
  656TMC3    O1 9718   4.401   0.201  15.702 -0.4034  0.7429 -0.2880
  656TMC3    O2 9719   4.325   0.052  16.242 -0.5353 -0.6305 -0.0697
  657TMC3    C1 9720   3.731   3.277  15.763  0.6005  0.2574  0.0283
  657TMC3    C2 9721   3.817   3.229  15.859 -0.6077  0.7478  0.8276
  657TMC3    C3 9722   3.853   3.318  15.951  0.4743  0.4064  0.2266
  657TMC3    C4 9723   3.696   3.398  15.745  0.1606  0.6118 -0.3233
  657TMC3    C5 9724   3.753   3.488  15.830 -0.2439  0.3551  0.0514
  657TMC3    C6 9725   3.831   3.453  15.936  0.4116  0.3055 -0.5672
  657TMC3     C 9726   3.701   3.177  15.663 -0.0814 -0.1100 -0.1384
  657TMC3     O 9727   3.608   3.201  15.590  0.1160  0.2063 -0.2407
  657TMC3     H 9728   3.827   3.122  15.878 -0.8298  0.8823  1.6895
  657TMC3    H1 9729   3.627   3.427  15.667 -0.2204 -2.1523 -0.9986
  657TMC3    H2 9730   3.854   3.522  16.016 -0.0789 -2.6883  2.1552
  657TMC3    C7 9731   3.723   3.629  15.799 -0.8848 -0.2075 -0.0295
  657TMC3    C8 9732   3.929   3.273  16.070 -0.8096 -0.5108  0.2276
  657TMC3    O1 9733   3.657   3.647  15.699 -0.2193  0.0523 -0.2396
  657TMC3    O2 9734   3.934   3.350  16.165 -0.8891  0.8906  0.7263
  658MPD2     C 9735   0.253   4.632  14.931  0.1042  0.0817 -0.2039
  658MPD2    C1 9736   0.134   4.555  14.920 -0.0416  0.9044 -0.1586
  658MPD2    C2 9737   0.028   4.595  14.848  0.4166  0.1361  0.2250
  658MPD2    C3 9738   0.028   4.717  14.778  0.5114 -0.4709  0.0191
  658MPD2    C4 9739   0.140   0.073  14.790 -0.4641  0.2675 -0.7447
  658MPD2    C5 9740   0.250   0.027  14.863  0.0947  0.2269  0.1388
  658MPD2     H 9741   4.661   4.539  14.849  0.2011  0.4708 -0.7237
  658MPD2    H1 9742   0.157   0.171  14.747  0.6429  0.0807 -0.7166
  658MPD2    H2 9743   0.346   4.609  14.981  0.4198  2.7343  0.4248
  658MPD2    H3 9744   0.335   0.092  14.878 -0.3583  0.5558  1.2661
  658MPD2     N 9745   4.638   0.020  14.700 -0.3016 -0.1166  0.6781
  658MPD2    H5 9746   4.569   4.673  14.716  0.8686 -1.1815  0.9351
  658MPD2    N1 9747   0.122   4.444  14.999 -0.1236 -0.0733  0.7494
  658MPD2    H7 9748   0.203   4.423  15.056  0.6682 -1.2117 -0.8140
  659TMC3    C1 9749   0.023   4.255  15.112  0.6270  0.3386 -0.2244
  659TMC3    C2 9750   0.070   4.286  15.232 -0.2818  0.4730  1.2790
  659TMC3    C3 9751   0.026   4.215  15.340 -0.3950 -0.0395  0.0139
  659TMC3    C4 9752   4.668   4.145  15.097 -0.7189  0.0917  0.1105
  659TMC3    C5 9753   4.629   4.080  15.213 -0.3896 -0.1168 -0.2239
  659TMC3    C6 9754   4.670   4.113  15.331 -0.2292 -1.3920 -0.3429
  659TMC3     C 9755   0.027   4.350  14.997  0.1496  0.2369 -0.0366
  659TMC3     O 9756   4.672   4.330  14.909 -0.1772  0.0813 -0.0744
  659TMC3     H 9757   0.129   4.375  15.250 -1.7048  1.5848  0.4645
  659TMC3    H1 9758   4.637   4.106  15.001 -0.9413 -0.7760  0.5326
  659TMC3    H2 9759   4.597   4.087  15.407  2.7454  0.2442  3.0849
  659TMC3    C7 9760   4.501   4.014  15.212 -0.1943 -0.1116  0.2691
  659TMC3    C8 9761   0.023   4.284  15.471 -0.0143  0.2235 -0.1244
  659TMC3    O1 9762   4.482   3.931  15.302 -0.1538  0.3630  0.0199
  659TMC3    O2 9763   0.051   4.404  15.462 -0.2908 -0.5851  0.1461
  660MPD2     C 9764   3.118   2.903  12.941 -0.3330 -0.3951 -0.0107
  660MPD2    C1 9765   3.108   2.806  12.846 -0.2907 -0.0156  0.7159
  660MPD2    C2 9766   3.116   2.675  12.893  0.5785  0.2091 -0.5932
  660MPD2    C3 9767   3.138   2.648  13.028  0.3082  0.1415  1.5090
  660MPD2    C4 9768   3.136   2.754  13.116 -0.6108 -0.0065  0.1476
  660MPD2    C5 9769   3.137   2.880  13.079  0.6815 -0.5955 -0.3461
  660MPD2     H 9770   3.143   2.595  12.825  0.6968  0.3880 -0.7563
  660MPD2    H1 9771   3.157   2.749  13.222  0.7283 -0.2016 -0.1220
  660MPD2    H2 9772   3.104   3.003  12.903  0.9249 -0.7274 -1.3390
  660MPD2    H3 9773   3.140   2.962  13.150  1.2053 -1.1505  0.2662
  660MPD2     N 9774   3.153   2.519  13.080 -0.2632 -0.1873  0.1627
  660MPD2    H5 9775   3.168   2.511  13.180  0.1715 -0.3057  0.0885
  660MPD2    N1 9776   3.091   2.845  12.708  0.5714  0.0747  0.5743
  660MPD2    H7 9777   3.090   2.945  12.692  2.7037 -0.0625 -0.4623
  661TMC3    C1 9778   3.032   2.841  12.486  0.3282  0.7012 -0.4583
  661TMC3    C2 9779   3.063   2.805  12.358 -0.3500 -0.1792  0.2045
  661TMC3    C3 9780   3.000   2.865  12.252 -0.5345  0.2299 -0.0362
  661TMC3    C4 9781   2.937   2.927  12.524 -0.1101  0.4823 -0.5922
  661TMC3    C5 9782   2.868   2.976  12.412 -0.3406  0.3643 -0.1117
  661TMC3    C6 9783   2.900   2.953  12.280  0.1976 -0.1994  0.5349
  661TMC3     C 9784   3.082   2.764  12.596 -0.9766 -0.6906 -0.0876
  661TMC3     O 9785   3.087   2.641  12.591  0.1874 -0.1973 -0.1598
  661TMC3     H 9786   3.153   2.745  12.345 -0.7978 -0.6863 -0.5876
  661TMC3    H1 9787   2.886   2.945  12.618  0.7420  3.2537 -0.6709
  661TMC3    H2 9788   2.837   3.005  12.208  0.3337 -1.6530 -0.6298
  661TMC3    C7 9789   2.742   3.042  12.440  0.3226  0.1138  0.3074
  661TMC3    C8 9790   3.038   2.838  12.108  0.1386  0.4422  0.1350
  661TMC3    O1 9791   2.727   3.082  12.555 -0.0408 -0.9402 -0.1335
  661TMC3    O2 9792   3.081   2.729  12.079  0.6645  0.1114  0.2631
  662MPD2     C 9793   2.913   3.244  17.420  0.0528 -0.9724 -0.2249
  662MPD2    C1 9794   2.910   3.167  17.535  0.1761  0.2617 -0.3796
  662MPD2    C2 9795   2.867   3.222  17.651  0.0286 -0.0148  0.2212
  662MPD2    C3 9796   2.826   3.349  17.655  0.3234 -0.2474  0.5661
  662MPD2    C4 9797   2.818   3.424  17.544  0.4169 -0.3996  0.3989
  662MPD2    C5 9798   2.859   3.370  17.426  0.3905  0.4784 -0.4168
  662MPD2     H 9799   2.864   3.163   0.038  0.2798  2.5157  1.8855
  662MPD2    H1 9800   2.781   3.525  17.549 -0.7185 -0.7990  0.0616
  662MPD2    H2 9801   2.959   3.202  17.332  0.7888 -0.6052 -0.0153
  662MPD2    H3 9802   2.859   3.436  17.340  0.6576  0.6757 -0.2674
  662MPD2     N 9803   2.783   3.418   0.070  0.4424 -0.6941  0.0721
  662MPD2    H5 9804   2.738   3.508   0.059 -1.2139 -1.2548  2.3157
  662MPD2    N1 9805   2.947   3.030  17.527  0.6335  0.0197  0.0153
  662MPD2    H7 9806   2.944   2.981  17.615  1.3097  1.8975  1.0952
  663TMC3    C1 9807   3.012   2.823  17.444  0.0958  0.0910  0.0354
  663TMC3    C2 9808   3.059   2.790  17.564  0.2939 -0.6181 -0.0923
  663TMC3    C3 9809   3.085   2.654  17.569  0.7714 -0.5628  0.0766
  663TMC3    C4 9810   2.967   2.737  17.342 -0.1151 -0.6761  0.3220
  663TMC3    C5 9811   2.976   2.606  17.368 -0.0444 -0.4092  0.6004
  663TMC3    C6 9812   3.032   2.561  17.487 -0.1626  0.2598  0.4192
  663TMC3     C 9813   2.990   2.958  17.420 -0.0995 -0.3481  0.5470
  663TMC3     O 9814   2.993   2.993  17.300 -0.4097 -0.5718 -0.0527
  663TMC3     H 9815   3.103   2.867  17.626 -0.7799  2.2614 -2.9099
  663TMC3    H1 9816   2.912   2.772  17.255 -0.2709  0.1126  0.7362
  663TMC3    H2 9817   3.088   2.468  17.488 -0.0782  0.3132  1.4706
  663TMC3    C7 9818   2.908   2.507  17.289  0.7936 -0.0404 -0.1069
  663TMC3    C8 9819   3.126   2.593  17.697 -0.0866 -0.3115  0.5302
  663TMC3    O1 9820   2.843   2.537  17.190  0.3810 -0.1030 -0.0343
  663TMC3    O2 9821   3.155   2.471   0.001  0.0826  0.3288 -0.6560
  664MPD2     C 9822   1.355   1.358   0.070 -0.0056  0.6306 -0.1340
  664MPD2    C1 9823   1.448   1.445   0.036 -0.1178  0.0524 -0.0082
  664MPD2    C2 9824   1.509   1.525   0.130 -0.3429 -0.1863  0.6691
  664MPD2    C3 9825   1.488   1.508   0.268  0.1480  0.7691  0.1071
  664MPD2    C4 9826   1.393   1.409   0.306  0.4237  0.2438  0.1732
  664MPD2    C5 9827   1.333   1.338   0.204 -0.5698  0.4447 -0.3109
  664MPD2     H 9828   1.580   1.601   0.101  1.1563 -1.8977 -0.1821
  664MPD2    H1 9829   1.362   1.384   0.407  0.3858  0.5864  0.2438
  664MPD2    H2 9830   1.320   1.280   0.002  0.9248  0.1717 -0.0870
  664MPD2    H3 9831   1.272   1.254   0.236 -0.2369  0.1908 -0.3384
  664MPD2     N 9832   1.550   1.591   0.367 -0.2738  0.0078  0.2537
  664MPD2    H5 9833   1.622   1.655   0.334  0.1820  0.0350  1.3086
  664MPD2    N1 9834   1.505   1.468  17.611  0.1141 -0.3007 -0.1550
  664MPD2    H7 9835   1.578   1.538  17.607  0.4611 -0.6956 -0.7323
  665TMC3    C1 9836   1.622   1.680   0.570  0.0612  0.5661  0.1935
  665TMC3    C2 9837   1.628   1.645   0.699  0.3621  1.1165 -0.1717
  665TMC3    C3 9838   1.676   1.732   0.790 -1.3337  0.2684 -0.3780
  665TMC3    C4 9839   1.652   1.811   0.532  0.7799 -0.0734  0.4304
  665TMC3    C5 9840   1.691   1.900   0.632  0.3590 -0.5430 -0.5686
  665TMC3    C6 9841   1.702   1.866   0.757  1.1639 -0.7797 -0.0469
  665TMC3     C 9842   1.524   1.592   0.503 -0.1841  0.2607  0.1959
  665TMC3     O 9843   1.439   1.539   0.570  0.2048 -0.4942  0.1340
  665TMC3     H 9844   1.588   1.548   0.726  1.0584  1.6958  2.9297
  665TMC3    H1 9845   1.639   1.852   0.433  0.8822 -2.3551 -0.5360
  665TMC3    H2 9846   1.757   1.919   0.833  1.8653 -1.9718  0.2788
  665TMC3    C7 9847   1.696   2.038   0.591  0.5878  0.4057  0.4430
  665TMC3    C8 9848   1.698   1.689   0.920 -0.2651  0.3759  0.1174
  665TMC3    O1 9849   1.734   2.066   0.479 -0.0684  0.0784 -0.9287
  665TMC3    O2 9850   1.680   1.769   1.013  0.4716 -0.2553  0.3919
  666TMC3    C1 9851   0.630   0.474  10.078 -0.9379 -0.1996  0.1106
  666TMC3    C2 9852   0.758   0.468  10.138 -0.6975 -0.4204  0.8402
  666TMC3    C3 9853   0.824   0.588  10.131 -0.0104 -0.1989 -0.2127
  666TMC3    C4 9854   0.576   0.589  10.022 -0.6091  0.4551  0.6384
  666TMC3    C5 9855   0.650   0.706  10.018 -0.4701 -0.0304  0.0797
  666TMC3    C6 9856   0.775   0.700  10.070  0.0258 -0.0029 -0.2625
  666TMC3     C 9857   0.546   0.349  10.077  0.7567 -0.1050 -0.7440
  666TMC3     O 9858   0.607   0.244  10.059  0.1371  0.2322  0.4610
  666TMC3     H 9859   0.801   0.372  10.161 -0.7382 -0.4818  0.6574
  666TMC3    H1 9860   0.481   0.601   9.971  0.0249  1.7675 -0.2125
  666TMC3    H2 9861   0.830   0.792  10.082  0.2141 -0.2418  0.6614
  666TMC3    C7 9862   0.585   0.830  10.007 -0.4841 -0.7387  0.2551
  666TMC3    C8 9863   0.911   0.613  10.249  0.0255  0.1922  0.5878
  666TMC3    O1 9864   0.466   0.829  10.031  0.4337  0.2731 -0.3018
  666TMC3    O2 9865   0.978   0.720  10.258  0.3561 -0.4843  0.0669
  667MPD2     C 9866   2.292   1.214  14.874  0.5953 -0.0297 -0.4233
  667MPD2    C1 9867   2.193   1.233  14.967 -0.3743  0.0705 -0.5192
  667MPD2    C2 9868   2.123   1.119  15.011 -0.1020 -0.1540 -0.6160
  667MPD2    C3 9869   2.153   0.994  14.959 -0.1979 -0.0202 -0.1836
  667MPD2    C4 9870   2.251   0.984  14.863 -0.9742 -0.2442  0.0349
  667MPD2    C5 9871   2.318   1.093  14.828  0.2495 -0.3704  0.4941
  667MPD2     H 9872   2.042   1.132  15.082  0.9332 -0.2568  0.5833
  667MPD2    H1 9873   2.278   0.891  14.814 -0.3380 -1.5162  2.8091
  667MPD2    H2 9874   2.347   1.301  14.838  1.5623 -1.2931 -1.9851
  667MPD2    H3 9875   2.395   1.076  14.754  0.4539  0.9693  0.3979
  667MPD2     N 9876   2.085   0.876  14.994  0.4306 -0.0827  0.1560
  667MPD2    H5 9877   2.106   0.794  14.938 -0.0518  0.1207 -0.3228
  667MPD2    N1 9878   2.159   1.364  15.012  0.0847 -0.0277 -0.5789
  667MPD2    H7 9879   2.091   1.360  15.087 -1.6225 -1.8209 -2.2200
  668TMC3    C1 9880   2.181   1.601  15.057 -0.1835  0.2901 -0.5299
  668TMC3    C2 9881   2.220   1.723  15.009 -0.3153  1.0672 -0.1216
  668TMC3    C3 9882   2.251   1.821  15.106  0.0275 -0.2810 -0.1238
  668TMC3    C4 9883   2.167   1.578  15.191  0.3888 -0.2641  0.5621
  668TMC3    C5 9884   2.193   1.679  15.282  0.6029  0.2550  0.0070
  668TMC3    C6 9885   2.243   1.798  15.238 -0.7322 -0.7922  0.6376
  668TMC3     C 9886   2.205   1.490  14.969  0.1154  1.2991 -0.4335
  668TMC3     O 9887   2.283   1.516  14.876  0.1273 -0.5494  0.1171
  668TMC3     H 9888   2.230   1.739  14.902 -2.1506  1.1696 -0.2834
  668TMC3    H1 9889   2.158   1.476  15.227  0.7644 -0.8722 -1.0602
  668TMC3    H2 9890   2.273   1.875  15.307 -2.6323  0.5989 -0.0979
  668TMC3    C7 9891   2.190   1.654  15.423 -0.0833  0.1686 -0.6510
  668TMC3    C8 9892   2.283   1.956  15.064  0.0520  0.3320 -0.3528
  668TMC3    O1 9893   2.274   1.711  15.491  0.4080  0.1498 -1.0767
  668TMC3    O2 9894   2.276   2.047  15.144  0.0652  0.4860 -0.6598
  669TMC3    C1 9895   0.098   1.278  14.876  0.4513  1.0135  0.3762
  669TMC3    C2 9896   0.001   1.297  14.778  0.2302 -0.3418 -0.4348
  669TMC3    C3 9897   0.024   1.410  14.702  0.0066 -0.1193 -0.6672
  669TMC3    C4 9898   0.220   1.341  14.875 -1.1677 -0.0801  0.9286
  669TMC3    C5 9899   0.230   1.464  14.802 -0.1230 -0.5338 -0.8919
  669TMC3    C6 9900   0.136   1.494  14.711 -0.1935  0.0359  0.3752
  669TMC3     C 9901   0.087   1.147  14.933 -0.6066 -0.1694  0.2933
  669TMC3     O 9902   4.697   1.111  14.959  0.2898 -0.2336  0.0476
  669TMC3     H 9903   4.631   1.246  14.777 -1.3124  2.5493 -1.4034
  669TMC3    H1 9904   0.292   1.325  14.955 -0.1230  0.5942  0.1335
  669TMC3    H2 9905   0.144   1.579  14.644  1.3375 -1.1841 -0.9931
  669TMC3    C7 9906   0.360   1.523  14.776 -0.5304 -0.3817  0.1799
  669TMC3    C8 9907   4.672   1.409  14.577 -0.7785 -0.1399  0.1145
  669TMC3    O1 9908   0.357   1.581  14.666  0.1681  0.0918 -0.2775
  669TMC3    O2 9909   4.582   1.331  14.554  0.6308  0.0971  0.6809
  670MPD2     C 9910   3.245   3.727  13.438  1.1487 -0.4147 -0.0262
  670MPD2    C1 9911   3.328   3.789  13.535  0.0051  0.1121  0.1959
  670MPD2    C2 9912   3.279   3.806  13.670 -0.1905  0.0089 -0.2569
  670MPD2    C3 9913   3.153   3.766  13.703 -0.5187 -0.4437 -0.1883
  670MPD2    C4 9914   3.081   3.691  13.610 -0.1859  0.2313  0.4421
  670MPD2    C5 9915   3.129   3.669  13.484 -0.0769 -0.0784  0.6170
  670MPD2     H 9916   3.342   3.861  13.739  1.7626 -2.1414 -0.3288
  670MPD2    H1 9917   2.991   3.633  13.622 -0.2915  0.3927  0.4303
  670MPD2    H2 9918   3.262   3.715  13.332 -1.0466 -0.0775 -0.3975
  670MPD2    H3 9919   3.067   3.615  13.414 -0.5621 -0.4036  1.3012
  670MPD2     N 9920   3.115   3.792  13.833  0.4181  0.0587  0.1458
  670MPD2    H5 9921   3.174   3.861  13.880 -0.1213  0.5667  0.0769
  670MPD2    N1 9922   3.459   3.840  13.511 -0.0046  0.5090  0.0876
  670MPD2    H7 9923   3.507   3.885  13.588  0.4781  0.4690 -0.1857
  671TMC3    C1 9924   3.003   3.752  14.040  0.0407  0.6433 -0.2827
  671TMC3    C2 9925   3.119   3.737  14.109  0.1610  0.0534  0.2376
  671TMC3    C3 9926   3.145   3.635  14.195 -0.2369 -0.2356  0.7609
  671TMC3    C4 9927   2.898   3.671  14.082  0.0494 -0.2243 -0.6402
  671TMC3    C5 9928   2.923   3.571  14.172 -0.5620  0.4809 -0.2405
  671TMC3    C6 9929   3.050   3.545  14.228 -0.3881 -0.0909 -0.6075
  671TMC3     C 9930   3.004   3.733  13.892 -0.3585 -0.3936  0.0004
  671TMC3     O 9931   2.919   3.656  13.849 -0.3407  0.3535 -0.1537
  671TMC3     H 9932   3.209   3.770  14.058 -1.4039  1.4479 -1.6207
  671TMC3    H1 9933   2.797   3.683  14.043  0.5646  1.4491 -1.4717
  671TMC3    H2 9934   3.073   3.452  14.280 -0.4045  0.3898  0.2558
  671TMC3    C7 9935   2.865   3.441  14.131  0.3747  0.5764 -0.6759
  671TMC3    C8 9936   3.266   3.570  14.149 -0.4549 -0.3719  0.5499
  671TMC3    O1 9937   2.903   3.337  14.181  0.1964 -0.4068  0.2056
  671TMC3    O2 9938   3.279   3.537  14.031 -0.0094 -0.4242 -0.4650
  672MPD2     C 9939   4.684   4.579   0.552  0.1888  0.1827 -0.4274
  672MPD2    C1 9940   4.647   4.517   0.666 -0.3099  0.1537 -0.1516
  672MPD2    C2 9941   4.681   4.574   0.783  0.1253  0.0062 -0.3065
  672MPD2    C3 9942   0.020   4.700   0.785  0.2414 -0.7941 -0.2328
  672MPD2    C4 9943   0.039   0.042   0.669  0.1343 -0.4861  0.1135
  672MPD2    C5 9944   0.017   4.705   0.558 -0.4598  0.4017  0.2198
  672MPD2     H 9945   4.666   4.513   0.871  0.0515 -0.6627 -0.7772
  672MPD2    H1 9946   0.081   0.142   0.668 -1.0665  0.0126  0.0709
  672MPD2    H2 9947   4.645   4.545   0.457  1.5830 -1.9508 -0.2445
  672MPD2    H3 9948   0.036   0.042   0.471  0.0579 -0.1816 -0.0911
  672MPD2     N 9949   0.052   0.041   0.905  0.6970  0.2019  0.9083
  672MPD2    H5 9950   0.080   0.137   0.885  1.4071 -0.5138 -1.4995
  672MPD2    N1 9951   4.576   4.394   0.667  0.2328  0.0231  0.1993
  672MPD2    H7 9952   4.533   4.369   0.755 -1.2060  1.3151 -0.1249
  673TMC3    C1 9953   4.416   4.240   0.595  0.1674  0.7330  0.4761
  673TMC3    C2 9954   4.447   4.156   0.706  0.5598 -0.2810 -0.4037
  673TMC3    C3 9955   4.343   4.071   0.745  0.5226  0.0975  0.2334
  673TMC3    C4 9956   4.295   4.238   0.525 -0.7904  0.3787  0.3180
  673TMC3    C5 9957   4.201   4.161   0.579  0.8707  0.2334  0.2135
  673TMC3    C6 9958   4.221   4.074   0.681 -0.3290  0.3987  0.4868
  673TMC3     C 9959   4.509   4.343   0.560  0.5157 -0.0807 -0.1268
  673TMC3     O 9960   4.506   4.379   0.440 -0.4486 -1.1110 -0.5912
  673TMC3     H 9961   4.549   4.143   0.741  0.0665 -0.4787  0.9524
  673TMC3    H1 9962   4.283   4.292   0.432 -2.0184 -0.4340 -0.0071
  673TMC3    H2 9963   4.151   3.992   0.697  0.9618 -0.6231  0.9226
  673TMC3    C7 9964   4.076   4.157   0.504  0.2071  0.1816  0.2355
  673TMC3    C8 9965   4.375   3.943   0.810 -0.0422 -0.0826  0.3314
  673TMC3    O1 9966   4.019   4.048   0.505 -0.0493  0.1489  0.2171
  673TMC3    O2 9967   4.285   3.860   0.798 -0.2026 -0.2989  0.4022
  674MPD2     C 9968   3.991   3.877   0.946  0.1164 -0.2009  0.2825
  674MPD2    C1 9969   3.892   3.787   0.917 -0.1040 -0.6877  0.6720
  674MPD2    C2 9970   3.764   3.838   0.894 -0.4432  0.4917  0.0913
  674MPD2    C3 9971   3.730   3.971   0.900  0.3485 -0.5916  0.0977
  674MPD2    C4 9972   3.834   4.059   0.924 -0.1211 -0.5569  0.1780
  674MPD2    C5 9973   3.962   4.012   0.942 -0.0323 -0.2062  0.2262
  674MPD2     H 9974   3.682   3.775   0.860  0.6127 -0.5109 -0.5750
  674MPD2    H1 9975   3.816   4.164   0.940 -2.5322 -0.8344 -0.8558
  674MPD2    H2 9976   4.096   3.852   0.957  0.9641  2.1179 -2.5048
  674MPD2    H3 9977   4.039   4.077   0.982  0.0518  0.2930 -0.7490
  674MPD2     N 9978   3.598   4.012   0.894 -0.1780  0.1631 -0.1205
  674MPD2    H5 9979   3.526   3.940   0.897  0.4042 -0.4900 -1.9807
  674MPD2    N1 9980   3.915   3.650   0.901 -0.5014  0.4845  0.5578
  674MPD2    H7 9981   3.840   3.592   0.863 -0.7288  0.1496  1.5246
  675TMC3    C1 9982   4.021   3.443   0.864 -0.7535  0.2177 -0.2777
  675TMC3    C2 9983   3.923   3.409   0.774  0.4330  0.8883 -0.2565
  675TMC3    C3 9984   3.913   3.284   0.726  0.0930 -0.6264  0.1342
  675TMC3    C4 9985   4.103   3.344   0.916 -0.9668 -0.3136  0.2904
  675TMC3    C5 9986   4.090   3.219   0.871 -0.2196 -0.0957 -0.0998
  675TMC3    C6 9987   4.004   3.192   0.766  0.4989 -0.1749 -0.0922
  675TMC3     C 9988   4.029   3.580   0.931 -0.0070 -0.1885 -0.0830
  675TMC3     O 9989   4.131   3.617   0.993  0.4710  0.6395  0.2621
  675TMC3     H 9990   3.866   3.489   0.728 -0.7652  0.8350  1.1401
  675TMC3    H1 9991   4.181   3.369   0.987 -0.5561 -0.6518 -0.0394
  675TMC3    H2 9992   4.002   3.090   0.727 -2.0331  0.2345 -1.0614
  675TMC3    C7 9993   4.108   3.115   0.964  0.1097 -0.3116 -0.2083
  675TMC3    C8 9994   3.798   3.259   0.645 -0.1249  0.3588 -0.1836
  675TMC3    O1 9995   4.146   3.012   0.913  0.1974 -0.1204 -0.2124
  675TMC3    O2 9996   3.812   3.247   0.525 -0.1440 -0.1627  0.1685
  676MPD2     C 9997   1.433   1.496  11.554  0.6671 -0.8179  0.7640
  676MPD2    C1 9998   1.306   1.468  11.592  0.1555 -0.1912 -0.3280
  676MPD2    C2 9999   1.237   1.356  11.532 -0.1394 -0.3279  0.2561
  676MPD2    C310000   1.288   1.294  11.423  0.7523 -0.1137  0.5235
  676MPD2    C410001   1.417   1.337  11.375 -0.8088  0.0597  0.3412
  676MPD2    C510002   1.487   1.433  11.447  0.2185  0.3687  0.1246
  676MPD2     H10003   1.140   1.335  11.575 -0.2575  0.2384  0.2772
  676MPD2    H110004   1.465   1.295  11.287 -1.6025 -0.8339  0.3357
  676MPD2    H210005   1.486   1.562  11.622  0.4682 -0.6976  0.8055
  676MPD2    H310006   1.591   1.459  11.428  0.0889  0.4264 -0.5204
  676MPD2     N10007   1.217   1.193  11.351 -0.5184 -0.3249  0.2956
  676MPD2    H510008   1.264   1.158  11.267 -0.2702  0.2719  0.1885
  676MPD2    N110009   1.238   1.533  11.695 -0.6216  0.2949  0.1542
  676MPD2    H710010   1.151   1.485  11.719  0.8203 -2.4282 -0.1027
  677TMC3    C110011   1.181   1.687  11.862  0.4407  0.1041  1.2485
  677TMC3    C210012   1.077   1.607  11.904  0.3572 -0.6174 -0.3463
  677TMC3    C310013   0.998   1.649  12.004 -0.3203  0.1546 -0.0816
  677TMC3    C410014   1.199   1.809  11.923  0.2799  0.9283 -0.3937
  677TMC3    C510015   1.102   1.852  12.013  0.3416  0.1170 -0.5295
  677TMC3    C610016   1.002   1.769  12.056 -0.5848 -0.7759 -0.0287
  677TMC3     C10017   1.268   1.651  11.746  0.2593 -0.4523 -0.1904
  677TMC3     O10018   1.354   1.731  11.711 -0.6196 -0.1517  0.3187
  677TMC3     H10019   1.076   1.503  11.872  0.4902 -0.9228  0.6333
  677TMC3    H110020   1.279   1.872  11.886  0.9721 -0.2012 -0.8301
  677TMC3    H210021   0.928   1.805  12.126  0.8236 -1.4949  1.8416
  677TMC3    C710022   1.143   1.954  12.111  0.0905 -0.1201  0.3217
  677TMC3    C810023   0.888   1.554  12.026 -0.1383 -0.0665 -0.9804
  677TMC3    O110024   1.071   1.967  12.210  0.5859 -0.1427  0.1407
  677TMC3    O210025   0.842   1.496  11.929  0.2931 -0.3441  0.2883
  678MPD2     C10026   2.610   2.432   1.810 -0.6183  0.0359 -0.0732
  678MPD2    C110027   2.680   2.487   1.697  0.9726  0.3773  0.1100
  678MPD2    C210028   2.601   2.550   1.602  0.3650 -0.3122  0.4798
  678MPD2    C310029   2.460   2.559   1.623 -0.7555  0.4538  0.4894
  678MPD2    C410030   2.401   2.505   1.737  0.8119 -0.9808 -0.2618
  678MPD2    C510031   2.477   2.444   1.830  0.3593 -0.2897 -0.1350
  678MPD2     H10032   2.644   2.588   1.510 -1.9346 -2.7874 -1.6418
  678MPD2    H110033   2.293   2.513   1.747  0.8524  0.2084 -0.7841
  678MPD2    H210034   2.666   2.371   1.881  0.7666 -1.4272 -2.3966
  678MPD2    H310035   2.430   2.396   1.915  1.1431  1.9291  1.5400
  678MPD2     N10036   2.394   2.617   1.516  0.2374 -0.5933  0.0059
  678MPD2    H510037   2.443   2.622   1.428  0.2828  0.8045  0.1210
  678MPD2    N110038   2.819   2.504   1.680  0.0122 -0.0948  0.4588
  678MPD2    H710039   2.852   2.542   1.592  2.6057 -1.0657  1.0048
  679TMC3    C110040   3.275   2.507   1.795  0.2744  0.0183  0.0900
  679TMC3    C210041   3.146   2.483   1.835 -0.6727 -0.5710 -0.5351
  679TMC3    C310042   3.047   2.541   1.760 -0.1159 -0.1118  0.5704
  679TMC3    C410043   3.306   2.592   1.692 -0.3491 -0.3096  0.2622
  679TMC3    C510044   3.198   2.650   1.623 -0.4769  0.7166 -0.1196
  679TMC3    C610045   3.066   2.626   1.659 -0.0618 -0.1948  0.3716
  679TMC3     C10046   3.381   2.426   1.848 -0.1913  0.1196  0.0568
  679TMC3     O10047   3.460   2.393   1.757  0.6655 -0.1736 -0.1957
  679TMC3     H10048   3.128   2.411   1.914 -0.4425  1.0748  1.0387
  679TMC3    H110049   3.408   2.597   1.653 -0.9810  0.0535 -1.3330
  679TMC3    H210050   2.985   2.670   1.600  0.2974 -1.5862 -1.1448
  679TMC3    C710051   3.203   2.718   1.488  1.0903 -0.0354  0.3412
  679TMC3    C810052   2.917   2.474   1.779  0.1733  0.7864  0.4298
  679TMC3    O110053   3.107   2.787   1.456 -0.2243 -0.0030 -0.5141
  679TMC3    O210054   2.912   2.407   1.879  0.1413 -0.0366  0.7544
  680MPD2     C10055   2.483   0.760  13.966 -0.1087 -0.4055 -0.1313
  680MPD2    C110056   2.539   0.710  14.085 -0.5061 -0.0081  0.2756
  680MPD2    C210057   2.618   0.800  14.156 -0.4767  0.2689 -0.0892
  680MPD2    C310058   2.633   0.933  14.115  0.5140  0.2695 -0.0252
  680MPD2    C410059   2.578   0.972  13.996  0.7144  0.2044  0.2221
  680MPD2    C510060   2.506   0.886  13.927  0.2229  0.4872 -0.6186
  680MPD2     H10061   2.666   0.766  14.247  0.7429  3.0471  0.3055
  680MPD2    H110062   2.578   1.073  13.954  2.5997 -0.0031 -0.2929
  680MPD2    H210063   2.440   0.693  13.892 -0.0838 -1.0627  0.4513
  680MPD2    H310064   2.470   0.927  13.833  1.3069  2.0486 -0.3456
  680MPD2     N10065   2.724   1.026  14.174 -0.0418 -0.6599  0.8803
  680MPD2    H510066   2.734   1.120  14.136 -0.6069 -1.0362 -0.1994
  680MPD2    N110067   2.513   0.574  14.120 -0.5877 -0.1012  0.2592
  680MPD2    H710068   2.467   0.510  14.056  4.1145 -1.2884 -1.8973
  681TMC3    C110069   2.511   0.380  14.268  0.0998 -0.7232 -0.0600
  681TMC3    C210070   2.524   0.340  14.403  0.0778 -0.2851  0.5885
  681TMC3    C310071   2.542   0.208  14.430 -0.2548 -0.3548 -0.0572
  681TMC3    C410072   2.507   0.276  14.173 -0.2731 -0.5741  0.0195
  681TMC3    C510073   2.512   0.145  14.211 -0.3601 -0.0948  0.7011
  681TMC3    C610074   2.538   0.106  14.334  0.4773  0.3088  0.4496
  681TMC3     C10075   2.555   0.520  14.241  0.3989  0.1573 -0.6853
  681TMC3     O10076   2.595   0.573  14.346 -0.4352  0.3428 -0.5320
  681TMC3     H10077   2.530   0.408  14.487 -0.7062  0.8575 -0.2850
  681TMC3    H110078   2.499   0.306  14.069  1.1307 -3.3130 -0.9001
  681TMC3    H210079   2.557   0.003  14.362 -0.8405  0.5706  2.3061
  681TMC3    C710080   2.529   0.049  14.111 -1.0492 -0.1563 -0.2387
  681TMC3    C810081   2.610   0.175  14.556  0.7621 -0.1899 -0.5007
  681TMC3    O110082   2.441   4.687  14.113  0.3206 -0.1034 -0.5851
  681TMC3    O210083   2.606   0.063  14.598 -0.6831  0.4200 -0.0352
  682MPD2     C10084   0.211   1.915  10.702 -0.2713 -0.9704  0.2503
  682MPD2    C110085   0.199   1.781  10.729 -0.2898 -0.3410  0.4241
  682MPD2    C210086   0.238   1.739  10.854  0.2595  0.1854 -0.5384
  682MPD2    C310087   0.254   1.831  10.956 -0.3060 -0.1607 -1.1402
  682MPD2    C410088   0.262   1.964  10.930  0.1856 -0.1975 -0.3345
  682MPD2    C510089   0.227   2.007  10.804 -0.5639 -0.4104  0.2507
  682MPD2     H10090   0.248   1.634  10.878 -0.3463  0.2748  0.1202
  682MPD2    H110091   0.267   2.036  11.011  1.0305 -1.8896  1.1029
  682MPD2    H210092   0.197   1.957  10.603 -2.9374 -1.5042  0.3894
  682MPD2    H310093   0.244   2.111  10.776 -2.9150  0.0318  0.4107
  682MPD2     N10094   0.249   1.795  11.091 -0.1499 -0.0621  0.2510
  682MPD2    H510095   0.260   1.875  11.154 -1.4264 -0.3650  0.8530
  682MPD2    N110096   0.177   1.679  10.633 -0.4688  0.1331 -1.0175
  682MPD2    H710097   0.174   1.585  10.672  1.5116  0.7137  0.5526
  683TMC3    C110098   0.347   1.664  11.470  0.0022 -0.1850 -0.0815
  683TMC3    C210099   0.258   1.590  11.536 -0.1309  0.6231  1.0417
  683TMC3    C310100   0.151   1.539  11.468 -0.0736  0.0516 -0.4199
  683TMC3    C410101   0.332   1.707  11.342  0.0249 -0.3320  0.3989
  683TMC3    C510102   0.218   1.658  11.278  0.5113 -0.2343  0.1802
  683TMC3    C610103   0.122   1.574  11.342 -0.1248 -0.4396  0.1834
  683TMC3     C10104   0.414   1.758  11.550 -0.1562 -0.6361  0.0246
  683TMC3     O10105   0.356   1.783  11.657  0.0907 -0.8033 -0.4749
  683TMC3     H10106   0.270   1.562  11.640 -2.8331 -1.3104  0.8424
  683TMC3    H110107   0.405   1.765  11.288  1.4845 -0.9988  1.6643
  683TMC3    H210108   0.030   1.543  11.292 -0.6193  1.1405  0.1377
  683TMC3    C710109   0.200   1.678  11.140  0.0025  0.1758  0.2835
  683TMC3    C810110   0.044   1.482  11.546 -0.0024 -1.1346 -0.3237
  683TMC3    O110111   0.149   1.588  11.078  0.1607  0.9261 -0.5425
  683TMC3    O210112   0.047   1.490  11.670 -0.3343 -0.4070 -0.0662
  684MPD2     C10113   3.175   1.456  16.680  0.1297  0.5438 -0.4344
  684MPD2    C110114   3.067   1.473  16.599 -0.2222 -0.4991  0.4636
  684MPD2    C210115   3.004   1.597  16.592 -0.2047  0.7976 -0.2149
  684MPD2    C310116   3.068   1.705  16.659  0.0296 -0.0341  0.0468
  684MPD2    C410117   3.184   1.691  16.722  0.4406 -0.1223 -0.1332
  684MPD2    C510118   3.228   1.566  16.750 -0.3586 -0.2779  0.4495
  684MPD2     H10119   2.911   1.602  16.537 -0.2595 -0.2269 -0.2236
  684MPD2    H110120   3.225   1.771  16.782 -1.2078 -0.5552  1.5755
  684MPD2    H210121   3.226   1.362  16.695 -0.2168  0.1144 -2.0261
  684MPD2    H310122   3.307   1.550  16.822  1.7455  3.0862 -1.1260
  684MPD2     N10123   3.021   1.833  16.651 -0.1141 -0.3423 -0.9447
  684MPD2    H510124   3.076   1.896  16.710  2.7825 -2.3697 -1.4861
  684MPD2    N110125   3.015   1.368  16.524 -0.5581  1.0323 -1.3519
  684MPD2    H710126   2.935   1.394  16.467 -2.1249 -0.1029  0.3435
  685TMC3    C110127   3.010   1.179  16.391 -0.2709  1.3246 -0.3114
  685TMC3    C210128   2.877   1.195  16.370  0.2048 -0.0783 -0.0496
  685TMC3    C310129   2.829   1.141  16.251  1.0187 -0.2467  0.8125
  685TMC3    C410130   3.094   1.116  16.300 -0.2313  0.3600  0.0915
  685TMC3    C510131   3.042   1.089  16.174  0.3635  0.1938  0.5194
  685TMC3    C610132   2.910   1.097  16.153 -0.0237  0.2679 -0.6337
  685TMC3     C10133   3.078   1.252  16.500 -0.7372 -0.2910 -0.8012
  685TMC3     O10134   3.196   1.224  16.510 -0.8256 -0.1140  0.4335
  685TMC3     H10135   2.811   1.232  16.448  2.1653  1.3694  0.9088
  685TMC3    H110136   3.183   1.062  16.329 -0.6562 -0.5305 -0.2580
  685TMC3    H210137   2.871   1.075  16.054 -0.7993  0.0811 -0.2859
  685TMC3    C710138   3.116   1.148  16.068 -0.0214  0.2813 -0.4750
  685TMC3    C810139   2.695   1.156  16.209 -0.0728  0.4367  0.1127
  685TMC3    O110140   3.057   1.171  15.962 -0.4158 -0.0060 -0.0754
  685TMC3    O210141   2.657   1.077  16.127 -0.5495  0.1211 -0.0538
  686MPD2     C10142   4.069   1.076  15.239  0.4307  0.0079 -0.4460
  686MPD2    C110143   4.176   1.103  15.321 -1.0240 -0.0803 -0.3448
  686MPD2    C210144   4.282   1.015  15.333  0.5064  0.9379  0.0280
  686MPD2    C310145   4.260   0.879  15.302  0.3966 -0.5563  0.1127
  686MPD2    C410146   4.144   0.845  15.230 -0.4429  0.0367 -0.5291
  686MPD2    C510147   4.054   0.944  15.196 -0.4687  0.7703 -0.7955
  686MPD2     H10148   4.380   1.051  15.359  0.7883 -0.6913  1.2808
  686MPD2    H110149   4.124   0.740  15.212  0.4120 -0.2398  0.1266
  686MPD2    H210150   3.996   1.154  15.220 -1.3030 -1.4718  0.1471
  686MPD2    H310151   3.971   0.902  15.141  0.1399 -1.5433  0.0490
  686MPD2     N10152   4.345   0.781  15.342 -0.0605 -0.8358  0.6997
  686MPD2    H510153   4.342   0.694  15.289  1.7468  0.1082 -0.9657
  686MPD2    N110154   4.185   1.224  15.389  0.0309  0.2414  0.1833
  686MPD2    H710155   4.101   1.280  15.378  0.6619  0.6777 -2.3566
  687TMC3    C110156   4.404   0.872  15.555 -0.2700  0.5630 -0.5060
  687TMC3    C210157   4.283   0.855  15.604  0.2587 -0.2877  0.1137
  687TMC3    C310158   4.272   0.878  15.738  0.3166 -0.7575 -0.2046
  687TMC3    C410159   4.510   0.922  15.629  0.8642 -0.3429  1.1088
  687TMC3    C510160   4.498   0.950  15.763  0.7759  0.2553 -0.2630
  687TMC3    C610161   4.373   0.923  15.820  0.3690 -0.0606 -0.0359
  687TMC3     C10162   4.438   0.800  15.439  0.1474 -0.4134  1.0379
  687TMC3     O10163   4.533   0.722  15.457 -0.0552  0.0138 -0.3685
  687TMC3     H10164   4.199   0.810  15.553  0.2638 -1.7748  1.4249
  687TMC3    H110165   4.604   0.940  15.577  0.2618 -0.0410  0.1433
  687TMC3    H210166   4.361   0.935  15.927  2.0437 -2.0096  0.3754
  687TMC3    C710167   4.555   1.070  15.825  0.3095  0.0364  0.0852
  687TMC3    C810168   4.136   0.920  15.786  0.0989  0.2996 -0.2270
  687TMC3    O110169   4.576   1.067  15.946 -0.0483 -0.6928 -0.0631
  687TMC3    O210170   4.109   0.922  15.903 -0.2403 -0.5703 -0.6023
  688MPD2     C10171   3.832   0.736  17.375 -0.4107  0.6911  0.7119
  688MPD2    C110172   3.898   0.621  17.397 -0.1549  0.7789 -0.2045
  688MPD2    C210173   3.995   0.570  17.306 -0.2043 -0.1438 -0.0753
  688MPD2    C310174   4.011   0.635  17.181 -0.6916  0.8687  0.1270
  688MPD2    C410175   3.929   0.747  17.158  0.1452 -0.4424 -0.3155
  688MPD2    C510176   3.844   0.798  17.257  0.6325 -0.6712 -1.1215
  688MPD2     H10177   4.050   0.485  17.343 -0.0220  0.1550  0.3385
  688MPD2    H110178   3.921   0.805  17.066  1.2957  0.5220  0.1932
  688MPD2    H210179   3.752   0.769  17.440 -2.4836 -1.1717 -0.9297
  688MPD2    H310180   3.783   0.881  17.224  0.8304 -0.5039 -1.0652
  688MPD2     N10181   4.105   0.595  17.087  0.0717  0.7756  0.5084
  688MPD2    H510182   4.098   0.622  16.990  0.8275  2.9980  1.0739
  688MPD2    N110183   3.876   0.549  17.519  0.1143  0.2003  0.4219
  688MPD2    H710184   3.914   0.455  17.514  1.0830  0.4979  2.2218
  689TMC3    C110185   3.809   0.508   0.043  0.2489  0.6854  0.0587
  689TMC3    C210186   3.809   0.565   0.171  0.3803  0.1403  1.5778
  689TMC3    C310187   3.858   0.495   0.279 -0.3341 -0.3557 -0.6618
  689TMC3    C410188   3.850   0.384   0.023 -0.3792 -0.1736  0.5749
  689TMC3    C510189   3.903   0.319   0.130 -0.8282  0.1769 -0.2050
  689TMC3    C610190   3.907   0.367   0.258  0.4715 -0.4599  0.4793
  689TMC3     C10191   3.819   0.598  17.633  0.1435 -0.0932  0.3849
  689TMC3     O10192   3.807   0.717  17.661 -0.1078 -0.3600  0.1911
  689TMC3     H10193   3.766   0.663   0.185 -0.3263 -0.1184  1.2424
  689TMC3    H110194   3.838   0.334  17.632 -0.6705 -1.9986  1.5746
  689TMC3    H210195   3.957   0.317   0.340  0.1739 -0.0318  0.9239
  689TMC3    C710196   3.930   0.180   0.115  0.2230 -0.2762 -0.5654
  689TMC3    C810197   3.917   0.566   0.396 -0.3890  0.3295 -0.5726
  689TMC3    O110198   4.024   0.133   0.177  0.0267  0.0891 -0.1013
  689TMC3    O210199   3.927   0.487   0.488  0.1566  0.1723  0.1573
  690MPD2     C10200   1.198   2.209  15.747  0.1267 -0.5586 -0.2525
  690MPD2    C110201   1.144   2.221  15.626 -0.8511 -0.3107 -0.2154
  690MPD2    C210202   1.209   2.308  15.535 -0.8404  0.4299  0.7032
  690MPD2    C310203   1.334   2.357  15.560 -0.0204 -0.3797  0.0701
  690MPD2    C410204   1.391   2.316  15.673 -0.3239 -0.2790  0.1574
  690MPD2    C510205   1.327   2.251  15.768 -0.4886  0.2443  0.1834
  690MPD2     H10206   1.155   2.329  15.444 -1.4065  0.3030  1.0023
  690MPD2    H110207   1.497   2.333  15.690 -0.6745  1.4944  0.5115
  690MPD2    H210208   1.155   2.154  15.830  0.9171  1.9022  1.7587
  690MPD2    H310209   1.375   2.219  15.860 -0.8964 -0.6405  0.0886
  690MPD2     N10210   1.400   2.441  15.458  0.2228 -0.0872 -0.1769
  690MPD2    H510211   1.338   2.464  15.381 -0.6265 -1.2764  0.1594
  690MPD2    N110212   1.034   2.146  15.579 -0.6604  0.0435  0.3479
  690MPD2    H710213   0.994   2.170  15.489 -0.4395 -0.3506  0.1446
  691TMC3    C110214   0.847   2.000  15.599 -0.2376  0.1143  0.1654
  691TMC3    C210215   0.741   1.998  15.687  0.2573 -0.0230 -0.1536
  691TMC3    C310216   0.642   1.911  15.656 -0.3370 -0.2597  0.0196
  691TMC3    C410217   0.864   1.911  15.486 -0.3405  0.0605  0.3325
  691TMC3    C510218   0.759   1.833  15.456 -0.1976 -0.4061  0.4345
  691TMC3    C610219   0.649   1.831  15.543  0.1297  0.2692  0.3713
  691TMC3     C10220   0.967   2.046  15.656 -0.4858  0.5027  0.7266
  691TMC3     O10221   1.012   1.976  15.742  0.4683 -0.3120  0.4402
  691TMC3     H10222   0.754   2.045  15.784 -1.5325 -2.7578  1.4106
  691TMC3    H110223   0.951   1.930  15.424 -0.1559 -2.2207 -0.0966
  691TMC3    H210224   0.562   1.768  15.535 -0.3268  1.1644 -1.8424
  691TMC3    C710225   0.784   1.717  15.378  0.5160 -0.3427 -0.3241
  691TMC3    C810226   0.516   1.908  15.733 -0.0913  0.2211 -0.2634
  691TMC3    O110227   0.899   1.704  15.335  0.1370  0.6458  0.4319
  691TMC3    O210228   0.450   1.805  15.730  0.2050 -0.1269 -0.7055
  692TMC3    C110229   2.665   3.060  15.951  0.4409 -0.0470  1.3555
  692TMC3    C210230   2.789   3.080  16.000  0.0666 -0.1799  0.5447
  692TMC3    C310231   2.881   2.976  15.975  0.7190 -0.7663  0.1422
  692TMC3    C410232   2.613   2.945  15.901 -0.1030 -0.1371  0.1407
  692TMC3    C510233   2.704   2.845  15.882 -0.2942 -0.0247  0.3941
  692TMC3    C610234   2.835   2.860  15.912 -0.8092  0.2509 -0.2569
  692TMC3     C10235   2.566   3.156  16.004 -0.0631 -0.2199 -0.7873
  692TMC3     O10236   2.596   3.240  16.090 -0.9397 -0.1143  0.6907
  692TMC3     H10237   2.829   3.177  16.027 -0.3959 -0.1072  0.9752
  692TMC3    H110238   2.509   2.939  15.874 -0.3213 -0.8544  1.1523
  692TMC3    H210239   2.905   2.778  15.915  1.4126  2.2257  1.8618
  692TMC3    C710240   2.641   2.713  15.877 -0.2355 -0.5330 -0.5529
  692TMC3    C810241   2.943   2.939  16.095 -0.2091 -0.2411 -0.1723
  692TMC3    O110242   2.531   2.707  15.827 -0.2896  0.4065  0.6060
  692TMC3    O210243   3.026   2.850  16.092  0.5626 -0.1279  0.7438
  693MPD2     C10244   2.096   0.639  11.068 -0.2759 -0.9841  0.9345
  693MPD2    C110245   2.031   0.533  11.012  0.4021  0.2552  0.2397
  693MPD2    C210246   2.097   0.410  11.000  0.4987 -0.0445 -0.8365
  693MPD2    C310247   2.236   0.412  11.036 -0.8299 -0.6484 -0.1779
  693MPD2    C410248   2.301   0.534  11.064  0.7549  0.7108 -0.2338
  693MPD2    C510249   2.232   0.649  11.088  0.4130 -0.8752  0.1634
  693MPD2     H10250   2.044   0.322  10.964  0.6074 -0.0576 -0.9642
  693MPD2    H110251   2.407   0.527  11.087  0.4991  1.8129  1.2412
  693MPD2    H210252   2.048   0.737  11.067 -1.0409 -1.4056 -1.8942
  693MPD2    H310253   2.291   0.737  11.112 -0.0825 -0.3338 -0.5908
  693MPD2     N10254   2.322   0.300  11.038 -0.5419  0.5766  0.2642
  693MPD2    H510255   2.416   0.316  11.075 -1.2256 -0.6599  2.5645
  693MPD2    N110256   1.896   0.558  10.978 -0.0938  0.7799  0.5544
  693MPD2    H710257   1.848   0.639  11.016  2.1011  2.1468  0.4576
  694TMC3    C110258   1.687   0.471  10.979  0.4273  0.0465 -0.1560
  694TMC3    C210259   1.610   0.369  10.922 -0.6227  0.7651  0.0531
  694TMC3    C310260   1.506   0.318  10.999  0.0422 -0.5648  0.3120
  694TMC3    C410261   1.656   0.519  11.104  0.1858 -0.2558 -0.5746
  694TMC3    C510262   1.564   0.447  11.178  0.6348  0.8313  0.4248
  694TMC3    C610263   1.484   0.341  11.131 -0.2600 -0.6053  0.3036
  694TMC3     C10264   1.821   0.459  10.930 -0.3103 -0.5038 -0.1560
  694TMC3     O10265   1.853   0.370  10.852  0.0989  0.2179 -0.1429
  694TMC3     H10266   1.630   0.333  10.822  0.9442 -1.3685  1.1472
  694TMC3    H110267   1.701   0.608  11.148 -2.1841  0.3836  0.6019
  694TMC3    H210268   1.415   0.286  11.194 -0.5086 -1.9278 -1.1205
  694TMC3    C710269   1.530   0.500  11.311  0.8230  0.0942 -0.3044
  694TMC3    C810270   1.420   0.215  10.940  0.0407  0.1346 -0.0707
  694TMC3    O110271   1.555   0.617  11.324  0.8901 -0.6978 -0.3926
  694TMC3    O210272   1.431   0.101  10.979  0.1730  0.0068  0.1920
  695MPD2     C10273   3.481   3.119  13.235 -1.0058 -0.1054  0.0896
  695MPD2    C110274   3.438   3.167  13.360  0.2925 -0.4954 -0.2667
  695MPD2    C210275   3.322   3.243  13.362 -0.0903  0.4861  0.1727
  695MPD2    C310276   3.247   3.262  13.246 -0.4815  0.1889 -0.5263
  695MPD2    C410277   3.291   3.216  13.121  0.6328 -0.8587 -0.2520
  695MPD2    C510278   3.408   3.141  13.125 -0.0868 -0.2741 -0.1838
  695MPD2     H10279   3.281   3.283  13.454  0.7521  0.1695  0.6838
  695MPD2    H110280   3.242   3.240  13.028  0.9240 -3.1039 -0.9805
  695MPD2    H210281   3.573   3.065  13.216  0.1740  1.5344  1.0983
  695MPD2    H310282   3.446   3.108  13.029 -0.1053 -0.1605 -0.2307
  695MPD2     N10283   3.119   3.328  13.261  0.1367 -0.0345 -0.3381
  695MPD2    H510284   3.090   3.321  13.357 -0.7037  0.2921 -0.5699
  695MPD2    N110285   3.504   3.160  13.486  0.7562  0.4746  0.5325
  695MPD2    H710286   3.460   3.204  13.567 -1.0448 -0.8748  0.2794
  696TMC3    C110287   2.913   3.435  13.195  0.3069 -0.0300  0.1236
  696TMC3    C210288   2.845   3.382  13.304 -0.0173  0.6652 -0.2983
  696TMC3    C310289   2.743   3.459  13.352 -0.5207 -0.1349  0.0291
  696TMC3    C410290   2.888   3.555  13.138  1.0093  0.3726  0.4755
  696TMC3    C510291   2.807   3.636  13.213 -1.3229  0.2117 -0.0773
  696TMC3    C610292   2.723   3.586  13.311  0.3391 -0.1943 -0.5285
  696TMC3     C10293   3.050   3.392  13.160 -0.2943 -0.0439 -0.4751
  696TMC3     O10294   3.073   3.411  13.042 -0.1580 -0.2556  0.0724
  696TMC3     H10295   2.862   3.282  13.344  1.6050 -0.3517 -3.5289
  696TMC3    H110296   2.940   3.603  13.056 -0.1398  1.8622  0.6005
  696TMC3    H210297   2.640   3.647  13.346 -0.6422 -1.8186 -0.0321
  696TMC3    C710298   2.852   3.771  13.243  0.3564 -0.7111 -0.6017
  696TMC3    C810299   2.711   3.451  13.492  0.3274 -0.0621 -0.0280
  696TMC3    O110300   2.932   3.822  13.164 -0.2186  0.1838 -0.3708
  696TMC3    O210301   2.674   3.555  13.544  0.0991 -0.1939  0.2772
  697MPD2     C10302   2.726   4.607  15.942  0.6538 -0.1686 -0.6120
  697MPD2    C110303   2.682   4.545  15.823  0.4189  0.9620  0.3161
  697MPD2    C210304   2.676   4.623  15.706  0.3333 -0.4480 -0.4078
  697MPD2    C310305   2.703   0.032  15.705 -0.7919  0.0800 -0.0868
  697MPD2    C410306   2.738   0.089  15.825  0.4431 -0.3877  0.0960
  697MPD2    C510307   2.753   0.012  15.937  0.8566 -0.3920 -0.0047
  697MPD2     H10308   2.653   4.567  15.616  0.2342 -2.1357  0.6721
  697MPD2    H110309   2.736   0.195  15.848  2.6676 -0.5577  1.1088
  697MPD2    H210310   2.729   4.552  16.035  0.1799  1.9558  0.6390
  697MPD2    H310311   2.776   0.060  16.032  1.4925 -2.4033  0.8527
  697MPD2     N10312   2.670   0.113  15.590 -0.0680  1.2421  0.6022
  697MPD2    H510313   2.616   0.072  15.515  0.7158 -0.5432  1.0277
  697MPD2    N110314   2.644   4.412  15.819 -0.5926 -0.1770  0.5758
  697MPD2    H710315   2.625   4.371  15.728 -0.2443 -1.8724  1.2704
  698TMC3    C110316   2.662   0.312  15.448 -0.3428 -0.0071  0.6118
  698TMC3    C210317   2.650   0.447  15.454  0.7996  0.0063 -0.2553
  698TMC3    C310318   2.575   0.513  15.365  0.3277  0.3849  0.5430
  698TMC3    C410319   2.594   0.234  15.359 -0.1146  0.2471  0.9142
  698TMC3    C510320   2.520   0.307  15.266  0.1831 -0.3691  0.2307
  698TMC3    C610321   2.518   0.446  15.264 -0.5916 -0.2984  0.0815
  698TMC3     C10322   2.717   0.244  15.571  0.7583  0.1015 -0.2205
  698TMC3     O10323   2.801   0.299  15.640 -0.2446  0.3613 -0.6331
  698TMC3     H10324   2.707   0.503  15.528  0.4497  0.5851 -0.4298
  698TMC3    H110325   2.618   0.129  15.344  0.5890  0.8552 -2.2225
  698TMC3    H210326   2.464   0.497  15.185 -1.9006 -1.5221  0.1931
  698TMC3    C710327   2.480   0.234  15.145 -0.8575 -0.4202  0.6627
  698TMC3    C810328   2.568   0.656  15.370 -0.2665  0.7282  0.2675
  698TMC3    O110329   2.440   0.302  15.053 -0.1969  1.0218 -0.1597
  698TMC3    O210330   2.464   0.706  15.327 -0.5228  0.1555  0.4256
  699TMC3    C110331   3.140   2.289  13.081 -0.3589  0.2805 -0.2856
  699TMC3    C210332   3.238   2.269  13.172  0.2636 -0.5722  0.2975
  699TMC3    C310333   3.216   2.165  13.260  0.3433  0.5234 -0.2541
  699TMC3    C410334   3.040   2.199  13.064  0.5092  0.2080  0.1757
  699TMC3    C510335   3.024   2.095  13.145 -0.2290 -0.4099  0.8361
  699TMC3    C610336   3.114   2.073  13.250  0.3632  0.0455 -0.2976
  699TMC3     C10337   3.136   2.402  13.002 -0.7893  0.3711 -0.2410
  699TMC3     O10338   3.098   2.381  12.886 -0.1907 -0.2321  0.4584
  699TMC3     H10339   3.324   2.335  13.176  0.2506 -0.6099  1.2171
  699TMC3    H110340   2.965   2.214  12.988 -0.9591 -0.9897  1.3763
  699TMC3    H210341   3.105   1.991  13.320 -2.2049 -0.0002 -0.6631
  699TMC3    C710342   2.888   2.072  13.180 -0.0835 -0.4270  0.3872
  699TMC3    C810343   3.255   2.188  13.393 -0.4477  0.4552 -0.0969
  699TMC3    O110344   2.805   2.147  13.129  0.5814  0.2215  0.2757
  699TMC3    O210345   3.366   2.228  13.424  0.6050  0.0135  0.2438
  700TMC3    C110346   1.824   0.687   0.393 -0.9180  0.5199  0.3488
  700TMC3    C210347   1.866   0.571   0.331 -0.7934  0.4703 -0.1166
  700TMC3    C310348   1.985   0.523   0.358  0.1656 -0.6596 -0.2108
  700TMC3    C410349   1.902   0.760   0.479 -0.4172  0.1852  1.1586
  700TMC3    C510350   2.025   0.712   0.513 -0.3640 -0.0379 -0.1342
  700TMC3    C610351   2.069   0.592   0.447  0.9023  0.1463  0.6859
  700TMC3     C10352   1.727   0.772   0.328  0.3110 -0.0877  0.1970
  700TMC3     O10353   1.629   0.814   0.388 -0.1087  0.1073 -0.1957
  700TMC3     H10354   1.795   0.534   0.258  1.5849 -1.3450 -1.4851
  700TMC3    H110355   1.878   0.857   0.521 -2.4101  0.1479  0.0902
  700TMC3    H210356   2.165   0.548   0.469 -0.0311 -2.2759 -0.0767
  700TMC3    C710357   2.121   0.793   0.581 -0.0892 -0.3867 -0.0707
  700TMC3    C810358   2.046   0.424   0.272 -0.0193 -0.5985 -0.7226
  700TMC3    O110359   2.077   0.897   0.624  0.0704  0.0438 -0.0221
  700TMC3    O210360   2.163   0.448   0.235 -0.4214  0.2677  0.2790
  701TMC3    C110361   1.470   4.150  15.674  0.1491  0.0959  0.6605
  701TMC3    C210362   1.370   4.227  15.617  0.0832 -0.1378 -0.9235
  701TMC3    C310363   1.400   4.342  15.547  0.1772  0.4535  0.3798
  701TMC3    C410364   1.597   4.202  15.672 -0.1061 -0.9733 -0.2214
  701TMC3    C510365   1.616   4.329  15.623  0.5792 -0.3132  0.4463
  701TMC3    C610366   1.521   4.400  15.560  0.0379  0.7206  0.3175
  701TMC3     C10367   1.437   4.012  15.681 -0.3339  0.2156  0.3306
  701TMC3     O10368   1.350   3.990  15.759  0.0037 -0.6782 -0.3678
  701TMC3     H10369   1.268   4.190  15.616  0.3786 -1.0078  0.5213
  701TMC3    H110370   1.682   4.142  15.703 -0.5321 -0.4399  1.9440
  701TMC3    H210371   1.543   4.486  15.499  1.4802  0.2749  0.2123
  701TMC3    C710372   1.750   4.381  15.604  0.2395  0.3000 -0.4342
  701TMC3    C810373   1.306   4.415  15.466 -0.0241 -0.3467  0.0551
  701TMC3    O110374   1.762   4.469  15.523 -0.2426 -0.0003  0.6964
  701TMC3    O210375   1.319   4.538  15.457  0.0285 -0.0823  0.3884
  702MPD2     C10376   1.437   0.820  10.843  0.2299  0.0869 -0.2471
  702MPD2    C110377   1.317   0.880  10.834 -0.8650  0.5343  0.6637
  702MPD2    C210378   1.277   0.938  10.713  0.0096  0.1447  0.0879
  702MPD2    C310379   1.366   0.925  10.606  0.9660  0.4598 -0.0120
  702MPD2    C410380   1.476   0.850  10.611 -0.1099 -0.3569 -0.6310
  702MPD2    C510381   1.514   0.803  10.733  0.3127 -0.0239 -0.5564
  702MPD2     H10382   1.180   0.984  10.696  0.7114  0.3312 -3.4815
  702MPD2    H110383   1.545   0.841  10.528  2.0373 -0.3670  1.1390
  702MPD2    H210384   1.493   0.796  10.933 -0.7120  0.5654  0.4643
  702MPD2    H310385   1.605   0.747  10.754 -0.6996 -0.4045  2.8039
  702MPD2     N10386   1.346   0.988  10.479  0.4686  0.0899 -0.5951
  702MPD2    H510387   1.411   0.971  10.403 -0.6385 -0.1289 -1.4904
  702MPD2    N110388   1.241   0.892  10.946  0.1085 -0.3291 -0.0718
  702MPD2    H710389   1.276   0.865  11.038 -0.3056 -1.6788 -0.3056
  703TMC3    C110390   1.291   1.188  10.365 -0.1645 -0.5595 -0.0562
  703TMC3    C210391   1.197   1.286  10.386 -0.3925 -0.1107  0.7474
  703TMC3    C310392   1.229   1.421  10.362 -0.0211 -0.0944 -0.2409
  703TMC3    C410393   1.422   1.225  10.356 -0.7944 -0.0685 -0.0175
  703TMC3    C510394   1.452   1.365  10.354 -0.6210 -0.0423 -0.0229
  703TMC3    C610395   1.355   1.460  10.337  0.0079 -0.0509 -0.1113
  703TMC3     C10396   1.247   1.074  10.446  0.8331  0.1166  0.3653
  703TMC3     O10397   1.136   1.086  10.495 -0.6386 -0.8552 -0.0329
  703TMC3     H10398   1.092   1.259  10.388 -0.4404 -0.1152 -1.7971
  703TMC3    H110399   1.505   1.156  10.352 -0.2683  0.6160 -0.9624
  703TMC3    H210400   1.378   1.566  10.335  2.6805 -0.6292 -0.0046
  703TMC3    C710401   1.589   1.415  10.360  0.5717  0.8059 -0.1207
  703TMC3    C810402   1.144   1.523  10.418 -1.0610  0.2426 -0.2103
  703TMC3    O110403   1.610   1.536  10.355 -0.6499  0.5612  0.2000
  703TMC3    O210404   1.145   1.639  10.374 -0.2201  0.0798  0.3668
  704TMC3    C110405   3.192   4.520  12.012 -0.1789 -0.1287  0.0855
  704TMC3    C210406   3.298   4.531  12.097 -0.1665 -0.0271 -1.3389
  704TMC3    C310407   3.328   4.425  12.172 -0.0618  0.4710  0.1947
  704TMC3    C410408   3.116   4.403  11.998  0.5444  0.3509  0.2078
  704TMC3    C510409   3.150   4.300  12.079 -0.2829 -0.8252 -0.3441
  704TMC3    C610410   3.255   4.310  12.168 -0.0828  0.4413  0.1327
  704TMC3     C10411   3.182   4.604  11.894  0.1361  0.0696 -0.4013
  704TMC3     O10412   3.084   4.611  11.819 -0.6273  0.2087  0.5749
  704TMC3     H10413   3.354   4.624  12.100 -1.1753  0.5652 -0.6154
  704TMC3    H110414   3.032   4.402  11.930 -0.9442  1.7692  2.0231
  704TMC3    H210415   3.276   4.221  12.226 -1.8982  1.1394  1.8698
  704TMC3    C710416   3.116   4.168  12.027  0.7623 -0.5037  0.3020
  704TMC3    C810417   3.448   4.435  12.257 -0.5067  0.5396 -0.1356
  704TMC3    O110418   2.998   4.139  12.005  0.6293  0.1391  0.4031
  704TMC3    O210419   3.537   4.513  12.216  0.0153 -0.0584 -0.0459
  705MPD2     C10420   3.339   3.005  16.827 -0.4737  0.4736  0.4448
  705MPD2    C110421   3.244   3.072  16.753  0.3032 -0.0261  0.4752
  705MPD2    C210422   3.124   3.098  16.819  0.0485  0.1990  0.0132
  705MPD2    C310423   3.117   3.070  16.960  0.4159  0.2789  0.3624
  705MPD2    C410424   3.214   2.998  17.032  0.0855  0.2833 -0.5395
  705MPD2    C510425   3.330   2.975  16.962  0.0120  0.2808  0.8636
  705MPD2     H10426   3.038   3.139  16.768  1.0801 -0.0155 -1.8987
  705MPD2    H110427   3.199   2.986  17.139  1.2523  1.6588 -0.2195
  705MPD2    H210428   3.435   2.978  16.783 -0.5807 -1.7791  1.5587
  705MPD2    H310429   3.412   2.914  17.000 -0.0902  0.2753  1.0754
  705MPD2     N10430   3.005   3.108  17.038 -0.7991 -0.0068 -0.3035
  705MPD2    H510431   2.994   3.062  17.127 -3.4169  0.5115 -0.3312
  705MPD2    N110432   3.247   3.107  16.615  0.5187 -0.5221 -0.4538
  705MPD2    H710433   3.167   3.153  16.573  0.0095 -1.6841 -0.7743
  706TMC3    C110434   3.308   3.036  16.161  0.6319  0.5322  0.3159
  706TMC3    C210435   3.206   3.119  16.139  0.2718 -0.5827  0.0900
  706TMC3    C310436   3.177   3.201  16.245 -0.2376 -0.1429 -0.6313
  706TMC3    C410437   3.360   3.023  16.290  0.1061  0.1367 -0.2332
  706TMC3    C510438   3.340   3.114  16.389  0.3084 -0.2894  0.6981
  706TMC3    C610439   3.240   3.201  16.366  0.6980  0.1715 -0.3145
  706TMC3     C10440   3.369   2.974  16.043 -0.1492 -0.1799 -0.4659
  706TMC3     O10441   3.489   2.978  16.022  0.2246  0.0914  0.5614
  706TMC3     H10442   3.165   3.131  16.040 -2.8779 -1.0736  1.3365
  706TMC3    H110443   3.425   2.940  16.314 -1.3828 -0.7384  0.7560
  706TMC3    H210444   3.214   3.277  16.439  1.3207 -0.6164  0.7427
  706TMC3    C710445   3.354   3.075  16.529  0.3301  0.3373  0.1730
  706TMC3    C810446   3.098   3.313  16.209  0.4894 -0.8649  0.0877
  706TMC3    O110447   3.444   2.992  16.547  0.2975 -0.2716 -0.2705
  706TMC3    O210448   3.001   3.292  16.137  0.2065 -0.1361  0.3266
  707TMC3    C110449   0.874   2.395   1.825 -0.6993  1.1388  0.0028
  707TMC3    C210450   0.991   2.396   1.890  0.5577 -0.8184  0.5605
  707TMC3    C310451   0.994   2.357   2.022  0.2898 -0.6677 -0.4778
  707TMC3    C410452   0.758   2.364   1.890 -0.0379 -0.7088  0.4509
  707TMC3    C510453   0.765   2.337   2.025 -0.2849 -0.8052  0.1692
  707TMC3    C610454   0.885   2.324   2.093 -0.4074  0.2845 -0.0605
  707TMC3     C10455   0.888   2.381   1.686  0.3752 -0.0132 -0.3989
  707TMC3     O10456   0.988   2.426   1.634  0.1101  0.3141  0.1272
  707TMC3     H10457   1.079   2.398   1.827  0.1696  0.0432  0.0539
  707TMC3    H110458   0.657   2.370   1.849 -0.0180 -2.2805  0.1914
  707TMC3    H210459   0.896   2.267   2.185 -0.1154 -0.9960 -0.8840
  707TMC3    C710460   0.653   2.273   2.084 -0.0628  0.6218 -0.1423
  707TMC3    C810461   1.124   2.336   2.080  0.4753 -0.3840  0.4203
  707TMC3    O110462   0.575   2.214   2.011  0.3457 -0.3144 -0.0421
  707TMC3    O210463   1.154   2.364   2.195 -0.4111 -0.1806  0.0945
  708MPD2     C10464   2.018   0.897  14.431 -0.1316 -0.3907  0.0628
  708MPD2    C110465   1.899   0.920  14.370  0.4190 -0.3049 -0.4466
  708MPD2    C210466   1.861   1.049  14.352  0.0553  0.3342  0.3279
  708MPD2    C310467   1.954   1.157  14.384 -0.0658 -0.4554  0.4334
  708MPD2    C410468   2.079   1.125  14.440  0.2053 -0.0216 -0.0982
  708MPD2    C510469   2.109   0.991  14.463 -0.6523  0.1103 -0.1168
  708MPD2     H10470   1.763   1.079  14.317  0.3186  1.1417  0.2894
  708MPD2    H110471   2.149   1.207  14.450  1.5186 -0.9878 -1.4124
  708MPD2    H210472   2.058   0.797  14.443  0.6988  0.0891  1.2958
  708MPD2    H310473   2.193   0.955  14.521 -1.1082 -0.6779  0.0583
  708MPD2     N10474   1.912   1.293  14.395  0.4929  0.0579  0.6976
  708MPD2    H510475   1.972   1.357  14.445 -0.6585  1.5718  0.1702
  708MPD2    N110476   1.818   0.812  14.337 -0.0958  0.2329 -0.7423
  708MPD2    H710477   1.841   0.721  14.376  0.2911  0.4509 -0.4611
  709TMC3    C110478   1.603   0.736  14.323 -0.2997 -0.0063 -0.4202
  709TMC3    C210479   1.487   0.727  14.248  0.6651 -0.2761  0.0657
  709TMC3    C310480   1.368   0.729  14.306 -0.3446 -0.0899  0.2974
  709TMC3    C410481   1.590   0.742  14.460  0.4707 -0.3336  0.1600
  709TMC3    C510482   1.469   0.760  14.524 -0.0541 -0.8897 -0.0599
  709TMC3    C610483   1.354   0.755  14.444  0.7359 -0.7812 -0.5268
  709TMC3     C10484   1.696   0.831  14.270  0.1758  0.1237 -0.2027
  709TMC3     O10485   1.643   0.929  14.216 -0.5432 -0.3830  0.2714
  709TMC3     H10486   1.497   0.744  14.141 -1.1918  0.0236 -0.0757
  709TMC3    H110487   1.683   0.747  14.517 -0.1958 -0.2459  1.2414
  709TMC3    H210488   1.258   0.745  14.493 -0.0656  2.4690 -1.4783
  709TMC3    C710489   1.472   0.863  14.625  0.0040  0.4882  0.0658
  709TMC3    C810490   1.241   0.698  14.240 -0.5458 -0.3474 -0.2225
  709TMC3    O110491   1.374   0.936  14.620  0.4277 -0.1709  0.1694
  709TMC3    O210492   1.162   0.635  14.310  0.2420 -0.0522 -0.3668
  710TMC3    C110493   2.857   3.097   0.744  0.5747  0.5096 -0.4401
  710TMC3    C210494   2.929   3.101   0.629 -0.1458 -0.2325  0.6196
  710TMC3    C310495   3.050   3.050   0.628  0.4993 -0.0249 -0.2257
  710TMC3    C410496   2.899   3.033   0.861 -0.2335 -0.4500  1.0194
  710TMC3    C510497   3.024   2.981   0.860 -0.1290  0.3437 -0.0078
  710TMC3    C610498   3.100   2.991   0.748  0.5737 -1.1898  0.5447
  710TMC3     C10499   2.722   3.143   0.724  0.2375  0.5328 -0.4246
  710TMC3     O10500   2.680   3.137   0.608  0.7853  0.0556  0.0384
  710TMC3     H10501   2.885   3.144   0.539  0.6177  2.0420  1.3375
  710TMC3    H110502   2.841   3.020   0.952 -1.1699  1.8945  0.7521
  710TMC3    H210503   3.204   2.959   0.747  1.7538  2.7336 -1.3370
  710TMC3    C710504   3.090   2.929   0.987 -0.4603 -0.3584 -0.2576
  710TMC3    C810505   3.095   3.008   0.495  0.0127 -0.3026 -0.6750
  710TMC3    O110506   3.021   2.942   1.087 -0.3137 -0.0275  0.3970
  710TMC3    O210507   3.034   3.048   0.402  0.2745 -0.2014  0.5000
  711TMC3    C110508   2.089   3.435  15.275  0.7501 -0.2367  0.0400
  711TMC3    C210509   2.011   3.433  15.394 -0.8230  0.4613  0.3132
  711TMC3    C310510   2.081   3.444  15.508  0.0295 -0.0741  0.3607
  711TMC3    C410511   2.224   3.433  15.277 -0.5258 -0.1949  0.0112
  711TMC3    C510512   2.287   3.438  15.398 -0.3357  0.1416 -0.3157
  711TMC3    C610513   2.219   3.441  15.511 -0.1945  0.5534 -0.3568
  711TMC3     C10514   2.027   3.452  15.152  0.2692 -1.0939 -0.7872
  711TMC3     O10515   2.074   3.378  15.062  0.1659 -0.3209  0.5319
  711TMC3     H10516   1.904   3.449  15.384 -0.9121  0.0055  0.5129
  711TMC3    H110517   2.279   3.433  15.184  0.4398 -1.5334  0.5874
  711TMC3    H210518   2.276   3.435  15.604 -2.4108 -1.5569  0.8798
  711TMC3    C710519   2.429   3.444  15.394 -0.0224  0.3362  0.5392
  711TMC3    C810520   2.006   3.489  15.618 -0.2285 -0.2721 -0.3231
  711TMC3    O110521   2.481   3.510  15.486  0.4612  0.2687  0.3340
  711TMC3    O210522   1.884   3.488  15.604 -0.5292 -0.7499 -0.5857
  712MPD2     C10523   3.834   4.468  14.140  0.0292  0.3197  0.1254
  712MPD2    C110524   3.718   4.502  14.070 -0.5827 -0.7791  0.0902
  712MPD2    C210525   3.712   4.620  14.005  0.2746  0.1781 -0.6641
  712MPD2    C310526   3.811   4.718  14.008  0.5397 -0.3583 -0.7671
  712MPD2    C410527   3.934   4.670  14.063  0.7396  0.0289 -0.2943
  712MPD2    C510528   3.940   4.554  14.137  0.1406 -0.6841  0.6531
  712MPD2     H10529   3.623   4.644  13.948  1.2192  1.7489 -1.4972
  712MPD2    H110530   4.021   0.009  14.073  1.0950 -0.3940 -0.6450
  712MPD2    H210531   3.852   4.374  14.192 -1.9417 -0.2656 -0.2218
  712MPD2    H310532   4.035   4.522  14.178  1.0461  1.5017  0.2647
  712MPD2     N10533   3.806   0.119  13.948  0.6448 -0.0292  0.7436
  712MPD2    H510534   3.885   0.182  13.950 -0.4882  1.4401 -0.7451
  712MPD2    N110535   3.607   4.420  14.060 -0.3245  0.0637  0.1964
  712MPD2    H710536   3.536   4.452  13.995 -0.1883  0.0279  0.0320
  713TMC3    C110537   3.705   0.314  13.868 -0.4741  0.6582 -0.2847
  713TMC3    C210538   3.820   0.364  13.812 -0.5703  0.8134  0.4525
  713TMC3    C310539   3.842   0.497  13.812  0.1432 -0.4067 -0.3344
  713TMC3    C410540   3.607   0.397  13.918  0.4742  0.4258 -0.3873
  713TMC3    C510541   3.630   0.530  13.927  0.0462 -0.7782  0.0408
  713TMC3    C610542   3.745   0.580  13.869  0.4191  0.7957 -0.3868
  713TMC3     C10543   3.692   0.177  13.900  0.3566 -0.4811 -0.2510
  713TMC3     O10544   3.579   0.140  13.921  0.1824 -0.0652  0.6562
  713TMC3     H10545   3.903   0.307  13.772 -0.9544 -0.4888  1.5447
  713TMC3    H110546   3.514   0.356  13.957  0.9566  0.4271  0.7635
  713TMC3    H210547   3.759   0.687  13.861  0.0039  0.7838 -1.2759
  713TMC3    C710548   3.543   0.625  14.002 -0.3931 -0.1551  0.4324
  713TMC3    C810549   3.952   0.551  13.732 -0.1260 -0.1713  0.4863
  713TMC3    O110550   3.581   0.736  14.036  0.1981  0.3145 -0.2050
  713TMC3    O210551   3.975   0.496  13.624  0.2075 -0.2281  0.3789
  714MPD2     C10552   0.832   3.889   1.442  0.0009  0.6065  0.3506
  714MPD2    C110553   0.813   3.759   1.486  0.3187  0.0780  0.3498
  714MPD2    C210554   0.720   3.678   1.425  1.0720 -0.0998 -0.3050
  714MPD2    C310555   0.642   3.724   1.315 -0.3305  0.2584  0.1613
  714MPD2    C410556   0.661   3.849   1.271 -0.4055  0.2295  0.7207
  714MPD2    C510557   0.760   3.922   1.327 -0.3714 -0.2337  0.2908
  714MPD2     H10558   0.694   3.580   1.465  2.1363 -0.1029  0.3548
  714MPD2    H110559   0.617   3.888   1.179 -1.5234 -2.2750  0.2034
  714MPD2    H210560   0.904   3.953   1.490  0.5193  1.3314 -1.3833
  714MPD2    H310561   0.793   4.018   1.289 -0.9063 -0.8414 -1.7528
  714MPD2     N10562   0.547   3.634   1.258  0.1082  0.8069  0.4044
  714MPD2    H510563   0.560   3.545   1.304 -1.5028 -1.0663 -2.7148
  714MPD2    N110564   0.893   3.712   1.597 -0.6736  0.0645  0.6156
  714MPD2    H710565   0.959   3.780   1.633 -0.0507  0.1295 -0.6641
  715TMC3    C110566   0.985   3.557   1.754 -0.2700 -0.1011 -0.3165
  715TMC3    C210567   1.045   3.430   1.764  0.1427 -0.1539 -0.7380
  715TMC3    C310568   1.134   3.408   1.864  0.9870  0.1400  0.1598
  715TMC3    C410569   1.015   3.658   1.844 -0.2077 -0.5501 -0.1335
  715TMC3    C510570   1.100   3.626   1.946 -0.9741  0.4366 -0.2256
  715TMC3    C610571   1.165   3.506   1.952 -0.1818 -0.5249  0.4238
  715TMC3     C10572   0.903   3.575   1.633 -0.0824  0.1146  0.4741
  715TMC3     O10573   0.873   3.470   1.574 -0.0984 -0.2616  0.2021
  715TMC3     H10574   1.022   3.353   1.691  0.6038 -1.6621  0.7254
  715TMC3    H110575   0.959   3.751   1.843  1.6944  0.5802 -0.3662
  715TMC3    H210576   1.220   3.489   2.044 -3.0140  3.1949  2.8478
  715TMC3    C710577   1.169   3.729   2.024  0.0178 -0.5876 -0.4355
  715TMC3    C810578   1.258   3.364   1.803  0.5152 -0.2048  0.5271
  715TMC3    O110579   1.243   3.704   2.119  0.5681  0.5226 -0.4700
  715TMC3    O210580   1.245   3.331   1.686  0.4101  0.2955  0.0946
  716MPD2     C10581   1.357   0.634  10.170  0.9438 -0.6256 -0.5671
  716MPD2    C110582   1.277   0.554  10.097  0.2273  0.3120  0.5043
  716MPD2    C210583   1.268   0.420  10.122  0.7265 -0.6316 -0.4653
  716MPD2    C310584   1.326   0.361  10.238 -0.1347 -0.1019 -0.4031
  716MPD2    C410585   1.400   0.444  10.318 -0.3079  0.5534 -0.1523
  716MPD2    C510586   1.418   0.580  10.281 -0.6750  0.0352 -0.3889
  716MPD2     H10587   1.223   0.349  10.054 -1.1543 -0.3608  0.5057
  716MPD2    H110588   1.436   0.409  10.414  1.6570  2.2153 -0.2849
  716MPD2    H210589   1.373   0.736  10.137  0.2128 -0.4053 -0.2317
  716MPD2    H310590   1.477   0.649  10.340  1.6709 -2.9965  0.8168
  716MPD2     N10591   1.310   0.228  10.256  0.2425 -0.2378 -0.1145
  716MPD2    H510592   1.265   0.176  10.182 -1.0270  1.2941 -0.4288
  716MPD2    N110593   1.207   0.606   9.986  0.3218 -0.2265 -0.0893
  716MPD2    H710594   1.241   0.690   9.942  2.3740 -0.0508  1.8264
  717TMC3    C110595   1.348   0.008  10.324  0.6263  0.5902  0.0892
  717TMC3    C210596   1.322   4.689  10.195  0.0529  0.0315  0.0016
  717TMC3    C310597   1.284   4.559  10.184  0.3944 -0.0383 -1.0029
  717TMC3    C410598   1.346   4.655  10.431  0.5557  0.7560 -0.0340
  717TMC3    C510599   1.300   4.525  10.417 -0.3686 -0.0007 -0.2557
  717TMC3    C610600   1.262   4.474  10.290 -0.4241 -0.2824 -0.1697
  717TMC3     C10601   1.366   0.150  10.350 -0.1329 -0.2054  0.5350
  717TMC3     O10602   1.431   0.181  10.450 -0.5119  0.6460  0.3866
  717TMC3     H10603   1.339   0.032  10.113 -1.5058 -1.5899 -1.7191
  717TMC3    H110604   1.367   4.682  10.533 -1.0725  0.4332  0.3861
  717TMC3    H210605   1.204   4.382  10.283  2.3602 -2.1630  1.5730
  717TMC3    C710606   1.310   4.433  10.533 -0.4564  0.2237 -0.5500
  717TMC3    C810607   1.219   4.523  10.059  0.6894  0.3271 -0.0800
  717TMC3    O110608   1.339   4.492  10.639 -0.2222 -0.0777 -0.1390
  717TMC3    O210609   1.137   4.599  10.007 -0.4271 -0.5313  0.8552
  718MPD2     C10610   0.030   0.521  13.571 -0.2167  0.2079 -0.4474
  718MPD2    C110611   0.015   0.386  13.595 -0.2560 -0.2776 -0.0982
  718MPD2    C210612   4.685   0.342  13.714  0.5882 -0.1769 -0.1784
  718MPD2    C310613   4.681   0.433  13.823 -0.5571 -0.6225  0.0416
  718MPD2    C410614   4.713   0.568  13.805 -0.3941 -0.6581  0.0913
  718MPD2    C510615   0.018   0.610  13.676  0.3333 -0.2157 -0.0406
  718MPD2     H10616   4.673   0.236  13.732 -0.7387  0.3658  2.1687
  718MPD2    H110617   4.693   0.636  13.887 -0.8939 -0.9266  0.1949
  718MPD2    H210618   0.070   0.563  13.480 -0.3040  1.6730  0.1906
  718MPD2    H310619   0.021   0.715  13.648  3.9385 -0.0960  0.7928
  718MPD2     N10620   4.653   0.376  13.952  0.3857  0.5556 -0.2566
  718MPD2    H510621   4.631   0.278  13.962 -1.2310  0.9614  0.3064
  718MPD2    N110622   0.040   0.285  13.501  0.2606  0.6514  0.3067
  718MPD2    H710623   0.030   0.190  13.535 -0.0163  0.7784  0.5872
  719TMC3    C110624   0.190   0.181  13.337  0.0255  1.1839 -1.0348
  719TMC3    C210625   0.200   0.081  13.436  0.2319  0.4509 -0.2902
  719TMC3    C310626   0.323   0.033  13.477 -0.7360 -0.4616  0.5354
  719TMC3    C410627   0.301   0.220  13.274  0.1505  0.4314 -0.1306
  719TMC3    C510628   0.422   0.164  13.314  0.9143  0.2828 -0.6734
  719TMC3    C610629   0.439   0.084  13.418 -0.2900 -0.4029  0.2088
  719TMC3     C10630   0.113   0.301  13.379 -0.4338 -0.5907 -0.1915
  719TMC3     O10631   0.150   0.405  13.330  0.6523 -0.7089  0.0127
  719TMC3     H10632   0.109   0.046  13.485 -0.0825  1.2481 -0.3046
  719TMC3    H110633   0.298   0.287  13.189  2.4633 -0.4055 -0.8731
  719TMC3    H210634   0.540   0.051  13.438  0.2242  1.3577  0.4683
  719TMC3    C710635   0.534   0.184  13.216 -0.4924  0.4512 -0.3047
  719TMC3    C810636   0.325   0.001  13.617  0.7247 -0.9133  0.2949
  719TMC3    O110637   0.497   0.221  13.105  0.2403  0.0066  0.5265
  719TMC3    O210638   0.221   4.688  13.668  0.1450  0.0029  0.0602
  720MPD2     C10639   3.611   2.000  14.217 -0.1875  0.2627  0.3051
  720MPD2    C110640   3.664   1.933  14.115 -0.3078  0.5260 -0.5144
  720MPD2    C210641   3.766   1.839  14.134 -0.7646  0.4327 -0.0342
  720MPD2    C310642   3.830   1.829  14.258 -0.1236 -0.1041 -0.4093
  720MPD2    C410643   3.774   1.901  14.361 -0.9596 -0.0691 -0.2605
  720MPD2    C510644   3.662   1.971  14.341  0.5123  0.1516 -0.5928
  720MPD2     H10645   3.833   1.792  14.063  1.7030  0.3266  2.3457
  720MPD2    H110646   3.805   1.895  14.465  0.2734  1.4621 -0.5499
  720MPD2    H210647   3.530   2.072  14.209 -1.0270 -0.7195 -0.1002
  720MPD2    H310648   3.605   2.023  14.417  3.5299  1.2819  0.8859
  720MPD2     N10649   3.947   1.753  14.286 -0.2029  0.1205 -0.0164
  720MPD2    H510650   3.992   1.701  14.211 -1.0844  0.0231 -0.4873
  720MPD2    N110651   3.629   1.962  13.980  0.2998  1.0329 -0.0515
  720MPD2    H710652   3.686   1.920  13.907 -0.8747  0.9115 -0.9159
  721TMC3    C110653   4.149   1.689  14.390 -1.0454 -0.4565 -0.2117
  721TMC3    C210654   4.225   1.692  14.505  0.3327  0.2731 -0.3565
  721TMC3    C310655   4.343   1.759  14.499  0.5271 -0.5085  0.3540
  721TMC3    C410656   4.202   1.728  14.275  0.2669 -0.9666 -0.3892
  721TMC3    C510657   4.325   1.779  14.274 -0.1215  0.3167 -0.6418
  721TMC3    C610658   4.396   1.811  14.381 -0.2374 -0.0463  0.2422
  721TMC3     C10659   4.020   1.750  14.399  0.3752 -1.1897 -0.1572
  721TMC3     O10660   4.010   1.807  14.506 -0.4675 -0.1779  0.0681
  721TMC3     H10661   4.176   1.679  14.601 -0.1899  2.9038 -0.2523
  721TMC3    H110662   4.155   1.715  14.178  0.9811 -2.2202 -0.5688
  721TMC3    H210663   4.500   1.841  14.384  0.1244 -1.4017  2.2883
  721TMC3    C710664   4.359   1.855  14.155  0.0135  0.8507  0.5169
  721TMC3    C810665   4.424   1.782  14.618  0.0937  0.1445  0.4484
  721TMC3    O110666   4.262   1.875  14.079  0.1423 -0.2525  0.6118
  721TMC3    O210667   4.542   1.822  14.611  0.2855 -0.5805 -0.2185
  722MPD2     C10668   2.379   0.187  13.779  0.2356 -1.0634 -0.2718
  722MPD2    C110669   2.369   0.300  13.701  0.5267  0.4443 -0.2183
  722MPD2    C210670   2.272   0.311  13.606 -0.0226 -0.0595  0.4155
  722MPD2    C310671   2.185   0.208  13.593 -0.1960  0.8280 -0.1445
  722MPD2    C410672   2.199   0.091  13.667  0.8261 -0.0726  0.2897
  722MPD2    C510673   2.299   0.077  13.764  0.7734 -0.0487 -0.4804
  722MPD2     H10674   2.264   0.399  13.544 -0.7043 -0.2846  0.1928
  722MPD2    H110675   2.133   0.006  13.654  0.7481 -0.0312  0.4115
  722MPD2    H210676   2.451   0.184  13.860  0.9281 -2.7485 -0.9289
  722MPD2    H310677   2.310   4.713  13.824  0.1305  0.2589  0.0926
  722MPD2     N10678   2.077   0.211  13.500  0.2265 -0.1516  0.1524
  722MPD2    H510679   2.005   0.141  13.509 -1.7053  1.5917 -1.7862
  722MPD2    N110680   2.459   0.410  13.700  0.0986  0.5453 -1.1385
  722MPD2    H710681   2.432   0.484  13.636  2.1963  0.2752 -2.3187
  723TMC3    C110682   1.923   0.283  13.336  0.1034 -0.0510 -0.1660
  723TMC3    C210683   1.845   0.174  13.350  0.2745  0.1073  0.2543
  723TMC3    C310684   1.719   0.179  13.307  1.1447 -0.4533 -0.1453
  723TMC3    C410685   1.872   0.399  13.280  1.7833 -0.4473 -0.1016
  723TMC3    C510686   1.745   0.392  13.229  0.6707 -0.0443 -0.1808
  723TMC3    C610687   1.662   0.286  13.245  0.2989  0.0592  0.5135
  723TMC3     C10688   2.046   0.306  13.414  0.1544 -0.5378  0.1468
  723TMC3     O10689   2.107   0.408  13.385 -0.1209  0.3805  0.6925
  723TMC3     H10690   1.894   0.085  13.391 -3.0368 -1.6436  0.3883
  723TMC3    H110691   1.934   0.485  13.259  2.0396 -0.7697 -0.6832
  723TMC3    H210692   1.561   0.292  13.208  0.8763 -3.6495 -1.6262
  723TMC3    C710693   1.700   0.503  13.140 -0.0146 -0.3121  0.0981
  723TMC3    C810694   1.635   0.070  13.347 -0.2496  0.0289  0.5240
  723TMC3    O110695   1.584   0.493  13.105  0.0549  0.5544 -0.3432
  723TMC3    O210696   1.568   0.088  13.451 -0.4446  0.1869  0.1602
  724TMC3    C110697   2.164   4.041   9.262 -0.5316 -0.1872 -0.8709
  724TMC3    C210698   2.138   3.923   9.324 -0.1719 -0.5016 -0.3511
  724TMC3    C310699   2.244   3.837   9.361  0.8557 -0.3924 -0.2533
  724TMC3    C410700   2.297   4.088   9.256  0.3593 -0.0979 -0.2102
  724TMC3    C510701   2.394   4.004   9.306  0.5190  0.2578 -0.4826
  724TMC3    C610702   2.372   3.881   9.351 -0.3898  0.3882  0.5234
  724TMC3     C10703   2.062   4.142   9.255  0.0242  0.3227 -0.2104
  724TMC3     O10704   2.097   4.259   9.260  0.2939  0.2509  0.3603
  724TMC3     H10705   2.036   3.888   9.321  0.1502 -1.2428 -2.5686
  724TMC3    H110706   2.314   4.182   9.204  1.2502  0.0105  0.2820
  724TMC3    H210707   2.457   3.816   9.369 -0.7232 -0.1536  0.1460
  724TMC3    C710708   2.507   4.066   9.365  0.3858 -0.9405  0.6746
  724TMC3    C810709   2.197   3.731   9.440  0.0657 -0.7450 -0.4718
  724TMC3    O110710   2.597   3.989   9.391 -0.4483 -0.0883  0.0598
  724TMC3    O210711   2.084   3.687   9.430 -0.2599 -0.9212  0.0882
  725TMC3    C110712   4.726   1.600  12.508  0.1710  0.4973  0.1564
  725TMC3    C210713   4.608   1.610  12.440 -0.0049  0.0520  0.4076
  725TMC3    C310714   4.569   1.501  12.365 -0.1354  0.9952  0.9181
  725TMC3    C410715   0.069   1.477  12.521 -1.4846  0.1946  0.1397
  725TMC3    C510716   0.011   1.370  12.453 -0.3162  1.2052  0.0732
  725TMC3    C610717   4.629   1.386  12.368 -0.3939  0.6716 -0.6920
  725TMC3     C10718   0.045   1.722  12.572 -0.0337 -0.1433  0.4202
  725TMC3     O10719   4.684   1.805  12.594  0.5694 -0.7646  0.5592
  725TMC3     H10720   4.571   1.712  12.439  0.5632  0.2427 -1.3732
  725TMC3    H110721   0.159   1.466  12.580 -0.0696  0.1537 -2.0291
  725TMC3    H210722   4.593   1.302  12.311 -3.1957 -0.5157  2.8156
  725TMC3    C710723   0.089   1.242  12.434 -0.7302 -0.5902  0.5531
  725TMC3    C810724   4.500   1.522  12.248  0.3817 -0.2133  0.0369
  725TMC3    O110725   0.024   1.149  12.392 -0.2934 -0.0233  0.3437
  725TMC3    O210726   4.395   1.467  12.221 -0.0440  0.7801  0.6118
  726MPD2     C10727   2.229   3.390  10.635  0.8207 -0.4535  0.6892
  726MPD2    C110728   2.100   3.417  10.600  0.2408  0.8369 -0.2114
  726MPD2    C210729   1.998   3.339  10.649  0.2585 -0.1348 -0.1975
  726MPD2    C310730   2.020   3.226  10.717  0.1677  0.2991 -1.2611
  726MPD2    C410731   2.151   3.199  10.752 -0.3460  0.2285  0.1836
  726MPD2    C510732   2.256   3.275  10.704  0.1300 -0.4368 -0.6386
  726MPD2     H10733   1.895   3.368  10.632  0.0511 -0.8913 -0.2596
  726MPD2    H110734   2.170   3.104  10.802  0.1315 -0.3077 -1.0180
  726MPD2    H210735   2.309   3.450  10.595 -0.9184  1.2023 -0.2643
  726MPD2    H310736   2.355   3.249  10.740  0.1714 -0.1335 -0.5299
  726MPD2     N10737   1.922   3.136  10.764 -0.2292 -0.4634  0.3543
  726MPD2    H510738   1.948   3.053  10.816 -1.1200 -1.1266 -0.2436
  726MPD2    N110739   2.076   3.546  10.533 -0.1493 -0.1645 -0.8397
  726MPD2    H710740   1.979   3.568  10.512 -0.2530 -0.8992 -1.1566
  727TMC3    C110741   2.097   3.768  10.481 -0.4616  0.4540 -0.4697
  727TMC3    C210742   2.172   3.882  10.501  0.6254  0.5229 -0.3071
  727TMC3    C310743   2.129   3.995  10.429  0.3129  0.0075  0.6390
  727TMC3    C410744   1.982   3.758  10.405 -0.0331  0.0019 -0.7477
  727TMC3    C510745   1.935   3.883  10.356 -0.2133 -0.3557 -0.4957
  727TMC3    C610746   2.005   3.997  10.363  0.4680  0.0992 -0.2058
  727TMC3     C10747   2.160   3.649  10.522 -0.5950 -0.5458  0.4426
  727TMC3     O10748   2.269   3.661  10.579  0.1610  0.3940  0.8692
  727TMC3     H10749   2.257   3.878  10.568  0.6391 -0.8841 -0.4049
  727TMC3    H110750   1.929   3.665  10.390  0.6914 -0.2989 -1.4303
  727TMC3    H210751   1.975   4.096  10.329 -0.4918 -0.5342 -1.1752
  727TMC3    C710752   1.805   3.890  10.287  0.2870  0.5699 -0.1608
  727TMC3    C810753   2.185   4.125  10.463  0.4289  0.0642  0.0572
  727TMC3    O110754   1.791   3.993  10.220 -0.6058 -0.1812 -0.2643
  727TMC3    O210755   2.129   4.230  10.426 -0.3432  0.2505  0.4308
  728TMC3    C110756   1.564   2.557  15.339 -0.6383 -0.0545  0.1451
  728TMC3    C210757   1.690   2.604  15.340 -0.6053 -0.0735  1.1944
  728TMC3    C310758   1.745   2.649  15.219 -0.2269  0.1034  0.0498
  728TMC3    C410759   1.484   2.569  15.233 -0.1954  0.4134  0.5201
  728TMC3    C510760   1.534   2.632  15.119 -0.3666  0.1410  0.4100
  728TMC3    C610761   1.668   2.664  15.111 -0.2953  0.2036 -0.0797
  728TMC3     C10762   1.537   2.477  15.459 -0.9884 -0.4391  0.2124
  728TMC3     O10763   1.626   2.464  15.545  0.6003  0.3398  0.4824
  728TMC3     H10764   1.755   2.600  15.427 -0.8918  0.4232  1.4262
  728TMC3    H110765   1.388   2.519  15.226  1.4141 -2.2292 -2.4566
  728TMC3    H210766   1.703   2.688  15.011  1.1790 -1.0036  0.1463
  728TMC3    C710767   1.451   2.638  15.003  0.2170 -0.6422  1.0466
  728TMC3    C810768   1.893   2.676  15.215 -0.0326 -0.2111 -0.4324
  728TMC3    O110769   1.358   2.552  15.005 -0.4187 -0.6616 -0.0942
  728TMC3    O210770   1.955   2.676  15.320 -0.2963  0.1996 -0.5306
  729MPD2     C10771   3.770   3.217  16.947  0.5350 -0.4780 -0.2122
  729MPD2    C110772   3.729   3.287  16.842  0.3903  0.7395 -0.2435
  729MPD2    C210773   3.597   3.338  16.833 -0.6940 -0.1088  0.0185
  729MPD2    C310774   3.511   3.307  16.931 -0.0431  0.6587  0.2895
  729MPD2    C410775   3.560   3.248  17.047  0.1744  0.1572 -0.5659
  729MPD2    C510776   3.685   3.193  17.057 -0.0779 -0.1569  0.3166
  729MPD2     H10777   3.563   3.383  16.740 -1.0156 -1.7119 -0.6473
  729MPD2    H110778   3.489   3.244  17.129 -1.8672  0.2996 -2.3484
  729MPD2    H210779   3.876   3.192  16.951  0.5572 -0.3790 -0.1961
  729MPD2    H310780   3.716   3.130  17.139  1.7139  2.5533  1.7066
  729MPD2     N10781   3.376   3.347  16.928  0.0911 -0.1815 -0.0069
  729MPD2    H510782   3.326   3.340  17.016  0.1519  0.4381  0.0723
  729MPD2    N110783   3.827   3.323  16.749 -0.1754 -0.6844  0.1577
  729MPD2    H710784   3.918   3.278  16.747  0.0887 -0.1828  0.7613
  730TMC3    C110785   3.199   3.492  16.890  0.5568 -0.4880 -0.3112
  730TMC3    C210786   3.148   3.433  17.000 -0.2703 -0.8779  0.4602
  730TMC3    C310787   3.116   3.506  17.108  0.8174 -0.5683  0.1392
  730TMC3    C410788   3.187   3.627  16.869 -0.4764 -0.2654  1.1056
  730TMC3    C510789   3.147   3.698  16.980 -0.4741 -0.0534  0.9253
  730TMC3    C610790   3.104   3.643  17.100 -0.2994  0.8682  0.3764
  730TMC3     C10791   3.313   3.428  16.835  0.0035 -0.5258  0.3912
  730TMC3     O10792   3.356   3.466  16.723  0.1716  0.3425  0.6479
  730TMC3     H10793   3.142   3.325  17.000 -0.7040 -0.8541 -0.0478
  730TMC3    H110794   3.243   3.673  16.788 -0.2598 -1.9694  0.2742
  730TMC3    H210795   3.052   3.700  17.176 -1.2880  2.0537 -1.1963
  730TMC3    C710796   3.168   3.836  16.980 -0.4630 -0.0073  0.4610
  730TMC3    C810797   3.223   3.480  17.208  0.3235  0.0520  0.1626
  730TMC3    O110798   3.272   3.871  16.916  0.0128  0.2615  0.2050
  730TMC3    O210799   3.254   3.364  17.204 -0.5564 -0.1455  0.2602
  731MPD2     C10800   4.011   0.419  13.118  0.3219 -0.4290  0.2068
  731MPD2    C110801   4.011   0.538  13.044  0.2353  0.4553  0.0816
  731MPD2    C210802   3.912   0.630  13.053  0.0443  0.9082  0.4489
  731MPD2    C310803   3.800   0.597  13.126 -0.9425  0.1017  0.9792
  731MPD2    C410804   3.793   0.479  13.195  0.0778  0.0511  0.1255
  731MPD2    C510805   3.898   0.390  13.194  0.0880  0.0541  0.2232
  731MPD2     H10806   3.910   0.717  12.989  1.7757  0.8283  0.3125
  731MPD2    H110807   3.707   0.442  13.251  0.1709 -2.7064 -1.5689
  731MPD2    H210808   4.102   0.361  13.130 -0.4933 -1.5549  0.9252
  731MPD2    H310809   3.887   0.299  13.251 -1.0184 -0.0090 -0.0867
  731MPD2     N10810   3.703   0.698  13.126  0.0740  0.0411  0.3170
  731MPD2    H510811   3.732   0.783  13.078 -1.7175 -0.7396 -2.1622
  731MPD2    N110812   4.132   0.553  12.969 -0.5261  0.1108  0.0263
  731MPD2    H710813   4.206   0.486  12.986  1.7018  2.5071 -0.1498
  732TMC3    C110814   4.283   0.658  12.818 -1.0183  0.2482 -0.1738
  732TMC3    C210815   4.282   0.727  12.697 -0.7853 -0.2928 -0.0816
  732TMC3    C310816   4.372   0.690  12.598  0.3756 -0.5775  0.4544
  732TMC3    C410817   4.368   0.552  12.844 -0.2770  0.2094  0.3642
  732TMC3    C510818   4.462   0.525  12.745 -0.0109 -0.2376 -0.3490
  732TMC3    C610819   4.463   0.594  12.621  0.4908 -0.0180  0.1071
  732TMC3     C10820   4.151   0.656  12.881 -0.4237 -0.4023  0.1108
  732TMC3     O10821   4.067   0.723  12.829  0.3862 -0.1134 -0.5682
  732TMC3     H10822   4.228   0.820  12.691 -2.7798 -1.4034  0.5228
  732TMC3    H110823   4.385   0.506  12.940 -2.2515 -1.2378  0.0104
  732TMC3    H210824   4.528   0.569  12.538 -0.8034  0.3372 -1.0068
  732TMC3    C710825   4.577   0.447  12.791  0.3354  0.0403  0.2083
  732TMC3    C810826   4.319   0.706  12.465  0.5831 -0.2638 -0.4138
  732TMC3    O110827   4.599   0.442  12.910  0.6918  0.5845 -0.1600
  732TMC3    O210828   4.398   0.682  12.372 -0.3958  1.1577 -0.7871
  733TMC3    C110829   4.660   0.107  14.151 -0.7670 -0.3498 -0.5286
  733TMC3    C210830   4.609   0.225  14.141  0.3149 -0.5955  0.3599
  733TMC3    C310831   4.680   0.336  14.174  0.2899  0.6388 -0.2185
  733TMC3    C410832   0.045   0.082  14.227 -0.2265 -0.0800 -0.0966
  733TMC3    C510833   0.111   0.195  14.269  0.1099 -0.8476  0.3094
  733TMC3    C610834   0.075   0.324  14.240  0.1570 -0.2614  0.3090
  733TMC3     C10835   4.618   0.017  14.041 -0.0301 -0.1751  0.4880
  733TMC3     O10836   4.573   0.079  13.943 -0.0164  0.0351  0.0520
  733TMC3     H10837   4.506   0.229  14.107  0.9392 -0.1855 -1.4912
  733TMC3    H110838   0.092   4.710  14.238  0.7283  0.3799 -0.1325
  733TMC3    H210839   0.145   0.407  14.241 -0.0387 -0.0953  0.1785
  733TMC3    C710840   0.251   0.176  14.243  0.5132  0.4190 -0.3316
  733TMC3    C810841   4.686   0.436  14.075  0.6439  0.3010  0.2676
  733TMC3    O110842   0.326   0.262  14.285 -0.3791  0.5908  0.0501
  733TMC3    O210843   0.012   0.546  14.092  0.7733  0.0287  0.3422
  734MPD2     C10844   1.887   1.788  12.644 -0.3758 -0.3177  0.1148
  734MPD2    C110845   1.820   1.708  12.554 -0.9033 -0.5698 -0.5424
  734MPD2    C210846   1.847   1.726  12.421  0.0335  0.3730 -0.2206
  734MPD2    C310847   1.932   1.822  12.380 -0.6337  0.2477  0.2910
  734MPD2    C410848   1.986   1.916  12.466  0.0266 -0.7540  0.2427
  734MPD2    C510849   1.971   1.887  12.597 -0.2569  0.3862 -0.0988
  734MPD2     H10850   1.809   1.659  12.345 -0.1682 -0.6688  0.8149
  734MPD2    H110851   2.051   2.000  12.443 -3.6881  2.5450  1.7286
  734MPD2    H210852   1.879   1.770  12.751 -2.2186  0.3827  0.0951
  734MPD2    H310853   2.011   1.952  12.674 -0.5928  0.5444 -0.0554
  734MPD2     N10854   1.954   1.826  12.246 -0.7613 -0.3795 -0.2294
  734MPD2    H510855   1.924   1.740  12.201  1.8332 -0.5263 -1.6778
  734MPD2    N110856   1.729   1.614  12.597  0.7936 -0.1976  0.1066
  734MPD2    H710857   1.721   1.609  12.699 -3.4847  0.1903 -0.1917
  735TMC3    C110858   1.597   1.418  12.570  0.0300 -0.1148 -0.1569
  735TMC3    C210859   1.519   1.350  12.478  1.2780  0.0116 -0.7858
  735TMC3    C310860   1.558   1.221  12.447  0.3520 -0.0139 -0.5513
  735TMC3    C410861   1.700   1.347  12.630  0.0574 -0.6647  0.1178
  735TMC3    C510862   1.735   1.223  12.601  0.5650 -0.4771  0.1410
  735TMC3    C610863   1.662   1.153  12.513  0.6565  0.7285 -0.1579
  735TMC3     C10864   1.647   1.541  12.513  0.3631 -0.2440 -0.2694
  735TMC3     O10865   1.634   1.550  12.392  0.4976  0.2444  0.4381
  735TMC3     H10866   1.435   1.402  12.434  0.9959 -0.0921 -0.3720
  735TMC3    H110867   1.766   1.405  12.695 -2.3005  1.4870  0.5767
  735TMC3    H210868   1.695   1.062  12.464  2.4770  0.3841  1.7319
  735TMC3    C710869   1.867   1.191  12.632  0.3542  0.1963 -0.4357
  735TMC3    C810870   1.556   1.194  12.302 -0.1000 -0.4653  0.6348
  735TMC3    O110871   1.950   1.280  12.613 -0.2436 -0.0174  0.1238
  735TMC3    O210872   1.580   1.084  12.259  0.6063  0.2694  0.4108
  736MPD2     C10873   2.026   0.858  12.683  0.2970 -0.7767 -0.2646
  736MPD2    C110874   2.022   0.993  12.640 -0.9891 -0.1859 -0.5591
  736MPD2    C210875   2.133   1.052  12.571  0.7702  0.5814  0.5983
  736MPD2    C310876   2.249   0.979  12.563  0.0310 -0.3207 -1.2637
  736MPD2    C410877   2.251   0.852  12.609 -0.6164 -0.4516 -0.1085
  736MPD2    C510878   2.148   0.792  12.681 -0.5235 -0.0176  0.0598
  736MPD2     H10879   2.127   1.146  12.519 -0.9972 -0.8252 -1.7692
  736MPD2    H110880   2.333   0.785  12.589  0.4792 -0.3035  3.9441
  736MPD2    H210881   1.939   0.810  12.727  0.7954 -0.3242  1.1957
  736MPD2    H310882   2.156   0.690  12.716 -0.5584  0.4654  1.4417
  736MPD2     N10883   2.359   1.014  12.487  0.3728  0.2637 -0.0617
  736MPD2    H510884   2.431   0.944  12.480  0.0470  0.1050 -2.0232
  736MPD2    N110885   1.896   1.053  12.645 -0.1534  0.6382 -0.0895
  736MPD2    H710886   1.814   0.993  12.658  1.8342 -2.2597 -0.9213
  737TMC3    C110887   2.517   1.147  12.354  0.6931 -0.1616  0.0181
  737TMC3    C210888   2.591   1.263  12.338  0.8026 -0.1776  0.5727
  737TMC3    C310889   2.675   1.276  12.232  0.5656 -0.0450 -1.4369
  737TMC3    C410890   2.542   1.043  12.267 -0.5038  0.1379  0.2754
  737TMC3    C510891   2.629   1.062  12.164  0.2099 -0.5663 -0.5012
  737TMC3    C610892   2.698   1.173  12.145  0.6819  0.3764  0.0196
  737TMC3     C10893   2.393   1.142  12.430 -0.2539  0.7588  0.3218
  737TMC3     O10894   2.337   1.251  12.448 -0.5982  0.6578  0.1354
  737TMC3     H10895   2.552   1.350  12.388  0.6609  0.5914 -0.8869
  737TMC3    H110896   2.477   0.959  12.285 -0.6044 -0.0043 -0.7568
  737TMC3    H210897   2.769   1.183  12.064  1.8537  0.7952  1.0864
  737TMC3    C710898   2.647   0.943  12.076  0.4685 -0.2869 -0.2374
  737TMC3    C810899   2.725   1.403  12.202 -0.0205 -0.1399 -0.4630
  737TMC3    O110900   2.598   0.842  12.128 -0.1436  0.1140 -0.4510
  737TMC3    O210901   2.714   1.483  12.296 -0.4822 -0.4631  1.1237
  738MPD2     C10902   2.615   0.949  15.388  0.1341  0.4860 -0.1627
  738MPD2    C110903   2.711   0.850  15.413 -0.4328  0.4971 -0.3653
  738MPD2    C210904   2.835   0.891  15.456 -0.0374  0.4809 -0.6872
  738MPD2    C310905   2.872   1.027  15.451  0.4373  0.0505  0.3035
  738MPD2    C410906   2.779   1.128  15.437 -0.0824  0.5554 -0.0092
  738MPD2    C510907   2.648   1.084  15.404  0.1165  0.7949  0.2984
  738MPD2     H10908   2.907   0.816  15.485  0.6822  1.9718  1.3497
  738MPD2    H110909   2.805   1.233  15.439 -0.6130  0.7074 -0.7898
  738MPD2    H210910   2.519   0.922  15.346 -0.0424  0.7480  0.0729
  738MPD2    H310911   2.571   1.156  15.380 -0.4448  1.0378  2.8113
  738MPD2     N10912   3.000   1.060  15.486 -0.4288  0.4098  0.0048
  738MPD2    H510913   3.070   0.994  15.454  0.0418  0.2934  1.2709
  738MPD2    N110914   2.686   0.709  15.394 -0.2855 -0.6603 -0.0294
  738MPD2    H710915   2.766   0.655  15.423  0.7354  0.3324 -0.9914
  739TMC3    C110916   3.163   1.232  15.454  0.2410 -0.4256 -0.2795
  739TMC3    C210917   3.175   1.221  15.319 -0.5675  1.0098  1.0030
  739TMC3    C310918   3.242   1.313  15.246  0.1619  0.6178 -0.4943
  739TMC3    C410919   3.226   1.338  15.515  0.2526  0.5051  0.1605
  739TMC3    C510920   3.274   1.444  15.438  0.4028 -0.5879  0.0485
  739TMC3    C610921   3.288   1.428  15.303 -0.1366  0.5942 -0.0511
  739TMC3     C10922   3.043   1.190  15.512  0.5655 -0.3941 -0.5348
  739TMC3     O10923   2.989   1.281  15.576 -0.3229  0.5785  0.1403
  739TMC3     H10924   3.106   1.156  15.267 -1.2833  2.3456  0.2673
  739TMC3    H110925   3.246   1.335  15.622 -3.6121 -1.7628  0.8154
  739TMC3    H210926   3.353   1.499  15.253 -0.7331 -1.3467 -3.5737
  739TMC3    C710927   3.297   1.572  15.497  0.6708  0.6547  0.4255
  739TMC3    C810928   3.235   1.314  15.104  0.7328  0.1207 -0.0159
  739TMC3    O110929   3.385   1.645  15.454 -0.2038  0.1958 -0.5353
  739TMC3    O210930   3.133   1.255  15.064  0.0749 -0.2271 -0.3850
  740TMC3    C110931   3.520   2.324  14.461 -0.2269 -0.1965  0.1624
  740TMC3    C210932   3.567   2.296  14.591  0.0694 -0.3682 -0.4904
  740TMC3    C310933   3.701   2.284  14.608  0.7125 -0.5787  0.2521
  740TMC3    C410934   3.607   2.346  14.355 -0.2301  0.4816  0.0065
  740TMC3    C510935   3.741   2.337  14.386  1.0768  0.0406 -0.6576
  740TMC3    C610936   3.785   2.300  14.507  0.6313 -0.5062  0.0890
  740TMC3     C10937   3.381   2.346  14.433  0.0318  0.3013  0.5471
  740TMC3     O10938   3.359   2.376  14.316 -0.3877  0.6048 -0.1499
  740TMC3     H10939   3.493   2.279  14.668  1.5593  1.5673  1.3951
  740TMC3    H110940   3.577   2.336  14.251 -0.2905  0.7223  0.0005
  740TMC3    H210941   3.891   2.311  14.524  0.0549  0.3476  3.1839
  740TMC3    C710942   3.837   2.300  14.285  0.3480  0.8233  0.1511
  740TMC3    C810943   3.742   2.276  14.750  0.6246  0.0258  0.6990
  740TMC3    O110944   3.898   2.201  14.310  0.0901  0.4084 -0.2805
  740TMC3    O210945   3.668   2.317  14.836  0.3120  0.4559  0.0974
  741TMC3    C110946   3.117   1.659  14.692 -0.0160  0.2801  0.4809
  741TMC3    C210947   2.994   1.612  14.642 -0.2512  0.0909 -0.8738
  741TMC3    C310948   2.909   1.558  14.729 -0.7226 -0.1933  0.5265
  741TMC3    C410949   3.145   1.660  14.820  0.1000 -0.0425 -0.0781
  741TMC3    C510950   3.048   1.612  14.907  0.3498 -0.3260  0.2746
  741TMC3    C610951   2.926   1.563  14.864  0.9771  0.8689 -0.0316
  741TMC3     C10952   3.223   1.646  14.591  0.0098  0.2722  0.3224
  741TMC3     O10953   3.197   1.648  14.474 -0.5287 -0.5009 -0.0090
  741TMC3     H10954   2.983   1.601  14.535 -1.9736 -0.3788 -0.6592
  741TMC3    H110955   3.240   1.701  14.852  1.1394 -3.8223  1.6774
  741TMC3    H210956   2.844   1.534  14.928  0.3306 -0.1974 -1.3532
  741TMC3    C710957   3.063   1.639  15.044 -0.0277 -0.0824 -0.4787
  741TMC3    C810958   2.786   1.501  14.688 -0.2889  0.9601  0.3752
  741TMC3    O110959   3.151   1.718  15.072  0.4925  0.2800  0.0202
  741TMC3    O210960   2.733   1.559  14.590 -0.5359 -0.4504 -0.2805
  742TMC3    C110961   3.074   4.082  15.826 -0.0995  0.1946  0.4007
  742TMC3    C210962   2.981   4.155  15.758 -0.3456 -0.3023  0.0515
  742TMC3    C310963   2.989   4.146  15.622 -0.1922  0.1291  0.2172
  742TMC3    C410964   3.150   3.980  15.767  1.3548  0.8610  0.5509
  742TMC3    C510965   3.142   3.972  15.635  0.0624  0.6453 -0.1894
  742TMC3    C610966   3.066   4.056  15.556 -0.5410  0.5573  0.2650
  742TMC3     C10967   3.087   4.101  15.967 -0.5215  0.2881 -0.3807
  742TMC3     O10968   3.006   4.174  16.019  0.0218 -0.1501 -0.3660
  742TMC3     H10969   2.931   4.239  15.803  2.1528 -0.4948  3.2138
  742TMC3    H110970   3.197   3.901  15.824 -0.9262  0.2983  1.6342
  742TMC3    H210971   3.074   4.060  15.448 -1.1801 -3.0352  0.0672
  742TMC3    C710972   3.249   3.898  15.570  0.0784 -0.4811 -0.4118
  742TMC3    C810973   2.903   4.237  15.543  0.4578 -0.2675  0.1610
  742TMC3    O110974   3.344   3.881  15.645 -0.0687 -0.0616  0.1364
  742TMC3    O210975   2.864   4.335  15.607  0.1190 -0.2890  0.5283
  743MPD2     C10976   2.101   1.631   2.074  0.2244  0.2317  0.1565
  743MPD2    C110977   2.075   1.633   1.938 -0.0577 -0.3232  0.2703
  743MPD2    C210978   2.175   1.648   1.847 -0.4906 -0.1709  0.0866
  743MPD2    C310979   2.302   1.622   1.884  0.2401  0.6539 -0.2060
  743MPD2    C410980   2.329   1.614   2.020  0.2402  0.5758  0.1319
  743MPD2    C510981   2.235   1.629   2.119 -0.0240  0.5117 -0.5296
  743MPD2     H10982   2.165   1.669   1.741 -1.4882  2.0870  0.6103
  743MPD2    H110983   2.430   1.592   2.053  0.5043  2.9446  0.9126
  743MPD2    H210984   2.022   1.630   2.148 -0.3687 -3.6378 -0.5565
  743MPD2    H310985   2.261   1.615   2.223 -1.0059  1.5227 -0.1519
  743MPD2     N10986   2.399   1.615   1.785  0.2607  0.2703  0.0352
  743MPD2    H510987   2.376   1.624   1.686 -1.4393 -1.6200  0.2682
  743MPD2    N110988   1.941   1.644   1.896 -0.1020  0.3263  0.1311
  743MPD2    H710989   1.873   1.668   1.968 -1.2401 -0.7402 -0.5976
  744TMC3    C110990   1.768   1.639   1.736  0.1943  0.2995 -0.2494
  744TMC3    C210991   1.712   1.748   1.789  0.2624 -0.0551  0.5026
  744TMC3    C310992   1.608   1.798   1.716 -0.1796 -0.2665  0.6819
  744TMC3    C410993   1.721   1.573   1.627  0.1051  0.5674  0.0333
  744TMC3    C510994   1.610   1.626   1.560 -0.3833 -0.0999 -0.1816
  744TMC3    C610995   1.559   1.747   1.596 -0.3572 -0.1033  0.0680
  744TMC3     C10996   1.907   1.607   1.772  0.0260  1.0093  0.2507
  744TMC3     O10997   1.963   1.525   1.702  0.0550  0.2446 -0.1075
  744TMC3     H10998   1.759   1.803   1.870  2.3849 -0.0500 -0.7329
  744TMC3    H110999   1.777   1.484   1.600  0.3410  0.3175  1.3048
  744TMC3    H211000   1.487   1.807   1.542 -0.4670 -0.0655  0.2570
  744TMC3    C711001   1.587   1.580   1.427 -0.0637  0.0361  0.4251
  744TMC3    C811002   1.534   1.915   1.771 -0.0331 -0.8239 -0.4109
  744TMC3    O111003   1.505   1.645   1.367  0.1590 -0.5767  0.3068
  744TMC3    O211004   1.436   1.948   1.707  0.8301  0.3432  0.1732
  745TMC3    C111005   3.481   4.221  14.055 -0.7492 -0.5801 -0.0110
  745TMC3    C211006   3.367   4.280  14.095 -0.1264  0.3758 -0.0651
  745TMC3    C311007   3.261   4.280  14.011  0.5073 -0.0712  0.3237
  745TMC3    C411008   3.494   4.186  13.925 -0.0034 -0.0496 -0.3045
  745TMC3    C511009   3.390   4.180  13.839  0.1052  0.4013 -1.1924
  745TMC3    C611010   3.271   4.229  13.885 -0.1547 -0.0749 -0.2484
  745TMC3     C11011   3.606   4.286  14.101  0.5644  0.0939  0.5979
  745TMC3     O11012   3.679   4.222  14.177 -0.6108 -0.3690 -0.2086
  745TMC3     H11013   3.366   4.319  14.196 -1.2031  0.6010 -0.1606
  745TMC3    H111014   3.598   4.158  13.910  0.2448  0.5528  0.2967
  745TMC3    H211015   3.177   4.232  13.830 -0.8960 -1.6385  0.9254
  745TMC3    C711016   3.399   4.186  13.696  0.2216  0.2348  0.5709
  745TMC3    C811017   3.154   4.373  14.032 -0.9383 -0.1011 -0.2527
  745TMC3    O111018   3.301   4.230  13.641 -0.7547 -0.5343 -0.0608
  745TMC3    O211019   3.056   4.371  13.959 -0.0401 -0.2139  0.4618
  746TMC3    C111020   1.033   1.048  11.277 -0.6083 -0.2112  0.0235
  746TMC3    C211021   1.116   0.995  11.171 -0.7258 -0.6261 -0.8001
  746TMC3    C311022   1.056   0.927  11.075  0.2600 -0.0666 -0.5097
  746TMC3    C411023   0.899   1.005  11.291 -0.2167  0.2370  0.1037
  746TMC3    C511024   0.854   0.924  11.191 -0.2052  0.4299  0.3641
  746TMC3    C611025   0.922   0.896  11.080  0.0343  0.3063  0.3741
  746TMC3     C11026   1.082   1.147  11.374  0.2541  0.1124 -0.0399
  746TMC3     O11027   1.005   1.168  11.474  0.1737 -0.0888  0.0799
  746TMC3     H11028   1.220   1.026  11.162  0.2629 -3.1360  1.6172
  746TMC3    H111029   0.842   1.048  11.372 -1.0639 -0.9454  0.1450
  746TMC3    H211030   0.877   0.835  11.003  1.7231 -0.2134 -0.1965
  746TMC3    C711031   0.715   0.891  11.191 -0.3979 -0.5707 -0.1432
  746TMC3    C811032   1.109   0.932  10.944 -0.2224  1.1635  0.9565
  746TMC3    O111033   0.658   0.878  11.082 -0.0330  0.0799  0.7176
  746TMC3    O211034   1.028   0.950  10.857  0.0582 -0.4825 -0.1252
  747TMC3    C111035   3.136   0.881  11.115  0.1155 -0.4643 -0.0911
  747TMC3    C211036   3.038   0.831  11.198 -0.2676  0.3656 -0.4299
  747TMC3    C311037   3.049   0.851  11.329  0.7857  0.0710 -0.2798
  747TMC3    C411038   3.242   0.942  11.163 -0.3506  0.1055 -0.8570
  747TMC3    C511039   3.257   0.945  11.300 -0.6553  0.4994  0.2390
  747TMC3    C611040   3.158   0.910  11.389 -0.0874 -1.0198  0.1767
  747TMC3     C11041   3.104   0.920  10.980  0.4735 -0.7145 -0.1186
  747TMC3     O11042   3.163   1.023  10.949 -0.0556 -0.0841  0.4959
  747TMC3     H11043   2.947   0.790  11.156 -0.2752 -0.9698  0.8886
  747TMC3    H111044   3.324   0.988  11.109  0.7095 -1.1918 -0.3592
  747TMC3    H211045   3.185   0.904  11.494  1.5944  0.0591 -0.2022
  747TMC3    C711046   3.373   1.000  11.360  0.3634  0.0231  0.2421
  747TMC3    C811047   2.953   0.789  11.414 -0.8658  0.6891  0.0853
  747TMC3    O111048   3.355   1.056  11.469 -0.3358 -0.1707  0.0035
  747TMC3    O211049   2.893   0.692  11.367  0.5715  0.0281 -0.3096
  748MPD2     C11050   0.252   2.289   1.781 -0.1314  0.3541  0.1131
  748MPD2    C111051   0.289   2.395   1.856  0.3203  0.0374 -0.4571
  748MPD2    C211052   0.374   2.496   1.805  0.6317 -0.1703 -0.9059
  748MPD2    C311053   0.408   2.494   1.673 -0.4347 -0.4241  0.2462
  748MPD2    C411054   0.377   2.384   1.595 -0.1039  0.4721 -0.6341
  748MPD2    C511055   0.295   2.285   1.648 -0.1726 -0.0293 -1.1305
  748MPD2     H11056   0.406   2.577   1.869  2.3616 -1.2480 -0.4096
  748MPD2    H111057   0.418   2.374   1.495  0.1883  1.4962 -0.6247
  748MPD2    H211058   0.187   2.212   1.819 -0.0982  0.2764  0.0107
  748MPD2    H311059   0.271   2.194   1.594  1.0510 -1.2800  0.4064
  748MPD2     N11060   0.499   2.585   1.625 -0.3592  0.7648 -0.3656
  748MPD2    H511061   0.541   2.658   1.682  1.1692  0.7602 -1.4744
  748MPD2    N111062   0.258   2.384   1.991  0.4190 -0.0050 -0.1107
  748MPD2    H711063   0.220   2.294   2.020 -1.2278  0.4664 -0.8210
  749TMC3    C111064   0.643   2.682   1.470  0.2174 -0.1296 -0.5988
  749TMC3    C211065   0.727   2.688   1.579  0.3789  0.7067 -0.0267
  749TMC3    C311066   0.814   2.793   1.582  0.2639 -0.0293  0.3714
  749TMC3    C411067   0.629   2.788   1.393 -0.7693  0.7491 -0.3561
  749TMC3    C511068   0.727   2.884   1.391 -0.0427 -0.4291  0.2432
  749TMC3    C611069   0.829   2.884   1.481  1.0434 -0.0585  0.1951
  749TMC3     C11070   0.528   2.598   1.493  0.4595 -0.4018  0.5395
  749TMC3     O11071   0.469   2.554   1.397  0.1275  0.0011 -0.4902
  749TMC3     H11072   0.750   2.606   1.646 -0.7973  0.3172 -0.1104
  749TMC3    H111073   0.553   2.775   1.317  0.2692 -1.1336 -1.0791
  749TMC3    H211074   0.901   2.966   1.481 -0.9373  1.6855  1.3404
  749TMC3    C711075   0.707   3.007   1.313  0.4408  0.1297  0.6087
  749TMC3    C811076   0.928   2.764   1.664 -1.0065 -0.5163 -0.1556
  749TMC3    O111077   0.764   3.106   1.352  0.0486 -0.4129 -0.0262
  749TMC3    O211078   0.909   2.721   1.780 -0.3786  0.7202 -0.4841
  750MPD2     C11079   1.208   2.849  11.867 -0.2937  0.0183 -0.0219
  750MPD2    C111080   1.139   2.857  11.751  0.2565 -0.1280 -0.6194
  750MPD2    C211081   1.132   2.758  11.662  0.1449 -0.1311 -0.0821
  750MPD2    C311082   1.208   2.642  11.682 -0.3244 -0.5373  0.3422
  750MPD2    C411083   1.270   2.629  11.806  0.1866  0.5835 -0.3473
  750MPD2    C511084   1.275   2.735  11.896  0.3463  0.8371  0.0074
  750MPD2     H11085   1.070   2.754  11.573  0.1492 -0.1938 -0.0824
  750MPD2    H111086   1.328   2.539  11.826 -0.9617  0.0522  0.6043
  750MPD2    H211087   1.211   2.941  11.926  0.5057  0.2239 -0.3859
  750MPD2    H311088   1.338   2.718  11.982 -2.9615  3.3093  2.8923
  750MPD2     N11089   1.227   2.537  11.586  0.2917 -0.1384  1.0914
  750MPD2    H511090   1.286   2.463  11.620 -0.6317 -0.5772  1.7518
  750MPD2    N111091   1.066   2.976  11.729 -0.3325  0.6137 -0.6165
  750MPD2    H711092   1.098   3.058  11.779 -1.7108  1.0567 -0.4716
  751TMC3    C111093   1.210   2.406  11.400  0.3025  0.0074 -0.1786
  751TMC3    C211094   1.210   2.294  11.480 -0.0721 -0.2649 -0.9335
  751TMC3    C311095   1.253   2.172  11.437 -0.7195 -0.5130 -0.2477
  751TMC3    C411096   1.233   2.384  11.261 -0.2197 -0.1266 -0.7113
  751TMC3    C511097   1.273   2.262  11.223 -0.3606  0.4753 -0.4535
  751TMC3    C611098   1.283   2.158  11.305  0.4499  0.1372 -0.1242
  751TMC3     C11099   1.177   2.532  11.458  0.0714  0.4749 -1.1368
  751TMC3     O11100   1.128   2.630  11.393  0.6576  0.1734 -0.1656
  751TMC3     H11101   1.176   2.307  11.583  0.9976 -0.8116 -0.5160
  751TMC3    H111102   1.229   2.470  11.195  0.5180  0.1589 -0.3821
  751TMC3    H211103   1.322   2.066  11.263  0.8991  0.5616 -0.6456
  751TMC3    C711104   1.286   2.228  11.084  0.3465 -0.2270  0.0386
  751TMC3    C811105   1.226   2.048  11.516 -0.8841 -0.0532 -0.6359
  751TMC3    O111106   1.369   2.286  11.014  0.0639  0.1280  0.2468
  751TMC3    O211107   1.263   1.947  11.461 -0.0310  0.4661 -1.0642
  752TMC3    C111108   4.467   3.547  17.469  0.4402  0.2426  0.3653
  752TMC3    C211109   4.330   3.561  17.484  0.0835  0.2922 -0.1058
  752TMC3    C311110   4.284   3.623  17.591 -0.2879 -0.4798  0.4922
  752TMC3    C411111   4.554   3.603  17.559  0.7969 -0.3740 -0.1980
  752TMC3    C511112   4.499   3.683  17.657  0.9589  0.0227 -0.1980
  752TMC3    C611113   4.359   3.689  17.683  0.0285 -0.6626 -0.4493
  752TMC3     C11114   4.527   3.494  17.343 -1.0563 -0.2847  0.0018
  752TMC3     O11115   4.645   3.453  17.352  0.5131  0.0356 -0.2920
  752TMC3     H11116   4.264   3.500  17.423 -0.8746 -0.6762  1.8983
  752TMC3    H111117   4.662   3.596  17.548  0.9307  0.7186  0.3829
  752TMC3    H211118   4.321   3.723   0.075  1.0255  1.7311 -0.9081
  752TMC3    C711119   4.584   3.764   0.032 -0.4802  0.6825  0.4327
  752TMC3    C811120   4.143   3.660  17.585 -0.1586 -0.5604 -0.1263
  752TMC3    O111121   4.551   3.786   0.148  0.2373 -0.2527 -0.3989
  752TMC3    O211122   4.104   3.681  17.469 -0.2515  0.1973  0.9491
  753TMC3    C111123   1.685   4.312  13.785  0.9215  0.4944 -0.0103
  753TMC3    C211124   1.760   4.267  13.887  0.1898 -0.0142  0.2415
  753TMC3    C311125   1.763   4.125  13.908  0.7345 -0.0666 -0.5286
  753TMC3    C411126   1.631   4.217  13.697 -0.3641  0.6607 -0.1481
  753TMC3    C511127   1.628   4.087  13.731 -0.3298  0.7769  0.1554
  753TMC3    C611128   1.685   4.040  13.842  0.2977  0.0609  0.4513
  753TMC3     C11129   1.689   4.456  13.739 -0.4346 -0.0682 -0.0218
  753TMC3     O11130   1.609   4.500  13.660  0.4829  0.0752  0.3224
  753TMC3     H11131   1.806   4.333  13.959 -0.7566  0.5285  0.3536
  753TMC3    H111132   1.581   4.260  13.610  2.1253 -1.5331 -2.6784
  753TMC3    H211133   1.680   3.936  13.872 -1.7299  0.2369  0.7192
  753TMC3    C711134   1.585   3.989  13.629  0.1712 -0.1014  0.2633
  753TMC3    C811135   1.850   4.066  14.011 -0.4195  0.2125 -0.0310
  753TMC3    O111136   1.569   4.034  13.513 -0.0591  1.3794  0.3033
  753TMC3    O211137   1.823   3.954  14.052 -0.1042  0.6657  0.3085
  754MPD2     C11138   0.483   3.134  12.727  0.2089 -0.8228 -0.0297
  754MPD2    C111139   0.515   3.008  12.775 -0.6393  0.4135 -0.7363
  754MPD2    C211140   0.459   2.899  12.707  0.4422 -0.1084 -0.1075
  754MPD2    C311141   0.369   2.917  12.591 -0.1465  0.4727  0.2060
  754MPD2    C411142   0.348   3.044  12.547  0.4613  0.2166  0.1813
  754MPD2    C511143   0.406   3.153  12.617 -0.4024  0.0067  1.0179
  754MPD2     H11144   0.482   2.803  12.751 -0.0591  0.7490  2.0061
  754MPD2    H111145   0.281   3.065  12.464  1.5215 -2.1732 -1.2604
  754MPD2    H211146   0.516   3.221  12.783 -1.1490 -2.1591  2.8043
  754MPD2    H311147   0.396   3.257  12.590 -0.0202 -0.2999 -0.2975
  754MPD2     N11148   0.299   2.811  12.527  0.1022 -0.3773  0.2439
  754MPD2    H511149   0.235   2.841  12.455 -0.7276 -1.0797  0.7005
  754MPD2    N111150   0.588   3.007  12.894 -0.0765 -0.1334  0.0300
  754MPD2    H711151   0.602   3.092  12.948 -1.9881 -0.3378  0.8286
  755MPD2     C11152   4.250   2.731  13.011  0.0835  0.2453  0.1627
  755MPD2    C111153   4.356   2.817  12.968 -0.8413  0.3470  0.2466
  755MPD2    C211154   4.436   2.782  12.862  0.1028  0.7466  0.7790
  755MPD2    C311155   4.418   2.656  12.810  0.4512 -0.3642 -1.2940
  755MPD2    C411156   4.327   2.562  12.860 -0.2434 -0.1118  0.5972
  755MPD2    C511157   4.240   2.605  12.960 -0.0321 -1.1490  0.4219
  755MPD2     H11158   4.519   2.845  12.831  0.6527 -1.1675 -1.6019
  755MPD2    H111159   4.318   2.462  12.819  0.1872 -0.1782  0.6629
  755MPD2    H211160   4.182   2.756  13.092  2.0346  2.4429  1.1262
  755MPD2    H311161   4.160   2.538  12.992 -0.6406 -1.7343 -2.2789
  755MPD2     N11162   4.501   2.597  12.715 -0.4007  0.5147 -0.3660
  755MPD2    H511163   4.500   2.496  12.706  2.0879  0.2849  1.8762
  755MPD2    N111164   4.380   2.948  13.020 -0.3762  0.1979 -0.8151
  755MPD2    H711165   4.467   2.991  12.990 -0.9576  1.6004 -0.4972
  756MPD2     C11166   1.221   3.300  10.104 -0.6545 -0.2269  0.3593
  756MPD2    C111167   1.098   3.244  10.135 -1.0396 -0.9390 -0.2508
  756MPD2    C211168   1.055   3.132  10.068 -0.3617  0.2248 -0.2896
  756MPD2    C311169   1.126   3.076   9.969  0.3633 -0.5429  0.1347
  756MPD2    C411170   1.257   3.120   9.943  0.4870 -0.1647  0.5449
  756MPD2    C511171   1.303   3.232  10.014  0.3792  0.1924  0.3904
  756MPD2     H11172   0.954   3.097  10.088  0.6703 -2.1722  0.7154
  756MPD2    H111173   1.318   3.079   9.863 -0.6836  1.0063 -0.9498
  756MPD2    H211174   1.264   3.376  10.168 -0.9535 -0.5663  0.9611
  756MPD2    H311175   1.394   3.283   9.985 -0.1583  0.9251 -0.0174
  756MPD2     N11176   1.069   2.961   9.905 -0.6866  0.1174 -0.0199
  756MPD2    H511177   0.978   2.928   9.935 -0.3394  1.0293  2.0905
  756MPD2    N111178   1.017   3.294  10.240  0.4041  0.5404 -0.7242
  756MPD2    H711179   0.935   3.241  10.268  1.2577 -0.3982 -0.0114
  757MPD2     C11180   0.382   2.227   9.983 -0.2530  0.8950  0.2359
  757MPD2    C111181   0.448   2.175   9.871 -1.1481  0.1931 -0.2256
  757MPD2    C211182   0.568   2.233   9.833 -0.1304  0.3342  0.3847
  757MPD2    C311183   0.611   2.354   9.894  0.2531 -0.4689  0.4524
  757MPD2    C411184   0.541   2.401  10.003  0.0005  0.0922 -0.0789
  757MPD2    C511185   0.428   2.340  10.050  0.5147 -0.5120 -0.3751
  757MPD2     H11186   0.620   2.186   9.749 -1.0434 -0.6271  0.3552
  757MPD2    H111187   0.578   2.487  10.058  1.7733 -1.0769  0.5769
  757MPD2    H211188   0.291   2.185  10.024  0.2764 -0.9898 -0.5481
  757MPD2    H311189   0.376   2.375  10.138  2.1007 -1.1559  0.8060
  757MPD2     N11190   0.729   2.411   9.847  0.7075  0.1036 -0.3204
  757MPD2    H511191   0.779   2.357   9.777  0.0399 -1.1738  0.1848
  757MPD2    N111192   0.393   2.060   9.808 -0.2065  0.4463  0.0059
  757MPD2    H711193   0.314   2.023   9.859  0.1523 -0.3630 -0.0236
  758MPD2     C11194   0.480   2.690  15.968 -0.2072 -0.2763  0.2099
  758MPD2    C111195   0.597   2.714  16.023  0.6797 -0.1085  0.0968
  758MPD2    C211196   0.602   2.737  16.166  0.8853 -0.2084 -0.1902
  758MPD2    C311197   0.488   2.750  16.243  0.1370  0.5419  0.3941
  758MPD2    C411198   0.370   2.733  16.179  0.1162  0.4257 -0.1338
  758MPD2    C511199   0.371   2.696  16.050 -0.6971  0.0182  0.1788
  758MPD2     H11200   0.699   2.749  16.212  0.5654  2.4891 -0.2025
  758MPD2    H111201   0.271   2.745  16.222  0.6803 -0.9632  1.5490
  758MPD2    H211202   0.462   2.682  15.862 -1.6643  0.9527  0.3667
  758MPD2    H311203   0.272   2.669  16.013 -0.8499  1.5427 -0.5235
  758MPD2     N11204   0.486   2.786  16.379 -0.2183 -0.0671 -0.2843
  758MPD2    H511205   0.395   2.800  16.421  0.6545 -1.0360  1.9224
  758MPD2    N111206   0.718   2.711  15.951  0.4629 -0.7346  0.0901
  758MPD2    H711207   0.720   2.669  15.859  0.6529  0.9011 -0.6590
  759MPD2     C11208   4.395   0.569  10.183  0.4563  0.1725 -0.1841
  759MPD2    C111209   4.366   0.450  10.129  0.7128 -0.8745  0.5610
  759MPD2    C211210   4.389   0.425   9.997  0.0942 -0.4538  0.4380
  759MPD2    C311211   4.471   0.511   9.926  0.2142 -0.4076  0.4419
  759MPD2    C411212   4.505   0.631   9.991  0.2944 -0.3049 -0.7927
  759MPD2    C511213   4.466   0.658  10.115  0.5075  0.5460  0.2673
  759MPD2     H11214   4.351   0.341   9.939 -1.0025 -0.1870  0.7774
  759MPD2    H111215   4.568   0.703   9.940 -0.1914 -0.1154 -1.1248
  759MPD2    H211216   4.372   0.596  10.286 -0.4512 -2.5556  0.3213
  759MPD2    H311217   4.491   0.751  10.164  1.7696  0.5933 -0.4730
  759MPD2     N11218   4.511   0.483   9.794  0.3802  0.9469  0.3743
  759MPD2    H511219   4.480   0.394   9.756  3.7731 -0.1705  0.1995
  759MPD2    N111220   4.317   0.348  10.206 -0.8936 -0.2152 -0.5910
  759MPD2    H711221   4.329   0.361  10.306  2.0684  1.1883 -1.1336
  760MPD2     C11222   4.306   2.594  11.773  0.0876  0.4374 -0.1198
  760MPD2    C111223   4.432   2.636  11.745 -0.3092  1.1994 -0.4763
  760MPD2    C211224   4.541   2.551  11.740  0.0382 -0.1509  0.1039
  760MPD2    C311225   4.516   2.416  11.742  1.2311  0.2943 -0.2554
  760MPD2    C411226   4.392   2.369  11.760 -0.1627  0.1516 -0.0658
  760MPD2    C511227   4.288   2.456  11.781  0.7322  0.3427 -0.3451
  760MPD2     H11228   4.642   2.586  11.727  0.9360 -3.4746 -1.8528
  760MPD2    H111229   4.373   2.263  11.749  1.6788 -0.1311 -0.3546
  760MPD2    H211230   4.220   2.660  11.773 -0.0648  0.2376 -0.1533
  760MPD2    H311231   4.188   2.418  11.797  0.9381  0.2033  0.6284
  760MPD2     N11232   4.616   2.314  11.727 -0.1105 -0.7733  0.0928
  760MPD2    H511233   4.584   2.224  11.760 -0.9448 -0.9527 -1.2210
  760MPD2    N111234   4.469   2.774  11.740  0.4864 -0.3015 -0.2220
  760MPD2    H711235   4.562   2.793  11.704  0.1975  0.7458 -0.4202
  761MPD2     C11236   0.858   1.765  11.721 -0.1998 -0.1064  0.0782
  761MPD2    C111237   0.946   1.744  11.619  0.3102 -0.3033 -0.9908
  761MPD2    C211238   1.026   1.847  11.571  0.8204  0.3315  0.1832
  761MPD2    C311239   1.036   1.964  11.647 -0.2456  0.4174  1.1210
  761MPD2    C411240   0.951   1.984  11.752  0.0072 -0.0406  0.0749
  761MPD2    C511241   0.862   1.885  11.791  0.0936 -0.0935 -0.0682
  761MPD2     H11242   1.089   1.828  11.485  0.3406 -0.9684  0.1050
  761MPD2    H111243   0.954   2.080  11.803  1.4964 -0.3521  0.5882
  761MPD2    H211244   0.780   1.695  11.751 -2.7496  3.1180  1.0010
  761MPD2    H311245   0.793   1.912  11.870 -0.6615  0.0460 -0.7737
  761MPD2     N11246   1.123   2.064  11.610  0.4600  0.2326 -0.1886
  761MPD2    H511247   1.125   2.150  11.664 -0.1605  0.5229 -0.6274
  761MPD2    N111248   0.919   1.629  11.538  0.4260 -0.3323  0.4202
  761MPD2    H711249   0.857   1.561  11.580  2.2197 -2.3316 -0.1460
  762MPD2     C11250   0.746   1.615  10.738  0.0729 -0.3083  0.3237
  762MPD2    C111251   0.820   1.516  10.792 -1.2451 -0.4109 -0.6349
  762MPD2    C211252   0.932   1.479  10.720 -0.2711  0.0469 -0.3158
  762MPD2    C311253   0.981   1.539  10.610 -0.3931  0.0443 -0.6960
  762MPD2    C411254   0.911   1.643  10.563  0.1514 -0.0880 -0.5758
  762MPD2    C511255   0.795   1.682  10.623  0.0443 -0.8901 -0.1966
  762MPD2     H11256   0.989   1.394  10.755 -1.9361 -0.1441  1.9614
  762MPD2    H111257   0.943   1.693  10.472  1.5759 -3.7492 -2.0737
  762MPD2    H211258   0.661   1.654  10.792 -1.2820 -0.5062 -1.6800
  762MPD2    H311259   0.737   1.757  10.569  1.1983  1.5105  1.8792
  762MPD2     N11260   1.094   1.480  10.542  0.6488 -0.5290  0.1472
  762MPD2    H511261   1.126   1.388  10.569 -1.9034 -1.3407  0.4300
  762MPD2    N111262   0.796   1.462  10.920 -0.0869 -0.2865 -0.0871
  762MPD2    H711263   0.706   1.470  10.965  0.8894  0.6065  1.7043
  763MPD2     C11264   1.962   2.921  16.279  0.5365  0.4655  0.0781
  763MPD2    C111265   2.087   2.943  16.227 -0.4571  0.3311 -0.4719
  763MPD2    C211266   2.178   3.016  16.300  0.6337  0.9021  0.1161
  763MPD2    C311267   2.146   3.058  16.430 -0.5849 -0.8554 -0.3681
  763MPD2    C411268   2.024   3.021  16.489 -0.2892 -0.2364  0.0658
  763MPD2    C511269   1.930   2.957  16.408 -0.2076  0.1774 -0.8246
  763MPD2     H11270   2.275   3.036  16.257  1.7861 -2.7805  0.9448
  763MPD2    H111271   2.004   3.040  16.594  0.6106 -1.3204  0.4457
  763MPD2    H211272   1.899   2.864  16.211 -1.6888  0.8307  1.8525
  763MPD2    H311273   1.842   2.922  16.461 -0.1670 -0.7197 -1.3447
  763MPD2     N11274   2.253   3.113  16.507 -0.4327  0.0864  0.1284
  763MPD2    H511275   2.344   3.117  16.462 -0.5838 -1.5467 -0.3063
  763MPD2    N111276   2.129   2.904  16.095  0.4620 -0.5405 -0.0514
  763MPD2    H711277   2.229   2.901  16.078  0.8880  1.3600  2.1748
  764MPD2     C11278   0.392   4.555  17.526 -0.5182  0.2790 -0.2260
  764MPD2    C111279   0.286   4.509  17.450  1.0739 -0.0162 -0.4984
  764MPD2    C211280   0.189   4.433  17.524  0.3630  0.3733 -0.0007
  764MPD2    C311281   0.200   4.417  17.662  0.3660  0.5523 -0.2315
  764MPD2    C411282   0.308   4.470   0.027 -0.7760  0.0221  0.2115
  764MPD2    C511283   0.399   4.546  17.663 -0.4295 -0.5711  0.1625
  764MPD2     H11284   0.106   4.384  17.474  0.5227  0.6196 -0.5117
  764MPD2    H111285   0.325   4.464   0.134  1.9435  2.9947 -0.0710
  764MPD2    H211286   0.467   4.621  17.483  0.7957 -0.1658  1.3812
  764MPD2    H311287   0.488   4.583   0.009 -0.8524  1.7705 -0.8271
  764MPD2     N11288   0.110   4.331   0.017  0.0825  0.1089 -0.4948
  764MPD2    H511289   0.042   4.300  17.652 -0.8788  1.1126  0.0095
  764MPD2    N111290   0.277   4.530  17.311  0.1328 -0.3396  0.4911
  764MPD2    H711291   0.201   4.477  17.271 -0.5154  0.4352  0.6956
  765MPD2     C11292   0.126   2.126  15.999 -0.3512 -0.2753  0.8355
  765MPD2    C111293   0.181   2.217  15.917  0.2693  0.3075  0.2622
  765MPD2    C211294   0.294   2.189  15.839  0.1994 -0.3490 -0.0647
  765MPD2    C311295   0.357   2.067  15.850 -0.3047 -0.3644  0.1363
  765MPD2    C411296   0.303   1.977  15.939  0.3799  0.0931 -0.1091
  765MPD2    C511297   0.188   2.003  16.006  0.2121  0.2769 -0.2105
  765MPD2     H11298   0.330   2.259  15.764  0.0983  0.2486  0.4526
  765MPD2    H111299   0.338   1.875  15.945  0.5131  0.2716  2.1943
  765MPD2    H211300   0.034   2.149  16.051 -1.2044 -0.0409 -0.7700
  765MPD2    H311301   0.145   1.934  16.077 -1.6296  1.0827 -0.5528
  765MPD2     N11302   0.471   2.037  15.771 -0.7291 -0.1231  0.1560
  765MPD2    H511303   0.527   2.118  15.745  1.1533 -0.0663  4.4929
  765MPD2    N111304   0.096   2.322  15.882 -0.2049 -0.5286 -0.2582
  765MPD2    H711305   0.001   2.289  15.872 -0.8074  0.0378  3.8376
  766MPD2     C11306   4.508   2.309  15.217  0.1391 -0.5790 -0.0373
  766MPD2    C111307   4.624   2.387  15.217 -0.2394  0.1998 -0.4362
  766MPD2    C211308   4.690   2.392  15.098 -0.3263  0.4671  0.2582
  766MPD2    C311309   4.654   2.320  14.982 -0.3238  0.1505 -0.4966
  766MPD2    C411310   4.538   2.250  14.986  0.3302 -0.5027 -0.5239
  766MPD2    C511311   4.461   2.249  15.102 -0.1684 -0.6325  0.4486
  766MPD2     H11312   0.056   2.449  15.099  1.2759 -2.0908 -0.3168
  766MPD2    H111313   4.505   2.200  14.896 -1.2232 -2.1341  0.9674
  766MPD2    H211314   4.440   2.309  15.302 -1.0567  2.4602 -1.0082
  766MPD2    H311315   4.369   2.194  15.113  0.2978 -1.3252  0.8948
  766MPD2     N11316   4.724   2.323  14.857 -0.2105  0.8956  0.0590
  766MPD2    H511317   4.684   2.280  14.775  2.4946  1.2898 -1.4782
  766MPD2    N111318   4.671   2.454  15.324 -0.0421 -0.1883  0.1222
  766MPD2    H711319   0.035   2.496  15.300  0.2181 -0.6471  0.2767
  767MPD2     C11320   4.232   2.513  14.859 -0.0397  0.5269  1.1796
  767MPD2    C111321   4.350   2.551  14.801  0.0596  0.0811  0.1297
  767MPD2    C211322   4.387   2.499  14.675 -0.6002  0.3598  0.3135
  767MPD2    C311323   4.303   2.422  14.606 -0.2666 -0.2863 -0.4592
  767MPD2    C411324   4.179   2.387  14.659 -0.4389  0.2327 -0.4536
  767MPD2    C511325   4.146   2.432  14.784 -0.0021 -1.0409  0.1394
  767MPD2     H11326   4.485   2.528  14.637 -0.4032 -1.1295 -0.3036
  767MPD2    H111327   4.105   2.333  14.600  0.0376  0.0472 -0.8741
  767MPD2    H211328   4.197   2.551  14.954  1.5117  2.6087  0.9235
  767MPD2    H311329   4.045   2.422  14.823  0.4992 -0.1833  1.6714
  767MPD2     N11330   4.340   2.390  14.473  0.3710 -0.0409  1.0053
  767MPD2    H511331   4.437   2.418  14.458  0.5383 -1.6286 -0.8651
  767MPD2    N111332   4.435   2.624  14.881  0.5011  0.5293  0.6633
  767MPD2    H711333   4.408   2.636  14.978  1.4222 -0.4068  1.0336
  768MPD2     C11334   0.600   0.507  10.999  0.0574 -0.0534  0.3554
  768MPD2    C111335   0.504   0.437  11.071  0.5661  0.4295  0.3034
  768MPD2    C211336   0.547   0.352  11.177 -0.7626  0.0847 -0.0500
  768MPD2    C311337   0.679   0.360  11.220 -0.0938 -0.2553 -0.4044
  768MPD2    C411338   0.768   0.440  11.146 -0.1339 -0.4023  0.0328
  768MPD2    C511339   0.731   0.510  11.040 -0.2933 -0.0376 -0.2472
  768MPD2     H11340   0.470   0.297  11.230  0.1156  1.8854  3.1106
  768MPD2    H111341   0.871   0.444  11.179  0.2614  1.3930 -1.4277
  768MPD2    H211342   0.581   0.571  10.913 -0.2424 -0.1143  0.3761
  768MPD2    H311343   0.796   0.575  10.983  1.3299 -0.6404  0.9117
  768MPD2     N11344   0.736   0.297  11.337  0.0319  0.1522  0.3865
  768MPD2    H511345   0.834   0.313  11.362  0.3510  0.9258 -1.3549
  768MPD2    N111346   0.371   0.443  11.033 -0.2034 -0.1488  0.2740
  768MPD2    H711347   0.308   0.383  11.086 -0.1542 -2.0296 -1.8007
  769MPD2     C11348   0.908   4.429  15.130 -0.0032 -0.1253 -0.4184
  769MPD2    C111349   0.920   4.302  15.185  0.1684  0.4644  0.0304
  769MPD2    C211350   1.023   4.269  15.270 -0.4769  0.3530  0.1996
  769MPD2    C311351   1.109   4.367  15.315 -0.1361 -0.4098 -0.3608
  769MPD2    C411352   1.080   4.499  15.278 -0.4099 -0.1687  0.9740
  769MPD2    C511353   0.981   4.524  15.187 -0.6263  0.7578 -0.5573
  769MPD2     H11354   1.039   4.173  15.316  0.0831  0.1073 -0.5029
  769MPD2    H111355   1.141   4.584  15.306 -1.2961  0.1034  2.1162
  769MPD2    H211356   0.832   4.457  15.058  0.5806  1.2639 -0.4978
  769MPD2    H311357   0.978   4.625  15.149 -0.2899  0.6381 -0.9012
  769MPD2     N11358   1.217   4.329  15.400 -0.2383  0.0678 -0.0268
  769MPD2    H511359   1.222   4.228  15.411  0.0506  0.1324  0.4275
  769MPD2    N111360   0.816   4.214  15.147  0.2702 -0.5050  0.1094
  769MPD2    H711361   0.739   4.245  15.087  2.2645 -0.1986 -2.2933
  770MPD2     C11362   0.701   3.189  15.247 -0.7693  0.2637 -0.1931
  770MPD2    C111363   0.762   3.245  15.133 -1.1339 -0.3356 -0.2199
  770MPD2    C211364   0.741   3.379  15.101  0.2002 -0.0155 -0.6406
  770MPD2    C311365   0.656   3.455  15.180  0.4081  0.1226 -0.0146
  770MPD2    C411366   0.595   3.395  15.282 -0.1059  0.0574  0.2323
  770MPD2    C511367   0.618   3.267  15.323 -0.3879  0.5321 -0.6884
  770MPD2     H11368   0.784   3.423  15.012 -0.5370 -0.1400 -1.0631
  770MPD2    H111369   0.520   3.448  15.339 -1.5233  0.7601 -2.3069
  770MPD2    H211370   0.729   3.092  15.287  2.9412  0.8132 -1.4224
  770MPD2    H311371   0.565   3.215  15.403  2.5977 -0.7287  0.4718
  770MPD2     N11372   0.629   3.588  15.137  0.1656  0.2293  0.3925
  770MPD2    H511373   0.688   3.624  15.063 -0.7143  2.7772  0.9084
  770MPD2    N111374   0.845   3.160  15.059  0.4660  0.4865 -0.3750
  770MPD2    H711375   0.858   3.068  15.098  0.2465  0.1561 -1.0743
  771MPD2     C11376   2.403   1.399  13.806  0.1566 -0.3794 -0.3181
  771MPD2    C111377   2.379   1.525  13.757  0.5341  0.0864  0.0853
  771MPD2    C211378   2.308   1.539  13.640 -0.4487  0.3866 -0.1172
  771MPD2    C311379   2.268   1.430  13.567  0.8938 -0.2615 -0.4249
  771MPD2    C411380   2.286   1.300  13.627  0.4274  0.2378 -0.2814
  771MPD2    C511381   2.356   1.293  13.743 -1.0581  0.4621 -0.3208
  771MPD2     H11382   2.288   1.634  13.593 -1.7258  0.1959  0.0271
  771MPD2    H111383   2.253   1.207  13.582 -3.0250  0.8764  0.9226
  771MPD2    H211384   2.448   1.387  13.904  0.5462  1.6329 -0.2578
  771MPD2    H311385   2.363   1.197  13.794  0.5884  0.9179  0.3123
  771MPD2     N11386   2.192   1.450  13.443 -0.1650 -0.2632  0.7344
  771MPD2    H511387   2.187   1.543  13.403 -1.4102 -0.2017  1.0474
  771MPD2    N111388   2.406   1.644  13.831 -0.3474 -0.4929 -0.8107
  771MPD2    H711389   2.366   1.731  13.799  0.5251  0.5446  0.9291
  772MPD2     C11390   2.148   2.296  13.836 -0.0736 -0.9380 -0.2706
  772MPD2    C111391   2.130   2.161  13.821  0.4885  0.7759  0.7080
  772MPD2    C211392   2.002   2.115  13.804 -0.6607  0.5529 -0.4930
  772MPD2    C311393   1.893   2.201  13.827  0.3543  0.0525 -0.1866
  772MPD2    C411394   1.919   2.336  13.853 -0.2603 -0.4414  0.0239
  772MPD2    C511395   2.045   2.386  13.852 -0.4791  0.0140  0.2203
  772MPD2     H11396   1.995   2.008  13.787  0.1758  0.6121 -1.1845
  772MPD2    H111397   1.839   2.405  13.875  0.2593  0.1996 -0.1057
  772MPD2    H211398   2.241   2.351  13.846 -1.2782  1.4570 -2.3112
  772MPD2    H311399   2.061   2.492  13.862  2.9486 -0.5303  0.4353
  772MPD2     N11400   1.758   2.163  13.836 -0.2109  0.6041 -0.0887
  772MPD2    H511401   1.692   2.228  13.879  0.1797  1.3483 -0.6129
  772MPD2    N111402   2.242   2.076  13.824  0.2434  0.1076 -0.7116
  772MPD2    H711403   2.215   1.979  13.819 -2.6939  0.8501  0.7355
  773MPD2     C11404   1.354   3.584   0.461 -0.4108 -0.5525 -0.6883
  773MPD2    C111405   1.273   3.470   0.443 -0.4152  0.3459 -0.5716
  773MPD2    C211406   1.301   3.357   0.515  0.1265  0.4520 -0.4046
  773MPD2    C311407   1.414   3.353   0.593 -0.1455 -0.5260  0.0173
  773MPD2    C411408   1.506   3.456   0.600  1.3826 -0.1316 -0.1912
  773MPD2    C511409   1.471   3.568   0.532 -0.7996 -0.2827  0.6658
  773MPD2     H11410   1.226   3.278   0.508 -0.7857  1.5302 -2.5835
  773MPD2    H111411   1.598   3.460   0.657  1.0029  0.6382  0.3697
  773MPD2    H211412   1.327   3.680   0.417 -0.0725 -0.0856  0.1147
  773MPD2    H311413   1.547   3.645   0.534 -2.3290  1.2775 -0.7346
  773MPD2     N11414   1.454   3.241   0.672 -0.0697 -0.0435 -0.4823
  773MPD2    H511415   1.546   3.225   0.711  0.0539 -0.2819 -0.8735
  773MPD2    N111416   1.161   3.468   0.356 -0.0040  1.1062 -0.0774
  773MPD2    H711417   1.116   3.379   0.336  1.5937  0.2152  0.3219
  774MPD2     C11418   0.287   2.195  13.253 -0.1444  0.0953 -0.0535
  774MPD2    C111419   0.375   2.238  13.350  0.3257  0.0791  0.2703
  774MPD2    C211420   0.433   2.366  13.339 -0.2054 -0.0129  0.5525
  774MPD2    C311421   0.401   2.445  13.230  0.3432 -0.0226 -0.6366
  774MPD2    C411422   0.326   2.393  13.126 -0.4588 -0.0079 -0.0738
  774MPD2    C511423   0.271   2.268  13.135  0.5572 -0.4471  0.4856
  774MPD2     H11424   0.507   2.405  13.408  0.3617  0.4794 -0.3459
  774MPD2    H111425   0.302   2.455  13.040 -1.4682  1.4463  1.2726
  774MPD2    H211426   0.242   2.097  13.266 -1.9074  1.0585  1.0969
  774MPD2    H311427   0.223   2.215  13.053 -1.6306  1.4813  0.5105
  774MPD2     N11428   0.464   2.574  13.216  0.3437  0.4027  0.0760
  774MPD2    H511429   0.451   2.611  13.123  0.3013  0.7829  0.2373
  774MPD2    N111430   0.391   2.151  13.455 -0.6884  0.2319 -0.1380
  774MPD2    H711431   0.329   2.073  13.474  0.0430 -0.3795 -0.2912
  775MPD2     C11432   1.736   3.906  15.838 -0.1985  0.0277  0.1384
  775MPD2    C111433   1.806   3.949  15.950 -0.1876  0.1271 -0.2807
  775MPD2    C211434   1.942   3.967  15.940  0.7921 -1.0479  0.0013
  775MPD2    C311435   2.016   3.947  15.824 -1.1597 -0.4601  0.3821
  775MPD2    C411436   1.942   3.899  15.717 -0.1023 -0.1799 -0.3158
  775MPD2    C511437   1.814   3.870  15.727  0.2340  0.0390 -0.6410
  775MPD2     H11438   2.003   4.000  16.023  0.8718 -1.9182  0.2890
  775MPD2    H111439   1.995   3.865  15.628 -0.9560 -2.6188  0.1128
  775MPD2    H211440   1.633   3.873  15.839  1.1671 -4.2061 -0.5642
  775MPD2    H311441   1.776   3.814  15.643  1.5857 -1.7547 -0.0571
  775MPD2     N11442   2.152   3.969  15.813 -0.3388  0.1293  0.3441
  775MPD2    H511443   2.190   3.962  15.719 -0.0715  1.8915  0.3251
  775MPD2    N111444   1.727   3.961  16.063  0.1388  0.2345  0.1019
  775MPD2    H711445   1.628   3.939  16.059 -0.2577  2.2617 -1.3298
  776MPD2     C11446   1.287   3.494  11.869  0.2304  0.4342 -0.2442
  776MPD2    C111447   1.192   3.526  11.774  0.3943 -0.4090 -0.1378
  776MPD2    C211448   1.185   3.648  11.715 -0.3887  0.3014  0.1929
  776MPD2    C311449   1.259   3.752  11.762 -0.1744 -0.3397 -0.0918
  776MPD2    C411450   1.333   3.727  11.874  0.2110  0.9770 -0.1318
  776MPD2    C511451   1.354   3.600  11.923 -0.2202  0.1310 -0.6140
  776MPD2     H11452   1.117   3.667  11.633  0.4452  0.2327 -0.5111
  776MPD2    H111453   1.383   3.809  11.924  0.7074 -0.7418  2.1608
  776MPD2    H211454   1.300   3.393  11.908 -0.3078 -0.2424 -1.7945
  776MPD2    H311455   1.422   3.596  12.008 -1.2654  1.3388  0.2745
  776MPD2     N11456   1.266   3.879  11.701  0.0495 -0.1023 -0.1060
  776MPD2    H511457   1.316   3.948  11.755  0.6606 -0.9672  0.4416
  776MPD2    N111458   1.099   3.428  11.735  0.0728  0.2355  0.3498
  776MPD2    H711459   1.107   3.333  11.770 -2.1498 -0.6542 -1.5586
  777MPD2     C11460   1.775   2.526   0.748  0.6484  0.5111  0.1122
  777MPD2    C111461   1.759   2.450   0.858  0.7021  0.5190  0.8335
  777MPD2    C211462   1.733   2.316   0.835  0.1056 -0.4827  0.3349
  777MPD2    C311463   1.721   2.263   0.705  0.0644 -0.3675 -0.2708
  777MPD2    C411464   1.750   2.342   0.596 -0.1344  0.1267  0.4299
  777MPD2    C511465   1.767   2.475   0.619  0.5622  0.2951  0.4747
  777MPD2     H11466   1.728   2.248   0.920 -0.9210 -0.0439  0.6243
  777MPD2    H111467   1.740   2.301   0.496  1.1860  1.7674 -0.3798
  777MPD2    H211468   1.802   2.631   0.756  1.7173  0.1273  1.4891
  777MPD2    H311469   1.785   2.543   0.537  1.1063  0.0382  0.3790
  777MPD2     N11470   1.693   2.125   0.704 -0.0088  0.5094  0.0233
  777MPD2    H511471   1.667   2.077   0.791 -2.6053 -2.1427 -2.1963
  777MPD2    N111472   1.789   2.498   0.988  0.1884 -0.9851  0.3732
  777MPD2    H711473   1.789   2.425   1.059  0.0124 -1.2901  0.0633
  778MPD2     C11474   2.370   2.202  14.912 -0.4556 -0.2561  0.0031
  778MPD2    C111475   2.398   2.071  14.886 -0.0516  0.6698  0.4069
  778MPD2    C211476   2.483   2.046  14.775 -0.3735  0.1248  0.7957
  778MPD2    C311477   2.533   2.150  14.695 -0.4566 -0.6227  0.0251
  778MPD2    C411478   2.490   2.279  14.724  0.3338 -0.0790 -0.5226
  778MPD2    C511479   2.405   2.305  14.825 -0.0438 -0.6946  0.4881
  778MPD2     H11480   2.512   1.942  14.762 -0.2666  0.0166  1.9208
  778MPD2    H111481   2.528   2.368  14.675 -3.0342  0.0995 -2.8130
  778MPD2    H211482   2.306   2.237  14.992 -1.2220 -1.0041 -0.2863
  778MPD2    H311483   2.371   2.406  14.847 -2.1459 -1.2987  0.0675
  778MPD2     N11484   2.638   2.118  14.607 -0.2101  0.4544 -0.4333
  778MPD2    H511485   2.661   2.019  14.600  1.9592  1.0839 -2.3377
  778MPD2    N111486   2.341   1.957  14.939  0.6018 -0.3304  0.0896
  778MPD2    H711487   2.369   1.871  14.893  1.3877 -0.9908  1.8288
  779MPD2     C11488   2.193   0.452  14.008 -0.4227 -0.9523 -0.2464
  779MPD2    C111489   2.187   0.480  14.146  0.1150  0.5237  0.7641
  779MPD2    C211490   2.186   0.614  14.187 -0.6128 -0.5277  0.5939
  779MPD2    C311491   2.177   0.713  14.098 -0.7934  0.9240 -0.4976
  779MPD2    C411492   2.170   0.683  13.968 -1.2291  0.3830  0.0094
  779MPD2    C511493   2.186   0.555  13.919 -0.4576 -0.3281  0.4005
  779MPD2     H11494   2.185   0.644  14.292 -0.6738 -1.2426  0.7947
  779MPD2    H111495   2.159   0.762  13.895 -2.3371 -0.3381 -0.5887
  779MPD2    H211496   2.230   0.358  13.967 -0.1688  0.0442 -2.2727
  779MPD2    H311497   2.174   0.529  13.814 -1.7369  0.1898  0.4210
  779MPD2     N11498   2.199   0.846  14.145 -1.2325 -0.2978  0.1713
  779MPD2    H511499   2.244   0.859  14.235 -1.3845 -1.0809  0.3673
  779MPD2    N111500   2.172   0.375  14.242 -0.1666 -1.0096 -0.2998
  779MPD2    H711501   2.163   0.407  14.338 -0.2631 -1.3836 -0.1824
  780MPD2     C11502   1.886   1.046   1.497 -0.4899 -0.8776  0.7593
  780MPD2    C111503   1.856   0.981   1.378 -0.6137 -0.2540 -0.2560
  780MPD2    C211504   1.959   0.963   1.284  0.1998 -0.4757 -0.4812
  780MPD2    C311505   2.082   1.011   1.309  0.6680 -0.4212  0.7980
  780MPD2    C411506   2.111   1.076   1.428 -0.1146  0.1713  0.1525
  780MPD2    C511507   2.016   1.098   1.525 -0.1145 -0.2724 -0.6532
  780MPD2     H11508   1.942   0.909   1.191 -0.3270  1.4556 -1.5199
  780MPD2    H111509   2.212   1.104   1.458 -0.3150  2.0174 -0.9338
  780MPD2    H211510   1.803   1.065   1.564 -1.3104  2.1712 -1.1387
  780MPD2    H311511   2.031   1.148   1.620 -0.0089  1.1637 -1.4351
  780MPD2     N11512   2.180   0.970   1.215  0.6117 -0.3510  0.1046
  780MPD2    H511513   2.147   0.909   1.141 -0.9558  0.4445  0.1536
  780MPD2    N111514   1.728   0.926   1.362 -0.6874 -0.1577  0.8007
  780MPD2    H711515   1.658   0.927   1.436 -1.7269 -1.4833 -0.1444
  781MPD2     C11516   4.170   1.910  12.168  0.2484 -0.0243 -0.6133
  781MPD2    C111517   4.037   1.937  12.152 -0.1164 -0.0129  0.2855
  781MPD2    C211518   3.975   1.915  12.033  0.2296 -0.1252  0.6385
  781MPD2    C311519   4.038   1.852  11.922  0.6647  0.2109 -0.7166
  781MPD2    C411520   4.174   1.821  11.936  0.0008 -0.0567 -0.5690
  781MPD2    C511521   4.239   1.848  12.055 -0.1357 -0.3794 -0.0583
  781MPD2     H11522   3.874   1.949  12.017  0.4413 -0.5097 -1.4810
  781MPD2    H111523   4.230   1.781  11.852 -2.6305  0.4419 -2.5623
  781MPD2    H211524   4.220   1.934  12.261  0.7370 -2.6111 -0.2123
  781MPD2    H311525   4.346   1.834  12.065  0.0175  0.3013 -0.7152
  781MPD2     N11526   3.972   1.816  11.805  0.1981  0.0211 -0.5130
  781MPD2    H511527   4.025   1.783  11.724 -0.7152 -2.0097 -0.2895
  781MPD2    N111528   3.962   1.975  12.275  0.1553  0.0423  0.1824
  781MPD2    H711529   4.010   1.987  12.364  1.1695  0.7588 -0.4566
  782MPD2     C11530   1.128   2.587  10.501 -0.1420 -0.3230 -0.2657
  782MPD2    C111531   1.263   2.566  10.472 -0.6068 -0.2024 -0.1136
  782MPD2    C211532   1.351   2.655  10.534  0.2216 -0.8915  1.0559
  782MPD2    C311533   1.310   2.743  10.634 -1.2666 -0.4278  0.0071
  782MPD2    C411534   1.177   2.763  10.659 -0.5292 -0.6008 -0.3612
  782MPD2    C511535   1.089   2.694  10.577  0.1553 -0.0444  0.3871
  782MPD2     H11536   1.456   2.658  10.508 -0.7146  2.9534 -2.2538
  782MPD2    H111537   1.144   2.846  10.722  3.0528 -0.6052  1.5172
  782MPD2    H211538   1.048   2.530  10.454  0.3617 -1.5356  0.3502
  782MPD2    H311539   0.984   2.718  10.583  0.3365  0.7587  0.2889
  782MPD2     N11540   1.410   2.822  10.699 -0.4152  0.1314  0.1905
  782MPD2    H511541   1.506   2.801  10.675 -0.8866  0.9745 -2.4457
  782MPD2    N111542   1.301   2.456  10.399 -0.3548  0.5803 -0.2121
  782MPD2    H711543   1.232   2.384  10.378  0.4429 -0.4958  0.8025
  783MPD2     C11544   1.179   1.902  10.944  0.4872 -0.5041  0.3235
  783MPD2    C111545   1.231   2.033  10.944  0.1214 -0.4607  0.2442
  783MPD2    C211546   1.301   2.074  10.829 -0.0113 -0.3842  0.0320
  783MPD2    C311547   1.297   1.988  10.718 -0.4575  0.6520 -0.2157
  783MPD2    C411548   1.231   1.867  10.726  0.1211  0.2005  0.4073
  783MPD2    C511549   1.167   1.822  10.838  0.1780 -0.2480 -0.1054
  783MPD2     H11550   1.355   2.167  10.821  1.7815 -1.3776  0.4920
  783MPD2    H111551   1.211   1.803  10.641 -0.3591 -1.2410  1.5940
  783MPD2    H211552   1.128   1.873  11.036 -0.1778 -1.2659 -0.2850
  783MPD2    H311553   1.123   1.724  10.850 -0.4867 -0.1367 -1.6312
  783MPD2     N11554   1.345   2.047  10.592 -0.5404  0.2681 -0.1884
  783MPD2    H511555   1.378   2.143  10.597  1.2270 -0.3006 -1.3818
  783MPD2    N111556   1.219   2.109  11.059  0.5468  0.5758  0.1948
  783MPD2    H711557   1.163   2.078  11.137  0.1309 -0.2882 -0.4516
  784MPD2     C11558   4.594   3.669   1.180 -0.0237 -0.5611 -0.3640
  784MPD2    C111559   4.669   3.787   1.164 -0.2656 -0.8794  0.9082
  784MPD2    C211560   4.631   3.877   1.070 -0.5369  0.8064 -0.6045
  784MPD2    C311561   4.526   3.849   0.987  0.1353 -0.4911  0.0840
  784MPD2    C411562   4.466   3.724   0.990 -0.0971  0.1179 -0.4803
  784MPD2    C511563   4.498   3.637   1.086 -0.0236  0.1794 -0.1518
  784MPD2     H11564   4.696   3.964   1.071  1.1804 -0.4896  0.7058
  784MPD2    H111565   4.384   3.692   0.927 -0.1046 -0.8754  0.0434
  784MPD2    H211566   4.615   3.589   1.250  1.3914 -0.1497 -0.3100
  784MPD2    H311567   4.435   3.550   1.093 -0.1277  0.1570 -1.3501
  784MPD2     N11568   4.484   3.947   0.893 -0.7901 -0.5285  0.1075
  784MPD2    H511569   4.536   4.034   0.895 -2.4139  0.4412  0.1203
  784MPD2    N111570   0.044   3.836   1.260  0.3546  0.0912 -0.3948
  784MPD2    H711571   0.092   3.925   1.247  1.7837 -0.3478  1.8036
  785MPD2     C11572   4.040   1.373  11.009 -0.1395 -0.4356  0.0756
  785MPD2    C111573   4.043   1.466  11.110 -0.4572 -0.4258 -0.4229
  785MPD2    C211574   3.940   1.557  11.125  0.5141  0.3057 -0.0637
  785MPD2    C311575   3.835   1.556  11.039 -0.0599 -0.3368  0.7745
  785MPD2    C411576   3.832   1.458  10.934  0.6704  0.1293  0.2753
  785MPD2    C511577   3.926   1.365  10.934 -0.1500 -0.0125  0.2604
  785MPD2     H11578   3.942   1.629  11.207 -1.4751  0.6254 -0.2970
  785MPD2    H111579   3.750   1.449  10.863 -0.6824  0.3158  1.8165
  785MPD2    H211580   4.123   1.306  10.991  0.4868 -0.0373  1.5442
  785MPD2    H311581   3.919   1.277  10.871  0.7959  1.6498 -2.1827
  785MPD2     N11582   3.723   1.645  11.060  0.0379 -0.0719  0.1614
  785MPD2    H511583   3.739   1.702  11.142 -1.2320  1.0078 -0.3507
  785MPD2    N111584   4.144   1.484  11.202 -0.3344  0.5505  0.3100
  785MPD2    H711585   4.125   1.549  11.278  2.8432  0.2778  1.3527
  786MPD2     C11586   2.646   4.343  15.103 -0.0805  0.2363  0.0914
  786MPD2    C111587   2.667   4.210  15.112 -0.6149 -0.7574 -0.0165
  786MPD2    C211588   2.736   4.162  15.217  0.1498  0.5409 -0.1173
  786MPD2    C311589   2.777   4.250  15.322  0.1035  0.9201  0.5935
  786MPD2    C411590   2.753   4.388  15.311  0.0702  0.3037 -0.3540
  786MPD2    C511591   2.680   4.424  15.204  0.0111  0.0607  0.5155
  786MPD2     H11592   2.752   4.055  15.218  0.1288  0.5939  3.1994
  786MPD2    H111593   2.781   4.458  15.389 -0.7613 -0.2640  0.4496
  786MPD2    H211594   2.607   4.380  15.008  1.3520  1.1612 -0.1356
  786MPD2    H311595   2.646   4.527  15.195  1.0985  0.1968 -2.0255
  786MPD2     N11596   2.857   4.186  15.425 -0.2190 -0.4471 -0.4037
  786MPD2    H511597   2.886   4.092  15.399  0.6578  0.6935 -3.5145
  786MPD2    N111598   2.609   4.122  15.024  0.1651  0.4735  0.2198
  786MPD2    H711599   2.650   4.030  15.034 -1.9162 -0.3554  1.1238
  787MPD2     C11600   2.511   3.350  14.710 -0.3463  0.2489 -0.0894
  787MPD2    C111601   2.594   3.449  14.761 -0.8222 -0.9113 -0.3925
  787MPD2    C211602   2.710   3.410  14.822  0.4310  0.2596  0.1497
  787MPD2    C311603   2.734   3.269  14.848 -0.7295  0.7529 -0.4494
  787MPD2    C411604   2.645   3.172  14.806  0.0757  0.4092 -0.4580
  787MPD2    C511605   2.531   3.215  14.738  0.7484  0.0227 -0.2123
  787MPD2     H11606   2.784   3.486  14.844 -1.7748  2.9419 -1.6924
  787MPD2    H111607   2.658   3.067  14.831 -1.0852  0.4582  0.3432
  787MPD2    H211608   2.418   3.374  14.660 -1.7573 -3.5097  0.8119
  787MPD2    H311609   2.462   3.134  14.718  2.1651 -1.2953  0.1708
  787MPD2     N11610   2.855   3.228  14.910 -0.2429  0.4548  0.1749
  787MPD2    H511611   2.924   3.301  14.926  0.5274 -0.3179  0.3017
  787MPD2    N111612   2.556   3.583  14.749 -1.2610  0.2407 -0.1093
  787MPD2    H711613   2.482   3.605  14.684 -1.1156  0.6792 -0.1309
  788MPD2     C11614   4.575   2.862   1.323 -0.9123  0.6016  0.0648
  788MPD2    C111615   4.683   2.798   1.261 -0.3518 -0.3058  0.1188
  788MPD2    C211616   0.009   2.862   1.151 -0.3704 -0.4253  0.1809
  788MPD2    C311617   4.675   2.977   1.098  0.0472 -0.7390 -0.4739
  788MPD2    C411618   4.562   3.027   1.153 -0.9077 -0.0282  0.1993
  788MPD2    C511619   4.515   2.977   1.273 -0.1512 -0.3822  0.1256
  788MPD2     H11620   0.101   2.816   1.119 -0.0026 -0.5399  1.4105
  788MPD2    H111621   4.513   3.114   1.110  0.1749  1.2138  1.4908
  788MPD2    H211622   4.526   2.818   1.409  0.0354 -0.9803 -0.2003
  788MPD2    H311623   4.437   3.030   1.327 -0.3571 -0.8112  0.2507
  788MPD2     N11624   4.697   3.038   0.972 -0.2950  0.6017 -0.7398
  788MPD2    H511625   4.634   3.111   0.943 -0.8726  1.2049  2.0499
  788MPD2    N111626   4.718   2.674   1.309  0.6056  0.4186  0.7024
  788MPD2    H711627   4.674   2.644   1.395 -2.1709 -2.4588 -1.7320
  789MPD2     C11628   0.387   2.652  16.955 -1.1129  0.3300  0.0855
  789MPD2    C111629   0.281   2.649  16.865 -0.0190  0.2259  0.3399
  789MPD2    C211630   0.168   2.716  16.904 -0.4678 -0.1565  0.4298
  789MPD2    C311631   0.150   2.786  17.022 -0.2217  0.0467  0.0050
  789MPD2    C411632   0.258   2.807  17.102 -0.0045 -0.0468  0.9793
  789MPD2    C511633   0.371   2.728  17.069  0.0623  0.0168  0.2139
  789MPD2     H11634   0.090   2.704  16.829 -1.3117  1.2112  1.0955
  789MPD2    H111635   0.254   2.864  17.194 -0.5561 -1.0387  1.5743
  789MPD2    H211636   0.485   2.605  16.951 -1.7363 -1.0724  1.0873
  789MPD2    H311637   0.456   2.742  17.135  0.4838  0.6242 -0.4511
  789MPD2     N11638   0.021   2.844  17.054  0.8990 -0.5524 -0.9532
  789MPD2    H511639   0.005   2.875  17.149  0.2741 -2.2751 -0.5086
  789MPD2    N111640   0.279   2.579  16.741 -0.0534  0.0079 -0.2532
  789MPD2    H711641   0.194   2.581  16.686 -1.0903  1.1681  1.3952
  790MPD2     C11642   0.817   4.089  13.888  0.0582  0.4367  0.5106
  790MPD2    C111643   0.854   3.963  13.869  0.3303 -0.1691 -0.1459
  790MPD2    C211644   0.843   3.894  13.750 -0.0729 -0.5822  0.4631
  790MPD2    C311645   0.778   3.960  13.646 -0.2617 -0.2648 -0.6078
  790MPD2    C411646   0.745   4.093  13.663 -0.1044 -0.2870 -0.2207
  790MPD2    C511647   0.770   4.153  13.777 -0.3006 -0.1814  0.1816
  790MPD2     H11648   0.892   3.800  13.729  2.6247  0.6265  1.2930
  790MPD2    H111649   0.711   4.143  13.573  3.6480  1.9415 -0.4105
  790MPD2    H211650   0.843   4.137  13.982 -1.6537 -0.7330  1.5829
  790MPD2    H311651   0.743   4.257  13.791  1.0375  0.0229  1.2758
  790MPD2     N11652   0.763   3.888  13.522  0.2465 -0.2189 -0.0241
  790MPD2    H511653   0.779   3.788  13.522  0.5786 -0.1737 -1.8531
  790MPD2    N111654   0.909   3.902  13.985  0.7504 -0.6933  0.4079
  790MPD2    H711655   0.893   3.958  14.067  2.7901  1.2142 -0.4997
  791MPD2     C11656   0.399   3.997  12.845  0.2968 -0.8527  0.6391
  791MPD2    C111657   0.401   3.868  12.893  0.3265  0.1978  0.2557
  791MPD2    C211658   0.303   3.777  12.851  0.0727 -0.4199 -0.5450
  791MPD2    C311659   0.207   3.815  12.757 -0.0364 -0.5935 -0.0758
  791MPD2    C411660   0.215   3.940  12.693 -0.0558 -0.8246  0.2655
  791MPD2    C511661   0.308   4.030  12.741 -0.0043 -0.3967 -0.1592
  791MPD2     H11662   0.306   3.674  12.886 -0.8583  0.0433  0.9162
  791MPD2    H111663   0.140   3.978  12.625  1.6239  1.8466 -0.1014
  791MPD2    H211664   0.459   4.083  12.873  1.3641 -0.6643 -2.2220
  791MPD2    H311665   0.304   4.132  12.705  0.8421  0.4740  2.2100
  791MPD2     N11666   0.106   3.718  12.719  0.2408 -0.2631 -0.4612
  791MPD2    H511667   0.099   3.631  12.772  1.1205 -0.6365 -0.9574
  791MPD2    N111668   0.494   3.836  12.992  0.3061  0.0339  0.0014
  791MPD2    H711669   0.543   3.913  13.036 -2.8198  1.2332  1.3969
  792MPD2     C11670   1.441   3.092  11.468  0.3187 -0.0145  0.1826
  792MPD2    C111671   1.337   3.176  11.436  0.8789 -0.6535 -0.2971
  792MPD2    C211672   1.223   3.114  11.394 -0.1877  0.0210  0.2085
  792MPD2    C311673   1.209   2.978  11.388  0.4930 -0.3819  1.0763
  792MPD2    C411674   1.314   2.904  11.419  0.6925 -0.4135 -0.5179
  792MPD2    C511675   1.426   2.961  11.466 -0.6417 -0.2019 -0.4966
  792MPD2     H11676   1.136   3.178  11.384 -0.8896 -1.0438 -0.5812
  792MPD2    H111677   1.307   2.796  11.408  0.7911 -0.6312  1.4869
  792MPD2    H211678   1.531   3.141  11.502 -1.4570  3.3935 -0.0943
  792MPD2    H311679   1.509   2.898  11.495  0.0658  1.5733  1.2881
  792MPD2     N11680   1.093   2.912  11.342  0.1337 -0.2471 -0.1653
  792MPD2    H511681   1.098   2.813  11.360 -2.6580 -0.3961 -0.2907
  792MPD2    N111682   1.366   3.317  11.439 -0.3925 -0.3165 -0.0327
  792MPD2    H711683   1.464   3.339  11.452 -0.0751 -1.5868 -0.2561
  793MPD2     C11684   0.486   3.319  10.840 -0.0122 -0.7200  0.0361
  793MPD2    C111685   0.616   3.326  10.889 -0.2062  0.0280 -0.3980
  793MPD2    C211686   0.642   3.251  10.999 -1.2388  0.2369  0.5613
  793MPD2    C311687   0.551   3.159  11.050  0.0059  0.1209  0.3948
  793MPD2    C411688   0.424   3.148  10.988 -0.0074  0.3674  0.3712
  793MPD2    C511689   0.388   3.238  10.898  0.4197  0.4141 -0.4630
  793MPD2     H11690   0.744   3.253  11.035 -0.2256 -1.6027 -2.2070
  793MPD2    H111691   0.354   3.069  11.012  0.1715 -0.4564 -1.8112
  793MPD2    H211692   0.454   3.377  10.755 -1.6614 -1.1085  0.4061
  793MPD2    H311693   0.287   3.244  10.857 -0.2612 -0.4693  1.0925
  793MPD2     N11694   0.597   3.060  11.134 -0.3638 -0.1296 -0.3160
  793MPD2    H511695   0.693   3.076  11.164 -0.5608  3.2146 -1.4107
  793MPD2    N111696   0.727   3.363  10.810  0.2808  0.1119  0.0946
  793MPD2    H711697   0.821   3.336  10.838  0.0682 -2.1340 -1.3583
  794MPD2     C11698   1.042   3.583  17.221  0.2900 -0.0670 -0.8397
  794MPD2    C111699   0.915   3.574  17.278  0.3631  0.0067  0.0890
  794MPD2    C211700   0.804   3.541  17.199 -0.3675  0.2447 -1.4023
  794MPD2    C311701   0.815   3.517  17.069 -0.0030 -0.5812 -0.5479
  794MPD2    C411702   0.944   3.526  17.017 -0.0823  0.0862  0.1549
  794MPD2    C511703   1.055   3.572  17.086  0.0492  0.4896 -0.8914
  794MPD2     H11704   0.707   3.527  17.245  0.1592  1.7436  0.1448
  794MPD2    H111705   0.960   3.515  16.911 -0.2297  3.3452 -0.1825
  794MPD2    H211706   1.126   3.605  17.286 -1.6290  1.4724  1.0948
  794MPD2    H311707   1.152   3.564  17.038  0.5924 -0.0520  0.2978
  794MPD2     N11708   0.707   3.501  16.979 -0.1058 -0.0364 -0.5148
  794MPD2    H511709   0.730   3.492  16.880  1.8290 -2.1584  0.1308
  794MPD2    N111710   0.885   3.583  17.420 -0.2190  0.3522  0.1400
  794MPD2    H711711   0.792   3.565  17.457  0.8142 -1.0633  2.0998
  795MPD2     C11712   3.100   0.863  14.031 -0.2185  0.5540 -0.3835
  795MPD2    C111713   3.082   0.743  13.966 -0.2580  0.4875  0.5786
  795MPD2    C211714   3.186   0.650  13.954 -0.4549  0.1167 -0.7830
  795MPD2    C311715   3.308   0.678  14.019 -0.3381  0.8770 -0.1968
  795MPD2    C411716   3.318   0.789  14.094 -0.2483  0.2670 -0.0503
  795MPD2    C511717   3.220   0.881  14.102 -0.1559 -0.3084 -0.2102
  795MPD2     H11718   3.172   0.552  13.910  1.9010  0.8854 -3.2448
  795MPD2    H111719   3.410   0.807  14.148  0.5894  0.2938 -1.4752
  795MPD2    H211720   3.016   0.928  14.051 -1.6030 -1.0584 -0.9818
  795MPD2    H311721   3.221   0.969  14.166  2.1331 -0.4374 -0.0638
  795MPD2     N11722   3.414   0.587  13.993 -0.1402  0.1118 -0.2688
  795MPD2    H511723   3.394   0.506  13.935 -3.3155  0.2368  0.6324
  795MPD2    N111724   2.959   0.707  13.908  0.0494  0.5110 -0.3591
  795MPD2    H711725   2.958   0.615  13.867  0.0694 -0.2824  1.3970
  796MPD2     C11726   2.571   2.252  16.101 -0.1313  0.1534  0.3034
  796MPD2    C111727   2.666   2.313  16.178  0.9083 -0.1582 -0.0044
  796MPD2    C211728   2.705   2.441  16.132  0.0977  0.5918  0.0198
  796MPD2    C311729   2.662   2.503  16.018 -0.0744 -0.5996  0.5965
  796MPD2    C411730   2.567   2.432  15.950  0.3893  0.7401  0.0973
  796MPD2    C511731   2.523   2.313  15.988  0.0821  0.6446  0.0123
  796MPD2     H11732   2.794   2.484  16.176  0.4934  0.7332 -0.9107
  796MPD2    H111733   2.538   2.464  15.850 -0.1800 -0.6509 -0.1862
  796MPD2    H211734   2.519   2.163  16.136 -0.6259 -1.1258 -3.6201
  796MPD2    H311735   2.455   2.255  15.927  0.3744  0.2125  0.1048
  796MPD2     N11736   2.702   2.635  15.978  0.1016 -0.1391  0.4899
  796MPD2    H511737   2.772   2.679  16.037  2.9654 -2.2015 -1.3924
  796MPD2    N111738   2.724   2.242  16.291  0.4883  0.1776  0.5674
  796MPD2    H711739   2.697   2.145  16.298  0.5689  0.0177 -1.3936
  797MPD2     C11740   4.214   2.377  17.432 -0.4104  0.1486  0.3284
  797MPD2    C111741   4.155   2.419  17.555 -0.0850 -0.1863  0.0746
  797MPD2    C211742   4.019   2.402  17.568 -0.4703  0.9609  0.0642
  797MPD2    C311743   3.939   2.365  17.455  0.0945 -0.0746 -0.5848
  797MPD2    C411744   3.998   2.333  17.329 -0.0194 -0.2860 -0.6150
  797MPD2    C511745   4.133   2.339  17.328 -0.0481  0.5792 -0.7997
  797MPD2     H11746   3.984   2.446  17.661 -0.4314  0.7823  0.1632
  797MPD2    H111747   3.951   2.317  17.233  1.6561 -0.1277 -1.4733
  797MPD2    H211748   4.319   2.353  17.418 -0.9346 -0.7971 -1.8980
  797MPD2    H311749   4.186   2.325  17.235  0.7856 -3.5005  0.2798
  797MPD2     N11750   3.798   2.352  17.475 -0.9124  0.2227 -0.4286
  797MPD2    H511751   3.753   2.370  17.565  0.3189 -1.9974  0.6468
  797MPD2    N111752   4.231   2.467  17.667  0.2839 -0.7828 -0.0326
  797MPD2    H711753   4.184   2.490   0.050  0.1478  0.2153 -0.3777
  798MPD2     C11754   3.777   2.904  17.658 -0.6270  0.5629  0.1302
  798MPD2    C111755   3.771   2.772  17.692  0.0677 -0.6696  1.2522
  798MPD2    C211756   3.881   2.720   0.057 -0.0515 -0.5303  0.2823
  798MPD2    C311757   3.996   2.796   0.085  0.5490 -0.1108 -0.7673
  798MPD2    C411758   3.999   2.926   0.031  0.1726 -0.6332 -1.1445
  798MPD2    C511759   3.886   2.979  17.672  0.2646 -0.0695  0.1875
  798MPD2     H11760   3.876   2.622   0.103  1.6675 -1.7451 -2.0895
  798MPD2    H111761   4.084   2.993   0.028 -1.0375  0.8742 -1.6027
  798MPD2    H211762   3.691   2.947  17.608 -0.2132 -0.7276 -1.6933
  798MPD2    H311763   3.894   3.070  17.615 -1.3125 -1.7602 -2.7344
  798MPD2     N11764   4.099   2.741   0.157  0.4085  0.0850  0.5529
  798MPD2    H511765   4.094   2.644   0.186  0.4520  0.0261  0.3594
  798MPD2    N111766   3.650   2.695  17.659 -0.1077  0.2037 -0.1805
  798MPD2    H711767   3.568   2.735  17.615 -0.4321 -1.6456 -1.2210
  799MPD2     C11768   2.981   3.592  14.616 -1.0865 -0.0794  0.2944
  799MPD2    C111769   2.883   3.551  14.525 -0.3278  0.1815  0.2911
  799MPD2    C211770   2.815   3.655  14.463 -0.5734  0.1360  0.2201
  799MPD2    C311771   2.857   3.783  14.473 -0.2591  0.0080 -0.0626
  799MPD2    C411772   2.950   3.819  14.568  0.1644 -0.2040  0.2181
  799MPD2    C511773   3.010   3.722  14.638 -0.1288 -0.8087  1.0576
  799MPD2     H11774   2.731   3.612  14.410 -0.6044 -0.6429  0.8989
  799MPD2    H111775   2.984   3.921  14.583  2.0926 -1.1151  2.0232
  799MPD2    H211776   3.031   3.521  14.681  0.8651  1.2501  0.2549
  799MPD2    H311777   3.093   3.746  14.703 -0.7943  2.9904  0.5171
  799MPD2     N11778   2.803   3.882  14.392 -0.0599  0.3098  0.4928
  799MPD2    H511779   2.851   3.971  14.400  2.3194 -0.8667 -0.6694
  799MPD2    N111780   2.852   3.416  14.504  0.0871  0.2836  0.4432
  799MPD2    H711781   2.774   3.389  14.444  1.2670  0.1626 -1.0180
  800MPD2     C11782   2.930   4.710  14.351  0.5348 -0.3540 -0.5217
  800MPD2    C111783   3.060   4.697  14.398  0.6184 -0.5134 -0.3598
  800MPD2    C211784   3.137   4.604  14.319  0.1794  0.4280 -0.2735
  800MPD2    C311785   3.090   4.544  14.210 -0.5712 -0.6972  0.6661
  800MPD2    C411786   2.959   4.562  14.170  0.2495  0.8223  0.0808
  800MPD2    C511787   2.877   4.647  14.239 -0.0299 -0.4293 -0.3852
  800MPD2     H11788   3.241   4.588  14.344  0.1196 -0.8416 -0.8419
  800MPD2    H111789   2.926   4.517  14.077  1.4155  1.0682 -0.4532
  800MPD2    H211790   2.859   0.044  14.406  3.7398  1.5478  1.5551
  800MPD2    H311791   2.774   4.666  14.211  0.4439 -0.5557 -2.1928
  800MPD2     N11792   3.182   4.451  14.148  0.1204  0.6389  0.1673
  800MPD2    H511793   3.274   4.449  14.191 -0.1742 -0.1577  0.7463
  800MPD2    N111794   3.124   0.052  14.501 -0.3137  0.2253 -0.0621
  800MPD2    H711795   3.064   0.124  14.537  0.5322  0.0246  1.7496
  801MPD2     C11796   3.353   0.724  14.498  0.1271  0.2706  0.5780
  801MPD2    C111797   3.271   0.651  14.580 -0.5549  0.3273 -0.2433
  801MPD2    C211798   3.159   0.711  14.644  0.0971  0.3529 -0.3121
  801MPD2    C311799   3.139   0.847  14.634 -0.1462  0.2045  0.0340
  801MPD2    C411800   3.239   0.925  14.573 -0.2141 -0.5296 -0.2692
  801MPD2    C511801   3.339   0.863  14.496 -0.7175  0.7823  0.4141
  801MPD2     H11802   3.086   0.652  14.697  0.0482  0.2339 -0.5120
  801MPD2    H111803   3.236   1.033  14.566  0.6233 -0.6611 -2.4329
  801MPD2    H211804   3.426   0.675  14.435 -0.4630  0.9721 -0.6663
  801MPD2    H311805   3.408   0.923  14.438 -0.7528  0.3500 -0.0690
  801MPD2     N11806   3.045   0.913  14.725  0.3773  0.3060 -0.1191
  801MPD2    H511807   3.072   1.009  14.746 -0.1151  0.3692  0.2168
  801MPD2    N111808   3.289   0.508  14.604  0.0558 -0.1200  0.2116
  801MPD2    H711809   3.210   0.459  14.644  0.4721  0.2044  1.4298
  802MPD2     C11810   3.330   1.857   0.829  0.9892 -0.0672 -0.0299
  802MPD2    C111811   3.271   1.738   0.857  0.6367  0.0338  0.5871
  802MPD2    C211812   3.221   1.664   0.754  0.1014  0.1639 -0.5578
  802MPD2    C311813   3.221   1.703   0.624 -0.2818 -0.1450  0.1596
  802MPD2    C411814   3.295   1.816   0.592 -0.5093  0.0487  0.1751
  802MPD2    C511815   3.349   1.893   0.697 -0.4150  0.3542 -0.2224
  802MPD2     H11816   3.173   1.572   0.785  1.0827 -0.2036 -0.1362
  802MPD2    H111817   3.301   1.846   0.488 -0.6851  1.5182  0.5953
  802MPD2    H211818   3.391   1.913   0.899 -0.0775 -0.2221  1.0179
  802MPD2    H311819   3.396   1.987   0.667  1.1574  0.1990  1.7846
  802MPD2     N11820   3.178   1.608   0.529  0.1535 -0.2876  0.3119
  802MPD2    H511821   3.147   1.524   0.576 -0.5229 -0.3446 -0.2389
  802MPD2    N111822   3.275   1.673   0.984  0.4882 -0.7914  0.5275
  802MPD2    H711823   3.234   1.580   0.987  0.6555 -0.9516 -1.8291
  803MPD2     C11824   4.064   4.348  11.766 -0.0600 -1.0351  0.4729
  803MPD2    C111825   4.079   4.252  11.863 -0.5172 -0.4096 -0.3447
  803MPD2    C211826   4.032   4.123  11.838 -0.0960  0.3142  0.3450
  803MPD2    C311827   3.971   4.092  11.718 -0.7892 -0.1962 -0.3540
  803MPD2    C411828   3.941   4.196  11.629 -0.3024  0.8992  0.1393
  803MPD2    C511829   3.995   4.322  11.653 -0.0948 -0.5858 -0.3480
  803MPD2     H11830   4.042   4.048  11.916 -3.4762  0.1456  0.6142
  803MPD2    H111831   3.891   4.183  11.533  1.9482 -0.3402 -0.8765
  803MPD2    H211832   4.117   4.442  11.778  0.2245 -1.3308  1.5139
  803MPD2    H311833   3.979   4.407  11.588  1.8454 -1.3331 -1.7953
  803MPD2     N11834   3.926   3.956  11.693  0.2750  0.3641 -0.1890
  803MPD2    H511835   3.849   3.944  11.627 -1.5254  0.9546  1.8007
  803MPD2    N111836   4.137   4.277  11.993  0.0401 -0.1724 -0.6266
  803MPD2    H711837   4.156   4.191  12.045  0.1909  0.1168 -0.2031
  804MPD2     C11838   3.683   0.847  16.793  0.0257  0.3010 -0.3411
  804MPD2    C111839   3.621   0.876  16.915  0.4365 -0.0596  0.0735
  804MPD2    C211840   3.663   0.997  16.982 -0.6780 -0.3330 -0.0036
  804MPD2    C311841   3.761   1.080  16.920  0.0975  0.1771  0.0692
  804MPD2    C411842   3.824   1.034  16.803  0.3875 -0.8677 -0.1746
  804MPD2    C511843   3.771   0.928  16.736  0.0770  0.4836 -0.3987
  804MPD2     H11844   3.612   1.038  17.068 -1.3106 -1.1021 -0.0075
  804MPD2    H111845   3.900   1.096  16.756 -2.1161 -0.4361 -3.6848
  804MPD2    H211846   3.686   0.753  16.739 -1.5004 -1.8551  3.2616
  804MPD2    H311847   3.819   0.895  16.645 -1.6089  0.2302 -1.1907
  804MPD2     N11848   3.787   1.206  16.987  0.7549  0.3130  0.4547
  804MPD2    H511849   3.732   1.227  17.070 -0.8184 -1.7486 -0.0752
  804MPD2    N111850   3.536   0.783  16.982  0.1447 -0.6815  0.6679
  804MPD2    H711851   3.502   0.816  17.072  1.9612  1.2975  0.6216
  805MPD2     C11852   1.897   3.552  15.880  0.1781 -0.1211 -0.2862
  805MPD2    C111853   2.027   3.577  15.846  0.6452 -0.0893 -0.6669
  805MPD2    C211854   2.119   3.633  15.928 -0.1971  0.5362  0.4574
  805MPD2    C311855   2.083   3.668  16.053  0.7175 -0.6027 -0.1799
  805MPD2    C411856   1.956   3.642  16.094  0.2592 -0.3103  0.0705
  805MPD2    C511857   1.867   3.576  16.013  0.3870  0.3076  0.2770
  805MPD2     H11858   2.213   3.652  15.879  0.4396  1.6211  2.1130
  805MPD2    H111859   1.930   3.670  16.196  2.9176 -1.9575  1.1787
  805MPD2    H211860   1.822   3.500  15.822 -1.9136 -0.2209  2.4875
  805MPD2    H311861   1.767   3.558  16.049  0.6396  0.0710  0.8505
  805MPD2     N11862   2.179   3.701  16.153  0.5695  0.0320 -0.1132
  805MPD2    H511863   2.150   3.736  16.244  1.3747 -0.7635  0.4574
  805MPD2    N111864   2.083   3.525  15.723 -0.2400  0.3869  0.6920
  805MPD2    H711865   2.184   3.526  15.706 -0.2550  1.1647  0.6498
  806MPD2     C11866   3.300   3.366   0.580 -0.2856 -0.5295 -0.0169
  806MPD2    C111867   3.320   3.345   0.714 -0.4597 -0.0287 -0.4391
  806MPD2    C211868   3.447   3.325   0.751  0.0497 -0.6235 -0.3153
  806MPD2    C311869   3.551   3.293   0.665  0.3123 -0.0007  0.3124
  806MPD2    C411870   3.530   3.317   0.527 -0.3012 -0.0515  0.4114
  806MPD2    C511871   3.399   3.356   0.488 -0.7971 -0.0542  0.2037
  806MPD2     H11872   3.472   3.319   0.856 -1.7694 -1.3501  0.0698
  806MPD2    H111873   3.613   3.320   0.457  0.5522  2.3038  1.5274
  806MPD2    H211874   3.206   3.402   0.538 -0.7768 -1.4057  0.3304
  806MPD2    H311875   3.378   3.362   0.382  0.9314 -0.9065 -0.1853
  806MPD2     N11876   3.684   3.277   0.722 -0.5840 -0.6825  0.3262
  806MPD2    H511877   3.686   3.276   0.824  0.9532 -3.7603  0.2806
  806MPD2    N111878   3.228   3.399   0.808  0.1203  0.2424  0.4896
  806MPD2    H711879   3.146   3.449   0.777  0.6473  1.9073  1.8081
  807MPD2     C11880   2.692   3.065   1.322  0.1821  0.1306 -0.2946
  807MPD2    C111881   2.816   3.103   1.357 -0.4383 -0.2540 -0.1812
  807MPD2    C211882   2.859   3.071   1.479 -0.8726  0.8335  0.1206
  807MPD2    C311883   2.790   2.988   1.564 -0.3801 -0.1905  0.1694
  807MPD2    C411884   2.673   2.939   1.520  0.4864  0.9162  0.7612
  807MPD2    C511885   2.614   2.985   1.404  0.1566 -0.4423 -0.4033
  807MPD2     H11886   2.954   3.113   1.507  0.6140 -0.4821 -2.8935
  807MPD2    H111887   2.613   2.870   1.578  0.3374  1.0681  0.7889
  807MPD2    H211888   2.653   3.091   1.224  1.1971 -1.4858 -1.1277
  807MPD2    H311889   2.514   2.948   1.384  0.0659 -0.2677 -0.2749
  807MPD2     N11890   2.850   2.951   1.692 -0.3943  0.5503  0.3295
  807MPD2    H511891   2.947   2.973   1.712 -0.6023  0.1495  1.7469
  807MPD2    N111892   2.885   3.201   1.286  0.3778  0.5425  0.2627
  807MPD2    H711893   2.969   3.238   1.328  1.1761 -0.4163 -0.4802
  808MPD2     C11894   3.235   3.292  10.283 -0.2122 -0.7336 -0.1463
  808MPD2    C111895   3.200   3.424  10.286 -0.3470  0.4001  0.1293
  808MPD2    C211896   3.289   3.522  10.329  0.4352 -0.3469  0.7409
  808MPD2    C311897   3.420   3.488  10.368 -0.5964 -0.2423  0.4655
  808MPD2    C411898   3.451   3.356  10.368 -0.0047  0.0526  0.7712
  808MPD2    C511899   3.360   3.262  10.328  0.1049  0.5248  0.0799
  808MPD2     H11900   3.268   3.628  10.322 -0.0651 -0.4224  1.0685
  808MPD2    H111901   3.545   3.321  10.409 -1.2104 -2.8794  1.0491
  808MPD2    H211902   3.168   3.208  10.265 -1.1601 -0.0653  0.2742
  808MPD2    H311903   3.390   3.159  10.341 -0.9734  0.0331 -1.3127
  808MPD2     N11904   3.518   3.581  10.411 -0.2322 -0.3116  0.4275
  808MPD2    H511905   3.606   3.537  10.438 -0.0060 -1.6494 -2.5297
  808MPD2    N111906   3.073   3.470  10.255 -0.1001  0.6075 -0.4519
  808MPD2    H711907   3.051   3.562  10.292 -1.5572 -0.7977  2.1576
  809MPD2     C11908   4.211   3.272  10.732  0.6219 -0.0588  0.5148
  809MPD2    C111909   4.240   3.347  10.623  0.0862 -0.1483  0.6010
  809MPD2    C211910   4.151   3.449  10.579  0.2915 -0.6702 -0.3251
  809MPD2    C311911   4.038   3.479  10.659  0.5056  0.0581  0.0107
  809MPD2    C411912   4.004   3.391  10.760 -0.2323 -0.3627  0.5161
  809MPD2    C511913   4.092   3.293  10.789  0.1241 -0.0345 -0.5781
  809MPD2     H11914   4.177   3.501  10.488 -3.3921  0.5814 -0.6827
  809MPD2    H111915   3.913   3.396  10.818  0.3365 -0.8210  1.4438
  809MPD2    H211916   4.272   3.187  10.759  1.0810  0.4076  0.9681
  809MPD2    H311917   4.074   3.228  10.874 -1.5472 -0.4069 -1.2045
  809MPD2     N11918   3.949   3.594  10.646  0.3211  0.4066  0.4448
  809MPD2    H511919   3.861   3.592  10.696  1.0409 -1.5933  1.6241
  809MPD2    N111920   4.342   3.335  10.530 -0.0642 -0.3214 -0.0432
  809MPD2    H711921   4.346   3.408  10.459  2.0351 -1.3596 -1.0032
  810MPD2     C11922   3.068   3.396  10.619  0.5129 -0.1964 -0.5354
  810MPD2    C111923   2.951   3.461  10.645  0.3648  0.6072 -0.0706
  810MPD2    C211924   2.962   3.579  10.708  0.3575  0.2088  0.9531
  810MPD2    C311925   3.083   3.637  10.740 -0.0842 -0.2600 -0.9692
  810MPD2    C411926   3.198   3.573  10.703  0.1597  0.3310  0.3637
  810MPD2    C511927   3.193   3.451  10.648 -0.5226 -0.2063  0.3888
  810MPD2     H11928   2.869   3.624  10.741 -2.0250 -4.1771  0.1227
  810MPD2    H111929   3.295   3.610  10.736  0.7473 -1.5877  0.7874
  810MPD2    H211930   3.068   3.298  10.573  1.7607  0.2050 -1.3834
  810MPD2    H311931   3.282   3.393  10.627  0.5844  1.2619  1.0262
  810MPD2     N11932   3.095   3.768  10.794  0.3015  0.1572  0.2175
  810MPD2    H511933   3.189   3.799  10.816  1.1096 -3.0082  1.2792
  810MPD2    N111934   2.828   3.401  10.601 -0.3738 -0.3667 -0.4591
  810MPD2    H711935   2.833   3.311  10.556 -1.5756  0.5431 -2.4174
  811MPD2     C11936   2.006   3.470  10.183  0.0397 -0.1128 -0.4969
  811MPD2    C111937   2.138   3.505  10.184 -0.5163  1.3512 -0.3884
  811MPD2    C211938   2.167   3.636  10.147 -0.4691  0.7262  0.4212
  811MPD2    C311939   2.068   3.723  10.101 -0.3964 -0.8328 -0.4705
  811MPD2    C411940   1.943   3.675  10.080 -0.5212  0.3709  0.0517
  811MPD2    C511941   1.911   3.553  10.127  0.1660 -0.6765  0.4182
  811MPD2     H11942   2.268   3.675  10.139 -0.3813  0.6117  0.9622
  811MPD2    H111943   1.859   3.735  10.046 -1.6770 -0.1814  1.9378
  811MPD2    H211944   1.976   3.372  10.220  0.4235  0.7082  1.9284
  811MPD2    H311945   1.807   3.525  10.124 -0.2287  0.7040  1.1099
  811MPD2     N11946   2.111   3.852  10.074  0.5104 -0.1902  0.1319
  811MPD2    H511947   2.209   3.875  10.086 -0.0587  2.4061 -0.2286
  811MPD2    N111948   2.236   3.418  10.242  0.0652  0.4356 -0.2872
  811MPD2    H711949   2.209   3.324  10.268  1.2574  0.0519 -0.4497
  812MPD2     C11950   1.980   3.817  12.558  0.6415  0.2693 -0.3114
  812MPD2    C111951   1.861   3.822  12.619 -0.0007  0.1496 -0.0278
  812MPD2    C211952   1.822   3.718  12.704 -0.2082  0.2401  0.3579
  812MPD2    C311953   1.911   3.605  12.718  0.2216 -0.0029 -0.3740
  812MPD2    C411954   2.027   3.598  12.644 -0.7084 -0.4179 -0.2357
  812MPD2    C511955   2.060   3.710  12.569  0.9379  0.7441  0.3003
  812MPD2     H11956   1.736   3.720  12.770  0.3456 -1.8698  1.1327
  812MPD2    H111957   2.111   3.530  12.645  1.8794  2.7907 -1.6885
  812MPD2    H211958   2.018   3.897  12.495  0.2021  0.9832  0.3214
  812MPD2    H311959   2.153   3.718  12.513  0.1306 -0.0599 -1.1762
  812MPD2     N11960   1.869   3.509  12.816  0.1461 -0.1384 -0.3267
  812MPD2    H511961   1.781   3.526  12.863  0.7249  0.5345  0.5248
  812MPD2    N111962   1.793   3.938  12.588 -0.0846 -0.7558  0.0071
  812MPD2    H711963   1.848   4.004  12.534 -0.4625 -0.3409  0.1295
  813MPD2     C11964   0.386   0.868  13.461  0.0351  0.2519 -0.2760
  813MPD2    C111965   0.446   0.997  13.453  0.5688  0.1528 -0.9350
  813MPD2    C211966   0.362   1.101  13.485 -0.6180 -0.0648 -1.3250
  813MPD2    C311967   0.225   1.083  13.502  0.2879  0.0967  0.3477
  813MPD2    C411968   0.172   0.959  13.499 -0.7804 -0.1525  0.2928
  813MPD2    C511969   0.249   0.857  13.465  0.8939 -0.0899 -0.3163
  813MPD2     H11970   0.398   1.200  13.511 -0.3368  0.1878 -2.6771
  813MPD2    H111971   0.065   0.949  13.502 -0.6138 -2.0650 -0.1500
  813MPD2    H211972   0.442   0.779  13.436  1.9825  1.6412 -0.8815
  813MPD2    H311973   0.206   0.761  13.440  1.0278 -0.2873  0.2088
  813MPD2     N11974   0.159   1.195  13.553  0.1338  0.6781  0.0681
  813MPD2    H511975   0.211   1.283  13.552 -1.5580  1.6716 -0.0662
  813MPD2    N111976   0.588   1.004  13.432 -0.3414 -0.3220 -0.0278
  813MPD2    H711977   0.650   0.924  13.425 -1.6802 -1.3734  0.2988
  814MPD2     C11978   1.514   2.226  12.806  0.8101 -0.5745 -0.1784
  814MPD2    C111979   1.567   2.214  12.678 -0.1159  0.6235 -0.4573
  814MPD2    C211980   1.635   2.319  12.618  0.6763 -0.0107 -0.2343
  814MPD2    C311981   1.629   2.444  12.672 -0.6374 -0.7106 -0.1005
  814MPD2    C411982   1.578   2.454  12.803  0.8102 -0.0906 -0.3650
  814MPD2    C511983   1.521   2.346  12.865  0.2202  0.1568 -0.4995
  814MPD2     H11984   1.697   2.292  12.533  0.7336 -0.2774 -0.1095
  814MPD2    H111985   1.589   2.550  12.854 -0.1821  0.7340 -1.7171
  814MPD2    H211986   1.462   2.144  12.855  0.8946  0.9866  2.5169
  814MPD2    H311987   1.475   2.359  12.962 -0.8994  0.0489 -1.0187
  814MPD2     N11988   1.702   2.545  12.611  0.6192 -0.0163 -0.5583
  814MPD2    H511989   1.717   2.624  12.673 -1.8959  1.1497 -1.4126
  814MPD2    N111990   1.570   2.098  12.599  0.0239  0.0518  0.2593
  814MPD2    H711991   1.608   2.120  12.508 -1.7691  0.6999 -0.3268
  815MPD2     C11992   1.462   0.734  12.129 -0.1496 -0.2452  0.3886
  815MPD2    C111993   1.458   0.599  12.177 -0.1741 -0.8395  1.0029
  815MPD2    C211994   1.351   0.564  12.258 -0.3325  0.4124  0.3109
  815MPD2    C311995   1.253   0.661  12.293 -0.2368  0.0424 -0.9108
  815MPD2    C411996   1.261   0.793  12.244  0.7513 -0.6926 -0.2078
  815MPD2    C511997   1.364   0.831  12.163  0.3423 -0.1306  0.3606
  815MPD2     H11998   1.361   0.463  12.294  0.7803  0.9280  1.4326
  815MPD2    H111999   1.189   0.868  12.275  2.4189  0.7030  0.3151
  815MPD2    H212000   1.544   0.775  12.073 -0.2188 -0.0494  0.4307
  815MPD2    H312001   1.380   0.936  12.140  1.0780  0.2545  2.6283
  815MPD2     N12002   1.158   0.604  12.379  0.7641 -0.3079 -0.0188
  815MPD2    H512003   1.162   0.504  12.396  1.0488 -0.0639  1.3388
  815MPD2    N112004   1.554   0.521  12.114  0.1044 -0.9191  0.0953
  815MPD2    H712005   1.612   0.571  12.046 -0.6296  2.7536  2.1673
  816MPD2     C12006   1.885   0.147   0.110 -0.2423  0.2073 -0.9390
  816MPD2    C112007   1.973   0.244   0.119 -0.0767 -0.5161  0.2568
  816MPD2    C212008   2.085   0.251   0.030 -0.3736 -0.5498 -0.1340
  816MPD2    C312009   2.101   0.150  17.642 -0.4007 -0.2656  0.2983
  816MPD2    C412010   2.009   0.048  17.634 -0.1372 -0.3797  0.1395
  816MPD2    C512011   1.901   0.045   0.020  0.4951 -0.0384 -0.0657
  816MPD2     H12012   2.149   0.338   0.037 -1.7140  0.5184 -1.1229
  816MPD2    H112013   1.998   4.696  17.559  1.3506  1.6942 -2.2435
  816MPD2    H212014   1.791   0.141   0.164 -0.6400 -0.2578 -1.6689
  816MPD2    H312015   1.823   4.695   0.018  1.8196 -1.3871 -0.2461
  816MPD2     N12016   2.214   0.156  17.559 -0.0023 -0.4839 -0.1607
  816MPD2    H512017   2.281   0.231  17.576  1.6502 -2.0033 -0.0077
  816MPD2    N112018   1.951   0.329   0.223 -0.5996 -0.0100 -0.3622
  816MPD2    H712019   1.858   0.323   0.263 -1.2892 -0.6793 -2.0524
  817MPD2     C12020   1.556   1.321  10.056 -0.3390  0.1918  0.4209
  817MPD2    C112021   1.682   1.377  10.046 -0.2167  0.8850  0.1055
  817MPD2    C212022   1.692   1.507  10.012 -0.3297  0.3912 -0.3260
  817MPD2    C312023   1.582   1.576   9.974  0.2820  0.4479  0.1025
  817MPD2    C412024   1.452   1.516   9.986  0.4726  0.2747  0.6086
  817MPD2    C512025   1.443   1.387  10.028 -0.6373 -0.2911 -0.4311
  817MPD2     H12026   1.791   1.552  10.011 -0.6193  1.0560  0.4160
  817MPD2    H112027   1.357   1.563   9.962 -0.5730 -1.1818  1.9448
  817MPD2    H212028   1.536   1.227  10.104 -1.1693 -0.6484 -1.5931
  817MPD2    H312029   1.345   1.344  10.046 -1.3530  2.7209  2.9164
  817MPD2     N12030   1.599   1.718   9.949  0.2175  0.2049 -0.4398
  817MPD2    H512031   1.692   1.759   9.937  1.6235 -1.6140  4.4326
  817MPD2    N112032   1.809   1.316  10.078 -0.1192 -0.0838 -0.4345
  817MPD2    H712033   1.887   1.379  10.064 -0.7431  0.9337  0.6762
  818MPD2     C12034   0.612   1.344  10.018 -0.7659 -0.3202  0.0752
  818MPD2    C112035   0.525   1.256  10.079  0.0369  0.6091 -0.1283
  818MPD2    C212036   0.543   1.121  10.054  0.1872  0.4026  0.4158
  818MPD2    C312037   0.644   1.068   9.970  0.5528 -0.4832  0.1428
  818MPD2    C412038   0.731   1.160   9.923  0.5050 -0.8649  0.4696
  818MPD2    C512039   0.707   1.294   9.941 -0.6014  0.6610  0.6484
  818MPD2     H12040   0.478   1.056  10.110  2.3946 -1.3300  0.9638
  818MPD2    H112041   0.817   1.128   9.865  0.0289 -2.5598  0.6933
  818MPD2    H212042   0.599   1.451  10.017 -0.3220 -0.2451  2.0412
  818MPD2    H312043   0.777   1.360   9.891  0.1393 -1.0379 -0.5301
  818MPD2     N12044   0.663   0.929   9.961 -0.1518 -0.3717  0.4006
  818MPD2    H512045   0.748   0.893   9.918 -0.1274  0.5398 -0.3142
  818MPD2    N112046   0.417   1.292  10.163 -0.2846  1.0663 -0.8072
  818MPD2    H712047   0.373   1.220  10.220  0.6287  0.7586 -0.4886
  819MPD2     C12048   3.417   3.591  15.957  0.2086  0.7440  0.0342
  819MPD2    C112049   3.373   3.464  15.923 -0.0028  0.0200 -0.2395
  819MPD2    C212050   3.424   3.353  15.989 -0.2237 -0.1210 -0.1030
  819MPD2    C312051   3.510   3.364  16.097 -0.8608 -0.0629 -0.1622
  819MPD2    C412052   3.535   3.492  16.143 -0.1649 -0.1352 -0.3353
  819MPD2    C512053   3.494   3.604  16.069 -0.8122  0.0375 -0.1488
  819MPD2     H12054   3.411   3.252  15.951  0.5463 -0.0872 -0.4496
  819MPD2    H112055   3.611   3.504  16.219  0.6105  1.1587 -1.3172
  819MPD2    H212056   3.391   3.673  15.891  0.4855  0.6213 -0.2263
  819MPD2    H312057   3.539   3.700  16.093  1.5477 -1.6512  2.2221
  819MPD2     N12058   3.565   3.242  16.147 -0.4811 -0.0451 -0.0671
  819MPD2    H512059   3.553   3.162  16.087 -0.9759  1.2696 -1.7195
  819MPD2    N112060   3.277   3.455  15.822 -0.1665 -0.1455  0.1406
  819MPD2    H712061   3.243   3.541  15.781 -2.6124 -1.0061  0.4012
  820MPD2     C12062   2.653   3.219  15.224  0.3059 -0.3899 -0.3291
  820MPD2    C112063   2.624   3.336  15.287 -0.4369  0.1483 -0.4562
  820MPD2    C212064   2.724   3.407  15.353  0.5280  0.3693 -0.3623
  820MPD2    C312065   2.851   3.365  15.348 -0.1305 -0.2785 -0.1827
  820MPD2    C412066   2.876   3.249  15.278 -0.8214 -0.5045  0.6953
  820MPD2    C512067   2.776   3.177  15.221  0.5263  0.7878  0.4365
  820MPD2     H12068   2.702   3.497  15.409  0.6676 -1.4229  2.6013
  820MPD2    H112069   2.978   3.211  15.276  0.1569  2.1684 -0.2889
  820MPD2    H212070   2.580   3.158  15.172  1.2238 -1.2686 -0.5901
  820MPD2    H312071   2.800   3.083  15.174  1.4228 -0.1308  2.7402
  820MPD2     N12072   2.955   3.424  15.416 -0.3483 -0.1562  0.0146
  820MPD2    H512073   3.030   3.359  15.440  1.3879  2.1444  0.7553
  820MPD2    N112074   2.487   3.371  15.295 -0.2172 -1.0701 -0.2956
  820MPD2    H712075   2.425   3.313  15.239  0.8322  0.5268 -3.1019
  821MPD2     C12076   3.477   4.239  13.412  0.4533  0.1379 -1.0966
  821MPD2    C112077   3.565   4.223  13.520 -0.1688 -0.2810 -0.0438
  821MPD2    C212078   3.697   4.231  13.502 -0.2590  0.0499  0.7149
  821MPD2    C312079   3.745   4.259  13.376  0.7100 -0.2673  0.5299
  821MPD2    C412080   3.658   4.279  13.271 -0.4926 -0.0695 -0.2106
  821MPD2    C512081   3.525   4.274  13.295  0.4135  0.4396  0.1905
  821MPD2     H12082   3.765   4.240  13.586  1.5229 -1.2499 -0.5694
  821MPD2    H112083   3.696   4.305  13.173  0.6988 -0.2718  0.1987
  821MPD2    H212084   3.369   4.224  13.418  0.6826 -0.8119  0.7847
  821MPD2    H312085   3.456   4.283  13.211 -0.7226  0.3717  1.1135
  821MPD2     N12086   3.880   4.292  13.349  0.4803 -0.1051  0.4082
  821MPD2    H512087   3.903   4.305  13.251  1.1484  0.9612  0.6974
  821MPD2    N112088   3.529   4.199  13.654  0.0307  0.0370  0.4210
  821MPD2    H712089   3.599   4.204  13.727  2.2312 -0.9964 -1.6248
  822MPD2     C12090   4.086   0.062  15.824 -0.7455  0.1465 -0.7967
  822MPD2    C112091   4.100   0.033  15.957 -0.1014  0.6768 -0.3486
  822MPD2    C212092   4.059   0.122  16.056  0.7064 -0.0882  0.5209
  822MPD2    C312093   3.996   0.242  16.023  0.9953  0.3286 -0.7337
  822MPD2    C412094   3.982   0.265  15.887  0.1090 -0.0835  0.1186
  822MPD2    C512095   4.034   0.183  15.791  0.0823  0.3384  0.1210
  822MPD2     H12096   4.060   0.088  16.159  3.4279 -2.5052 -0.3348
  822MPD2    H112097   3.928   0.353  15.854  1.2404  0.2556 -0.8535
  822MPD2    H212098   4.131   4.719  15.753  1.3883 -0.2522  0.9555
  822MPD2    H312099   4.010   0.194  15.686 -2.4796 -0.6573  0.5893
  822MPD2     N12100   3.961   0.331  16.128 -0.4000 -0.5967  0.3722
  822MPD2    H512101   3.981   0.293  16.220 -2.1583 -0.1712  0.9299
  822MPD2    N112102   4.165   4.641  16.015 -0.0326 -0.6847 -0.2576
  822MPD2    H712103   4.170   4.625  16.115 -1.3907 -3.6012 -0.6608
  823MPD2     C12104   3.800   0.515  16.931  0.1015 -0.0467  0.7751
  823MPD2    C112105   3.800   0.435  16.821  0.5336 -0.3327 -0.0627
  823MPD2    C212106   3.767   0.304  16.833  0.5813 -0.2541 -0.7366
  823MPD2    C312107   3.735   0.248  16.960 -0.0673  0.3803 -0.8500
  823MPD2    C412108   3.734   0.334  17.073 -0.6536 -0.5771  0.2415
  823MPD2    C512109   3.774   0.467  17.055  0.2358  0.0784  0.1508
  823MPD2     H12110   3.774   0.232  16.752  1.0801 -2.7617  1.5161
  823MPD2    H112111   3.721   0.298  17.174 -1.9955 -3.5052 -0.9582
  823MPD2    H212112   3.827   0.620  16.918  0.7704 -0.3151 -0.0732
  823MPD2    H312113   3.776   0.536  17.138 -2.1422 -1.1027  1.1726
  823MPD2     N12114   3.732   0.114  16.987  0.1628 -0.2457 -0.2786
  823MPD2    H512115   3.722   0.082  17.083  3.5854  0.0125  0.1857
  823MPD2    N112116   3.838   0.501  16.701 -0.3869  0.4385  0.4118
  823MPD2    H712117   3.890   0.588  16.702  1.0755 -0.4484  1.6736
  824MPD2     C12118   4.448   3.746  16.083 -0.1247 -0.3167 -0.6365
  824MPD2    C112119   4.450   3.854  15.998  0.2736  0.0949  0.3732
  824MPD2    C212120   4.517   3.843  15.879  0.3376  0.3125  0.5345
  824MPD2    C312121   4.574   3.720  15.842 -0.4039  0.3087 -0.3216
  824MPD2    C412122   4.581   3.621  15.936 -0.4470 -0.1121  0.5215
  824MPD2    C512123   4.516   3.633  16.054 -0.2270 -0.3206  0.3051
  824MPD2     H12124   4.508   3.916  15.799  0.6487 -0.9063 -0.6042
  824MPD2    H112125   4.629   3.527  15.912 -2.7442 -1.1891  0.0943
  824MPD2    H212126   4.398   3.759  16.178 -0.8421 -0.4440 -1.0043
  824MPD2    H312127   4.512   3.548  16.122  0.4014 -0.0113  0.7265
  824MPD2     N12128   4.609   3.701  15.707  0.7307 -0.0696 -0.1202
  824MPD2    H512129   4.606   3.783  15.648 -1.7242  0.2179  0.4239
  824MPD2    N112130   4.393   3.979  16.046  0.2006  0.4141 -1.2178
  824MPD2    H712131   4.350   3.974  16.137  0.3479 -0.3004 -1.1827
  825MPD2     C12132   0.294   4.006  15.037  0.1180  0.9929 -0.1374
  825MPD2    C112133   0.297   4.001  15.178  0.4252 -0.1950  0.1709
  825MPD2    C212134   0.361   4.101  15.244 -0.3588  0.7349 -0.0935
  825MPD2    C312135   0.422   4.203  15.174 -0.7106 -0.1304  0.3200
  825MPD2    C412136   0.407   4.216  15.034  0.1673  0.3979  0.3646
  825MPD2    C512137   0.343   4.116  14.968  0.4422  0.8162  0.3098
  825MPD2     H12138   0.372   4.087  15.351  1.9668 -0.0680 -0.4362
  825MPD2    H112139   0.446   4.299  14.976  3.9840 -1.9644 -0.4842
  825MPD2    H212140   0.244   3.924  14.987  0.5968  0.6353 -0.0269
  825MPD2    H312141   0.340   4.123  14.860  0.5416 -0.4111  0.2221
  825MPD2     N12142   0.499   4.305  15.245 -0.7782  0.6197  0.3276
  825MPD2    H512143   0.533   4.389  15.198 -3.3878  0.6880 -1.4413
  825MPD2    N112144   0.237   3.887  15.235  0.6790  0.1232  0.1095
  825MPD2    H712145   0.200   3.817  15.171  0.1478  0.3572  0.1639
  826MPD2     C12146   0.095   3.953  13.798 -0.2706  0.1175 -0.1333
  826MPD2    C112147   4.716   3.947  13.705 -0.7865  0.4823  0.0761
  826MPD2    C212148   4.586   3.966  13.748  0.5642 -1.0639  0.5546
  826MPD2    C312149   4.560   3.990  13.887 -0.4887  0.3893 -0.0156
  826MPD2    C412150   4.666   3.992  13.979 -0.2103 -0.3845  0.3757
  826MPD2    C512151   0.067   3.979  13.931  0.1823 -0.2766 -0.1079
  826MPD2     H12152   4.504   3.943  13.681  0.9676 -0.4059 -0.1559
  826MPD2    H112153   4.650   4.003  14.085  0.2035  1.3560  0.2622
  826MPD2    H212154   0.197   3.957  13.761  0.5028 -0.7665  1.8984
  826MPD2    H312155   0.154   3.979  13.996  1.0052  1.4082 -1.2124
  826MPD2     N12156   4.430   4.027  13.942  0.0648 -0.5144 -0.4621
  826MPD2    H512157   4.428   4.043  14.042 -0.8211 -0.5543 -0.4781
  826MPD2    N112158   0.018   3.934  13.569  0.4073 -0.5631 -0.1252
  826MPD2    H712159   0.108   3.898  13.537  0.2475 -1.1722  0.1113
  827MPD2     C12160   0.642   4.441  10.323 -0.1206 -0.2711 -0.0875
  827MPD2    C112161   0.654   4.330  10.407  0.2616 -0.2389  0.2409
  827MPD2    C212162   0.624   4.207  10.364 -0.1746  0.4727  0.0154
  827MPD2    C312163   0.569   4.190  10.240  0.7598 -0.7052  0.6299
  827MPD2    C412164   0.556   4.300  10.159 -0.0442  0.7785  0.2998
  827MPD2    C512165   0.584   4.425  10.202  0.0621  0.3111 -0.5585
  827MPD2     H12166   0.629   4.119  10.427 -0.6602 -0.2701 -0.9933
  827MPD2    H112167   0.508   4.292  10.062  0.2850 -1.3226  0.3030
  827MPD2    H212168   0.655   4.542  10.363 -0.6763 -0.1717 -0.1601
  827MPD2    H312169   0.561   4.517  10.150 -0.8901  1.1061  1.2899
  827MPD2     N12170   0.539   4.062  10.192 -0.3895  0.2208  0.5794
  827MPD2    H512171   0.556   3.988  10.260  2.6314  1.0893  0.7957
  827MPD2    N112172   0.694   4.360  10.539 -0.0776 -0.3168 -0.5364
  827MPD2    H712173   0.712   4.458  10.555  2.4648 -1.1167  1.5473
  828MPD2     C12174   3.698   4.541  12.887  0.9261 -0.0439  0.1768
  828MPD2    C112175   3.709   4.595  12.762 -0.0276 -0.0557 -0.0653
  828MPD2    C212176   3.831   4.633  12.711 -0.5829  0.8043 -0.0212
  828MPD2    C312177   3.945   4.592  12.775 -1.0679  0.3508  0.3782
  828MPD2    C412178   3.934   4.527  12.899  0.5431 -0.2513 -0.9002
  828MPD2    C512179   3.813   4.504  12.953 -0.2974  1.0467 -0.1836
  828MPD2     H12180   3.823   4.680  12.614  2.1159 -0.4358 -0.8641
  828MPD2    H112181   4.016   4.494  12.962  1.9605  1.8180 -1.6084
  828MPD2    H212182   3.606   4.507  12.932  0.6552  1.2459  0.5968
  828MPD2    H312183   3.814   4.453  13.049 -0.0509 -0.8224 -1.1645
  828MPD2     N12184   4.070   4.604  12.720  0.1699 -0.6512 -0.4350
  828MPD2    H512185   4.141   4.554  12.774  1.2268  2.8151  1.4134
  828MPD2    N112186   3.595   4.623  12.690  0.1375 -0.6364  0.3066
  828MPD2    H712187   3.607   4.649  12.593 -2.9880 -1.6033 -0.3629
  829MPD2     C12188   3.603   0.311  11.938  0.2190  0.1667  0.4306
  829MPD2    C112189   3.470   0.317  11.965 -0.0278  0.3578 -0.1843
  829MPD2    C212190   3.421   0.262  12.082 -0.3650  0.0137 -0.3547
  829MPD2    C312191   3.495   0.185  12.167 -0.0659  0.5450 -0.2325
  829MPD2    C412192   3.628   0.169  12.128 -0.0325 -0.3690 -0.6837
  829MPD2    C512193   3.684   0.224  12.014 -0.0821 -0.3363 -0.1044
  829MPD2     H12194   3.333   0.311  12.122 -0.5539 -2.6046  2.4760
  829MPD2    H112195   3.695   0.101  12.180  0.3609  0.0459 -0.6536
  829MPD2    H212196   3.638   0.372  11.855  0.4327 -0.9920 -0.3397
  829MPD2    H312197   3.789   0.210  11.995 -0.1599 -0.4767 -0.4189
  829MPD2     N12198   3.453   0.127  12.290  0.3890  0.3472 -0.3350
  829MPD2    H512199   3.528   0.081  12.341  0.6872 -1.3443 -2.2770
  829MPD2    N112200   3.386   0.382  11.871 -0.0894  0.0256  0.1747
  829MPD2    H712201   3.437   0.432  11.799  0.9120  0.0093  0.8802
  830MPD2     C12202   3.663   2.760  15.766  0.3308 -0.2460 -0.0778
  830MPD2    C112203   3.759   2.760  15.863  0.3821  0.5691 -0.6869
  830MPD2    C212204   3.889   2.712  15.832  0.1521 -0.5600 -0.3106
  830MPD2    C312205   3.915   2.647  15.716  0.1272  0.0948  0.2899
  830MPD2    C412206   3.808   2.636  15.628  0.4708  0.8156 -0.0345
  830MPD2    C512207   3.686   2.688  15.653  0.1768  0.4491 -0.1030
  830MPD2     H12208   3.975   2.731  15.895  0.4676 -2.6196 -0.1198
  830MPD2    H112209   3.817   2.580  15.536  0.4008 -2.0699  1.7060
  830MPD2    H212210   3.572   2.817  15.775  0.8566  0.8603 -1.9227
  830MPD2    H312211   3.611   2.682  15.575  0.7298  0.4992 -0.6397
  830MPD2     N12212   4.040   2.591  15.679  0.3967 -0.2038  0.1740
  830MPD2    H512213   4.044   2.549  15.587 -0.3730  1.0268 -0.4235
  830MPD2    N112214   3.735   2.834  15.981 -0.0134 -0.2668 -0.3386
  830MPD2    H712215   3.652   2.891  15.987 -1.8755 -3.1138  0.8264
  831MPD2     C12216   4.221   0.344  16.528  0.9045  0.5281  0.1074
  831MPD2    C112217   4.229   0.254  16.423 -0.1566 -0.2247  0.1539
  831MPD2    C212218   4.141   0.149  16.427 -1.0944 -0.3303  0.1094
  831MPD2    C312219   4.070   0.121  16.540  0.3538 -0.1221 -0.0329
  831MPD2    C412220   4.066   0.215  16.641 -0.1982  0.5217 -0.2160
  831MPD2    C512221   4.140   0.324  16.635 -0.1254  0.3886 -0.3893
  831MPD2     H12222   4.137   0.076  16.347 -1.1701  0.4341 -0.5952
  831MPD2    H112223   4.000   0.196  16.725 -0.4083 -0.6126 -0.6440
  831MPD2    H212224   4.269   0.440  16.515 -0.6773  1.2561 -0.1968
  831MPD2    H312225   4.128   0.403  16.708  0.5205 -1.2604  1.4884
  831MPD2     N12226   3.992   0.003  16.552  0.3410 -0.5862  0.1560
  831MPD2    H512227   3.937   4.722  16.637 -1.7170  2.1316 -0.9495
  831MPD2    N112228   4.316   0.277  16.318  0.3321  0.3380 -0.4396
  831MPD2    H712229   4.358   0.368  16.306 -0.6286  1.1768  2.6399
  832MPD2     C12230   2.790   1.080  17.544  0.3168  0.8266  0.5609
  832MPD2    C112231   2.730   1.199  17.501  0.3523  0.0821 -0.5251
  832MPD2    C212232   2.612   1.196  17.432 -0.0340 -0.0481 -0.0980
  832MPD2    C312233   2.555   1.076  17.406  0.2489 -0.1626  0.3670
  832MPD2    C412234   2.615   0.959  17.439  0.0890 -0.6722  0.8350
  832MPD2    C512235   2.727   0.963  17.514 -0.3523 -0.3351  0.2315
  832MPD2     H12236   2.558   1.288  17.411  0.8708  0.8231  1.3014
  832MPD2    H112237   2.573   0.864  17.408  0.2341  0.0160 -1.4013
  832MPD2    H212238   2.886   1.083  17.592 -0.0418  2.7323  1.1520
  832MPD2    H312239   2.770   0.870  17.547  1.5801 -0.0994 -1.6645
  832MPD2     N12240   2.426   1.062  17.344  0.0310 -0.3412  0.3490
  832MPD2    H512241   2.378   0.973  17.355  1.4735 -1.5261 -3.2609
  832MPD2    N112242   2.795   1.319  17.535  0.2713  0.2487 -0.4335
  832MPD2    H712243   2.870   1.313  17.603 -1.0079 -1.2334  0.8403
  833MPD2     C12244   4.622   2.043  12.321  0.0495  0.1867  0.5318
  833MPD2    C112245   4.654   2.172  12.303 -0.3265 -0.0792 -0.1627
  833MPD2    C212246   0.059   2.202  12.288 -0.0518 -0.1111  0.0808
  833MPD2    C312247   0.155   2.103  12.285 -0.6322 -0.0024 -0.6645
  833MPD2    C412248   0.121   1.971  12.311  0.2873 -0.4505  0.2284
  833MPD2    C512249   4.712   1.942  12.319 -0.3379  0.3618 -0.2170
  833MPD2     H12250   0.096   2.303  12.277  0.3624 -0.3906 -1.1290
  833MPD2    H112251   0.198   1.895  12.320  3.7316  3.3086  2.6900
  833MPD2    H212252   4.520   2.007  12.328  0.4030 -1.0197 -0.5599
  833MPD2    H312253   4.675   1.840  12.328 -0.5492  0.3731 -0.9990
  833MPD2     N12254   0.284   2.147  12.266  0.2171 -0.4404  0.3633
  833MPD2    H512255   0.290   2.249  12.260 -0.0082 -0.4997 -0.9091
  833MPD2    N112256   4.551   2.273  12.290 -0.0271 -0.0385  0.4991
  833MPD2    H712257   4.460   2.231  12.275 -0.7702  0.4739  3.6163
  834MPD2     C12258   0.677   2.001  11.457  0.2033 -1.5098  0.6154
  834MPD2    C112259   0.573   1.950  11.532  0.2534 -0.7217  0.3189
  834MPD2    C212260   0.545   2.006  11.651 -1.0343  0.3169  0.2123
  834MPD2    C312261   0.622   2.110  11.702 -0.3815  0.1638  0.5165
  834MPD2    C412262   0.720   2.174  11.624 -0.4377  0.1660  0.2616
  834MPD2    C512263   0.743   2.118  11.501  0.4432 -0.4190 -0.1819
  834MPD2     H12264   0.464   1.977  11.716 -0.6506 -0.3137  0.4069
  834MPD2    H112265   0.785   2.252  11.662  2.3719 -2.3250  0.4897
  834MPD2    H212266   0.700   1.962  11.359  2.4343  0.9177  0.1784
  834MPD2    H312267   0.820   2.163  11.439  0.8910  0.7268  1.2038
  834MPD2     N12268   0.598   2.148  11.835  0.1194  0.5940 -0.6037
  834MPD2    H512269   0.524   2.104  11.889 -0.6333  2.3627 -0.1752
  834MPD2    N112270   0.502   1.836  11.483 -0.2352 -0.0684  0.2066
  834MPD2    H712271   0.541   1.800  11.396  0.3342 -0.3583  0.5762
  835MPD2     C12272   4.517   4.678  11.079 -0.0419  0.0302  0.1221
  835MPD2    C112273   4.395   0.011  11.109  0.0922 -0.4930 -0.2658
  835MPD2    C212274   4.385   0.083  11.233 -0.1850  0.6494 -0.1010
  835MPD2    C312275   4.489   0.071  11.320  0.9204  0.2353 -0.5776
  835MPD2    C412276   4.604   0.001  11.287 -0.4807  0.0709 -0.7157
  835MPD2    C512277   4.620   4.673  11.165 -0.0713 -0.1160 -0.2553
  835MPD2     H12278   4.297   0.144  11.250  0.7316  2.0756 -0.5032
  835MPD2    H112279   4.692   0.005  11.349 -3.2704 -3.1583  3.4603
  835MPD2    H212280   4.531   4.619  10.988 -2.3391  0.8020 -0.7339
  835MPD2    H312281   4.715   4.628  11.138  0.1402  1.4624 -2.1490
  835MPD2     N12282   4.479   0.117  11.456  0.0603  0.7457  0.3945
  835MPD2    H512283   4.549   0.074  11.516 -1.0170  0.9541  1.7873
  835MPD2    N112284   4.278   4.721  11.029 -0.4363  0.0874 -0.3451
  835MPD2    H712285   4.197   0.035  11.075  0.0135 -0.6172  1.0794
  836MPD2     C12286   3.911   0.540  11.841  0.1582 -0.7646  0.8579
  836MPD2    C112287   3.998   0.474  11.923 -0.2022  0.0214 -0.1795
  836MPD2    C212288   3.972   0.444  12.056 -0.1049 -0.7674  0.3917
  836MPD2    C312289   3.850   0.489  12.105 -0.6018  0.4033  0.3785
  836MPD2    C412290   3.760   0.551  12.023  0.9457 -0.3232  0.2942
  836MPD2    C512291   3.794   0.576  11.893 -0.8098  0.1451  0.0574
  836MPD2     H12292   4.052   0.413  12.123 -0.9627  1.7477  2.5865
  836MPD2    H112293   3.663   0.578  12.065  0.5263 -0.5888 -0.5103
  836MPD2    H212294   3.937   0.557  11.737 -3.0662  0.7358  0.2749
  836MPD2    H312295   3.722   0.618  11.824 -0.1521  0.8934 -0.1754
  836MPD2     N12296   3.817   0.485  12.244 -0.0599 -0.4091 -1.4329
  836MPD2    H512297   3.732   0.534  12.270  0.5905 -0.3783  0.6066
  836MPD2    N112298   4.119   0.432  11.861 -0.6811 -0.1971  0.3113
  836MPD2    H712299   4.133   0.456  11.764  2.5813  0.6577  0.9821
  837MPD2     C12300   2.618   4.449  10.271 -0.5327  0.3572  0.2050
  837MPD2    C112301   2.486   4.476  10.272 -0.4958  0.0222 -0.3023
  837MPD2    C212302   2.452   4.599  10.316  0.1692  0.7191 -0.1837
  837MPD2    C312303   2.553   4.690  10.349 -0.0158 -0.3321 -0.4655
  837MPD2    C412304   2.683   4.656  10.341 -0.2230  0.0860  0.1194
  837MPD2    C512305   2.715   4.533  10.303 -0.1818  0.2772  0.1903
  837MPD2     H12306   2.352   4.640  10.321 -1.9762 -4.3253 -0.8507
  837MPD2    H112307   2.759   4.718  10.387 -1.7993  1.0453  1.4253
  837MPD2    H212308   2.652   4.346  10.263  1.8743  1.2163 -0.7924
  837MPD2    H312309   2.819   4.506  10.320  0.1038  0.9314 -0.5217
  837MPD2     N12310   2.508   0.093  10.388  0.4168 -0.2806  0.2288
  837MPD2    H512311   2.409   0.117  10.385  0.3423 -0.5121  0.8462
  837MPD2    N112312   2.385   4.396  10.218 -1.2210 -0.1695  0.0817
  837MPD2    H712313   2.295   4.441  10.229 -0.9884  0.6870 -1.4686
  838MPD2     C12314   1.493   3.121  12.314  0.6219 -0.1284 -0.0045
  838MPD2    C112315   1.448   2.993  12.303  0.9048  0.0242  0.3767
  838MPD2    C212316   1.329   2.958  12.370 -0.1728 -0.4761 -1.1531
  838MPD2    C312317   1.254   3.052  12.429 -0.5208 -0.7759  0.3870
  838MPD2    C412318   1.301   3.179  12.438 -0.1285  0.2504 -0.1915
  838MPD2    C512319   1.422   3.217  12.378 -0.4474  0.2212  0.3879
  838MPD2     H12320   1.295   2.855  12.364  2.2387 -1.4796  1.9074
  838MPD2    H112321   1.241   3.258  12.481 -3.0361 -0.8777 -2.1739
  838MPD2    H212322   1.587   3.148  12.269  1.1125 -1.3293  0.2846
  838MPD2    H312323   1.454   3.320  12.382 -0.7037  0.3898 -2.0489
  838MPD2     N12324   1.130   3.012  12.493 -0.3170  0.0206 -0.5220
  838MPD2    H512325   1.105   2.917  12.470  1.4750 -0.5670 -0.0394
  838MPD2    N112326   1.508   2.890  12.229 -0.0703  0.3772  0.4884
  838MPD2    H712327   1.459   2.801  12.219  0.0311  0.4372 -0.5255
  839MPD2     C12328   1.293   2.122  12.299  0.3857  0.2505 -0.3367
  839MPD2    C112329   1.323   2.113  12.161  0.7208  0.8193  0.0121
  839MPD2    C212330   1.423   2.201  12.113  0.0187  0.0692 -0.2419
  839MPD2    C312331   1.471   2.302  12.191  0.4465 -0.0566 -0.1896
  839MPD2    C412332   1.433   2.313  12.326 -0.0959 -0.5418  0.6404
  839MPD2    C512333   1.340   2.224  12.380  0.4813 -1.0310 -0.1308
  839MPD2     H12334   1.450   2.200  12.008  2.8021  1.9354  0.4549
  839MPD2    H112335   1.463   2.398  12.386 -0.8687 -0.0893  0.3880
  839MPD2    H212336   1.216   2.064  12.348  2.6184  1.6469  4.8799
  839MPD2    H312337   1.322   2.227  12.487 -0.4667  2.6249 -0.4003
  839MPD2     N12338   1.541   2.416  12.134 -0.5435 -0.2643 -0.4494
  839MPD2    H512339   1.592   2.476  12.199 -0.4154 -0.8348 -0.0247
  839MPD2    N112340   1.253   2.031  12.074 -0.2960  0.0197 -0.2913
  839MPD2    H712341   1.290   2.040  11.979 -0.0047  2.1445  0.0210
  840MPD2     C12342   1.075   0.095  10.577  0.1945  0.4291 -0.4578
  840MPD2    C112343   1.115   0.021  10.683 -0.2880 -0.2549  0.2408
  840MPD2    C212344   1.216   0.082  10.759  0.2580 -0.7165  0.1382
  840MPD2    C312345   1.269   0.204  10.736 -1.0111 -0.6513 -1.0802
  840MPD2    C412346   1.228   0.278  10.630  0.7343 -0.8280 -0.0731
  840MPD2    C512347   1.131   0.219  10.552  0.8428 -0.2036  0.1246
  840MPD2     H12348   1.246   0.023  10.846  0.7417 -1.0128 -0.2296
  840MPD2    H112349   1.273   0.374  10.607 -0.2653 -0.3423 -0.0022
  840MPD2    H212350   1.001   0.059  10.505  0.0582  1.3290 -0.7662
  840MPD2    H312351   1.104   0.274  10.463 -2.3876 -0.7190  0.7631
  840MPD2     N12352   1.367   0.266  10.822  0.4217  0.3812  0.2200
  840MPD2    H512353   1.386   0.359  10.788  0.4981  0.3260  0.1118
  840MPD2    N112354   1.044   4.627  10.722  0.5489  0.0830 -0.0278
  840MPD2    H712355   0.970   4.595  10.660  0.5756  2.1348 -1.1087
  841MPD2     C12356   1.486   0.224  14.545  0.1428  0.3751  0.0299
  841MPD2    C112357   1.507   0.163  14.668  0.5421 -0.0954 -0.3975
  841MPD2    C212358   1.570   0.232  14.766 -0.1361  0.4386 -0.0772
  841MPD2    C312359   1.620   0.361  14.744  0.1773  0.5005  0.4406
  841MPD2    C412360   1.612   0.413  14.617 -0.0864 -0.2995 -0.0929
  841MPD2    C512361   1.538   0.346  14.522  0.3782  0.6692  0.0775
  841MPD2     H12362   1.582   0.191  14.865 -0.1969 -0.9039 -0.6134
  841MPD2    H112363   1.644   0.515  14.597 -2.3470  0.2973 -0.7228
  841MPD2    H212364   1.437   0.170  14.465  0.4265  0.6373 -0.3160
  841MPD2    H312365   1.523   0.389  14.423  0.9667 -0.8430 -0.6650
  841MPD2     N12366   1.669   0.437  14.858 -0.1729 -0.3888 -0.3733
  841MPD2    H512367   1.675   0.387  14.946  1.5022 -0.8667 -0.7442
  841MPD2    N112368   1.458   0.026  14.681 -0.3160 -0.4379  0.6755
  841MPD2    H712369   1.419   4.709  14.597  0.7892  1.1227 -0.6203
  842MPD2     C12370   1.452   0.951  16.705 -0.5913  0.3747  0.1418
  842MPD2    C112371   1.471   1.090  16.684 -0.0397  0.5885  0.1051
  842MPD2    C212372   1.485   1.161  16.800  0.0480 -0.9276  0.7382
  842MPD2    C312373   1.523   1.102  16.921 -0.4507 -0.0601  0.4640
  842MPD2    C412374   1.524   0.963  16.935 -0.2952  0.0377 -0.6902
  842MPD2    C512375   1.485   0.891  16.823  0.2550  0.4852 -0.5805
  842MPD2     H12376   1.493   1.269  16.790 -2.2870 -0.5626  2.9377
  842MPD2    H112377   1.547   0.910  17.027 -1.1552  0.2972 -0.3294
  842MPD2    H212378   1.445   0.886  16.619  0.6416 -0.5051  0.6905
  842MPD2    H312379   1.480   0.783  16.825 -0.3241  0.5404  1.9988
  842MPD2     N12380   1.547   1.179  17.032  0.5946  0.6559 -0.2858
  842MPD2    H512381   1.576   1.125  17.113  0.5129 -0.2419 -0.8571
  842MPD2    N112382   1.455   1.150  16.554 -0.0233  0.0429 -0.3988
  842MPD2    H712383   1.431   1.086  16.479 -1.1972 -1.3028  1.1255
  843MPD2     C12384   3.688   1.759   0.384  0.1330 -0.2526  0.2677
  843MPD2    C112385   3.690   1.780   0.516 -0.1744  0.3654  0.6094
  843MPD2    C212386   3.736   1.898   0.572  0.4550 -0.4959 -0.2619
  843MPD2    C312387   3.803   1.990   0.491 -0.4645 -0.4206 -0.8316
  843MPD2    C412388   3.807   1.968   0.351  1.4966 -0.1596  0.1467
  843MPD2    C512389   3.749   1.853   0.302 -0.2280  0.5221  0.4299
  843MPD2     H12390   3.739   1.913   0.679 -0.1041  1.7119 -0.5693
  843MPD2    H112391   3.852   2.040   0.284  2.0472  2.2552  3.1105
  843MPD2    H212392   3.634   1.676   0.338  2.9341 -1.6297 -0.5846
  843MPD2    H312393   3.762   1.832   0.197 -1.5828  0.7314  0.2298
  843MPD2     N12394   3.869   2.100   0.546 -0.5136  0.3983  0.6876
  843MPD2    H512395   3.896   2.171   0.479 -0.0324  0.0551  0.5150
  843MPD2    N112396   3.632   1.678   0.602  0.4883 -0.7388  0.8444
  843MPD2    H712397   3.585   1.603   0.552 -4.0628  2.1424  0.6934
  844MPD2     C12398   2.163   0.700  17.113  0.3232 -0.8506 -0.3104
  844MPD2    C112399   2.135   0.816  17.040  0.4479  0.5470 -0.1310
  844MPD2    C212400   2.227   0.914  17.028 -0.3167 -0.8268 -0.9655
  844MPD2    C312401   2.356   0.888  17.063 -0.2388  0.2237  0.2271
  844MPD2    C412402   2.389   0.776  17.139  0.2884 -0.0422 -0.8362
  844MPD2    C512403   2.291   0.680  17.160  0.3632  0.0690 -0.3123
  844MPD2     H12404   2.208   1.007  16.975 -1.6058  2.3283  4.9626
  844MPD2    H112405   2.488   0.757  17.180 -0.2581 -1.2003 -0.0563
  844MPD2    H212406   2.094   0.621  17.140 -3.1624  1.9333 -1.0892
  844MPD2    H312407   2.324   0.588  17.208 -0.9428 -0.5420 -0.5887
  844MPD2     N12408   2.451   0.984  17.023 -0.1729  0.2007  0.6154
  844MPD2    H512409   2.422   1.070  16.978 -1.4660 -0.3773  0.3391
  844MPD2    N112410   2.006   0.838  16.979  0.0060 -0.0221 -0.1308
  844MPD2    H712411   1.988   0.928  16.936  4.4883  2.0958  2.3287
  845MPD2     C12412   2.415   1.913  17.191 -0.1541 -0.2161 -0.0760
  845MPD2    C112413   2.471   1.850  17.299  0.0992  0.2777 -0.8042
  845MPD2    C212414   2.502   1.715  17.288 -0.3769 -0.4811 -0.1773
  845MPD2    C312415   2.475   1.646  17.172  0.3410  0.4341 -0.6146
  845MPD2    C412416   2.412   1.712  17.067  0.3410  0.0350 -0.0212
  845MPD2    C512417   2.376   1.844  17.083 -0.3393  0.3796 -0.0299
  845MPD2     H12418   2.555   1.669  17.370  1.5488 -0.9906 -1.7122
  845MPD2    H112419   2.391   1.667  16.970  2.0017 -1.3948  0.2840
  845MPD2    H212420   2.390   2.018  17.198 -1.1906 -0.4813  0.2094
  845MPD2    H312421   2.327   1.896  17.002 -1.2498 -3.9165 -2.2590
  845MPD2     N12422   2.528   1.518  17.159  0.1774  0.1261  0.3823
  845MPD2    H512423   2.590   1.489  17.233  0.3646 -1.5912 -0.4648
  845MPD2    N112424   2.507   1.937  17.407 -0.4247 -0.2898  0.1694
  845MPD2    H712425   2.483   2.036  17.408 -0.7671 -0.3803  0.9054
  846MPD2     C12426   3.976   2.273  13.790  0.0927  0.0977 -0.1056
  846MPD2    C112427   3.930   2.404  13.812  0.2577  0.1177 -0.4862
  846MPD2    C212428   3.891   2.439  13.939  0.6514  0.2581 -1.0505
  846MPD2    C312429   3.887   2.344  14.039 -0.6542  0.5639 -0.4858
  846MPD2    C412430   3.939   2.221  14.018  0.5977  0.4874 -0.6130
  846MPD2    C512431   3.984   2.185  13.895 -0.2500  0.1364  0.1434
  846MPD2     H12432   3.854   2.539  13.961  1.1904  0.5141 -1.3202
  846MPD2    H112433   3.934   2.138  14.089  0.9937 -0.1238 -1.3034
  846MPD2    H212434   4.006   2.244  13.691  1.3428  0.3996  0.1867
  846MPD2    H312435   4.018   2.088  13.862 -0.1417 -0.1558  1.1363
  846MPD2     N12436   3.828   2.371  14.162  0.0238  0.4458  0.4547
  846MPD2    H512437   3.777   2.459  14.165  0.1219  0.4941  0.7002
  846MPD2    N112438   3.928   2.500  13.708 -0.2533  0.0379 -0.5336
  846MPD2    H712439   3.896   2.594  13.731  1.2850 -0.1670  2.3497
  847MPD2     C12440   4.083   3.271  14.215 -0.0072 -0.5861 -0.5180
  847MPD2    C112441   4.116   3.239  14.342 -0.0893 -0.1459 -0.4721
  847MPD2    C212442   4.112   3.104  14.374  0.7339  0.3643 -0.5025
  847MPD2    C312443   4.094   3.006  14.276 -0.4422 -0.1374 -0.4340
  847MPD2    C412444   4.067   3.042  14.150  0.2650 -0.9316 -0.0642
  847MPD2    C512445   4.068   3.175  14.118  0.3062  0.2763  0.3333
  847MPD2     H12446   4.129   3.068  14.475 -1.0060  2.6970  0.6131
  847MPD2    H112447   4.046   2.970  14.072 -1.3023 -0.6126  0.0812
  847MPD2    H212448   4.067   3.368  14.168  1.5164 -0.1607 -0.1822
  847MPD2    H312449   4.060   3.212  14.016 -3.5182  1.0814  0.9324
  847MPD2     N12450   4.092   2.877  14.323 -0.4926  0.1598  0.1195
  847MPD2    H512451   4.109   2.871  14.423  0.5875  0.8710 -0.0159
  847MPD2    N112452   4.136   3.335  14.450  0.1925  0.3028 -0.4732
  847MPD2    H712453   4.135   3.295  14.543  1.0232 -2.9594 -1.8595
  848MPD2     C12454   1.845   1.329  16.812 -0.2196  0.6719  0.6860
  848MPD2    C112455   1.928   1.391  16.903 -0.0015  0.1071 -0.2594
  848MPD2    C212456   1.949   1.534  16.911  0.4525 -0.0296 -0.1037
  848MPD2    C312457   1.872   1.610  16.828 -0.3152 -0.7752  0.0935
  848MPD2    C412458   1.785   1.552  16.732 -0.2684 -0.2388  0.6725
  848MPD2    C512459   1.776   1.415  16.722  0.3587 -0.2598  0.0396
  848MPD2     H12460   2.018   1.575  16.983 -0.5594  3.5023 -1.1445
  848MPD2    H112461   1.734   1.617  16.661  1.0638  0.1058  0.0215
  848MPD2    H212462   1.826   1.223  16.798 -0.0364  0.9840 -1.8749
  848MPD2    H312463   1.721   1.377  16.637 -0.1006 -1.5736  0.9176
  848MPD2     N12464   1.867   1.753  16.835  0.4313  0.1602  0.1539
  848MPD2    H512465   1.799   1.795  16.772 -0.3755  0.8646  1.4895
  848MPD2    N112466   1.982   1.323  17.013  0.1091  0.3356 -0.1239
  848MPD2    H712467   2.033   1.379  17.081  0.7799 -2.4702  1.7048
  849MPD2     C12468   1.682   0.962  14.906 -0.3525 -0.3175  0.1779
  849MPD2    C112469   1.616   0.980  14.787 -0.8530 -0.6583  0.4195
  849MPD2    C212470   1.586   1.110  14.744 -0.4909 -0.1877  0.3599
  849MPD2    C312471   1.636   1.217  14.818 -0.0329  0.1956  0.0891
  849MPD2    C412472   1.714   1.196  14.929 -0.7463  0.5415 -0.6378
  849MPD2    C512473   1.735   1.068  14.974 -0.2577  0.7444  0.3070
  849MPD2     H12474   1.514   1.124  14.664  1.5078  0.1313 -1.3763
  849MPD2    H112475   1.750   1.279  14.989  2.1872 -0.9962 -0.2651
  849MPD2    H212476   1.696   0.867  14.956  0.0842  0.2592  1.1499
  849MPD2    H312477   1.783   1.057  15.071 -2.0313  0.0682  1.1108
  849MPD2     N12478   1.632   1.352  14.772 -0.3839 -0.3939  0.1150
  849MPD2    H512479   1.694   1.420  14.814  0.4314 -0.6732 -0.6376
  849MPD2    N112480   1.582   0.867  14.708  0.2021 -0.1165 -0.1911
  849MPD2    H712481   1.621   0.775  14.729 -0.0228  0.3522  2.2496
  850MPD2     C12482   4.043   3.863  15.053 -0.7232 -0.0281  0.2780
  850MPD2    C112483   4.098   3.862  15.170 -0.1889  0.3923 -0.0150
  850MPD2    C212484   4.218   3.927  15.196  0.0691 -0.3154 -0.3860
  850MPD2    C312485   4.279   4.004  15.098  0.4526 -0.3226 -0.1859
  850MPD2    C412486   4.223   4.010  14.967 -0.2132  0.1328  0.0879
  850MPD2    C512487   4.106   3.936  14.953  0.5496  0.5553 -0.4287
  850MPD2     H12488   4.267   3.903  15.289  0.2062 -1.9397 -0.8622
  850MPD2    H112489   4.269   4.072  14.891 -0.2415  1.6517  1.3029
  850MPD2    H212490   3.948   3.813  15.035 -1.1064  0.6602  0.3653
  850MPD2    H312491   4.063   3.938  14.853  1.6120 -3.6564 -0.9788
  850MPD2     N12492   4.411   4.051  15.111  0.3201 -0.7737 -0.3634
  850MPD2    H512493   4.443   4.116  15.040 -1.1976 -0.0830 -0.4305
  850MPD2    N112494   4.023   3.792  15.271  0.1151  0.1527  0.0578
  850MPD2    H712495   3.946   3.729  15.254  0.0543  0.6078 -1.2692
  851MPD2     C12496   4.330   3.330  15.890  0.1003  0.3029 -0.7786
  851MPD2    C112497   4.280   3.294  15.763 -0.4485 -0.0302 -0.1379
  851MPD2    C212498   4.324   3.180  15.706  0.2304  0.3346  0.1221
  851MPD2    C312499   4.392   3.083  15.778 -0.3770 -0.7744  0.3998
  851MPD2    C412500   4.429   3.119  15.907 -0.3023 -0.1693  0.0660
  851MPD2    C512501   4.395   3.234  15.961  0.0338  0.2162  1.0314
  851MPD2     H12502   4.290   3.157  15.606  1.5398  0.0828 -0.2609
  851MPD2    H112503   4.491   3.052  15.966  0.7273  0.9498  0.2354
  851MPD2    H212504   4.296   3.421  15.939  1.3665 -0.0631  0.7966
  851MPD2    H312505   4.420   3.252  16.065 -0.6773 -0.2659  1.2845
  851MPD2     N12506   4.406   2.956  15.716 -0.0563 -0.3165 -0.0781
  851MPD2    H512507   4.357   2.946  15.628  1.2458  0.9048 -0.9175
  851MPD2    N112508   4.192   3.387  15.697 -0.2743 -0.2743 -0.3691
  851MPD2    H712509   4.173   3.472  15.749  1.0924 -0.8199  1.0177
  852MPD2     C12510   3.713   2.311  10.801 -0.4472 -0.1146  0.1777
  852MPD2    C112511   3.748   2.182  10.819  0.1269  0.4159  0.5353
  852MPD2    C212512   3.872   2.139  10.772  0.4947 -0.0255  0.1106
  852MPD2    C312513   3.954   2.221  10.711  0.6449 -0.5367  0.3489
  852MPD2    C412514   3.920   2.351  10.692  0.2884 -0.1179 -0.4153
  852MPD2    C512515   3.804   2.397  10.740  0.1763  0.1447  0.0158
  852MPD2     H12516   3.914   2.042  10.797 -0.3561 -0.7320 -1.2173
  852MPD2    H112517   3.983   2.416  10.633 -0.0411 -0.1906 -0.8486
  852MPD2    H212518   3.611   2.347  10.813  0.5715  3.0464 -0.5956
  852MPD2    H312519   3.775   2.498  10.713 -0.6887 -0.1970 -0.3360
  852MPD2     N12520   4.077   2.162  10.663  0.2244 -0.5585 -0.0242
  852MPD2    H512521   4.110   2.068  10.681 -1.2793 -1.2334 -0.8000
  852MPD2    N112522   3.661   2.091  10.883  0.2785  0.2676 -0.2304
  852MPD2    H712523   3.712   2.006  10.904 -1.8438 -1.8798 -3.8228
  853MPD2     C12524   0.964   1.440  12.780 -0.1672 -0.0381 -0.7002
  853MPD2    C112525   0.825   1.439  12.762  0.2539  0.5214  0.0728
  853MPD2    C212526   0.774   1.370  12.653  0.7974  0.3068  0.1948
  853MPD2    C312527   0.854   1.289  12.572  0.3495  0.6118  0.4668
  853MPD2    C412528   0.989   1.285  12.596 -0.2697  0.8651  0.0524
  853MPD2    C512529   1.040   1.360  12.694  0.1876 -0.2348  0.7060
  853MPD2     H12530   0.670   1.384  12.629  0.2074 -1.0040  2.0318
  853MPD2    H112531   1.062   1.233  12.534 -0.1375 -0.1666  1.0654
  853MPD2    H212532   1.018   1.501  12.851  1.4801  0.2211 -2.1856
  853MPD2    H312533   1.147   1.361  12.711  0.0619 -1.3498  1.5454
  853MPD2     N12534   0.792   1.223  12.458  0.8044 -0.2167  0.3362
  853MPD2    H512535   0.851   1.149  12.421  1.0531 -0.4276  1.1551
  853MPD2    N112536   0.742   1.513  12.853 -0.0567 -0.1070 -0.0139
  853MPD2    H712537   0.789   1.563  12.928 -1.8464 -0.5658  1.3973
  854MPD2     C12538   2.243   1.299  12.824 -0.1430  0.4905 -0.2168
  854MPD2    C112539   2.351   1.386  12.841 -0.1009  0.1118 -0.5139
  854MPD2    C212540   2.442   1.368  12.943 -0.4326  0.2744  0.3293
  854MPD2    C312541   2.441   1.254  13.024 -0.1804 -0.6319 -0.0702
  854MPD2    C412542   2.336   1.163  13.004 -0.4804 -0.6846 -1.0467
  854MPD2    C512543   2.241   1.190  12.909 -0.4390  0.3584  0.6367
  854MPD2     H12544   2.524   1.437  12.956  0.2204 -0.3731 -0.3559
  854MPD2    H112545   2.320   1.077  13.069 -2.7628  1.9934  1.9448
  854MPD2    H212546   2.180   1.291  12.737 -1.1896  2.3737  0.3740
  854MPD2    H312547   2.162   1.116  12.906 -1.1222  0.9762  3.3617
  854MPD2     N12548   2.551   1.220  13.109  0.4058  0.4699  0.1069
  854MPD2    H512549   2.545   1.129  13.154 -1.7290  0.1387 -0.8890
  854MPD2    N112550   2.361   1.485  12.740 -0.1040 -0.1164 -0.4049
  854MPD2    H712551   2.284   1.494  12.675  0.7007 -1.9092 -1.6119
  855MPD2     C12552   2.928   1.590  13.906 -0.1778 -0.2633 -0.1003
  855MPD2    C112553   2.979   1.458  13.906  0.3354  0.3171  0.4737
  855MPD2    C212554   2.984   1.394  13.786 -0.9957 -0.8727 -0.3690
  855MPD2    C312555   2.951   1.451  13.663 -0.6562  0.1100 -0.1477
  855MPD2    C412556   2.921   1.589  13.667  0.2016  0.6220  0.3437
  855MPD2    C512557   2.901   1.657  13.788  0.5670  0.9055 -0.2622
  855MPD2     H12558   3.020   1.292  13.780  1.0093 -0.0842 -2.0549
  855MPD2    H112559   2.904   1.642  13.574  1.6155 -0.9417 -0.7936
  855MPD2    H212560   2.918   1.648  13.997 -1.7354 -1.5671  0.5626
  855MPD2    H312561   2.851   1.753  13.785 -0.3529  0.4671  1.2179
  855MPD2     N12562   2.933   1.378  13.539  0.0427 -0.5477  0.3772
  855MPD2    H512563   2.907   1.432  13.457 -0.0699  1.8741  2.0133
  855MPD2    N112564   3.003   1.386  14.022  0.0075 -0.2385 -0.6998
  855MPD2    H712565   3.061   1.303  14.012  1.4963  0.8480 -1.0451
  856MPD2     C12566   0.537   2.780  13.860  0.6435  0.4420  0.0022
  856MPD2    C112567   0.556   2.913  13.886 -0.7524 -0.4380  0.5391
  856MPD2    C212568   0.453   2.999  13.887  0.5970 -0.2339 -0.6629
  856MPD2    C312569   0.325   2.952  13.855 -0.4767  0.1189  0.7102
  856MPD2    C412570   0.303   2.826  13.814 -0.9436 -0.4376 -0.6841
  856MPD2    C512571   0.412   2.736  13.828 -0.1125 -0.7277 -1.0511
  856MPD2     H12572   0.475   3.104  13.906 -0.8875  0.0294 -0.4213
  856MPD2    H112573   0.202   2.786  13.802 -1.3471  0.7315 -1.1756
  856MPD2    H212574   0.615   2.705  13.870 -0.7427 -1.2549 -2.0587
  856MPD2    H312575   0.401   2.628  13.832  1.4345 -0.8842 -1.1158
  856MPD2     N12576   0.208   3.041  13.867 -0.4684  0.0983 -0.1382
  856MPD2    H512577   0.124   3.000  13.828 -0.7813  0.3419  0.2768
  856MPD2    N112578   0.684   2.967  13.915 -0.0024 -0.6215  0.4089
  856MPD2    H712579   0.688   3.068  13.928  0.1590 -0.9068  2.5162
  857MPD2     C12580   1.440   4.322  13.274  0.2730 -0.4709 -0.1699
  857MPD2    C112581   1.539   4.344  13.178 -0.1716 -1.1816  0.4565
  857MPD2    C212582   1.610   4.466  13.179  0.2419 -0.4796  0.2403
  857MPD2    C312583   1.586   4.565  13.267  0.0370 -0.2215  0.5223
  857MPD2    C412584   1.490   4.538  13.364 -0.3669 -0.1730  0.1616
  857MPD2    C512585   1.420   4.423  13.367  0.1120  0.0800  0.1264
  857MPD2     H12586   1.692   4.484  13.111 -0.6886  1.8031 -0.2494
  857MPD2    H112587   1.454   4.606  13.440 -1.0480  0.0352 -0.3437
  857MPD2    H212588   1.373   4.236  13.279  0.3796 -0.3886  2.9166
  857MPD2    H312589   1.334   4.411  13.432  0.6101  2.9045  1.3314
  857MPD2     N12590   1.647   4.693  13.258 -0.0267  0.3712 -0.0614
  857MPD2    H512591   1.715   4.711  13.185  0.5315 -1.0813  0.1089
  857MPD2    N112592   1.577   4.235  13.101 -0.5049  0.1264 -0.4255
  857MPD2    H712593   1.532   4.152  13.139 -2.4908  0.7323 -1.4760
  858MPD2     C12594   2.146   3.721  16.977 -0.4575 -0.2888 -0.2011
  858MPD2    C112595   2.283   3.694  16.965 -0.6499 -0.2688 -1.2708
  858MPD2    C212596   2.373   3.777  17.030  0.6495  0.4236  0.5771
  858MPD2    C312597   2.325   3.895  17.095  0.3403  0.2215  0.9851
  858MPD2    C412598   2.186   3.912  17.107 -0.0144  0.4690  0.3565
  858MPD2    C512599   2.101   3.826  17.044 -0.1257 -0.1454 -0.6015
  858MPD2     H12600   2.479   3.757  17.029  0.2044 -1.8765 -1.6466
  858MPD2    H112601   2.139   3.977  17.180 -2.0486 -0.7055  0.0959
  858MPD2    H212602   2.070   3.656  16.936 -2.9402  1.6945  1.2551
  858MPD2    H312603   1.995   3.849  17.048 -0.1733 -0.4340 -0.1339
  858MPD2     N12604   2.403   3.990  17.169  0.5137  0.1439 -0.1857
  858MPD2    H512605   2.346   4.050  17.227 -2.5070 -0.6107 -2.3986
  858MPD2    N112606   2.320   3.576  16.904 -0.2507 -0.3106 -0.4683
  858MPD2    H712607   2.239   3.521  16.875  0.0432 -0.2369 -1.4379
  859MPD2     C12608   0.902   1.456  15.613 -0.1943 -0.4936 -0.6028
  859MPD2    C112609   1.023   1.400  15.582 -0.1167  0.3481 -0.3980
  859MPD2    C212610   1.059   1.283  15.642  0.1177  0.0402 -0.4174
  859MPD2    C312611   0.972   1.216  15.725 -0.2987  0.3435 -0.5268
  859MPD2    C412612   0.856   1.282  15.763  0.5026 -0.6501  0.7357
  859MPD2    C512613   0.820   1.392  15.700  0.6081  0.7361 -0.1163
  859MPD2     H12614   1.148   1.229  15.611  0.4130  0.4326 -0.2630
  859MPD2    H112615   0.797   1.231  15.839  0.2576 -0.4218  0.6967
  859MPD2    H212616   0.866   1.549  15.570  2.7270  0.7521 -0.3559
  859MPD2    H312617   0.724   1.433  15.727  0.6197  1.7389 -1.6096
  859MPD2     N12618   1.000   1.094  15.786 -0.0815  0.1088 -0.0559
  859MPD2    H512619   0.943   1.063  15.864  0.7898 -1.7485 -0.1306
  859MPD2    N112620   1.116   1.473  15.500 -0.2006 -0.1885 -0.1034
  859MPD2    H712621   1.084   1.557  15.453  0.1327 -0.6882 -1.2056
  860MPD2     C12622   4.151   0.760  12.239  0.2699  0.2938  0.2725
  860MPD2    C112623   4.100   0.744  12.364 -0.0600  0.3956  0.0685
  860MPD2    C212624   3.970   0.777  12.392 -0.4623  0.2024  0.4743
  860MPD2    C312625   3.890   0.825  12.293 -0.6648 -0.6294  0.0376
  860MPD2    C412626   3.941   0.848  12.171  0.1388 -0.5909  0.0231
  860MPD2    C512627   4.067   0.815  12.140  0.0086  0.0601 -0.5175
  860MPD2     H12628   3.926   0.764  12.491  0.3816 -0.2033  0.7962
  860MPD2    H112629   3.872   0.872  12.090  0.3069 -0.1483  0.0106
  860MPD2    H212630   4.255   0.740  12.214  0.0409 -1.9953  1.1853
  860MPD2    H312631   4.114   0.832  12.044 -1.3052 -0.8247 -1.3180
  860MPD2     N12632   3.756   0.868  12.331  0.6707  0.4746 -0.5212
  860MPD2    H512633   3.721   0.855  12.426  1.8463  2.4788  0.1712
  860MPD2    N112634   4.181   0.713  12.467  0.5885  0.5961 -0.9724
  860MPD2    H712635   4.137   0.705  12.558  0.5438  2.3185 -0.8428
  861MPD2     C12636   2.318   4.109  11.506 -0.4073  0.1601 -0.6052
  861MPD2    C112637   2.194   4.112  11.556 -0.3565 -0.2315  0.2085
  861MPD2    C212638   2.086   4.136  11.479 -0.4757  1.0322 -0.0336
  861MPD2    C312639   2.102   4.161  11.345  0.3050  0.1223  0.5654
  861MPD2    C412640   2.229   4.143  11.290  0.0874  0.6536 -0.2050
  861MPD2    C512641   2.336   4.108  11.370  0.6359  0.1761  0.2020
  861MPD2     H12642   1.987   4.120  11.521 -1.7789 -0.0001 -3.4887
  861MPD2    H112643   2.238   4.153  11.182 -0.1202 -0.2899 -0.3136
  861MPD2    H212644   2.404   4.101  11.571 -0.0386 -1.0790 -1.2297
  861MPD2    H312645   2.438   4.097  11.335  0.5556  0.9576 -0.2647
  861MPD2     N12646   2.005   4.203  11.254  0.0890  0.1844  0.3232
  861MPD2    H512647   2.034   4.203  11.157 -0.2368 -0.3421  0.2228
  861MPD2    N112648   2.167   4.081  11.691  0.3543  0.5532 -0.0502
  861MPD2    H712649   2.072   4.073  11.725  0.6705  0.3219  0.7985
  862MPD2     C12650   1.728   4.190  10.626  0.6071  0.4023 -0.3500
  862MPD2    C112651   1.828   4.177  10.712 -0.1978  0.6498 -0.1695
  862MPD2    C212652   1.864   4.051  10.745  0.4632 -0.4858  0.3451
  862MPD2    C312653   1.808   3.934  10.692 -0.1301 -0.0494 -0.4941
  862MPD2    C412654   1.705   3.949  10.605  0.2998 -0.3174 -0.3209
  862MPD2    C512655   1.678   4.080  10.567  0.7714 -0.3164  0.3622
  862MPD2     H12656   1.926   4.034  10.832  0.4256 -0.6687  0.3373
  862MPD2    H112657   1.645   3.870  10.561 -0.4788 -1.4126  2.7319
  862MPD2    H212658   1.674   4.282  10.613 -1.6409 -0.9174 -0.2815
  862MPD2    H312659   1.596   4.096  10.498  0.7362  0.3625  0.5594
  862MPD2     N12660   1.853   3.803  10.736  0.6093 -0.2566  0.0691
  862MPD2    H512661   1.801   3.724  10.698 -2.1625  1.2985  0.6295
  862MPD2    N112662   1.870   4.268  10.803  0.0912  0.3707 -0.5658
  862MPD2    H712663   1.936   4.241  10.876 -1.8511 -1.1836  0.6141
  863MPD2     C12664   1.099   2.745  16.827  0.4083  0.2789  0.1971
  863MPD2    C112665   0.999   2.800  16.901 -0.5794  0.0621 -0.2281
  863MPD2    C212666   1.027   2.855  17.024 -0.9142  0.3980  0.4350
  863MPD2    C312667   1.154   2.839  17.079 -0.3058  0.3441  0.2374
  863MPD2    C412668   1.251   2.789  16.998 -0.0758  0.5682 -0.1064
  863MPD2    C512669   1.229   2.742  16.874 -0.2666 -0.5648  0.3391
  863MPD2     H12670   0.950   2.913  17.073 -2.2068  0.5183 -1.7195
  863MPD2    H112671   1.350   2.764  17.035 -0.9544 -3.2050 -0.3377
  863MPD2    H212672   1.086   2.714  16.724 -0.9798 -1.3100  0.8527
  863MPD2    H312673   1.313   2.713  16.812  0.4116 -0.1825  1.0750
  863MPD2     N12674   1.192   2.875  17.212  0.3242  0.4207  0.0536
  863MPD2    H512675   1.291   2.868  17.233  0.0317  0.3103  1.4012
  863MPD2    N112676   0.870   2.802  16.844  0.1056  0.0690  0.0594
  863MPD2    H712677   0.877   2.774  16.747 -1.1005  0.2177 -0.0651
  864MPD2     C12678   1.432   4.084  17.504  0.1195 -0.6075 -0.0676
  864MPD2    C112679   1.489   4.008  17.413 -0.1496 -0.6210 -0.0388
  864MPD2    C212680   1.596   4.063  17.338  0.0249  0.3210  0.1873
  864MPD2    C312681   1.652   4.186  17.383  0.4174 -0.2884  0.4529
  864MPD2    C412682   1.601   4.258  17.485 -0.5875  0.8990 -0.3911
  864MPD2    C512683   1.485   4.208  17.543 -0.6372 -0.3260  1.2218
  864MPD2     H12684   1.639   4.018  17.248 -0.2689 -0.4741  0.4420
  864MPD2    H112685   1.641   4.353  17.519  0.0710  0.9980 -1.4325
  864MPD2    H212686   1.334   4.062  17.546  0.1292 -0.2903  0.1198
  864MPD2    H312687   1.432   4.263  17.620 -2.7598 -2.3398  1.2160
  864MPD2     N12688   1.758   4.242  17.311  0.5531  0.1580  0.4616
  864MPD2    H512689   1.787   4.333  17.343 -0.8813  0.7294  0.1479
  864MPD2    N112690   1.431   3.881  17.387 -0.0046  0.0593  0.2965
  864MPD2    H712691   1.351   3.865  17.447 -1.0615 -3.7136 -2.1901
  865MPD2     C12692   1.644   4.548  16.532 -0.4035 -0.8852  0.2365
  865MPD2    C112693   1.640   4.429  16.603 -0.7559  0.3760 -0.4792
  865MPD2    C212694   1.689   4.422  16.730  0.3329 -0.3110  0.0044
  865MPD2    C312695   1.739   4.534  16.791  0.1648 -0.0748 -0.8371
  865MPD2    C412696   1.741   4.654  16.723 -0.2283  0.3361  0.2624
  865MPD2    C512697   1.706   4.656  16.590  0.3112  0.2494  0.1289
  865MPD2     H12698   1.684   4.325  16.780 -1.8493  0.2211  0.8080
  865MPD2    H112699   1.768   0.026  16.760 -0.9249  0.1725  1.1887
  865MPD2    H212700   1.617   4.545  16.427  1.4223 -0.5660 -0.2319
  865MPD2    H312701   1.704   0.023  16.533 -1.1553 -0.9021 -1.6870
  865MPD2     N12702   1.789   4.512  16.922  0.0455 -0.2242  0.4625
  865MPD2    H512703   1.793   4.413  16.947  1.3322 -0.1692  0.4488
  865MPD2    N112704   1.600   4.305  16.537 -0.0604  0.2408  0.2009
  865MPD2    H712705   1.564   4.315  16.443 -1.6637 -0.5417  0.7269
  866MPD2     C12706   2.729   4.295  12.011  0.1142 -0.3568  0.2746
  866MPD2    C112707   2.714   4.257  11.876 -0.3156  0.4467 -0.4988
  866MPD2    C212708   2.606   4.314  11.807 -0.2909  0.4750  0.2919
  866MPD2    C312709   2.503   4.384  11.875 -0.0394 -0.3378 -0.1923
  866MPD2    C412710   2.517   4.410  12.009  0.0430  0.3660 -0.0220
  866MPD2    C512711   2.630   4.366  12.074  0.4587 -0.4586  0.0788
  866MPD2     H12712   2.603   4.297  11.700 -2.3671  0.3886  0.3804
  866MPD2    H112713   2.445   4.463  12.070 -1.5564 -0.8516 -0.8596
  866MPD2    H212714   2.805   4.257  12.079 -0.0651 -2.6383 -0.7852
  866MPD2    H312715   2.623   4.378  12.182 -1.3954 -1.0495  0.0364
  866MPD2     N12716   2.384   4.420  11.816 -0.1630  0.3402 -0.0352
  866MPD2    H512717   2.320   4.467  11.880 -2.1550  1.1429 -2.5934
  866MPD2    N112718   2.807   4.163  11.825 -0.5796  0.0653 -0.0480
  866MPD2    H712719   2.890   4.144  11.881 -2.2298  0.4272  2.5110
  867MPD2     C12720   0.066   3.970  16.537  0.3580  0.3106 -0.5595
  867MPD2    C112721   0.151   3.961  16.637  0.0424 -0.2424  0.3621
  867MPD2    C212722   0.173   4.070  16.722 -0.4338  0.6301 -0.0624
  867MPD2    C312723   0.107   4.190  16.697 -0.1944  0.0182  0.3462
  867MPD2    C412724   0.027   4.194  16.587  0.1441 -0.3152 -0.0125
  867MPD2    C512725   0.016   4.089  16.500  0.2968 -0.0587 -0.1998
  867MPD2     H12726   0.249   4.071  16.799 -0.8135 -0.4655  0.3241
  867MPD2    H112727   4.708   4.286  16.550 -0.7613 -1.6398 -2.1974
  867MPD2    H212728   0.038   3.887  16.473  3.7762 -1.2205 -0.0770
  867MPD2    H312729   4.691   4.092  16.404 -1.5939 -2.0860  0.7442
  867MPD2     N12730   0.124   4.304  16.774 -0.0873  0.1087  0.0778
  867MPD2    H512731   0.095   4.395  16.739  0.2689 -1.1268 -3.3373
  867MPD2    N112732   0.204   3.834  16.660  0.1821  0.0679 -0.0586
  867MPD2    H712733   0.210   3.768  16.582 -2.1609  0.5500 -0.6344
  868MPD2     C12734   2.748   1.809  13.383 -0.0546  0.2800 -0.7347
  868MPD2    C112735   2.753   1.930  13.331 -0.4533 -0.3380 -0.0146
  868MPD2    C212736   2.645   2.018  13.346 -0.5531 -0.1725  0.7253
  868MPD2    C312737   2.527   1.979  13.420 -0.6034  0.3233  0.1496
  868MPD2    C412738   2.525   1.850  13.477  0.0056  0.0921  0.0500
  868MPD2    C512739   2.633   1.764  13.445  0.2306  0.3746  0.8611
  868MPD2     H12740   2.646   2.113  13.295 -1.9714 -0.2513  0.5413
  868MPD2    H112741   2.439   1.803  13.524  0.1058 -0.0876  0.0537
  868MPD2    H212742   2.826   1.733  13.378 -2.4541 -2.2451  0.0125
  868MPD2    H312743   2.643   1.659  13.471 -1.1770 -0.4236 -1.7149
  868MPD2     N12744   2.428   2.081  13.435  0.3255 -0.3397  0.3271
  868MPD2    H512745   2.456   2.170  13.395 -0.1972 -0.5698 -0.5438
  868MPD2    N112746   2.874   1.959  13.265  0.3039  0.4292  0.2184
  868MPD2    H712747   2.938   1.881  13.259 -0.5389 -0.3744  1.5479
  869MPD2     C12748   4.211   1.518   2.489 -0.1901 -0.6793 -0.5689
  869MPD2    C112749   4.138   1.426   2.425  0.2493  0.2518  0.1706
  869MPD2    C212750   4.047   1.465   2.328  0.3344 -0.2866  0.4308
  869MPD2    C312751   4.037   1.600   2.290  0.3781  1.3556  0.6486
  869MPD2    C412752   4.114   1.692   2.359 -0.3026 -0.6596 -0.8931
  869MPD2    C512753   4.208   1.648   2.447  0.1889 -0.4631  0.1407
  869MPD2     H12754   3.981   1.389   2.287 -0.5246  1.6381 -1.7682
  869MPD2    H112755   4.108   1.798   2.335 -0.6138 -0.3857  0.4458
  869MPD2    H212756   4.287   1.491   2.561 -1.8556 -2.5235  0.4797
  869MPD2    H312757   4.276   1.719   2.492  0.9821 -1.0572 -0.1089
  869MPD2     N12758   3.942   1.645   2.202  0.2953  0.5283 -0.6354
  869MPD2    H512759   3.943   1.744   2.179 -0.0937  0.3683 -1.3538
  869MPD2    N112760   4.151   1.293   2.468 -0.0575 -0.2599 -0.5210
  869MPD2    H712761   4.221   1.277   2.539 -1.4820 -1.7522  0.5411
  870MPD2     C12762   3.209   4.348   1.654  0.3551 -0.3688  0.2041
  870MPD2    C112763   3.296   4.429   1.731  0.3148  0.2473  0.0811
  870MPD2    C212764   3.304   4.568   1.703  0.0261  0.2061  0.4063
  870MPD2    C312765   3.239   4.619   1.594 -0.1702  0.5229  0.2623
  870MPD2    C412766   3.153   4.543   1.524  0.1316 -0.6394  0.8705
  870MPD2    C512767   3.133   4.411   1.558 -0.5511 -0.1033 -0.3014
  870MPD2     H12768   3.372   4.637   1.752  1.1478 -1.3826  1.1026
  870MPD2    H112769   3.097   4.578   1.437  2.7017  0.5607 -0.2832
  870MPD2    H212770   3.206   4.242   1.674 -0.5139 -0.2093  0.9034
  870MPD2    H312771   3.072   4.348   1.494 -2.4985  0.7066  0.7404
  870MPD2     N12772   3.248   0.031   1.572 -0.5497 -0.5052 -0.1878
  870MPD2    H512773   3.297   0.079   1.647  0.8676 -1.7924 -0.2732
  870MPD2    N112774   3.360   4.365   1.844 -0.1901  0.3125  0.0928
  870MPD2    H712775   3.337   4.269   1.864 -2.4385  0.8281 -0.0021
  871MPD2     C12776   4.166   4.269  16.696 -0.1416 -0.4838 -0.5765
  871MPD2    C112777   4.058   4.219  16.756  0.0770 -0.2241  0.3031
  871MPD2    C212778   4.030   4.085  16.733  0.0552 -0.9402 -0.3902
  871MPD2    C312779   4.113   4.003  16.660 -0.4131  0.5753  0.0803
  871MPD2    C412780   4.225   4.059  16.608 -0.3211  0.2611 -0.2817
  871MPD2    C512781   4.245   4.192  16.623 -0.1812  0.0452  0.5773
  871MPD2     H12782   3.939   4.039  16.769 -0.7910  0.0711 -1.2061
  871MPD2    H112783   4.297   4.002  16.550 -0.9868 -0.3583 -0.5102
  871MPD2    H212784   4.187   4.374  16.715 -0.7915 -0.3836 -0.3785
  871MPD2    H312785   4.327   4.241  16.572  0.9159 -0.4218  1.8906
  871MPD2     N12786   4.070   3.866  16.642 -0.0675  0.0811 -0.2493
  871MPD2    H512787   3.987   3.837  16.692 -0.5283  1.1546 -0.4132
  871MPD2    N112788   3.972   4.306  16.832 -0.0944  0.1468 -0.3075
  871MPD2    H712789   4.001   4.403  16.843 -3.1338  0.8737  1.1681
  872MPD2     C12790   4.642   2.091  13.799  0.0509  0.1676  0.1858
  872MPD2    C112791   0.002   2.023  13.883  0.4618 -0.9890 -0.0200
  872MPD2    C212792   4.676   1.951  13.988  0.3187 -0.1088  0.2522
  872MPD2    C312793   4.541   1.951  14.021 -0.1028  0.7862  0.9047
  872MPD2    C412794   4.460   2.024  13.935 -0.1081  0.2875  0.1082
  872MPD2    C512795   4.509   2.090  13.827  0.4964 -0.4227 -0.3533
  872MPD2     H12796   0.020   1.898  14.052  0.2774  0.3813  0.7122
  872MPD2    H112797   4.354   2.045  13.950 -0.2866  0.8811 -1.9724
  872MPD2    H212798   4.673   2.148  13.712 -2.1869  0.3508 -0.4729
  872MPD2    H312799   4.443   2.147  13.762  1.4234  1.3471  0.2574
  872MPD2     N12800   4.492   1.883  14.134  0.5229 -0.2044  0.2692
  872MPD2    H512801   4.554   1.840  14.202  0.1688 -0.7012  0.2746
  872MPD2    N112802   0.139   2.022  13.854  0.1321  0.1452 -1.1146
  872MPD2    H712803   0.168   2.105  13.802  0.6439  0.3500 -0.5121
  873MPD2     C12804   2.153   2.666   0.694 -0.2269  0.3875 -0.2707
  873MPD2    C112805   2.148   2.595   0.810  0.3629  0.1557 -1.1381
  873MPD2    C212806   2.140   2.457   0.810  0.0806 -0.5866  0.2870
  873MPD2    C312807   2.130   2.399   0.683  0.5173  0.1968 -0.5712
  873MPD2    C412808   2.143   2.469   0.570 -0.2878 -1.0167 -0.1929
  873MPD2    C512809   2.148   2.604   0.572  0.0194 -0.5039 -0.1992
  873MPD2     H12810   2.118   2.403   0.902 -0.0165 -2.3171 -0.7430
  873MPD2    H112811   2.150   2.417   0.475  2.3711 -1.4697  0.2734
  873MPD2    H212812   2.164   2.774   0.687 -0.2428  0.5620  2.4332
  873MPD2    H312813   2.143   2.654   0.476  0.0662  0.1910  0.1573
  873MPD2     N12814   2.120   2.253   0.655 -0.1267  0.5101 -0.1207
  873MPD2    H512815   2.095   2.233   0.559 -1.7359  0.7045  0.2656
  873MPD2    N112816   2.158   2.668   0.926 -0.1428  0.1254  0.8562
  873MPD2    H712817   2.161   2.769   0.922 -0.2961  0.1655  1.8263
  874MPD2     C12818   1.553   1.991  16.180 -0.0042  1.5489 -0.5504
  874MPD2    C112819   1.564   1.891  16.276  0.5365 -0.9854  0.7773
  874MPD2    C212820   1.637   1.921  16.392  0.4907 -0.1379  0.2754
  874MPD2    C312821   1.686   2.046  16.419 -0.5533 -0.2629  0.2642
  874MPD2    C412822   1.675   2.142  16.325 -0.0909  0.2125 -0.4576
  874MPD2    C512823   1.615   2.109  16.201 -0.4575  0.3007 -0.0453
  874MPD2     H12824   1.636   1.851  16.474 -3.4533 -0.3614  0.0401
  874MPD2    H112825   1.719   2.241  16.332 -0.2402  0.1537  1.1291
  874MPD2    H212826   1.498   1.969  16.090 -2.4672 -1.0376  1.5695
  874MPD2    H312827   1.608   2.184  16.122  0.4514  1.1122  0.6434
  874MPD2     N12828   1.742   2.067  16.543 -1.0861  0.2749 -0.5082
  874MPD2    H512829   1.740   1.988  16.607 -0.4754  0.4492 -0.2725
  874MPD2    N112830   1.515   1.758  16.248 -0.3533 -0.2595 -0.0395
  874MPD2    H712831   1.454   1.740  16.169  1.1701 -1.7645 -0.8753
  875MPD2     C12832   2.226   4.575  14.933  0.0977  0.1632 -0.4724
  875MPD2    C112833   2.272   4.693  14.881  0.7786 -0.5549 -0.0908
  875MPD2    C212834   2.345   0.054  14.959  0.1063  0.7940  0.1162
  875MPD2    C312835   2.370   0.027  15.090 -0.3927  0.1084  0.3215
  875MPD2    C412836   2.334   4.628  15.137 -0.2252 -0.4912 -0.0390
  875MPD2    C512837   2.261   4.541  15.056 -0.0029  0.1692 -0.4226
  875MPD2     H12838   2.389   0.139  14.909 -1.1142  1.5337  0.2880
  875MPD2    H112839   2.356   4.598  15.239  1.0788  0.4050 -0.0566
  875MPD2    H212840   2.173   4.500  14.876  0.3582 -0.3801 -0.0114
  875MPD2    H312841   2.250   4.440  15.094  0.4445 -0.1081 -1.0347
  875MPD2     N12842   2.446   0.105  15.173  0.3481  0.9243 -0.0469
  875MPD2    H512843   2.468   0.074  15.267 -0.3202  1.1836  0.1981
  875MPD2    N112844   2.248   4.715  14.744 -0.2888 -0.1016 -0.0951
  875MPD2    H712845   2.194   4.643  14.697  1.8473 -0.4286 -2.0040
  876MPD2     C12846   1.394   1.451  15.812  0.2689  0.2898 -0.2292
  876MPD2    C112847   1.518   1.451  15.863 -0.2090 -0.5792 -0.3352
  876MPD2    C212848   1.567   1.345  15.932  0.4871 -0.3187  0.2068
  876MPD2    C312849   1.488   1.233  15.940 -0.1843  0.1128 -0.0694
  876MPD2    C412850   1.362   1.234  15.900  0.2649  0.3975  0.4441
  876MPD2    C512851   1.306   1.351  15.850  0.0208 -0.8150 -0.5819
  876MPD2     H12852   1.666   1.340  15.976  1.9440  2.2433 -2.7607
  876MPD2    H112853   1.298   1.148  15.918  0.1032 -0.1488 -2.7342
  876MPD2    H212854   1.354   1.534  15.755  0.8258  0.1632 -0.7982
  876MPD2    H312855   1.200   1.357  15.829 -0.1902 -3.0042 -0.0628
  876MPD2     N12856   1.548   1.125  16.012 -0.2198  0.8789  0.2245
  876MPD2    H512857   1.649   1.129  16.021  0.0106  0.5373 -2.4239
  876MPD2    N112858   1.595   1.568  15.840 -0.0302  0.9858 -0.3539
  876MPD2    H712859   1.561   1.632  15.768 -0.7312  2.1053  0.9751
  877MPD2     C12860   1.402   2.058  15.432  0.2165  0.3570  0.1453
  877MPD2    C112861   1.535   2.093  15.447 -0.7068 -0.0608 -0.0686
  877MPD2    C212862   1.598   2.160  15.345  0.4327 -0.2480 -0.2721
  877MPD2    C312863   1.533   2.213  15.235 -0.0729 -0.5646 -0.2559
  877MPD2    C412864   1.401   2.185  15.224  0.6494 -0.3544 -0.0395
  877MPD2    C512865   1.336   2.109  15.324 -0.2374  0.6476 -0.8688
  877MPD2     H12866   1.706   2.160  15.362  0.3917  2.7272 -0.1058
  877MPD2    H112867   1.356   2.218  15.131 -0.2157 -0.9837  0.1551
  877MPD2    H212868   1.340   2.003  15.502 -0.8988 -1.7992 -2.5662
  877MPD2    H312869   1.228   2.099  15.325 -0.2922  1.2595 -0.6236
  877MPD2     N12870   1.602   2.267  15.122  0.6816 -0.1337 -0.4937
  877MPD2    H512871   1.546   2.268  15.038 -0.4548  0.4659  0.2740
  877MPD2    N112872   1.617   2.039  15.547 -0.0460 -0.0854  0.5054
  877MPD2    H712873   1.715   2.064  15.535  0.7684 -3.9854 -1.0139
  878MPD2     C12874   0.856   0.789  13.919 -0.4900 -0.3973 -0.7626
  878MPD2    C112875   0.960   0.880  13.892  0.4232 -0.4189  0.3716
  878MPD2    C212876   1.075   0.883  13.963 -0.6575 -0.3841 -1.2275
  878MPD2    C312877   1.089   0.786  14.065 -0.3945  0.4215  0.5290
  878MPD2    C412878   0.982   0.710  14.101 -0.5630 -0.8486  0.4328
  878MPD2    C512879   0.865   0.713  14.029  0.3825  0.5293 -0.4893
  878MPD2     H12880   1.156   0.950  13.939 -0.1478 -0.2816  0.8204
  878MPD2    H112881   0.988   0.624  14.166 -0.4869  0.4006  2.0691
  878MPD2    H212882   0.761   0.780  13.866 -1.4267  1.6019  0.6027
  878MPD2    H312883   0.785   0.648  14.064  3.3736 -2.0980  1.5700
  878MPD2     N12884   1.215   0.779  14.134  0.4251  0.6009  0.4603
  878MPD2    H512885   1.284   0.843  14.097 -0.3684  1.7416  0.9638
  878MPD2    N112886   0.943   0.951  13.767  0.5418  0.0079 -0.2453
  878MPD2    H712887   0.850   0.932  13.731  0.3016 -0.7050  0.7459
  879MPD2     C12888   2.033   3.006  16.989 -0.0317  0.5572  0.7279
  879MPD2    C112889   1.947   2.951  17.074 -0.2998  0.5580 -0.1483
  879MPD2    C212890   1.844   2.868  17.038 -0.4680  0.2631 -0.1418
  879MPD2    C312891   1.833   2.825  16.907  0.4643 -0.5913  0.0450
  879MPD2    C412892   1.934   2.861  16.819 -0.0419 -0.3048  0.3128
  879MPD2    C512893   2.031   2.954  16.859  0.2287 -0.4992  0.4147
  879MPD2     H12894   1.761   2.849  17.104 -0.7353 -1.5014 -0.9712
  879MPD2    H112895   1.936   2.832  16.714 -1.7407  2.3893 -0.4758
  879MPD2    H212896   2.119   3.065  17.018  0.5615  0.1812 -0.2602
  879MPD2    H312897   2.105   2.978  16.784  0.1950 -1.5129  0.0622
  879MPD2     N12898   1.741   2.734  16.851  0.2876 -0.2091 -0.1877
  879MPD2    H512899   1.751   2.704  16.755  1.9901  2.4144 -0.8319
  879MPD2    N112900   1.966   2.988  17.210 -0.4411 -0.4887 -0.5751
  879MPD2    H712901   2.044   3.044  17.242  2.5774 -3.4882 -2.6993
  880MPD2     C12902   3.660   4.390   0.332  0.5899 -0.6581 -0.5662
  880MPD2    C112903   3.752   4.485   0.366 -0.1008 -0.1423  0.2439
  880MPD2    C212904   3.875   4.445   0.414 -0.1238 -0.3157  0.6780
  880MPD2    C312905   3.905   4.309   0.418 -0.4395 -0.0857  0.6560
  880MPD2    C412906   3.809   4.213   0.387  0.3863 -0.4498 -0.3934
  880MPD2    C512907   3.688   4.255   0.342 -0.3258 -0.2091 -0.6852
  880MPD2     H12908   3.955   4.514   0.436 -0.5420  0.7379 -1.1016
  880MPD2    H112909   3.821   4.106   0.389 -0.4725 -0.5849 -1.7824
  880MPD2    H212910   3.562   4.421   0.298  1.6133  1.5321 -1.4595
  880MPD2    H312911   3.613   4.187   0.303 -2.4332  1.0512  1.2076
  880MPD2     N12912   4.032   4.281   0.466 -0.0900 -0.7796 -0.2677
  880MPD2    H512913   4.098   4.357   0.483 -0.2723 -0.2124 -2.1115
  880MPD2    N112914   3.715   4.618   0.367  0.3747  0.3476  0.5052
  880MPD2    H712915   3.619   4.631   0.337  0.4308  1.7224  0.9311
  881MPD2     C12916   3.434   0.756  17.614  0.1617 -0.1424 -0.0731
  881MPD2    C112917   3.476   0.627  17.577  0.0674 -0.3501 -0.6895
  881MPD2    C212918   3.498   0.532  17.673  0.7485  0.1688  0.1031
  881MPD2    C312919   3.480   0.563   0.103 -0.2157  0.4504  0.9836
  881MPD2    C412920   3.453   0.693   0.139 -0.0960  0.2231  0.2550
  881MPD2    C512921   3.421   0.787   0.041 -0.3587  0.0484  0.1962
  881MPD2     H12922   3.538   0.438  17.638  1.4301  0.1976  0.7941
  881MPD2    H112923   3.435   0.732   0.239  0.7437 -1.6083  1.1312
  881MPD2    H212924   3.399   0.827  17.540  1.1345  1.0709  0.6206
  881MPD2    H312925   3.390   0.887   0.067  1.9542  0.2865  2.0746
  881MPD2     N12926   3.515   0.473   0.216 -0.3175 -0.4569 -0.5667
  881MPD2    H512927   3.498   0.509   0.310 -0.9532  2.0772 -1.6365
  881MPD2    N112928   3.463   0.597  17.439  0.2043  0.0361  0.4685
  881MPD2    H712929   3.440   0.675  17.378  1.5424  0.9087  1.1007
  882MPD2     C12930   1.790   1.999  14.488  0.1947 -0.5175  0.8678
  882MPD2    C112931   1.689   2.069  14.547  0.1404  0.0372  0.0363
  882MPD2    C212932   1.556   2.039  14.518 -0.1198 -0.4144  0.3675
  882MPD2    C312933   1.532   1.922  14.444  0.0162  0.0903 -0.1975
  882MPD2    C412934   1.631   1.841  14.396  0.1388  0.4038  0.1861
  882MPD2    C512935   1.760   1.888  14.413 -0.3649  0.0083 -0.2541
  882MPD2     H12936   1.474   2.092  14.566  1.9902  0.2230  3.2626
  882MPD2    H112937   1.614   1.751  14.337 -4.4394  0.3419  1.6626
  882MPD2    H212938   1.895   2.021  14.503  0.1891 -1.2734  2.0361
  882MPD2    H312939   1.839   1.823  14.377 -0.8378 -0.8715  0.3106
  882MPD2     N12940   1.398   1.878  14.425 -0.4745  0.2574  0.1996
  882MPD2    H512941   1.383   1.784  14.390 -0.6567  0.5239 -0.4469
  882MPD2    N112942   1.732   2.174  14.628 -0.5202 -0.8164  0.0113
  882MPD2    H712943   1.834   2.179  14.637 -0.4840 -0.6310 -0.5453
  883MPD2     C12944   3.395   2.660  16.324  0.2587  0.3882  0.1701
  883MPD2    C112945   3.498   2.583  16.264  0.9415  0.2698 -0.0812
  883MPD2    C212946   3.599   2.548  16.354  0.9468 -0.7758 -0.3761
  883MPD2    C312947   3.602   2.576  16.483  0.4749 -0.4457 -0.1365
  883MPD2    C412948   3.501   2.654  16.535  0.1360 -0.8291 -1.3224
  883MPD2    C512949   3.401   2.697  16.455 -0.0014  0.0435  0.7109
  883MPD2     H12950   3.680   2.483  16.322  0.6802 -0.3706 -1.8859
  883MPD2    H112951   3.495   2.670  16.642  1.0892  0.3433 -1.4472
  883MPD2    H212952   3.318   2.702  16.260 -0.5302 -0.1135  0.8032
  883MPD2    H312953   3.311   2.746  16.491 -0.3005 -0.2943  0.4333
  883MPD2     N12954   3.715   2.535  16.560 -0.1390  0.0007 -0.0902
  883MPD2    H512955   3.792   2.497  16.506 -1.2197  0.7543 -2.1857
  883MPD2    N112956   3.505   2.538  16.133  0.4525  0.4350 -0.6363
  883MPD2    H712957   3.586   2.483  16.108  1.4098  1.5328  0.0594
  884MPD2     C12958   0.707   2.600  15.158 -0.3999  0.1291  0.3506
  884MPD2    C112959   0.675   2.682  15.049  0.0286  0.2832  1.1753
  884MPD2    C212960   0.541   2.707  15.030 -0.1631 -0.8891 -0.5545
  884MPD2    C312961   0.441   2.662  15.115 -1.1171  0.2131  0.8077
  884MPD2    C412962   0.471   2.597  15.224 -0.4571 -0.0178 -0.6101
  884MPD2    C512963   0.605   2.563  15.242  0.2684 -0.0499  0.7806
  884MPD2     H12964   0.514   2.784  14.959  0.8522  2.1799  2.3751
  884MPD2    H112965   0.395   2.567  15.295  0.2912 -2.4357 -0.8367
  884MPD2    H212966   0.806   2.570  15.190 -1.2865 -0.3709  2.5729
  884MPD2    H312967   0.639   2.496  15.320 -0.1640  0.1613  1.1490
  884MPD2     N12968   0.306   2.708  15.088 -0.6381  0.1431  0.1635
  884MPD2    H512969   0.300   2.762  15.002  0.3664  0.7451  0.4745
  884MPD2    N112970   0.774   2.748  14.977 -0.1828  0.0585  0.4671
  884MPD2    H712971   0.744   2.814  14.906  1.2218  2.0252  1.7086
  885MPD2     C12972   3.705   2.664   0.524 -0.3338  0.2091  0.0132
  885MPD2    C112973   3.722   2.778   0.604  0.9914  0.2842 -0.6553
  885MPD2    C212974   3.712   2.900   0.539  0.3609  0.3350  0.7893
  885MPD2    C312975   3.683   2.905   0.406 -0.1828 -1.1321  0.5263
  885MPD2    C412976   3.651   2.794   0.335 -0.2048 -0.4147  0.0070
  885MPD2    C512977   3.677   2.674   0.393  0.7981 -0.4503 -0.3402
  885MPD2     H12978   3.749   2.990   0.586  2.4666  1.4543 -3.0695
  885MPD2    H112979   3.618   2.797   0.232  0.3501 -1.9000 -0.2284
  885MPD2    H212980   3.705   2.565   0.567  2.2859 -0.1813 -0.8845
  885MPD2    H312981   3.660   2.595   0.320  0.3586  0.1922 -0.9376
  885MPD2     N12982   3.676   3.036   0.346  0.3098 -0.1091  0.8635
  885MPD2    H512983   3.714   3.117   0.396 -2.2708  2.1423 -0.8332
  885MPD2    N112984   3.767   2.768   0.742  0.2118  0.0562 -0.2996
  885MPD2    H712985   3.769   2.674   0.782 -1.8433 -0.1007 -0.5273
  886MPD2     C12986   4.565   1.325  15.192  0.0185 -0.0621 -0.7750
  886MPD2    C112987   4.698   1.334  15.231 -0.5322  0.1255  0.7133
  886MPD2    C212988   0.040   1.451  15.196  0.0267 -0.1011  0.2511
  886MPD2    C312989   4.718   1.549  15.119  0.1091  0.3693 -0.8214
  886MPD2    C412990   4.586   1.532  15.090 -0.6292  0.1011 -0.4428
  886MPD2    C512991   4.511   1.428  15.128  0.2991  0.6522  0.6280
  886MPD2     H12992   0.138   1.454  15.243  0.1347 -1.6276  0.1111
  886MPD2    H112993   4.539   1.615  15.039  1.3130  1.0688 -0.6336
  886MPD2    H212994   4.505   1.240  15.221 -2.8005  1.6539 -1.6401
  886MPD2    H312995   4.411   1.408  15.091  0.5720  2.1852 -0.8866
  886MPD2     N12996   0.063   1.664  15.074  0.3984  0.1509 -0.3460
  886MPD2    H512997   0.002   1.731  15.029  0.0509 -0.2686 -0.4975
  886MPD2    N112998   0.041   1.234  15.308 -0.5868 -0.0252  0.3809
  886MPD2    H712999   0.130   1.261  15.347 -1.0741 -1.6370  2.6363
  887MPD2     C13000   0.706   1.215  15.287  0.5341 -0.3893  0.1231
  887MPD2    C113001   0.591   1.272  15.336  0.0254 -0.3264  0.3814
  887MPD2    C213002   0.578   1.404  15.362  0.0653  0.4301  0.6210
  887MPD2    C313003   0.689   1.485  15.347  0.2632  0.8218  0.0336
  887MPD2    C413004   0.807   1.426  15.300  0.5203  0.1821 -0.6128
  887MPD2    C513005   0.811   1.292  15.271 -0.4742  0.1692 -0.1793
  887MPD2     H13006   0.482   1.445  15.391 -0.2354  0.7212 -0.7825
  887MPD2    H113007   0.895   1.487  15.284  1.6487 -1.1868  0.3166
  887MPD2    H213008   0.708   1.109  15.262  1.0593  0.1375 -2.0573
  887MPD2    H313009   0.903   1.251  15.232 -2.7568 -1.6028 -3.7708
  887MPD2     N13010   0.677   1.626  15.382 -0.0346  0.1908  0.1409
  887MPD2    H513011   0.584   1.650  15.415 -0.3396  2.4302 -2.4165
  887MPD2    N113012   0.479   1.198  15.369 -0.3666 -0.5417  0.3521
  887MPD2    H713013   0.397   1.251  15.399 -0.5761 -0.1717 -0.8638
  888MPD2     C13014   2.468   1.414  15.201  0.1604 -0.0212 -0.1210
  888MPD2    C113015   2.485   1.496  15.307 -0.4595  0.2909 -0.7505
  888MPD2    C213016   2.532   1.627  15.279  0.5690 -0.3109 -0.2397
  888MPD2    C313017   2.575   1.661  15.155  0.2253 -0.0482  0.1258
  888MPD2    C413018   2.581   1.571  15.058 -0.3097  0.2971  0.4810
  888MPD2    C513019   2.525   1.446  15.078  0.3417  0.1583  0.1992
  888MPD2     H13020   2.536   1.702  15.358  0.2051 -2.2454  1.6041
  888MPD2    H113021   2.604   1.601  14.957 -0.9424 -1.0517 -0.0644
  888MPD2    H213022   2.446   1.308  15.212  2.0817 -0.5689 -1.5901
  888MPD2    H313023   2.515   1.371  15.000 -0.3906  0.2140  0.2398
  888MPD2     N13024   2.623   1.791  15.146  0.1715 -0.3516  0.0859
  888MPD2    H513025   2.625   1.843  15.233 -3.2283  2.2976 -1.4032
  888MPD2    N113026   2.458   1.457  15.439 -1.0974 -1.1912 -0.9249
  888MPD2    H713027   2.484   1.523  15.512  0.5807 -2.9604  0.1024
  889MPD2     C13028   1.629   0.757  13.000 -0.5392  1.0900  0.1035
  889MPD2    C113029   1.754   0.727  13.036 -0.4608 -0.1293 -0.0831
  889MPD2    C213030   1.838   0.837  13.046  0.2531 -0.2875  0.7259
  889MPD2    C313031   1.806   0.967  13.005 -0.1249  0.1264 -0.1648
  889MPD2    C413032   1.675   0.984  12.960  1.0886 -0.7762  0.4279
  889MPD2    C513033   1.589   0.883  12.957  0.1355  0.0982  0.1783
  889MPD2     H13034   1.926   0.823  13.107 -0.3721 -0.6247  1.5532
  889MPD2    H113035   1.637   1.079  12.923 -0.2797 -2.5582 -2.7003
  889MPD2    H213036   1.552   0.681  12.992 -0.8591  1.5411 -0.9985
  889MPD2    H313037   1.487   0.896  12.923  0.3856  0.4100 -0.4639
  889MPD2     N13038   1.889   1.074  13.031  0.2209  0.0125 -0.4624
  889MPD2    H513039   1.977   1.048  13.076 -0.9722 -0.4499  1.5711
  889MPD2    N113040   1.787   0.617  13.119  0.4896  0.2359  0.0860
  889MPD2    H713041   1.880   0.619  13.158  0.1768  0.2940  0.8166
  890MPD2     C13042   1.323   2.777  14.527 -0.5363 -0.0689 -0.3122
  890MPD2    C113043   1.384   2.886  14.587 -0.0786  0.4592 -0.6928
  890MPD2    C213044   1.419   2.878  14.718 -0.0317  0.5438 -0.0232
  890MPD2    C313045   1.412   2.755  14.786 -0.0619 -0.4097  0.0576
  890MPD2    C413046   1.338   2.652  14.728 -0.4945  0.0343  0.3526
  890MPD2    C513047   1.294   2.662  14.597 -0.1697 -0.4795 -0.1273
  890MPD2     H13048   1.476   2.957  14.766  0.9848  0.0154 -0.3492
  890MPD2    H113049   1.322   2.556  14.776 -0.4438  0.4976  1.3025
  890MPD2    H213050   1.293   2.774  14.423 -1.9394  0.4959  0.0776
  890MPD2    H313051   1.242   2.581  14.547 -2.6660  0.2624  1.2916
  890MPD2     N13052   1.470   2.749  14.917 -0.0273 -0.1308  0.2033
  890MPD2    H513053   1.530   2.824  14.948 -1.9120  1.5378 -0.2206
  890MPD2    N113054   1.413   3.001  14.510  0.1543  0.6883 -0.1369
  890MPD2    H713055   1.435   2.981  14.413 -1.7523 -1.4368 -0.1392
  891MPD2     C13056   4.383   1.730  16.170 -0.0713  0.7075  1.2387
  891MPD2    C113057   4.321   1.733  16.296 -0.4739  0.6436 -0.0725
  891MPD2    C213058   4.402   1.761  16.407 -0.2144  0.0077 -0.4758
  891MPD2    C313059   4.537   1.781  16.391  0.1645  0.3063 -0.1189
  891MPD2    C413060   4.594   1.770  16.264  0.2929 -0.5042  0.0869
  891MPD2    C513061   4.518   1.742  16.155 -0.7097  0.4031  0.2532
  891MPD2     H13062   4.362   1.768  16.507  0.1132  1.9771 -0.4809
  891MPD2    H113063   4.701   1.767  16.243 -0.3297 -1.3212 -2.9453
  891MPD2    H213064   4.326   1.721  16.078  1.3918  2.4261  0.1720
  891MPD2    H313065   4.570   1.725  16.062 -0.5227 -3.1034  0.9882
  891MPD2     N13066   4.617   1.786  16.510 -0.4095  0.1269 -0.1285
  891MPD2    H513067   4.571   1.782  16.600  1.5098  1.6536  0.9385
  891MPD2    N113068   4.180   1.708  16.297  0.0306 -0.8910 -0.4539
  891MPD2    H713069   4.134   1.690  16.209 -1.3210  1.2758 -0.2026
  892MPD2     C13070   0.581   2.478  14.157 -1.2667  0.5579 -0.1833
  892MPD2    C113071   0.576   2.424  14.279  0.1228 -0.4653  0.1604
  892MPD2    C213072   0.664   2.317  14.314  0.2715 -0.0169  0.1630
  892MPD2    C313073   0.749   2.264  14.214  0.0312  0.6187  0.0127
  892MPD2    C413074   0.743   2.315  14.089  0.6686  0.1491  1.0920
  892MPD2    C513075   0.656   2.414  14.059 -0.2328 -0.1031 -0.2328
  892MPD2     H13076   0.668   2.282  14.417 -1.6330  1.3610  0.6961
  892MPD2    H113077   0.795   2.272  14.004 -1.2032  0.8997 -0.4269
  892MPD2    H213078   0.511   2.557  14.135 -0.6947  1.4542  1.1429
  892MPD2    H313079   0.640   2.441  13.955  1.1701  0.0377 -0.4125
  892MPD2     N13080   0.840   2.157  14.238  0.4350  0.2863 -0.6619
  892MPD2    H513081   0.907   2.139  14.164 -0.3620  0.6804 -1.5022
  892MPD2    N113082   0.486   2.483  14.375 -0.1912  0.1881  0.0257
  892MPD2    H713083   0.434   2.561  14.338  2.3491  1.3667 -1.0276
  893MPD2     C13084   3.098   4.549   2.069 -0.7004 -0.4988 -0.3455
  893MPD2    C113085   3.187   4.598   2.157  0.1787  0.5438  0.3247
  893MPD2    C213086   3.190   4.536   2.276  0.2989 -0.7671  0.3864
  893MPD2    C313087   3.107   4.435   2.321  0.2472  0.3533  0.2263
  893MPD2    C413088   3.017   4.390   2.225 -0.1102  0.4629 -1.1185
  893MPD2    C513089   3.019   4.444   2.099  0.1245  0.2251 -0.3753
  893MPD2     H13090   3.272   4.561   2.341  1.1712 -1.2911 -0.5178
  893MPD2    H113091   2.954   4.310   2.259  0.8520  0.3374  0.3508
  893MPD2    H213092   3.080   4.593   1.971 -0.4288 -0.6328 -0.4564
  893MPD2    H313093   2.943   4.415   2.027 -0.3665  0.9186 -0.1354
  893MPD2     N13094   3.107   4.370   2.445  0.7885  0.1174 -0.7073
  893MPD2    H513095   3.043   4.293   2.459  1.5870 -0.2506  0.9203
  893MPD2    N113096   3.263   4.706   2.121 -0.2237  0.7367  0.7555
  893MPD2    H713097   3.238   0.013   2.028 -1.3617  1.0523  1.1779
  894MPD2     C13098   0.348   2.908   1.613 -0.0866 -0.5325  0.5302
  894MPD2    C113099   0.424   3.016   1.636  0.1598 -0.2395  0.1252
  894MPD2    C213100   0.396   3.132   1.571 -0.6548 -0.5547 -0.1151
  894MPD2    C313101   0.304   3.137   1.467  0.4916  0.1301 -0.1184
  894MPD2    C413102   0.229   3.025   1.436  0.3746 -0.3222  0.2140
  894MPD2    C513103   0.257   2.917   1.513  0.9609  0.0009  0.2197
  894MPD2     H13104   0.451   3.221   1.599 -0.7076 -1.1542  1.8832
  894MPD2    H113105   0.154   3.018   1.357  0.4555  0.3112  0.0861
  894MPD2    H213106   0.364   2.809   1.655 -0.3789  0.2202  2.4293
  894MPD2    H313107   0.201   2.828   1.488  2.8678 -1.9493  2.8895
  894MPD2     N13108   0.282   3.255   1.399 -1.1445  0.0356 -0.4456
  894MPD2    H513109   0.365   3.313   1.398 -1.5205  0.5850 -0.3108
  894MPD2    N113110   0.527   3.024   1.731  0.9268 -0.5147  0.3996
  894MPD2    H713111   0.576   3.113   1.726  0.3349 -0.0931  2.4918
  895MPD2     C13112   4.039   1.603  13.280 -0.1706  0.5376  0.4810
  895MPD2    C113113   4.022   1.587  13.143  0.2298 -0.1061 -0.4536
  895MPD2    C213114   4.090   1.486  13.084  0.1577 -0.2295  0.3157
  895MPD2    C313115   4.160   1.390  13.160 -0.4061  0.6803 -0.4096
  895MPD2    C413116   4.166   1.403  13.298 -0.2434 -0.7388 -0.1907
  895MPD2    C513117   4.126   1.523  13.353 -0.0437 -0.0511 -0.6306
  895MPD2     H13118   4.079   1.466  12.978  1.8656 -1.7265  0.4185
  895MPD2    H113119   4.229   1.346  13.365 -1.5383  1.0953  2.5488
  895MPD2    H213120   3.994   1.686  13.333 -0.4046  1.1669 -0.7120
  895MPD2    H313121   4.136   1.536  13.460 -0.9063 -0.7980 -0.4640
  895MPD2     N13122   4.217   1.273  13.109  0.1657 -0.1732 -0.1698
  895MPD2    H513123   4.249   1.204  13.177 -2.1140 -4.2276 -3.1904
  895MPD2    N113124   3.931   1.670  13.071  0.4600  0.2886  0.1079
  895MPD2    H713125   3.936   1.673  12.970 -0.4128  0.1312  0.0595
  896MPD2     C13126   2.097   4.293   1.983  0.1336 -0.1556  0.4649
  896MPD2    C113127   2.090   4.218   1.871 -0.0986  0.0537 -0.2818
  896MPD2    C213128   1.972   4.186   1.812 -0.6724  0.1860  0.7652
  896MPD2    C313129   1.851   4.228   1.862 -0.3148  0.6130 -0.2545
  896MPD2    C413130   1.857   4.313   1.972 -0.4497  0.2810  0.0314
  896MPD2    C513131   1.978   4.345   2.032  0.3530  0.3797  0.1060
  896MPD2     H13132   1.972   4.138   1.714  1.7440  0.3934  0.6486
  896MPD2    H113133   1.766   4.360   2.009  0.2501  2.0049 -0.4573
  896MPD2    H213134   2.183   4.314   2.046 -0.8585 -1.0757  2.1156
  896MPD2    H313135   1.998   4.407   2.119 -0.3670  1.5258 -0.5397
  896MPD2     N13136   1.731   4.194   1.795 -0.0953  0.2904 -0.9073
  896MPD2    H513137   1.739   4.152   1.703  2.1780  0.0607 -0.6177
  896MPD2    N113138   2.216   4.182   1.820  0.1291  0.6070  0.3842
  896MPD2    H713139   2.286   4.204   1.890 -0.1516  0.1917  0.8048
  897MPD2     C13140   3.083   4.691  10.573  0.3141  0.0081  0.0013
  897MPD2    C113141   2.980   0.061  10.572 -0.5173 -0.2556  0.4848
  897MPD2    C213142   2.881   0.041  10.666 -0.2728 -0.7979 -0.7409
  897MPD2    C313143   2.880   4.661  10.754  0.2062  0.3645 -0.6949
  897MPD2    C413144   2.985   4.576  10.753 -0.9634 -0.4769  0.0068
  897MPD2    C513145   3.087   4.592  10.660 -0.2007  0.2669  0.0115
  897MPD2     H13146   2.784   0.085  10.645  0.1999  0.0835 -1.0842
  897MPD2    H113147   2.980   4.497  10.827 -2.0475  0.2545  0.7117
  897MPD2    H213148   3.161   4.694  10.498  1.0751  0.5265  0.8072
  897MPD2    H313149   3.172   4.526  10.649  1.0981  2.0127 -0.4433
  897MPD2     N13150   2.770   4.625  10.835  0.1561  0.3938 -0.4075
  897MPD2    H513151   2.779   4.540  10.889  0.6771  0.0978 -0.9541
  897MPD2    N113152   2.959   0.163  10.479 -0.2855  0.2899  0.4738
  897MPD2    H713153   2.884   0.230  10.495 -0.8956 -0.0094 -1.1338
  898MPD2     C13154   0.563   1.643   0.582  0.0573  0.2202  0.6284
  898MPD2    C113155   0.618   1.684   0.461 -0.2782 -0.4310  0.6889
  898MPD2    C213156   0.538   1.758   0.378  0.6724  0.1322  0.6581
  898MPD2    C313157   0.410   1.807   0.419 -0.0662  0.1662  0.6476
  898MPD2    C413158   0.362   1.768   0.547  0.2107 -0.2718  0.3736
  898MPD2    C513159   0.440   1.686   0.627  0.4798 -0.0102  0.1786
  898MPD2     H13160   0.575   1.763   0.276 -0.9513  1.3545  0.1316
  898MPD2    H113161   0.262   1.795   0.581  1.5446  4.0227  0.9382
  898MPD2    H213162   0.620   1.572   0.641 -0.1954 -0.5128 -0.0083
  898MPD2    H313163   0.406   1.644   0.721 -1.3348 -0.2186 -0.5781
  898MPD2     N13164   0.337   1.878   0.330  0.4195 -0.0622 -0.2454
  898MPD2    H513165   0.364   1.879   0.232  0.9426 -1.9374 -0.1193
  898MPD2    N113166   0.749   1.659   0.413 -0.4032 -0.4211 -0.0927
  898MPD2    H713167   0.777   1.697   0.323 -0.5207 -0.9110 -0.3394
  899MPD2     C13168   0.904   2.558   0.158 -0.0320  0.3587 -0.0986
  899MPD2    C113169   0.998   2.658   0.173  0.4616  0.4360  1.0972
  899MPD2    C213170   1.002   2.733   0.289  0.0997 -0.1003 -0.3465
  899MPD2    C313171   0.913   2.704   0.397  0.5586 -0.3265 -0.1157
  899MPD2    C413172   0.826   2.596   0.384 -0.1801  0.3332  0.6794
  899MPD2    C513173   0.824   2.531   0.263  0.3879 -0.3901  0.8113
  899MPD2     H13174   1.064   2.822   0.298 -1.4562  0.8496  0.9433
  899MPD2    H113175   0.760   2.557   0.460  0.9460 -1.4810  0.7297
  899MPD2    H213176   0.895   2.499   0.067  2.0598  1.4167 -1.0095
  899MPD2    H313177   0.759   2.444   0.261  0.7271 -0.6348  0.4448
  899MPD2     N13178   0.901   2.782   0.512  0.2598  0.5029 -0.1546
  899MPD2    H513179   0.821   2.760   0.571  0.7912 -0.8722  0.0523
  899MPD2    N113180   1.078   2.676   0.061  0.7687 -0.1479  0.4450
  899MPD2    H713181   1.057   2.622  17.681 -0.4505 -0.5581  1.0113
  900MPD2     C13182   0.966   3.746  12.801 -0.0114  0.7471  0.1040
  900MPD2    C113183   0.887   3.632  12.788 -0.3669 -0.1096  0.3682
  900MPD2    C213184   0.762   3.646  12.730  0.3554  0.6096 -0.4841
  900MPD2    C313185   0.720   3.770  12.682  0.2682  0.4217  0.0073
  900MPD2    C413186   0.798   3.884  12.696  0.3703  0.2571  0.2449
  900MPD2    C513187   0.917   3.867  12.754  0.6407  0.0850 -0.3856
  900MPD2     H13188   0.709   3.553  12.717 -0.8614  1.3816 -1.0866
  900MPD2    H113189   0.782   3.981  12.652 -1.0344 -0.5206 -0.9586
  900MPD2    H213190   1.065   3.737  12.845 -0.2041 -1.2581  0.1629
  900MPD2    H313191   0.978   3.956  12.746  0.7695  0.0456  0.1466
  900MPD2     N13192   0.595   3.765  12.621 -0.3309 -0.0617 -0.3011
  900MPD2    H513193   0.536   3.686  12.643 -2.3196  1.4560 -0.1639
  900MPD2    N113194   0.949   3.511  12.828  0.0411  0.2701  0.7190
  900MPD2    H713195   1.035   3.518  12.882 -1.0123  3.1808  1.9729
  901MPD2     C13196   0.846   2.747  13.530  0.3909 -0.5736  0.5485
  901MPD2    C113197   0.852   2.683  13.411 -0.4677 -0.0185 -0.3904
  901MPD2    C213198   0.894   2.749  13.295 -0.7131  0.4590 -0.2435
  901MPD2    C313199   0.919   2.888  13.307  0.4973  0.7230  0.5893
  901MPD2    C413200   0.899   2.948  13.430  0.0601  0.2247 -0.0341
  901MPD2    C513201   0.862   2.881  13.542 -0.7013  0.4208 -0.0910
  901MPD2     H13202   0.903   2.701  13.198 -1.3417 -1.7784  0.8058
  901MPD2    H113203   0.931   3.051  13.442  2.3865 -0.4328 -0.6007
  901MPD2    H213204   0.827   2.681  13.613  1.6306 -1.6449 -0.0183
  901MPD2    H313205   0.848   2.942  13.631 -2.6027  0.8735 -0.6953
  901MPD2     N13206   0.974   2.955  13.191 -0.1318 -0.4272 -0.0399
  901MPD2    H513207   1.018   2.903  13.116 -0.9889  2.4344 -2.5294
  901MPD2    N113208   0.826   2.544  13.413  0.0641  1.1102 -0.4052
  901MPD2    H713209   0.810   2.499  13.502  1.9515 -0.0735 -0.6698
  902MPD2     C13210   0.398   1.136  12.585 -0.0190  0.3215 -0.0645
  902MPD2    C113211   0.297   1.132  12.499  0.4137  0.1772 -0.6952
  902MPD2    C213212   0.276   1.018  12.416 -0.8376 -0.0128 -0.2325
  902MPD2    C313213   0.368   0.921  12.419 -1.2449  0.0462  0.0317
  902MPD2    C413214   0.480   0.935  12.505 -0.7617 -0.1598 -0.3127
  902MPD2    C513215   0.489   1.034  12.592  1.1140 -0.0724 -0.0725
  902MPD2     H13216   0.193   0.998  12.349  0.3846  0.8562 -2.0194
  902MPD2    H113217   0.563   0.864  12.499 -0.4419  0.1879  0.0307
  902MPD2    H213218   0.423   1.222  12.645  0.2789  0.8712 -0.9814
  902MPD2    H313219   0.578   1.043  12.654  2.5805  0.3751 -2.2138
  902MPD2     N13220   0.351   0.800  12.346 -0.2567  0.7666 -0.8221
  902MPD2    H513221   0.414   0.723  12.365 -1.1775  0.4865  1.0146
  902MPD2    N113222   0.211   1.243  12.493 -0.5127 -0.2420 -0.2534
  902MPD2    H713223   0.243   1.329  12.537  1.2823 -0.5608 -0.9220
  903MPD2     C13224   0.340   0.332  12.696 -0.5553 -0.1505 -0.4620
  903MPD2    C113225   0.267   0.331  12.577 -0.5645  0.0611 -0.4311
  903MPD2    C213226   0.127   0.343  12.579 -0.0893  0.1008  0.0234
  903MPD2    C313227   0.062   0.369  12.702  0.0001  0.2491 -0.7299
  903MPD2    C413228   0.134   0.358  12.825 -0.1195 -0.1710 -0.0339
  903MPD2    C513229   0.272   0.335  12.817 -1.0762  0.1231  0.0694
  903MPD2     H13230   0.059   0.350  12.495  1.8148 -0.2071 -1.5324
  903MPD2    H113231   0.093   0.375  12.923  0.2176  1.9604 -0.2663
  903MPD2    H213232   0.448   0.322  12.699 -0.6749 -0.3556  2.4981
  903MPD2    H313233   0.335   0.319  12.904  1.9110 -1.4509 -2.3759
  903MPD2     N13234   4.657   0.407  12.695  0.1165  0.9606 -0.0554
  903MPD2    H513235   4.615   0.421  12.604  0.0228 -1.2851 -0.3693
  903MPD2    N113236   0.342   0.334  12.459  0.0136 -0.5239 -0.3287
  903MPD2    H713237   0.440   0.358  12.463 -0.2053  0.4393 -0.6830
  904MPD2     C13238   4.064   0.914  14.330 -0.3312  0.2734 -0.0246
  904MPD2    C113239   4.172   0.972  14.284  0.4420 -0.2841 -0.8989
  904MPD2    C213240   4.292   0.953  14.349 -0.9206  0.0479  0.0245
  904MPD2    C313241   4.292   0.872  14.462 -0.1439  0.2793 -0.3764
  904MPD2    C413242   4.173   0.818  14.517 -0.5434 -0.7542  0.0348
  904MPD2    C513243   4.059   0.834  14.441  0.1130 -0.3479 -0.6920
  904MPD2     H13244   4.379   1.000  14.304 -2.4456  1.9326 -0.9537
  904MPD2    H113245   4.168   0.754  14.605  0.5038  1.2438  1.5560
  904MPD2    H213246   3.965   0.926  14.286  0.5379  0.7170 -1.8398
  904MPD2    H313247   3.966   0.790  14.474  1.3243 -1.6898  0.9633
  904MPD2     N13248   4.419   0.852  14.519 -0.4305 -0.7842 -0.0250
  904MPD2    H513249   4.495   0.908  14.481 -2.1087  1.5783  0.1270
  904MPD2    N113250   4.180   1.056  14.170 -0.4986  0.0371 -0.3892
  904MPD2    H713251   4.267   1.107  14.154 -0.4149 -0.1474 -0.5292
  905MPD2     C13252   3.704   1.205  13.524  0.8274  0.4804 -0.2251
  905MPD2    C113253   3.844   1.216  13.527 -0.9267 -0.0299 -0.5267
  905MPD2    C213254   3.920   1.168  13.421 -1.0948 -0.0170  0.1443
  905MPD2    C313255   3.857   1.109  13.316 -0.3746 -0.3222  0.1124
  905MPD2    C413256   3.720   1.092  13.309 -0.4653  0.0612  0.1240
  905MPD2    C513257   3.650   1.148  13.410  0.7619  0.1369  0.3042
  905MPD2     H13258   4.028   1.175  13.422 -1.0846 -0.0586 -0.4103
  905MPD2    H113259   3.676   1.046  13.221  0.0386 -1.2041  0.5255
  905MPD2    H213260   3.639   1.241  13.604 -0.7215 -1.9228 -0.4114
  905MPD2    H313261   3.542   1.133  13.411  0.8328 -0.3155  0.9125
  905MPD2     N13262   3.941   1.076  13.210  0.0620 -0.3747 -0.1637
  905MPD2    H513263   4.039   1.101  13.225 -0.2453  0.6694  0.1226
  905MPD2    N113264   3.903   1.275  13.643  0.0656  0.2068  0.0578
  905MPD2    H713265   3.844   1.299  13.722  1.2731  1.3711  0.6047
  906MPD2     C13266   1.465   0.552  11.593 -0.0436  0.1653 -0.0624
  906MPD2    C113267   1.439   0.429  11.527 -0.5715 -0.0014 -0.4224
  906MPD2    C213268   1.367   0.331  11.600 -1.0284  0.4856  0.6077
  906MPD2    C313269   1.329   0.354  11.726  0.3573  0.6267  0.3232
  906MPD2    C413270   1.359   0.474  11.790  0.1470  0.1676 -0.2010
  906MPD2    C513271   1.432   0.565  11.727  0.5281  0.3274  0.0340
  906MPD2     H13272   1.351   0.235  11.553 -2.0480  1.5792 -1.2710
  906MPD2    H113273   1.334   0.497  11.893  0.1125  0.6745 -0.3226
  906MPD2    H213274   1.514   0.638  11.548  0.5137 -0.7137 -1.1381
  906MPD2    H313275   1.457   0.659  11.774 -0.9699  1.2336 -0.9940
  906MPD2     N13276   1.255   0.256  11.797 -0.4719  0.3652  0.0257
  906MPD2    H513277   1.258   0.259  11.898 -0.2334 -3.4889  0.1064
  906MPD2    N113278   1.478   0.407  11.395  0.3460  0.0668  0.0222
  906MPD2    H713279   1.465   0.315  11.355 -0.0814  0.2044 -0.1516
  907MPD2     C13280   1.090   4.480  15.844 -0.8317 -0.0767 -0.0016
  907MPD2    C113281   1.008   4.376  15.790 -0.3494 -0.1313 -0.0293
  907MPD2    C213282   1.021   4.250  15.841  0.0432  0.6408 -0.9338
  907MPD2    C313283   1.109   4.226  15.942  0.3288  0.2147 -0.4779
  907MPD2    C413284   1.171   4.330  16.002 -0.4981  0.8603  0.0965
  907MPD2    C513285   1.166   4.459  15.955 -0.3168 -0.3385  0.2691
  907MPD2     H13286   0.973   4.164  15.796 -0.0090 -0.9730  2.1903
  907MPD2    H113287   1.242   4.312  16.082 -1.5147  0.4138  0.9013
  907MPD2    H213288   1.115   4.568  15.786  1.6238 -0.8209 -0.0795
  907MPD2    H313289   1.236   4.535  15.986  0.6589 -1.4902  0.8833
  907MPD2     N13290   1.113   4.098  15.999  0.1282  0.0387 -0.5026
  907MPD2    H513291   1.051   4.033  15.952 -0.8445  1.3841 -1.0702
  907MPD2    N113292   0.927   4.396  15.678  1.0107 -0.2093 -0.2017
  907MPD2    H713293   0.874   4.317  15.641  2.5011  0.1685 -3.1462
  908MPD2     C13294   2.372   4.689   9.883 -0.2279  0.1361  0.4059
  908MPD2    C113295   2.490   4.625   9.914  0.3305 -0.1889  0.0467
  908MPD2    C213296   2.599   4.704   9.956 -0.6568 -0.4320  0.1230
  908MPD2    C313297   2.587   0.114   9.977 -0.3325 -0.1609  0.1506
  908MPD2    C413298   2.471   0.178   9.935  0.1639  0.0167 -0.3835
  908MPD2    C513299   2.360   0.103   9.898  0.1562 -0.1324 -0.1111
  908MPD2     H13300   2.698   4.661   9.967 -0.1717  0.3852 -0.9627
  908MPD2    H113301   2.458   0.285   9.945 -0.2218 -0.1687  1.1220
  908MPD2    H213302   2.283   4.631   9.861  0.3924  0.4551 -2.9440
  908MPD2    H313303   2.267   0.152   9.872 -0.0977 -0.0420  0.9380
  908MPD2     N13304   2.694   0.190  10.028 -0.3328  0.5575 -0.0991
  908MPD2    H513305   2.779   0.141  10.054 -0.1608  0.8023 -0.2051
  908MPD2    N113306   2.503   4.485   9.885  0.8416  0.0149 -0.5604
  908MPD2    H713307   2.423   4.438   9.843  0.6117 -0.3884  0.3216
  909MPD2     C13308   3.438   2.911  12.278 -0.1589  0.3059 -0.8652
  909MPD2    C113309   3.364   3.001  12.202  0.2212  0.1808 -0.3245
  909MPD2    C213310   3.287   3.099  12.266  0.2405 -0.1820  0.4135
  909MPD2    C313311   3.263   3.098  12.402  0.4061  0.4776  0.6070
  909MPD2    C413312   3.332   3.003  12.477  0.3720  0.1437 -0.8521
  909MPD2    C513313   3.412   2.911  12.413 -0.4124  0.1300  0.4128
  909MPD2     H13314   3.232   3.169  12.205  1.8469 -1.0826 -2.0512
  909MPD2    H113315   3.326   2.984  12.583  1.5318  1.7989 -0.5074
  909MPD2    H213316   3.511   2.850  12.227  0.5380  0.5993 -0.2277
  909MPD2    H313317   3.466   2.840  12.475  1.7405 -0.3674 -2.0086
  909MPD2     N13318   3.177   3.195  12.457  0.0979 -0.3143  0.1684
  909MPD2    H513319   3.164   3.274  12.395  2.0086  0.2563  0.4727
  909MPD2    N113320   3.373   3.010  12.058 -0.2801  0.0184  0.2084
  909MPD2    H713321   3.325   3.089  12.017  0.0563  0.0265 -0.1745
  910MPD2     C13322   0.035   0.479  15.944 -0.4716 -0.5629  0.4147
  910MPD2    C113323   0.073   0.370  15.867  0.1209 -0.6886 -0.1414
  910MPD2    C213324   0.025   0.343  15.741  0.1788 -0.0382  0.2359
  910MPD2    C313325   4.675   0.442  15.689  0.7313 -0.4976 -0.1363
  910MPD2    C413326   4.646   0.557  15.761  0.4236  0.7019  0.3523
  910MPD2    C513327   4.673   0.571  15.896  0.2698 -0.0704  0.0012
  910MPD2     H13328   0.068   0.262  15.684  0.4480  0.8035 -0.7622
  910MPD2    H113329   4.589   0.641  15.722 -0.1219  0.2046  0.0849
  910MPD2    H213330   0.066   0.502  16.046  1.2216 -1.8966  0.1989
  910MPD2    H313331   4.636   0.661  15.944 -1.2608 -1.9373  2.2851
  910MPD2     N13332   4.622   0.445  15.557  0.0333  0.1864  0.2694
  910MPD2    H513333   4.593   0.538  15.527 -0.3297 -0.9323 -2.9113
  910MPD2    N113334   0.157   0.265  15.916 -0.0029  0.1106 -0.6056
  910MPD2    H713335   0.162   0.186  15.852 -1.7759 -0.6922  0.2241
  911MPD2     C13336   2.622   1.081  16.634  0.4953 -0.5707 -0.6825
  911MPD2    C113337   2.704   1.172  16.705  0.2594 -0.2139  0.0438
  911MPD2    C213338   2.668   1.304  16.715  0.5398 -0.2969  0.1655
  911MPD2    C313339   2.546   1.334  16.647  0.6193 -0.2130 -1.1697
  911MPD2    C413340   2.463   1.244  16.588  0.2511  0.0705  0.3296
  911MPD2    C513341   2.502   1.118  16.583  0.4057 -0.7006  0.1746
  911MPD2     H13342   2.731   1.373  16.769 -2.1449  3.5883 -1.6372
  911MPD2    H113343   2.363   1.266  16.551  1.0413  3.2779  0.1117
  911MPD2    H213344   2.661   0.983  16.612 -0.0099 -1.1806  1.1633
  911MPD2    H313345   2.436   1.047  16.532 -0.1238  0.3936 -0.6587
  911MPD2     N13346   2.497   1.465  16.638  0.6566  0.4383  0.1372
  911MPD2    H513347   2.405   1.472  16.598  1.1153 -1.2340 -1.2090
  911MPD2    N113348   2.830   1.127  16.753  0.1618 -0.4045 -0.0256
  911MPD2    H713349   2.846   1.028  16.740  1.6239 -0.1083 -0.4871
  912MPD2     C13350   1.924   1.390  16.321 -0.4265 -0.1284 -0.5177
  912MPD2    C113351   1.992   1.381  16.439  0.2855 -0.5141  0.6973
  912MPD2    C213352   1.989   1.260  16.506 -0.3314  0.2085  0.5051
  912MPD2    C313353   1.913   1.154  16.467  0.6314  0.4978 -0.4498
  912MPD2    C413354   1.844   1.162  16.347  0.3160  0.0813 -0.7604
  912MPD2    C513355   1.863   1.276  16.279  0.2691  0.4204  0.2660
  912MPD2     H13356   2.045   1.251  16.598  1.1580  0.3856 -0.3980
  912MPD2    H113357   1.775   1.086  16.311  0.6218 -1.4264  1.8599
  912MPD2    H213358   1.928   1.480  16.261  0.3672  1.2164  1.5330
  912MPD2    H313359   1.824   1.270  16.178  0.3293 -2.3692  0.4086
  912MPD2     N13360   1.905   1.037  16.548 -0.4272 -0.6968  0.2289
  912MPD2    H513361   1.971   1.026  16.625 -1.2955  0.8650  1.2102
  912MPD2    N113362   2.062   1.500  16.495 -0.1634 -0.1444  0.3895
  912MPD2    H713363   2.043   1.590  16.451 -1.6106 -0.0468  1.2174
  913MPD2     C13364   2.698   1.905  10.822  0.8832  0.1847  0.3540
  913MPD2    C113365   2.752   2.012  10.883  0.0187 -0.0689 -0.3867
  913MPD2    C213366   2.792   2.122  10.807  0.0673  0.4362 -0.5743
  913MPD2    C313367   2.754   2.127  10.675  0.3663 -0.5986  0.8549
  913MPD2    C413368   2.686   2.023  10.618  0.1671 -0.1559 -0.1437
  913MPD2    C513369   2.663   1.911  10.692  0.3465 -0.2128 -0.0113
  913MPD2     H13370   2.839   2.205  10.859 -0.4569  0.4498 -0.1277
  913MPD2    H113371   2.654   2.014  10.515  0.9921  2.6483 -0.6370
  913MPD2    H213372   2.660   1.824  10.883 -0.6284 -0.0642 -0.9175
  913MPD2    H313373   2.601   1.829  10.657 -1.2642  0.8427  0.3481
  913MPD2     N13374   2.764   2.246  10.599  0.0101  0.3510  0.2874
  913MPD2    H513375   2.697   2.261  10.525 -0.4550 -0.6995  0.5059
  913MPD2    N113376   2.769   1.994  11.022  0.0477  0.3189  0.5403
  913MPD2    H713377   2.730   1.905  11.052  0.8581 -0.9475 -2.1410
  914MPD2     C13378   0.769   2.343  12.555 -0.7092 -0.1322  0.1971
  914MPD2    C113379   0.786   2.450  12.640  0.2490 -0.5008 -0.6979
  914MPD2    C213380   0.780   2.425  12.780  0.6297  0.1931  0.3886
  914MPD2    C313381   0.768   2.294  12.819  0.1585  0.2988 -0.0799
  914MPD2    C413382   0.763   2.192  12.729 -0.0751  0.0352  0.0233
  914MPD2    C513383   0.749   2.220  12.598 -0.3129 -0.1401 -0.1422
  914MPD2     H13384   0.781   2.503  12.855  1.4675 -0.7882  1.4008
  914MPD2    H113385   0.744   2.089  12.757  0.5566 -0.2306 -0.5232
  914MPD2    H213386   0.762   2.350  12.447 -1.8893 -0.8718  0.2275
  914MPD2    H313387   0.708   2.149  12.528 -1.5808  0.4957 -0.0454
  914MPD2     N13388   0.764   2.265  12.956  0.0163  0.7264  0.2292
  914MPD2    H513389   0.764   2.351  13.010  2.0103  0.9771 -0.1660
  914MPD2    N113390   0.805   2.580  12.598 -0.4072  0.3153  0.1419
  914MPD2    H713391   0.799   2.602  12.499  0.7468 -0.1837 -0.0470
  915MPD2     C13392   3.295   2.875  15.557  0.5736  0.3964  0.6222
  915MPD2    C113393   3.191   2.807  15.629  0.2302 -0.2896 -0.1931
  915MPD2    C213394   3.190   2.820  15.769 -0.1256  0.5708 -0.1619
  915MPD2    C313395   3.283   2.906  15.830  1.2385 -0.3876 -0.7762
  915MPD2    C413396   3.377   2.977  15.756 -0.5357  0.5187  0.0373
  915MPD2    C513397   3.385   2.952  15.622  0.1769 -0.4512 -1.0913
  915MPD2     H13398   3.104   2.786  15.824 -0.0222  0.3264 -0.1535
  915MPD2    H113399   3.445   3.053  15.793  1.1888 -0.2832 -1.5144
  915MPD2    H213400   3.302   2.866  15.449 -2.5919  0.4488  0.4009
  915MPD2    H313401   3.452   3.015  15.564  2.4254 -1.5394  0.3483
  915MPD2     N13402   3.271   2.924  15.967 -0.5963  0.1384 -0.2826
  915MPD2    H513403   3.185   2.889  16.008 -1.0331 -1.4665 -2.6013
  915MPD2    N113404   3.092   2.742  15.549  0.1474  0.1994 -0.3781
  915MPD2    H713405   3.097   2.764  15.450  0.7662 -0.5593 -0.5181
  916MPD2     C13406   2.187   0.622  16.162 -0.0527  0.2040  0.5065
  916MPD2    C113407   2.088   0.634  16.067  0.3313 -0.2376  0.5321
  916MPD2    C213408   2.113   0.588  15.937 -0.0704 -0.3205 -0.0255
  916MPD2    C313409   2.236   0.542  15.900 -0.1275 -0.0647  0.0405
  916MPD2    C413410   2.338   0.540  15.992 -0.6959  0.3189  0.2506
  916MPD2    C513411   2.312   0.582  16.123 -0.4960 -0.0511 -0.2905
  916MPD2     H13412   2.047   0.602  15.852  0.8710  1.3144 -0.4894
  916MPD2    H113413   2.440   0.513  15.968 -1.1748 -0.6851 -0.6469
  916MPD2    H213414   2.170   0.668  16.259 -0.5302 -2.5927  1.7311
  916MPD2    H313415   2.395   0.597  16.191 -0.6781 -0.0765 -0.0626
  916MPD2     N13416   2.256   0.486  15.768 -0.2508  0.2724 -0.5781
  916MPD2    H513417   2.175   0.468  15.709  1.0103  0.6068 -2.4032
  916MPD2    N113418   1.960   0.682  16.110 -0.0050 -0.4729 -0.3719
  916MPD2    H713419   1.942   0.692  16.209 -2.2549 -0.2793 -0.7958
  917MPD2     C13420   1.983   2.665  11.348  0.5583 -0.1362  0.0727
  917MPD2    C113421   2.093   2.689  11.427 -0.4757  0.0317 -0.0192
  917MPD2    C213422   2.212   2.721  11.377  0.0672  0.2911 -0.2491
  917MPD2    C313423   2.233   2.731  11.244  0.1644 -0.1532 -0.1297
  917MPD2    C413424   2.121   2.727  11.165 -0.4445  0.6395  0.1794
  917MPD2    C513425   2.000   2.685  11.218  0.0708  0.5293 -0.3343
  917MPD2     H13426   2.299   2.721  11.441 -0.4971  0.8701  0.5223
  917MPD2    H113427   2.116   2.748  11.059 -0.8510  1.3118  0.3275
  917MPD2    H213428   1.882   2.660  11.386  0.1978  1.4823 -0.7133
  917MPD2    H313429   1.911   2.678  11.156  0.4407 -1.5961 -0.6305
  917MPD2     N13430   2.359   2.745  11.184  0.1548 -0.1768  0.7479
  917MPD2    H513431   2.357   2.764  11.084  0.5306 -1.2283  0.5362
  917MPD2    N113432   2.069   2.671  11.567 -0.0174 -0.4795 -1.0093
  917MPD2    H713433   1.976   2.639  11.593  0.0227  0.6743  0.5700
  918MPD2     C13434   2.449   3.092  12.440 -0.2898 -0.7120  0.6127
  918MPD2    C113435   2.511   3.007  12.356 -0.0115  0.2031 -0.0989
  918MPD2    C213436   2.446   2.959  12.245  0.2410 -0.2791 -0.1734
  918MPD2    C313437   2.311   2.969  12.231  0.7322 -0.4479  0.0768
  918MPD2    C413438   2.248   3.055  12.317  0.6426 -0.6023 -0.0353
  918MPD2    C513439   2.326   3.124  12.406  0.5792 -0.3626  0.6040
  918MPD2     H13440   2.502   2.896  12.177  0.3233 -1.4322  0.9732
  918MPD2    H113441   2.140   3.066  12.310  0.8101  1.7355  1.1706
  918MPD2    H213442   2.496   3.141  12.524 -0.0122  1.1775 -0.6211
  918MPD2    H313443   2.292   3.206  12.467  2.6057  0.1870  0.9858
  918MPD2     N13444   2.251   2.886  12.137  1.2971 -0.0218  0.3038
  918MPD2    H513445   2.313   2.838  12.073  1.3076  0.8959 -0.3604
  918MPD2    N113446   2.649   2.981  12.365 -0.0847  0.2942 -0.0723
  918MPD2    H713447   2.680   2.906  12.304  1.3632 -1.2865  2.6269
  919MPD2     C13448   2.758   1.663  12.052 -0.6427  0.6235 -0.5278
  919MPD2    C113449   2.718   1.542  11.996  0.0866 -0.2786  0.0956
  919MPD2    C213450   2.680   1.539  11.867 -0.3871  0.1365  0.2485
  919MPD2    C313451   2.689   1.652  11.787 -0.5321 -0.1842 -0.6062
  919MPD2    C413452   2.719   1.772  11.850  0.3222  0.3095  0.2185
  919MPD2    C513453   2.769   1.775  11.973  0.1820 -0.0022 -0.0149
  919MPD2     H13454   2.655   1.443  11.823  2.6721 -1.1282  1.2551
  919MPD2    H113455   2.725   1.861  11.788 -0.1855 -0.1355 -0.4716
  919MPD2    H213456   2.785   1.674  12.157  0.1339  1.5257 -0.8214
  919MPD2    H313457   2.796   1.870  12.018 -0.5821 -0.2540  0.9552
  919MPD2     N13458   2.642   1.661  11.652 -0.0832 -0.2507  0.2222
  919MPD2    H513459   2.625   1.755  11.617  0.6326 -0.2833 -0.2023
  919MPD2    N113460   2.728   1.421  12.070 -0.0076  0.0384  0.4952
  919MPD2    H713461   2.725   1.335  12.017  0.6145  0.7578 -0.6935
  920MPD2     C13462   2.396   2.091  10.786  1.1731 -0.3407  0.1805
  920MPD2    C113463   2.330   1.972  10.772 -0.2250  0.0764 -0.8033
  920MPD2    C213464   2.317   1.886  10.875  0.0019 -0.0456 -0.3122
  920MPD2    C313465   2.365   1.917  10.999 -0.4038  0.0125  1.1679
  920MPD2    C413466   2.428   2.038  11.019  0.2124  0.0831  0.0957
  920MPD2    C513467   2.444   2.120  10.908  0.0170 -0.4413  0.3152
  920MPD2     H13468   2.259   1.795  10.859 -1.5603  0.7014  1.1304
  920MPD2    H113469   2.462   2.074  11.115  1.8683  0.8336 -0.7843
  920MPD2    H213470   2.400   2.172  10.713  0.4576 -2.2161 -1.9281
  920MPD2    H313471   2.495   2.214  10.928 -1.9208  1.4467 -3.5725
  920MPD2     N13472   2.351   1.818  11.104 -0.5274  0.4319  0.5043
  920MPD2    H513473   2.301   1.732  11.085 -1.4881  1.2770 -0.8186
  920MPD2    N113474   2.292   1.924  10.638  0.3606  0.2422 -0.4291
  920MPD2    H713475   2.242   1.835  10.635  2.0112 -0.6235 -2.4228
  921MPD2     C13476   3.632   1.658  16.953  0.0423 -0.0209  0.2737
  921MPD2    C113477   3.632   1.562  16.857  0.1107 -0.0336 -0.6598
  921MPD2    C213478   3.564   1.441  16.880  0.1034 -0.2646  0.3219
  921MPD2    C313479   3.499   1.409  16.997 -0.5297 -0.1509  0.5080
  921MPD2    C413480   3.492   1.505  17.091 -0.8994 -1.3410  0.1430
  921MPD2    C513481   3.564   1.618  17.068 -0.2681 -0.3120  0.8841
  921MPD2     H13482   3.559   1.369  16.799  0.5509 -0.1436  0.1881
  921MPD2    H113483   3.444   1.485  17.186 -1.0657  0.0399  0.3570
  921MPD2    H213484   3.671   1.756  16.925 -0.2503  0.1158  0.3461
  921MPD2    H313485   3.561   1.700  17.140 -0.6318 -0.2020  0.7418
  921MPD2     N13486   3.408   1.303  17.014  0.1353 -0.7389 -0.1452
  921MPD2    H513487   3.357   1.297  17.102  1.1482  0.5323  0.5300
  921MPD2    N113488   3.703   1.588  16.732  0.2171 -0.0310  0.2232
  921MPD2    H713489   3.753   1.676  16.728  1.1630 -0.5774 -0.0374
  922MPD2     C13490   3.713   3.581  17.312  0.0592 -1.0676 -0.3924
  922MPD2    C113491   3.652   3.694  17.259  0.2939  0.6555  0.1456
  922MPD2    C213492   3.513   3.696  17.245  0.0080 -0.1762 -0.4527
  922MPD2    C313493   3.442   3.581  17.259 -0.2180  0.0005 -0.2253
  922MPD2    C413494   3.508   3.464  17.281 -0.3165  0.1177 -0.1009
  922MPD2    C513495   3.644   3.469  17.314  0.4756  0.1205  0.3617
  922MPD2     H13496   3.468   3.788  17.209 -2.7007 -1.1345  0.5185
  922MPD2    H113497   3.453   3.372  17.297  0.3134  0.1010  1.9701
  922MPD2    H213498   3.817   3.570  17.340  0.5572 -0.2832 -1.9304
  922MPD2    H313499   3.703   3.386  17.353  0.2429 -0.9632 -1.6176
  922MPD2     N13500   3.303   3.586  17.233  0.5087 -0.5894  0.6296
  922MPD2    H513501   3.263   3.674  17.202  2.0045 -0.2004 -0.1852
  922MPD2    N113502   3.731   3.810  17.228 -0.0703 -0.5214  0.1287
  922MPD2    H713503   3.684   3.900  17.222 -0.0034 -0.6371 -2.3103
  923MPD2     C13504   1.154   4.170   9.694 -0.6213 -0.5046  0.5295
  923MPD2    C113505   1.116   4.306   9.697 -0.1571 -0.4990 -0.2178
  923MPD2    C213506   1.164   4.387   9.798  0.1297 -0.2760 -0.0284
  923MPD2    C313507   1.222   4.319   9.910  0.0224  0.4908 -0.1309
  923MPD2    C413508   1.239   4.184   9.919  0.4432  0.0029 -0.5420
  923MPD2    C513509   1.213   4.113   9.806 -0.2614  0.0379 -0.0752
  923MPD2     H13510   1.152   4.494   9.801 -1.3621 -0.4662  0.8243
  923MPD2    H113511   1.286   4.140  10.007 -0.2427 -0.0789 -0.2176
  923MPD2    H213512   1.117   4.101   9.618 -2.1908 -1.8053  2.4715
  923MPD2    H313513   1.229   4.006   9.814 -2.8407 -0.3749 -0.4685
  923MPD2     N13514   1.269   4.397  10.020  0.2330 -0.0652 -0.0260
  923MPD2    H513515   1.326   4.339  10.082 -0.4210 -0.4340  0.2384
  923MPD2    N113516   1.035   4.347   9.589 -0.2291 -0.2256 -0.2149
  923MPD2    H713517   1.011   4.268   9.530  0.0546 -0.3562 -0.1569
  924MPD2     C13518   0.643   3.469  15.661 -0.1926  0.4800 -0.0528
  924MPD2    C113519   0.622   3.486  15.793 -0.0223 -0.1975 -0.9661
  924MPD2    C213520   0.726   3.533  15.871 -0.4306 -0.2391  0.6568
  924MPD2    C313521   0.849   3.566  15.816  0.1613  0.3572 -0.2295
  924MPD2    C413522   0.873   3.549  15.678  0.5294 -0.1366 -0.2521
  924MPD2    C513523   0.767   3.499  15.610  0.5855  0.3515  0.4047
  924MPD2     H13524   0.704   3.551  15.975 -0.7786 -2.1446  0.9081
  924MPD2    H113525   0.965   3.569  15.626  2.0630 -1.6890  1.8708
  924MPD2    H213526   0.575   3.420  15.593  0.7428  0.8159 -1.2293
  924MPD2    H313527   0.779   3.492  15.503 -1.9659  2.5161 -0.0165
  924MPD2     N13528   0.953   3.619  15.903 -0.0643 -0.8271  0.2651
  924MPD2    H513529   1.033   3.652  15.851  1.5400 -2.1250  1.9469
  924MPD2    N113530   0.496   3.448  15.849 -0.1992  0.0579  0.8803
  924MPD2    H713531   0.423   3.419  15.785  0.2766  3.6328 -1.2804
  925MPD2     C13532   4.535   1.874  14.897 -0.3708 -0.0897  0.3490
  925MPD2    C113533   4.419   1.812  14.862 -0.0618  0.2153 -0.0750
  925MPD2    C213534   4.323   1.781  14.964  0.2432 -0.2538  0.1730
  925MPD2    C313535   4.346   1.797  15.101  0.6195 -0.3064 -0.4234
  925MPD2    C413536   4.465   1.860  15.129  0.5471  0.1013 -0.2841
  925MPD2    C513537   4.548   1.912  15.032  0.2570  0.1939 -0.3615
  925MPD2     H13538   4.231   1.739  14.925  0.2297  0.3177 -0.4126
  925MPD2    H113539   4.478   1.886  15.233 -0.0880 -0.2360 -0.1152
  925MPD2    H213540   4.621   1.902  14.838  0.5570 -1.6983  0.9352
  925MPD2    H313541   4.626   1.977  15.069 -1.7373  2.4821 -0.1566
  925MPD2     N13542   4.250   1.762  15.194  0.3415  0.0018  0.7696
  925MPD2    H513543   4.286   1.773  15.288 -1.8558  1.5097  1.4204
  925MPD2    N113544   4.367   1.773  14.737  0.2725 -0.2896 -0.2841
  925MPD2    H713545   4.273   1.737  14.741 -0.4477  1.6377  0.2883
  926MPD2     C13546   2.635   4.582  13.899 -0.4771 -0.4426  0.0801
  926MPD2    C113547   2.705   4.695  13.948 -0.6451  0.0401 -0.5349
  926MPD2    C213548   2.828   0.002  13.884 -0.1977  0.3347 -0.8275
  926MPD2    C313549   2.881   4.649  13.785 -0.2091 -0.3414  0.0818
  926MPD2    C413550   2.818   4.532  13.763 -0.1728 -0.1697 -0.9616
  926MPD2    C513551   2.697   4.496  13.814  0.2671  0.3897 -0.1359
  926MPD2     H13552   2.871   0.098  13.905 -2.4731  1.4392 -1.2087
  926MPD2    H113553   2.864   4.464  13.693  0.4571  0.2344 -0.9354
  926MPD2    H213554   2.543   4.558  13.951 -0.6377 -0.4665 -0.2163
  926MPD2    H313555   2.653   4.409  13.767  2.1623 -1.0502  0.7803
  926MPD2     N13556   3.006   4.675  13.721  0.3559 -0.2519  0.0421
  926MPD2    H513557   3.044   4.603  13.661  0.5905  0.2474 -0.3997
  926MPD2    N113558   2.654   0.060  14.046  0.1957 -0.6043  0.7005
  926MPD2    H713559   2.708   0.145  14.062  2.1371 -1.4200 -1.3753
  927MPD2     C13560   3.304   2.716   0.471  0.1175  0.6414 -0.0055
  927MPD2    C113561   3.216   2.814   0.422 -0.4513 -0.3329 -0.2861
  927MPD2    C213562   3.153   2.790   0.302  0.2726 -0.2766 -0.4362
  927MPD2    C313563   3.179   2.683   0.220 -0.6478 -0.1719  0.3090
  927MPD2    C413564   3.262   2.584   0.269 -0.2093  0.0944  0.8113
  927MPD2    C513565   3.318   2.598   0.394 -0.3591 -0.6136  0.2109
  927MPD2     H13566   3.085   2.861   0.256 -0.6113 -0.4487  0.6043
  927MPD2    H113567   3.283   2.498   0.206 -1.2831 -0.5256  1.3006
  927MPD2    H213568   3.368   2.727   0.558  2.2559 -0.8459 -1.3932
  927MPD2    H313569   3.390   2.525   0.429  0.5673 -1.3617 -3.3498
  927MPD2     N13570   3.122   2.690   0.092 -0.0342  0.2088  0.1090
  927MPD2    H513571   3.078   2.774   0.056  0.6169  0.4794 -0.0700
  927MPD2    N113572   3.198   2.924   0.504  0.7350 -0.1893 -0.8220
  927MPD2    H713573   3.255   2.920   0.588 -1.8886  1.7638  1.0232
  928MPD2     C13574   1.723   1.291   1.244  0.1126  0.3969  0.1291
  928MPD2    C113575   1.685   1.419   1.275  0.4460  0.2048  0.1477
  928MPD2    C213576   1.685   1.509   1.165  0.1095  0.2265 -0.0834
  928MPD2    C313577   1.722   1.469   1.036 -0.0965  0.1237  0.6315
  928MPD2    C413578   1.774   1.341   1.015  0.0713 -0.2774  0.1366
  928MPD2    C513579   1.767   1.254   1.121 -0.3339 -0.0906 -0.2827
  928MPD2     H13580   1.645   1.609   1.176  2.4301  1.1544 -0.0595
  928MPD2    H113581   1.828   1.313   0.925 -0.3725  1.1023 -0.5567
  928MPD2    H213582   1.731   1.213   1.318 -0.8278  0.2129  0.0423
  928MPD2    H313583   1.813   1.158   1.101  0.8831  1.0891 -3.2149
  928MPD2     N13584   1.724   1.554   0.921  0.4096  0.3181  0.1329
  928MPD2    H513585   1.745   1.511   0.831 -3.7838  2.5610 -1.8919
  928MPD2    N113586   1.647   1.461   1.400 -0.1971  0.3333  0.3100
  928MPD2    H713587   1.659   1.394   1.476  0.8711  0.1064 -0.0623
  929MPD2     C13588   0.974   0.530  10.747  0.0730  1.0623 -0.7337
  929MPD2    C113589   0.890   0.432  10.695  0.5657  0.1081  0.2025
  929MPD2    C213590   0.866   0.428  10.558  0.4340 -0.1459  0.6691
  929MPD2    C313591   0.929   0.518  10.474  0.1218  0.2218  0.4907
  929MPD2    C413592   1.019   0.610  10.531  0.4779 -0.2520  0.1214
  929MPD2    C513593   1.037   0.616  10.660 -0.6464  0.2148 -0.0586
  929MPD2     H13594   0.815   0.339  10.520  0.5007  0.7447 -1.5406
  929MPD2    H113595   1.068   0.687  10.473  1.7085 -1.9702 -1.1107
  929MPD2    H213596   0.987   0.544  10.854 -0.6347 -1.8033 -0.2737
  929MPD2    H313597   1.086   0.703  10.702 -2.6896  0.0496  2.6852
  929MPD2     N13598   0.895   0.508  10.340 -0.7766 -0.8079  0.6129
  929MPD2    H513599   0.826   0.439  10.311  0.9721 -1.3208 -2.4245
  929MPD2    N113600   0.824   0.353  10.791  0.1537 -0.2512  0.9374
  929MPD2    H713601   0.849   0.354  10.889  1.4167 -1.4038  0.6299
  930MPD2     C13602   2.776   3.208  13.950 -0.4654  0.3972 -0.6114
  930MPD2    C113603   2.778   3.346  13.919  0.0893 -0.0804  0.6350
  930MPD2    C213604   2.754   3.390  13.789 -0.8934  0.4127 -0.2166
  930MPD2    C313605   2.724   3.296  13.691  0.2722  0.0740 -0.2556
  930MPD2    C413606   2.715   3.166  13.728  0.1311 -0.3773  0.1930
  930MPD2    C513607   2.743   3.124  13.855  0.0676  0.2614  0.5547
  930MPD2     H13608   2.749   3.495  13.761  2.8036  0.3951 -0.8510
  930MPD2    H113609   2.683   3.092  13.656 -0.2089 -0.6910  0.6696
  930MPD2    H213610   2.783   3.163  14.049  1.8233  0.0297 -0.9302
  930MPD2    H313611   2.740   3.016  13.868 -1.3312  0.1342 -0.8272
  930MPD2     N13612   2.716   3.324  13.549  0.2452  0.5439 -0.8239
  930MPD2    H513613   2.719   3.251  13.478 -1.1572  1.2734 -1.6227
  930MPD2    N113614   2.814   3.452  14.005  0.1348  0.1927 -1.0811
  930MPD2    H713615   2.819   3.541  13.957  1.0829  0.7421  0.0533
  931MPD2     C13616   3.402   2.734   1.018 -0.2429  0.7175 -0.1065
  931MPD2    C113617   3.293   2.804   1.065 -0.3984 -0.1296 -0.3567
  931MPD2    C213618   3.265   2.793   1.198  0.0123 -0.3981  0.4689
  931MPD2    C313619   3.350   2.722   1.286 -0.3057 -0.4727 -0.5905
  931MPD2    C413620   3.464   2.665   1.235  0.2982 -0.3554  0.7877
  931MPD2    C513621   3.490   2.672   1.100 -0.2047  0.3866 -0.5291
  931MPD2     H13622   3.172   2.828   1.239 -0.5872 -0.4985 -0.8049
  931MPD2    H113623   3.533   2.620   1.306 -1.2152 -3.2111  0.4720
  931MPD2    H213624   3.422   2.745   0.912 -0.8870 -0.2800 -0.3286
  931MPD2    H313625   3.580   2.628   1.057 -0.3681 -0.1776 -0.2939
  931MPD2     N13626   3.323   2.701   1.424  0.5854 -0.2323 -0.5711
  931MPD2    H513627   3.398   2.657   1.476  0.9643  2.0744  0.8243
  931MPD2    N113628   3.206   2.866   0.968 -1.0497  0.0890  0.4196
  931MPD2    H713629   3.233   2.849   0.872 -2.7031  0.0345 -0.0335
  932MPD2     C13630   4.508   1.363  11.614  0.6071  0.4678 -0.0285
  932MPD2    C113631   4.574   1.338  11.496  0.2853  0.3588  0.4512
  932MPD2    C213632   4.524   1.235  11.413  0.3169 -0.1342 -0.2041
  932MPD2    C313633   4.404   1.170  11.449 -0.5480  0.0293  0.4965
  932MPD2    C413634   4.338   1.204  11.566 -0.0789  0.5298  0.1156
  932MPD2    C513635   4.383   1.304  11.641  0.7368 -0.6420 -0.3744
  932MPD2     H13636   4.573   1.217  11.318 -0.4852  1.7175 -0.9697
  932MPD2    H113637   4.250   1.147  11.592 -0.1512  1.0038  0.9082
  932MPD2    H213638   4.543   1.443  11.678 -0.0373  0.2519  0.5838
  932MPD2    H313639   4.333   1.334  11.732  3.7007 -2.4369  1.8528
  932MPD2     N13640   4.358   1.053  11.382  0.1818  0.2535 -0.3838
  932MPD2    H513641   4.276   1.014  11.427  0.7865  0.0746  0.5639
  932MPD2    N113642   4.699   1.394  11.464 -0.7118  0.8622  0.2698
  932MPD2    H713643   0.010   1.361  11.374  2.8964  1.8063  1.3799
  933MPD2     C13644   1.595   2.138   2.064  0.3119  0.8795 -0.2086
  933MPD2    C113645   1.524   2.087   1.958  0.2377 -0.8213  0.7475
  933MPD2    C213646   1.391   2.129   1.935  0.2262 -0.0636  0.3389
  933MPD2    C313647   1.343   2.233   2.007 -0.5665 -0.2383 -0.0253
  933MPD2    C413648   1.421   2.293   2.110  0.4278  0.5988  0.1576
  933MPD2    C513649   1.550   2.248   2.139 -0.0755  0.5145 -0.1604
  933MPD2     H13650   1.343   2.097   1.843 -0.7686 -2.7874  1.8100
  933MPD2    H113651   1.387   2.376   2.171  1.3319  1.5188 -0.5865
  933MPD2    H213652   1.690   2.091   2.088 -0.2325 -0.0962  0.0293
  933MPD2    H313653   1.607   2.297   2.217 -0.0102  1.0713 -0.5582
  933MPD2     N13654   1.209   2.270   1.986 -0.0359 -0.1801 -0.4831
  933MPD2    H513655   1.157   2.232   1.907  0.5622 -0.4262 -0.7553
  933MPD2    N113656   1.583   1.983   1.882  0.0155  0.0089  0.1187
  933MPD2    H713657   1.667   1.946   1.925  0.4617  1.7753  0.7812
  934MPD2     C13658   1.348   4.213   2.098 -0.3221  0.1319  0.2569
  934MPD2    C113659   1.404   4.093   2.129 -0.4583  0.1847 -0.1243
  934MPD2    C213660   1.345   3.974   2.095 -0.5536 -0.6784 -0.2950
  934MPD2    C313661   1.226   3.970   2.019  0.1494  0.3008 -0.5411
  934MPD2    C413662   1.183   4.090   1.975  0.5171  0.8525 -0.4392
  934MPD2    C513663   1.245   4.204   2.010 -0.0329  0.4413 -0.2541
  934MPD2     H13664   1.389   3.879   2.125  2.0133  0.7435  0.4631
  934MPD2    H113665   1.093   4.102   1.917  0.9638 -1.6671 -1.6621
  934MPD2    H213666   1.397   4.308   2.115 -1.0297  0.6545 -0.6529
  934MPD2    H313667   1.207   4.300   1.977 -1.2399  0.3445  0.8173
  934MPD2     N13668   1.161   3.857   1.968 -0.1854  0.1017 -0.3978
  934MPD2    H513669   1.106   3.863   1.882  0.7284  2.6139 -0.7924
  934MPD2    N113670   1.529   4.081   2.200 -0.0118  0.0215 -0.1743
  934MPD2    H713671   1.573   3.991   2.213  1.1137  0.7330  0.9002
  935MPD2     C13672   1.732   3.525   1.726  0.0646  0.6157  0.2681
  935MPD2    C113673   1.619   3.515   1.639 -0.9004  0.0648 -0.0237
  935MPD2    C213674   1.502   3.471   1.694  0.6070  0.0142  0.0868
  935MPD2    C313675   1.492   3.432   1.822  0.3156  0.1945  0.1642
  935MPD2    C413676   1.607   3.425   1.897  0.4826 -0.2246 -0.2148
  935MPD2    C513677   1.724   3.484   1.857 -0.0369 -0.2853 -0.9301
  935MPD2     H13678   1.423   3.453   1.622  0.7700  0.6898 -0.2660
  935MPD2    H113679   1.600   3.383   1.997  3.8876 -0.3301 -0.0222
  935MPD2    H213680   1.827   3.567   1.694  0.2405  0.2947  0.3758
  935MPD2    H313681   1.810   3.492   1.922 -0.9201 -2.0564  0.4588
  935MPD2     N13682   1.370   3.397   1.876  0.0299 -0.2068 -0.1155
  935MPD2    H513683   1.360   3.397   1.977 -1.2548 -2.8205 -0.2312
  935MPD2    N113684   1.624   3.550   1.501  0.6283 -0.2403 -0.4891
  935MPD2    H713685   1.534   3.539   1.455  0.8290  1.5297 -1.2822
  936MPD2     C13686   0.496   0.128  14.083 -0.2494 -0.2152  0.2295
  936MPD2    C113687   0.369   0.090  14.044 -0.1015  0.3482  0.1106
  936MPD2    C213688   0.348   0.059  13.908 -0.0777  0.1202 -0.3527
  936MPD2    C313689   0.457   0.062  13.822 -0.8707  0.3579 -0.2013
  936MPD2    C413690   0.580   0.096  13.863  0.1111  0.0679 -0.0295
  936MPD2    C513691   0.603   0.122  13.994  0.4535  1.4176  0.0777
  936MPD2     H13692   0.244   0.046  13.882 -0.0445 -1.6629  0.4003
  936MPD2    H113693   0.667   0.089  13.799 -0.5295 -3.1644 -0.5477
  936MPD2    H213694   0.517   0.168  14.181  0.5213 -0.9181  0.3548
  936MPD2    H313695   0.700   0.151  14.035 -0.4833  2.8547  1.2824
  936MPD2     N13696   0.442   0.042  13.685 -0.4402  0.0903 -0.3813
  936MPD2    H513697   0.524   0.068  13.631 -0.0162  1.9533  1.1792
  936MPD2    N113698   0.257   0.100  14.126  0.3200  0.5039 -0.0685
  936MPD2    H713699   0.174   0.047  14.103 -0.2859  1.0233  0.9021
  937MPD2     C13700   2.694   0.753  11.867 -0.8886  0.5478 -0.9503
  937MPD2    C113701   2.767   0.869  11.872 -0.1412 -0.8599  0.7115
  937MPD2    C213702   2.845   0.909  11.764  0.1727 -0.2048 -0.4445
  937MPD2    C313703   2.866   0.816  11.660 -0.3386 -0.2180  0.0409
  937MPD2    C413704   2.802   0.691  11.662 -0.1560  0.9041 -0.0568
  937MPD2    C513705   2.718   0.659  11.766 -0.5992  0.7973 -0.1216
  937MPD2     H13706   2.897   1.004  11.757  0.7436 -0.5299 -0.6435
  937MPD2    H113707   2.799   0.620  11.579 -1.8526 -0.6000  1.3001
  937MPD2    H213708   2.618   0.710  11.932 -0.0054 -0.5244 -0.6251
  937MPD2    H313709   2.666   0.566  11.746  1.0047  0.0841 -0.9696
  937MPD2     N13710   2.939   0.855  11.540 -0.0794  0.6008  0.2706
  937MPD2    H513711   2.981   0.946  11.552  1.4156 -0.1613  0.7591
  937MPD2    N113712   2.720   0.963  11.960 -0.5793 -0.1916 -0.4424
  937MPD2    H713713   2.757   1.057  11.949  0.1734 -0.5901 -1.2967
  938MPD2     C13714   0.465   3.277   0.954  1.1642  0.1555  0.3033
  938MPD2    C113715   0.590   3.298   1.018  0.0364 -0.1797 -0.7821
  938MPD2    C213716   0.640   3.206   1.112 -0.0767  0.2282 -0.5411
  938MPD2    C313717   0.556   3.095   1.145  0.8926  0.3287 -0.3178
  938MPD2    C413718   0.431   3.082   1.080 -0.2708 -0.4762  0.2192
  938MPD2    C513719   0.382   3.175   0.992  0.3109 -0.4713  0.3043
  938MPD2     H13720   0.742   3.217   1.147  0.4221  1.8525 -2.5568
  938MPD2    H113721   0.367   2.998   1.106  0.7177 -1.5535 -0.8664
  938MPD2    H213722   0.417   3.336   0.876  0.9444 -1.8549 -1.0628
  938MPD2    H313723   0.290   3.164   0.936 -0.1213 -0.4140  1.0132
  938MPD2     N13724   0.592   2.996   1.233  0.0493  0.9553  0.3061
  938MPD2    H513725   0.534   2.913   1.240  1.6391 -0.1606  0.2055
  938MPD2    N113726   0.672   3.408   0.978  0.0548  0.1613  0.4083
  938MPD2    H713727   0.768   3.411   1.010  0.3689 -0.0551 -0.4945
  939MPD2     C13728   2.312   4.292   1.285  0.0620  0.2734 -0.0250
  939MPD2    C113729   2.384   4.395   1.228  0.2139  0.3581 -0.5983
  939MPD2    C213730   2.496   4.362   1.145  0.3572  0.1237  0.1342
  939MPD2    C313731   2.538   4.232   1.125  0.0645 -0.0135 -0.3129
  939MPD2    C413732   2.469   4.128   1.194 -0.4428  0.2711 -0.3356
  939MPD2    C513733   2.357   4.158   1.262 -0.3297 -0.3362  1.2071
  939MPD2     H13734   2.563   4.437   1.104 -0.5690  1.7962  1.6587
  939MPD2    H113735   2.483   4.023   1.170 -0.0766  0.1307  0.4927
  939MPD2    H213736   2.230   4.317   1.350 -0.1876  1.1997 -0.7062
  939MPD2    H313737   2.305   4.073   1.305  0.8466 -3.0608 -2.7923
  939MPD2     N13738   2.642   4.213   1.035  0.4346  0.3150 -0.2053
  939MPD2    H513739   2.675   4.294   0.983 -1.1122  2.5378  2.3129
  939MPD2    N113740   2.353   4.526   1.263  0.0989  0.3141  0.3657
  939MPD2    H713741   2.271   4.538   1.322 -1.4889 -1.7310 -1.4449
  940MPD2     C13742   1.121   4.528  13.450  0.0162  0.1742 -0.1383
  940MPD2    C113743   1.039   4.409  13.436  0.1889 -0.9893 -0.0687
  940MPD2    C213744   0.965   4.397  13.322  0.1885 -0.6424 -0.1494
  940MPD2    C313745   0.969   4.496  13.219  0.5683  0.0357 -0.5887
  940MPD2    C413746   1.046   4.608  13.234  0.1177  0.4076 -0.6345
  940MPD2    C513747   1.132   4.616  13.348  0.1941  0.2890  1.1506
  940MPD2     H13748   0.909   4.308  13.300  1.9504 -1.7871 -0.0292
  940MPD2    H113749   1.045   4.690  13.163  1.4965 -0.8939 -2.1556
  940MPD2    H213750   1.181   4.552  13.536 -0.3512  0.7902 -0.0479
  940MPD2    H313751   1.195   4.704  13.356  1.2084 -0.2108 -1.3844
  940MPD2     N13752   0.885   4.508  13.108 -0.3363  0.0468  0.1446
  940MPD2    H513753   0.907   4.596  13.062  0.6073 -2.8438 -4.8925
  940MPD2    N113754   1.033   4.308  13.532 -0.3368 -0.0748  0.0965
  940MPD2    H713755   0.959   4.240  13.518  0.7512 -1.2039 -0.2559
  941MPD2     C13756   0.860   2.742   9.507  0.0836 -0.4221 -0.5318
  941MPD2    C113757   0.740   2.765   9.575 -0.1526  0.1154  0.8159
  941MPD2    C213758   0.648   2.667   9.567  0.5557 -0.7714 -0.3823
  941MPD2    C313759   0.670   2.545   9.495  0.5418 -0.8469  0.2339
  941MPD2    C413760   0.789   2.526   9.427 -0.2921  0.4092  0.1972
  941MPD2    C513761   0.876   2.625   9.438 -0.0621  0.0940  0.1175
  941MPD2     H13762   0.549   2.682   9.610  1.1248 -0.2532  0.7522
  941MPD2    H113763   0.823   2.436   9.377  0.8006  0.4770  0.8324
  941MPD2    H213764   0.946   2.808   9.514 -2.4089  2.7027  0.9050
  941MPD2    H313765   0.977   2.615   9.398 -0.5900 -2.3363 -0.5979
  941MPD2     N13766   0.577   2.443   9.475 -0.4469  0.0148 -0.1418
  941MPD2    H513767   0.596   2.369   9.408  2.2239  0.3858  0.2204
  941MPD2    N113768   0.721   2.878   9.662 -0.2912  0.2758  0.3021
  941MPD2    H713769   0.635   2.879   9.717  2.2589  0.8969  4.2211
  942MPD2     C13770   4.304   4.347  10.068  0.5396 -0.1062  0.1918
  942MPD2    C113771   4.278   4.308   9.942  1.0932 -0.0765  0.1245
  942MPD2    C213772   4.357   4.346   9.833 -0.5746 -0.3037 -0.4481
  942MPD2    C313773   4.478   4.411   9.847 -0.6908 -0.2118  0.5869
  942MPD2    C413774   4.499   4.462   9.979  0.0447 -0.2130  0.0244
  942MPD2    C513775   4.418   4.421  10.081  0.7593 -1.0965  0.2384
  942MPD2     H13776   4.330   4.319   9.732  3.1841 -3.9735 -0.4952
  942MPD2    H113777   4.582   4.521  10.016  1.9319 -1.3646 -2.4078
  942MPD2    H213778   4.244   4.324  10.156  0.5631  1.9201  0.7419
  942MPD2    H313779   4.443   4.464  10.177 -0.6970 -2.0693  1.0585
  942MPD2     N13780   4.561   4.444   9.740  0.3964 -1.2159  0.4785
  942MPD2    H513781   4.640   4.508   9.749 -0.7431  0.4275 -1.1962
  942MPD2    N113782   4.162   4.230   9.921  0.5833  0.1215 -0.0790
  942MPD2    H713783   4.102   4.221  10.002  0.2274  0.0491 -0.3503
  943MPD2     C13784   3.056   3.471   9.839 -0.0185 -0.2354 -0.6067
  943MPD2    C113785   3.183   3.507   9.856  0.0116  0.1839 -0.4886
  943MPD2    C213786   3.211   3.641   9.826 -0.3987 -0.9713 -0.3240
  943MPD2    C313787   3.112   3.737   9.792 -0.4046  0.1103  0.1101
  943MPD2    C413788   2.989   3.681   9.774 -0.0292 -0.6579 -0.0370
  943MPD2    C513789   2.957   3.550   9.798 -0.1993 -0.8604 -0.0134
  943MPD2     H13790   3.313   3.677   9.828 -0.8204  0.2236 -0.7863
  943MPD2    H113791   2.910   3.750   9.745  0.1186 -0.1691  0.7394
  943MPD2    H213792   3.029   3.371   9.870  1.0414  0.1049  1.3980
  943MPD2    H313793   2.857   3.513   9.783  0.4165 -1.8740 -1.6008
  943MPD2     N13794   3.139   3.876   9.769  0.3252 -0.3695 -0.2858
  943MPD2    H513795   3.056   3.930   9.748  0.9366  0.6201 -0.1423
  943MPD2    N113796   3.275   3.414   9.914 -0.0253  0.1467 -0.4935
  943MPD2    H713797   3.241   3.324   9.947  1.1464  0.7568  2.3736
  944MPD2     C13798   3.189   1.788  11.079 -0.3982 -0.1886 -0.5345
  944MPD2    C113799   3.161   1.895  11.000 -0.1005  0.0278 -0.0686
  944MPD2    C213800   3.132   2.016  11.060 -0.3576 -0.0744  0.0259
  944MPD2    C313801   3.161   2.032  11.195 -0.5723 -0.1430 -0.3148
  944MPD2    C413802   3.210   1.933  11.271 -0.1004 -0.0577 -0.3260
  944MPD2    C513803   3.209   1.802  11.218 -0.3343 -0.0931  0.0786
  944MPD2     H13804   3.093   2.099  11.002  2.3669  0.6933 -0.6970
  944MPD2    H113805   3.230   1.944  11.377  1.0996 -0.5079 -0.5049
  944MPD2    H213806   3.208   1.686  11.048 -1.0243 -0.6564  0.6362
  944MPD2    H313807   3.224   1.717  11.283 -1.0424  0.9546  1.6281
  944MPD2     N13808   3.148   2.165  11.241 -0.1647 -0.1624  0.3802
  944MPD2    H513809   3.117   2.240  11.180  2.7528  0.3955 -0.3890
  944MPD2    N113810   3.162   1.886  10.857  0.2887  0.2693 -0.1673
  944MPD2    H713811   3.163   1.791  10.820  0.0714 -0.2263  1.1193
    1TCq1    O113812   1.703   4.046  15.175 -0.2791 -0.1840  0.4688
    1TCq1    C113813   1.720   4.094  15.296 -0.3888  0.1771  0.0027
    1TCq1    O213814   1.665   4.046  15.394  0.0258  0.0258 -0.6788
    1TCq1    C213815   1.847   4.160  15.306  0.4822  0.8357  0.5464
    1TCq1    C313816   1.949   4.108  15.380  0.4418  0.6019 -0.3257
    1TCq1    C413817   2.056   4.191  15.407 -0.2232 -0.2971 -0.5042
    1TCq1    C513818   2.062   4.313  15.354 -0.4277  0.1765 -0.2926
    1TCq1    C613819   1.961   4.360  15.276 -0.1097  0.2295 -0.4371
    1TCq1    C713820   1.848   4.285  15.255 -0.9663 -0.2735 -0.3784
    1TCq1    C813821   1.978   4.499  15.232 -1.0104 -0.5906  0.5993
    1TCq1    O413822   2.033   4.583  15.306  0.1844  0.1364  0.4613
    1TCq1    C913823   2.165   4.142  15.487  0.2145 -0.7408  0.0345
    1TCq1    O513824   2.274   4.198  15.459  0.1439 -0.0997  0.1167
    1TCq1    O613825   2.153   4.022  15.522  0.1178 -0.2221  0.2834
    1TCq1    H113826   1.739   4.103  15.104  0.0121  0.7602  1.3767
    1TCq1    H213827   1.935   4.011  15.425 -0.1731  0.2176 -1.3635
    1TCq1    H313828   2.151   4.368  15.382  1.0914 -2.2699 -0.2802
    1TCq1    H413829   1.766   4.318  15.191 -1.2869  0.5996  0.4832
    2MPD2     C13830   1.900   0.152  14.903 -0.5007 -0.1996 -0.4336
    2MPD2    C113831   1.859   0.031  14.845  0.6032  0.3920  0.4626
    2MPD2    C213832   1.857   4.634  14.915 -0.2861 -0.0769  0.3747
    2MPD2    C313833   1.902   4.642  15.045  0.6701 -0.6774  0.3393
    2MPD2    C413834   1.948   0.037  15.097 -0.0348 -0.5435 -0.2962
    2MPD2    C513835   1.943   0.154  15.029 -0.8156 -0.7242  0.1102
    2MPD2     H13836   1.824   4.542  14.869  2.2128 -1.3395  1.1229
    2MPD2    H113837   1.984   0.043  15.199  2.3469 -1.1852 -1.1031
    2MPD2    H213838   1.905   0.242  14.843 -1.4173 -0.6901 -1.2342
    2MPD2    H313839   1.981   0.246  15.074  0.0779 -0.7911 -0.5092
    2MPD2     N13840   1.923   4.517  15.108  0.0609  0.0334  0.1873
    2MPD2    H513841   1.894   4.441  15.048  1.0831  1.2399 -1.8385
    2MPD2    N113842   1.830   0.030  14.700 -0.1131  0.3754  0.0380
    2MPD2    H713843   1.830   0.121  14.655 -0.6453 -0.8350 -2.3793
    3TMC2    C113844   1.790   4.692  14.474 -0.0866 -0.3719 -0.0323
    3TMC2    C213845   1.751   4.588  14.383  0.1114 -0.7093 -0.0076
    3TMC2    C313846   1.708   4.635  14.257  0.6389 -0.5219  0.4100
    3TMC2    C413847   1.810   0.096  14.432 -0.5602  0.2052 -0.0287
    3TMC2    C513848   1.763   0.131  14.306  0.3123 -0.2830  0.4403
    3TMC2    C613849   1.716   0.038  14.216  0.6093 -0.6533  0.1602
    3TMC2     C13850   1.817   4.652  14.616 -0.5299  0.1055 -0.1108
    3TMC2     O13851   1.811   4.532  14.636 -0.2964 -0.1810  0.1097
    3TMC2     H13852   1.749   4.481  14.399 -0.6958 -0.8567 -1.1235
    3TMC2    H113853   1.858   0.176  14.487  2.9524 -1.0054 -1.2966
    3TMC2    H213854   1.690   0.061  14.113  1.1254 -0.5014  0.0623
    3TMC2    C713855   1.770   0.270  14.257  0.0798 -0.0092  0.0609
    3TMC2    C813856   1.665   4.532  14.164 -0.5599 -0.0241 -0.9630
    3TMC2    O113857   1.860   0.338  14.310  0.6717  0.3032  0.1159
    3TMC2    O213858   1.572   4.551  14.083  0.1763 -0.3834  0.5278
    3TMC2    O513859   1.769   4.443  14.162  0.0589 -0.2354  0.0487
    3TMC2    H513860   1.840   4.479  14.219  0.8186  0.1214 -1.1377
    4MPD2     C13861   0.397   0.469  13.523 -0.3263  0.3098 -0.0099
    4MPD2    C113862   0.480   0.508  13.422 -0.4548 -0.1526  0.3154
    4MPD2    C213863   0.617   0.521  13.442  0.4743  0.4258  0.8620
    4MPD2    C313864   0.671   0.480  13.561 -0.5593 -0.2467  0.3490
    4MPD2    C413865   0.595   0.421  13.658  0.0511 -0.8373 -0.4262
    4MPD2    C513866   0.453   0.426  13.642 -0.2698  0.1346 -0.5685
    4MPD2     H13867   0.687   0.559  13.369  0.0872 -1.0121 -0.2654
    4MPD2    H113868   0.638   0.386  13.752 -2.2785  0.1933  1.0241
    4MPD2    H213869   0.289   0.457  13.513 -0.4266  1.1090  0.1589
    4MPD2    H313870   0.397   0.376  13.720 -1.8767 -0.1604 -1.8806
    4MPD2     N13871   0.806   0.501  13.572  0.0264  1.1461  0.1581
    4MPD2    H513872   0.842   0.552  13.491  1.3497 -1.0512 -0.6328
    4MPD2    N113873   0.427   0.530  13.292 -0.4271 -0.0765  0.2702
    4MPD2    H713874   0.328   0.518  13.275 -0.4404 -1.4637  1.2927
    5TCq2    C113875   0.880   0.500  13.687 -0.5390  0.7298  0.0980
    5TCq2    O213876   0.854   0.441  13.793 -0.8692  0.8003  0.0601
    5TCq2    C213877   1.012   0.566  13.685  0.0259  0.0283 -0.4554
    5TCq2    C313878   1.046   0.645  13.585  0.0228 -1.1389 -0.3197
    5TCq2    C413879   1.167   0.705  13.584  0.2028 -0.0735  0.1403
    5TCq2    C513880   1.258   0.695  13.687  0.3895  0.1998 -0.1625
    5TCq2    C613881   1.218   0.609  13.789  0.3996 -0.5518 -0.2789
    5TCq2    C713882   1.102   0.544  13.789  0.2409 -0.7344 -0.5029
    5TCq2    C813883   1.321   0.548  13.874  0.5569  0.7943 -0.2673
    5TCq2    O413884   1.284   0.446  13.938 -0.1980 -0.2200  0.7018
    5TCq2    C913885   1.199   0.802  13.477 -0.1720 -0.0296 -0.0023
    5TCq2    O513886   1.127   0.799  13.375 -0.4421 -0.3794 -0.5783
    5TCq2    O613887   1.307   0.870  13.486 -0.7201 -0.0834 -0.0348
    5TCq2    H213888   0.969   0.679  13.516  0.4377 -1.4281 -0.9243
    5TCq2    H313889   1.356   0.739  13.671  0.0781  1.0681  0.3361
    5TCq2    H413890   1.077   0.470  13.863  0.9978 -0.2230  0.2537
    6MPD1     C13891   4.260   2.091  13.596  0.1438 -0.2534 -0.5649
    6MPD1    C113892   4.364   2.126  13.518  0.3344 -0.1720 -0.3046
    6MPD1    C213893   4.440   2.022  13.458  0.1745 -0.4391  0.3097
    6MPD1    C313894   4.412   1.890  13.488 -0.2042  0.4395  0.4218
    6MPD1    C413895   4.304   1.861  13.574 -0.3065 -0.4333 -0.2382
    6MPD1    C513896   4.228   1.963  13.626 -0.0545  0.4187 -0.4100
    6MPD1     H13897   4.532   2.058  13.414  0.5755 -1.3196  0.4282
    6MPD1    H113898   4.272   1.760  13.598  0.9488 -0.5774  0.8529
    6MPD1    H213899   4.189   2.162  13.638 -1.0587 -0.8047 -1.6660
    6MPD1    H313900   4.136   1.936  13.677  0.4106  0.5972  0.5322
    6MPD1     N13901   4.485   1.777  13.442  0.4326  0.0431  0.4653
    6MPD1    H513902   4.462   1.694  13.496  1.5309 -1.2940 -1.1258
    6MPD1    N113903   4.387   2.264  13.495 -0.4916 -0.1017  0.8362
    6MPD1    H613904   4.482   2.299  13.484 -1.0287  0.8684 -0.6942
    6MPD1    H713905   4.341   2.319  13.567 -1.5462 -1.6947  1.3621
    7MPD2     C13906   4.551   1.002  13.360  0.4573 -0.3626 -0.4016
    7MPD2    C113907   4.611   1.067  13.253 -0.0065 -0.0150  0.3021
    7MPD2    C213908   4.677   0.989  13.164 -0.3632  0.3664 -0.2368
    7MPD2    C313909   4.682   0.852  13.178  0.2932 -0.4119  0.5500
    7MPD2    C413910   4.619   0.788  13.289 -0.3755  0.3600 -0.4929
    7MPD2    C513911   4.545   0.866  13.373 -0.4185  0.5810  0.4037
    7MPD2     H13912   0.010   1.028  13.081 -2.0419 -0.1959 -1.6663
    7MPD2    H113913   4.608   0.681  13.302 -2.4512  0.5720 -0.5299
    7MPD2    H213914   4.500   1.065  13.432  0.3290  0.8406 -1.5537
    7MPD2    H313915   4.488   0.819  13.451 -0.2287 -0.6991 -0.2308
    7MPD2     N13916   0.036   0.787  13.080  0.9780 -0.4910  0.2711
    7MPD2    H513917   0.101   0.848  13.031 -0.2306 -0.4806 -1.3109
    7MPD2    N113918   4.613   1.207  13.237 -0.7596  0.4397 -0.1239
    7MPD2    H713919   4.680   1.235  13.167  0.3954  1.9129  1.5621
    8TMC3    C113920   0.187   0.641  13.005  0.5690  0.4659  0.0889
    8TMC3    C213921   0.282   0.572  13.080 -0.6806  0.2460 -0.1353
    8TMC3    C313922   0.408   0.617  13.074  0.1871  0.2547 -0.3919
    8TMC3    C413923   0.216   0.748  12.923  0.7117  0.6983 -0.4891
    8TMC3    C513924   0.345   0.792  12.923 -0.0770  0.4973 -0.7792
    8TMC3    C613925   0.443   0.732  13.004 -0.0671  0.1634 -0.3394
    8TMC3     C13926   0.065   0.653  13.067 -0.0889 -0.1964  0.0636
    8TMC3     O13927   0.038   0.562  13.143 -0.0721 -0.0403  0.0894
    8TMC3     H13928   0.253   0.476  13.122  3.7115 -0.9987  0.0510
    8TMC3    H113929   0.148   0.778  12.844  0.6952 -0.4208 -0.8944
    8TMC3    H213930   0.546   0.766  13.004  0.1070 -0.3894 -1.6242
    8TMC3    C713931   0.350   0.938  12.934 -0.8850 -0.4223 -0.4844
    8TMC3    C813932   0.495   0.584  13.185 -0.4042 -0.0346 -0.5319
    8TMC3    O113933   0.240   0.986  12.920 -0.3963  0.0248 -0.2515
    8TMC3    O213934   0.611   0.621  13.179 -0.3646  0.0881 -0.7944
    9TMC3    C113935   4.659   1.656  13.336 -0.1392 -1.0441 -0.2131
    9TMC3    C213936   0.058   1.654  13.285  0.9365 -0.0405 -0.1391
    9TMC3    C313937   0.114   1.529  13.268  0.3774 -0.2043 -0.2743
    9TMC3    C413938   4.583   1.543  13.355  0.7028  0.0628 -0.1556
    9TMC3    C513939   4.639   1.427  13.317  0.9075 -0.2014  0.5115
    9TMC3    C613940   0.043   1.417  13.286  0.2718  0.4936  0.0971
    9TMC3     C13941   4.603   1.788  13.373 -0.2103 -0.1733  0.3889
    9TMC3     O13942   4.671   1.884  13.345  0.5158  0.0707  0.3553
    9TMC3     H13943   0.112   1.748  13.283 -1.2776  1.2351  0.4764
    9TMC3    H113944   4.478   1.541  13.383  1.5521 -1.2629  2.8739
    9TMC3    H213945   0.092   1.321  13.301  1.7342  1.1857 -0.2708
    9TMC3    C713946   4.569   1.301  13.328  0.0119 -0.2636  0.4446
    9TMC3    C813947   0.249   1.514  13.221  0.1847 -0.3311 -0.3539
    9TMC3    O113948   4.479   1.289  13.412 -0.2715  0.0301 -0.2233
    9TMC3    O213949   0.329   1.605  13.242  0.0142 -0.2876  0.2989
   10MPD2     C13950   0.604   1.192  13.030 -1.0006 -0.2867 -0.4932
   10MPD2    C113951   0.480   1.139  13.006  0.3756 -0.0548  0.5134
   10MPD2    C213952   0.369   1.215  13.039  0.1599 -0.1753 -0.7181
   10MPD2    C313953   0.384   1.335  13.107  0.3836  0.5762  0.0777
   10MPD2    C413954   0.517   1.388  13.134  0.2211 -0.7270 -0.1356
   10MPD2    C513955   0.618   1.313  13.093  0.5147  0.3421  0.1862
   10MPD2     H13956   0.268   1.179  13.024 -0.8316  2.6594 -0.7907
   10MPD2    H113957   0.535   1.478  13.191  0.1110 -0.7238 -0.1052
   10MPD2    H213958   0.697   1.150  12.994 -0.3947  2.5188 -2.1773
   10MPD2    H313959   0.722   1.335  13.112  0.5762 -0.7053  1.0794
   10MPD2     N13960   0.261   1.390  13.152  0.1371  0.1097 -0.1334
   10MPD2    H513961   0.177   1.345  13.118 -0.4873  1.7620 -0.7968
   10MPD2    N113962   0.469   1.002  12.969  0.1889 -0.2851 -0.0094
   10MPD2    H713963   0.551   0.944  12.957  0.9885  1.7464 -4.1743
   11MPD2     C13964   1.782   0.507  14.080  0.3092 -0.5887  0.2418
   11MPD2    C113965   1.673   0.425  14.089  0.0465 -0.1960 -0.1180
   11MPD2    C213966   1.559   0.467  14.022 -0.3091  0.3944  0.3885
   11MPD2    C313967   1.554   0.581  13.939  0.3535  0.9140 -0.7053
   11MPD2    C413968   1.672   0.654  13.928  0.5033  0.3971  0.1614
   11MPD2    C513969   1.781   0.615  13.998  0.2461 -0.1252 -0.8622
   11MPD2     H13970   1.472   0.408  14.045  0.5422 -1.5894 -1.3692
   11MPD2    H113971   1.679   0.742  13.865 -1.6337  0.5305  0.1287
   11MPD2    H213972   1.878   0.482  14.124  0.5444  0.7633  0.4902
   11MPD2    H313973   1.875   0.669  13.994 -0.5779  1.3846  0.1816
   11MPD2     N13974   1.434   0.624  13.878  0.1378 -0.0001 -0.2522
   11MPD2    H513975   1.437   0.715  13.834  0.1037 -0.2254 -0.7187
   11MPD2    N113976   1.668   0.305  14.171 -0.4286 -0.7583 -0.3716
   11MPD2    H713977   1.590   0.241  14.164 -2.0685  1.2488 -0.4578
    1MPD1     C13978   3.408   1.943  17.463  0.3870 -0.0003  0.4349
    1MPD1    C113979   3.541   1.960  17.500 -0.1043 -0.2048 -1.0267
    1MPD1    C213980   3.631   1.976  17.399  0.5874  0.3138 -0.4867
    1MPD1    C313981   3.587   2.002  17.270  0.1806  0.8412 -0.1909
    1MPD1    C413982   3.454   1.987  17.232  0.1938  0.0803  0.4367
    1MPD1    C513983   3.362   1.963  17.333 -0.3651  0.4355 -0.2240
    1MPD1     H13984   3.737   1.979  17.421  0.5457  2.1323 -0.5316
    1MPD1    H113985   3.426   1.984  17.127 -3.0903  0.3137  1.3206
    1MPD1    H213986   3.334   1.918  17.538  0.8067  0.9480  1.1612
    1MPD1    H313987   3.258   1.957  17.304 -0.7797  2.9498  0.7299
    1MPD1     N13988   3.672   2.033  17.164  0.1823  0.3501  0.1567
    1MPD1    H513989   3.621   2.060  17.080 -0.7477 -0.8339  0.3400
    1MPD1    N113990   3.571   1.943  17.637  0.1696 -0.2221 -0.8684
    1MPD1    H613991   3.642   2.012  17.662  1.4133 -1.7258 -0.3204
    1MPD1    H713992   3.494   1.960  17.701  1.1932  1.8286 -0.1707
    2MPD1     C13993   4.692   2.252  16.804  0.1491 -0.1854  0.6799
    2MPD1    C113994   4.643   2.169  16.702 -0.6181  0.3466 -0.3409
    2MPD1    C213995   4.513   2.113  16.722 -0.8445  0.0782  0.4630
    2MPD1    C313996   4.434   2.173  16.816 -0.5098 -0.3584  0.6862
    2MPD1    C413997   4.488   2.271  16.909  0.0660 -0.6427 -0.2028
    2MPD1    C513998   4.620   2.297  16.906 -0.5378  0.4254 -0.0126
    2MPD1     H13999   4.475   2.050  16.643 -0.4561  0.2639  0.1274
    2MPD1    H114000   4.425   2.328  16.977 -1.1215 -1.1989 -0.8388
    2MPD1    H214001   0.072   2.280  16.803 -0.6594  2.8343 -1.1838
    2MPD1    H314002   4.670   2.365  16.974 -0.5135  0.5754 -0.1820
    2MPD1     N14003   4.294   2.119  16.824 -0.4823  0.6095 -0.5161
    2MPD1    H514004   4.271   2.038  16.767  1.2048  0.4795 -0.9943
    2MPD1    N114005   0.005   2.129  16.601 -0.0576 -0.0024 -0.2239
    2MPD1    H614006   4.682   2.085  16.523  1.2755  1.2254 -1.7170
    2MPD1    H714007   0.051   2.209  16.559 -2.4950  1.0120 -0.9567
    3TMC3    C114008   4.079   2.080  16.917 -0.0827  0.4240  0.5563
    3TMC3    C214009   4.015   2.039  16.801 -0.2775  0.1513  0.2162
    3TMC3    C314010   3.886   1.998  16.806 -0.6490  0.2354  0.1541
    3TMC3    C414011   4.004   2.098  17.033 -0.0026 -0.1112 -0.0304
    3TMC3    C514012   3.874   2.048  17.034 -0.1318  0.4291 -0.6631
    3TMC3    C614013   3.808   1.993  16.926  0.3096 -0.3590 -0.0257
    3TMC3     C14014   4.209   2.154  16.926  0.3692  0.1111 -0.1421
    3TMC3     O14015   4.209   2.255  16.992  0.3776  0.4784  0.2190
    3TMC3     H14016   4.068   2.039  16.706 -1.3605  0.1964 -0.3937
    3TMC3    H114017   4.051   2.144  17.119 -3.4385 -0.5038  2.0476
    3TMC3    H214018   3.702   1.974  16.920  0.3452 -1.1627  1.9941
    3TMC3    C714019   3.817   2.047  17.166  0.2556  0.8623 -0.1164
    3TMC3    C814020   3.813   1.964  16.685 -0.5964 -0.2012  0.2960
    3TMC3    O114021   3.894   2.023  17.255  0.3519 -0.0145 -0.5369
    3TMC3    O214022   3.750   1.860  16.693  0.1015 -0.1278  0.3788
    4MPD1     C14023   3.699   1.969  16.180 -0.0942  1.0782 -0.3611
    4MPD1    C114024   3.796   2.062  16.204  0.6348  0.4388  0.1236
    4MPD1    C214025   3.837   2.092  16.335  0.5694 -0.2869 -0.3053
    4MPD1    C314026   3.793   2.016  16.441  0.6915 -0.0133 -0.5493
    4MPD1    C414027   3.703   1.914  16.411 -0.4528 -0.0997  0.7030
    4MPD1    C514028   3.655   1.897  16.285 -0.7365 -0.1007 -1.1571
    4MPD1     H14029   3.912   2.170  16.341  1.1052 -0.8187 -0.0027
    4MPD1    H114030   3.658   1.850  16.486 -2.1100 -1.7413 -1.7093
    4MPD1    H214031   3.653   1.952  16.083 -1.4179 -2.7987  0.9472
    4MPD1    H314032   3.564   1.838  16.282 -0.3460 -0.7993  0.7058
    4MPD1     N14033   3.843   2.042  16.573 -0.2619  0.8867  0.0116
    4MPD1    H514034   3.909   2.119  16.583  2.3616 -1.4705  0.6590
    4MPD1    N114035   3.851   2.150  16.094  0.3136 -0.1781 -0.1265
    4MPD1    H614036   3.935   2.199  16.122  0.7831 -1.4090  0.6320
    4MPD1    H714037   3.877   2.099  16.010  2.4525  0.1498  0.3580
    1TCq1    O114038   0.440   1.516  10.763 -0.3153 -0.1399 -0.4513
    1TCq1    C114039   0.449   1.518  10.628 -0.1094 -0.5948 -0.0141
    1TCq1    O214040   0.472   1.617  10.556  0.1075  0.0743  0.2874
    1TCq1    C214041   0.504   1.393  10.578 -0.3145  0.2411 -0.7108
    1TCq1    C314042   0.455   1.269  10.609  0.2652 -0.1429  0.8447
    1TCq1    C414043   0.490   1.162  10.532  0.7039 -0.4969 -0.6317
    1TCq1    C514044   0.607   1.163  10.465  0.6668 -0.0588 -0.2169
    1TCq1    C614045   0.651   1.289  10.431  1.0861 -0.6751 -0.0189
    1TCq1    C714046   0.599   1.410  10.477 -0.4429  0.0902  0.3192
    1TCq1    C814047   0.765   1.307  10.348  0.4947 -0.1943 -0.1096
    1TCq1    O414048   0.801   1.421  10.329 -0.5126  0.5096  0.1228
    1TCq1    C914049   0.430   1.039  10.558  1.0155  0.1563 -0.3923
    1TCq1    O514050   0.371   1.020  10.666 -0.4381  0.0058  0.4066
    1TCq1    O614051   0.442   0.944  10.474  0.2631 -0.6273 -0.2598
    1TCq1    H114052   0.434   1.427  10.804 -0.3212 -0.3297 -0.8632
    1TCq1    H214053   0.368   1.264  10.674  0.6163 -2.8967  1.0801
    1TCq1    H314054   0.640   1.065  10.433  1.8137  0.8579 -1.8375
    1TCq1    H414055   0.632   1.508  10.444 -0.9583  0.9388  2.2717
    2MPD1     C14056   1.123   1.140  10.026 -0.3832  0.5240 -0.9145
    2MPD1    C114057   1.078   1.033  10.101 -0.0745  0.3173 -0.1548
    2MPD1    C214058   0.972   1.056  10.185  0.9227 -0.1089 -0.3359
    2MPD1    C314059   0.928   1.184  10.216  0.4051 -0.0262 -0.2106
    2MPD1    C414060   0.986   1.287  10.144 -0.0625 -0.6306  0.3375
    2MPD1    C514061   1.077   1.260  10.046  0.1648 -0.3095 -0.4925
    2MPD1     H14062   0.926   0.967  10.226  2.5221 -0.9053 -0.2574
    2MPD1    H114063   0.958   1.390  10.166  3.7156  0.6162 -0.5638
    2MPD1    H214064   1.198   1.133   9.947  1.4788 -0.0617  0.9040
    2MPD1    H314065   1.132   1.343  10.002 -0.9835  0.1138 -1.1228
    2MPD1     N14066   0.825   1.191  10.309 -0.4574  0.6682  0.2902
    2MPD1    H514067   0.801   1.102  10.352  0.4420 -0.1004 -0.8035
    2MPD1    N114068   1.113   0.899  10.067 -0.7816 -0.8591 -0.0816
    2MPD1    H614069   1.209   0.902  10.033 -0.2629  1.9415  1.5996
    2MPD1    H714070   1.121   0.840  10.150 -1.4607  2.0196  2.0284
    1TCq1    O114071   0.182   2.724  10.350  0.4262  0.2922  0.4154
    1TCq1    C114072   0.116   2.617  10.299  0.1477 -0.4829  0.4190
    1TCq1    O214073   0.173   2.526  10.242 -0.0360 -0.0360  0.4180
    1TCq1    C214074   4.699   2.654  10.270  0.5515 -0.1756  0.6070
    1TCq1    C314075   4.636   2.736  10.357  0.1358 -0.5980 -0.6538
    1TCq1    C414076   4.498   2.740  10.339 -0.3885  0.0132 -0.2953
    1TCq1    C514077   4.445   2.688  10.228  0.3491  0.3398 -0.1035
    1TCq1    C614078   4.517   2.636  10.125  0.1796  0.1507  0.0038
    1TCq1    C714079   4.653   2.622  10.150  0.0311 -0.7391 -1.1388
    1TCq1    C814080   4.456   2.569  10.010  0.0360 -0.0786 -0.6514
    1TCq1    O414081   4.534   2.503   9.941 -0.4050 -0.8411 -0.3479
    1TCq1    C914082   4.408   2.772  10.448 -0.0233  0.1025 -0.3560
    1TCq1    O514083   4.289   2.762  10.416  0.3076  0.8261 -0.0850
    1TCq1    O614084   4.453   2.814  10.558  0.1534 -0.0060 -0.0527
    1TCq1    H114085   0.114   2.791  10.372  0.2192 -0.3418  1.6430
    1TCq1    H214086   4.681   2.742  10.456  0.3062  1.8054 -0.8831
    1TCq1    H314087   4.337   2.687  10.221  0.3836 -1.1716 -0.3445
    1TCq1    H414088   4.723   2.571  10.085 -1.7141 -2.0014 -2.0066
    2MPD1     C14089   4.040   2.355   9.807 -0.7631 -0.8076 -0.0070
    2MPD1    C114090   3.995   2.453   9.892 -0.0874  0.4580  0.0646
    2MPD1    C214091   4.095   2.539   9.952 -0.0915 -0.2327  0.0011
    2MPD1    C314092   4.227   2.518   9.930 -0.4475 -0.1293 -0.0209
    2MPD1    C414093   4.260   2.419   9.844 -0.0244 -0.4826 -0.0192
    2MPD1    C514094   4.170   2.336   9.789  0.2324 -0.1416  0.2946
    2MPD1     H14095   4.058   2.624  10.008 -0.3102 -1.5930  1.9093
    2MPD1    H114096   4.362   2.403   9.809  0.1370  3.8477 -1.4581
    2MPD1    H214097   3.977   2.286   9.753 -1.9953 -2.4452  3.5788
    2MPD1    H314098   4.206   2.256   9.726 -0.6769  0.0788 -0.5126
    2MPD1     N14099   4.321   2.595  10.001  0.2487 -0.0867  0.5667
    2MPD1    H514100   4.286   2.663  10.068 -1.1326  3.0277 -3.3551
    2MPD1    N114101   3.853   2.480   9.905 -0.1028  0.1646  0.5000
    2MPD1    H614102   3.835   2.510  10.001  1.9238  0.3050  0.8415
    2MPD1    H714103   3.790   2.402   9.889 -1.5913  1.0836  1.8155
    1MPD1     C14104   2.345   4.550  12.480  0.3927  0.2289  0.2078
    1MPD1    C114105   2.269   4.651  12.532  0.1190  1.0049  0.4402
    1MPD1    C214106   2.230   0.025  12.450  0.1568  0.0950  0.5357
    1MPD1    C314107   2.263   0.028  12.309  0.6415  0.8383 -0.8757
    1MPD1    C414108   2.347   4.651  12.260  0.6298  0.1688  0.4091
    1MPD1    C514109   2.390   4.557  12.349 -0.2127  0.0763 -0.2318
    1MPD1     H14110   2.159   0.100  12.483  1.1150  0.8485  0.8912
    1MPD1    H114111   2.384   4.648  12.158 -1.4571 -0.8672 -0.3197
    1MPD1    H214112   2.365   4.459  12.536 -1.2099  0.7534  1.6351
    1MPD1    H314113   2.447   4.475  12.308 -2.5540 -1.1590 -1.0017
    1MPD1     N14114   2.207   0.125  12.226 -0.4641 -0.6963  0.4656
    1MPD1    H514115   2.144   0.191  12.270 -0.3229  0.4358 -1.0085
    1MPD1    N114116   2.222   4.644  12.662  0.0244  0.3656 -0.8217
    1MPD1    H614117   2.198   0.011  12.697 -0.3707  0.4305 -1.2513
    1MPD1    H714118   2.304   4.615  12.714 -0.6138  0.4492  0.2320
    2MPD1     C14119   1.053   1.267  12.091 -0.6820 -0.1953  0.2791
    2MPD1    C114120   0.986   1.191  11.999 -0.3698  0.2465  0.3385
    2MPD1    C214121   1.064   1.134  11.898  0.1734  0.1865 -0.5260
    2MPD1    C314122   1.199   1.156  11.879  0.4525  0.0589  0.6662
    2MPD1    C414123   1.262   1.246  11.961 -0.9836 -0.3392  0.5168
    2MPD1    C514124   1.183   1.299  12.069 -0.2989 -1.0209  0.4416
    2MPD1     H14125   1.015   1.057  11.840  0.2251 -0.4890  0.3188
    2MPD1    H114126   1.368   1.271  11.953 -0.6461 -0.5512  4.1747
    2MPD1    H214127   1.007   1.320  12.174 -1.0737 -0.1465  0.0251
    2MPD1    H314128   1.236   1.363  12.138 -0.3301  0.2842 -0.7611
    2MPD1     N14129   1.282   1.092  11.783 -0.2335 -0.6132  0.5202
    2MPD1    H514130   1.379   1.121  11.785 -0.7411  1.1647 -0.4024
    2MPD1    N114131   0.858   1.148  12.032  0.4227  0.3106  0.1759
    2MPD1    H614132   0.798   1.228  12.052 -1.2005 -0.0701 -3.1601
    2MPD1    H714133   0.812   1.099  11.956 -1.3554  0.2713  1.2710
    3MPD1     C14134   1.099   0.304  11.142 -0.0935  0.2708  0.4840
    3MPD1    C114135   1.107   0.308  11.280 -0.1626 -1.1239 -0.0308
    3MPD1    C214136   1.126   0.427  11.346 -0.1052 -0.1279  0.2056
    3MPD1    C314137   1.171   0.530  11.271 -0.1424  0.0327  0.1780
    3MPD1    C414138   1.169   0.525  11.133 -0.8656 -0.0275  0.0292
    3MPD1    C514139   1.136   0.409  11.066 -0.3194  0.6989  0.4443
    3MPD1     H14140   1.125   0.428  11.454 -0.5171  0.0357  0.2009
    3MPD1    H114141   1.202   0.607  11.070 -0.6541 -0.5633 -0.5600
    3MPD1    H214142   1.076   0.216  11.083  0.3389  1.2271 -1.1133
    3MPD1    H314143   1.129   0.406  10.958 -0.6142 -0.9368  0.5011
    3MPD1     N14144   1.224   0.644  11.347 -0.1127 -0.7911 -0.0546
    3MPD1    H514145   1.224   0.634  11.448 -2.7103 -1.8891 -0.1719
    3MPD1    N114146   1.052   0.202  11.350  0.9129  0.4012  0.7578
    3MPD1    H614147   1.073   0.187  11.449 -1.9072 -0.4375  1.2430
    3MPD1    H714148   1.085   0.120  11.300 -2.6550 -0.7984  0.3581
    4MPD2     C14149   2.130   0.888  12.179 -0.8465  0.7199  0.0612
    4MPD2    C114150   2.161   0.827  12.064  0.1783 -0.8022  0.3205
    4MPD2    C214151   2.231   0.893  11.969 -0.3770  0.0097 -0.2158
    4MPD2    C314152   2.266   1.027  11.991 -0.7825  0.3043  0.4207
    4MPD2    C414153   2.239   1.088  12.107  0.1917 -0.1027 -0.2351
    4MPD2    C514154   2.171   1.012  12.203 -0.1898  0.1297  0.5776
    4MPD2     H14155   2.263   0.846  11.876  1.1372 -1.8342  1.2326
    4MPD2    H114156   2.262   1.193  12.119  0.2564  0.0619 -1.8320
    4MPD2    H214157   2.060   0.841  12.247  1.0792 -0.6500  1.0914
    4MPD2    H314158   2.159   1.061  12.299 -2.4259 -2.5117  1.6472
    4MPD2     N14159   2.329   1.109  11.893 -0.2821  0.1707  0.4039
    4MPD2    H514160   2.330   1.210  11.905 -1.5873  0.2448 -0.0033
    4MPD2    N114161   2.134   0.694  12.038 -0.2559  0.1508  0.1134
    4MPD2    H714162   2.166   0.664  11.946  0.6027 -1.9110  1.1020
    5TMC3    C114163   2.055   0.470  12.050  0.5854 -0.1111 -0.1622
    5TMC3    C214164   2.116   0.368  12.112  0.6490 -0.2694 -0.0653
    5TMC3    C314165   2.193   0.282  12.043  0.3118  0.2608  0.9004
    5TMC3    C414166   2.059   0.478  11.914 -0.1767 -0.2505 -0.8683
    5TMC3    C514167   2.145   0.406  11.843  0.0343  0.2200  0.0977
    5TMC3    C614168   2.214   0.303  11.905  0.0260  0.6597  0.3241
    5TMC3     C14169   2.067   0.601  12.119 -0.4030  0.3369  0.4567
    5TMC3     O14170   2.026   0.609  12.236  0.1070 -0.0075 -0.2183
    5TMC3     H14171   2.110   0.363  12.220  1.2737  1.0591  0.0240
    5TMC3    H114172   2.004   0.561  11.871  0.0322 -0.3258 -1.2864
    5TMC3    H214173   2.274   0.233  11.847 -0.8426  0.0366  0.1782
    5TMC3    C714174   2.212   0.504  11.763 -0.0099 -0.0123  0.2020
    5TMC3    C814175   2.240   0.151  12.094  0.1130 -0.0076  0.0546
    5TMC3    O114176   2.201   0.624  11.781  0.5920  0.5419  0.4616
    5TMC3    O214177   2.296   0.078  12.013  0.5090 -0.7005  0.5723
    6TMC3    C114178   1.334   0.950  11.596 -0.1720  0.1902 -0.2559
    6TMC3    C214179   1.276   0.862  11.507  0.1734 -0.3979  0.2150
    6TMC3    C314180   1.347   0.839  11.388  0.2143 -0.1396 -0.5632
    6TMC3    C414181   1.436   1.027  11.571 -0.1540 -0.1848 -0.0797
    6TMC3    C514182   1.505   0.994  11.453 -0.2978  0.1447 -0.0161
    6TMC3    C614183   1.456   0.913  11.356  0.3836  0.4082 -0.1561
    6TMC3     C14184   1.234   1.014  11.679  0.4637 -0.1295 -0.4367
    6TMC3     O14185   1.122   0.970  11.664  0.0778 -0.2097 -0.1521
    6TMC3     H14186   1.184   0.808  11.528 -0.6526  1.3201  0.9559
    6TMC3    H114187   1.473   1.111  11.628  0.7442 -0.8707  0.3437
    6TMC3    H214188   1.509   0.894  11.263  0.0163  0.7419 -0.4332
    6TMC3    C714189   1.650   1.011  11.454  0.4173  0.1106  0.8107
    6TMC3    C814190   1.296   0.746  11.290 -0.1041 -0.4464  0.2355
    6TMC3    O114191   1.700   1.108  11.508 -0.6565 -0.1334 -0.1759
    6TMC3    O214192   1.322   0.764  11.175  0.2337  0.2423 -0.5537
    7MPD2     C14193   2.513   0.642  11.369  0.3648  0.3139 -0.4290
    7MPD2    C114194   2.485   0.707  11.489  0.2320  0.1514 -0.0139
    7MPD2    C214195   2.419   0.639  11.587 -0.6736  1.4534  0.3299
    7MPD2    C314196   2.379   0.508  11.570  0.1246 -0.5889 -0.4350
    7MPD2    C414197   2.405   0.446  11.453 -0.3209  0.8569 -0.0934
    7MPD2    C514198   2.467   0.514  11.353 -0.8673  0.7299  0.3755
    7MPD2     H14199   2.381   0.699  11.669 -1.2238  0.0451  1.1070
    7MPD2    H114200   2.361   0.348  11.439  2.0787  0.0344 -1.8818
    7MPD2    H214201   2.572   0.680  11.287 -1.0176  3.6006  0.1222
    7MPD2    H314202   2.485   0.465  11.258 -0.5962  2.4357 -0.4545
    7MPD2     N14203   2.283   0.445  11.663  0.1067 -0.0642 -0.2115
    7MPD2    H514204   2.267   0.348  11.636  3.9179 -1.1684  1.6016
    7MPD2    N114205   2.506   0.843  11.516 -0.3047  0.3651 -0.3164
    7MPD2    H714206   2.485   0.870  11.612 -0.2058 -0.6228 -0.0202
    8TMC3    C114207   2.509   1.068  11.472  0.2073  0.1014 -0.5305
    8TMC3    C214208   2.404   1.118  11.404 -0.2161  0.8952  0.1435
    8TMC3    C314209   2.319   1.193  11.474 -0.5470  0.5523 -0.5700
    8TMC3    C414210   2.528   1.086  11.607 -0.4367  0.3504 -0.4631
    8TMC3    C514211   2.442   1.160  11.678  0.0311 -0.2960  1.1163
    8TMC3    C614212   2.340   1.218  11.604  0.5589 -0.1481 -0.0372
    8TMC3     C14213   2.535   0.938  11.421  0.2358  0.2607 -0.0756
    8TMC3     O14214   2.523   0.913  11.302 -0.1221 -0.6061 -0.4352
    8TMC3     H14215   2.385   1.105  11.298 -1.5413 -1.1001  0.6251
    8TMC3    H114216   2.620   1.052  11.654  0.3599 -0.8640 -2.8590
    8TMC3    H214217   2.266   1.277  11.657 -0.4717 -1.1839 -0.3290
    8TMC3    C714218   2.387   1.058  11.774  0.6608 -0.6938  0.6765
    8TMC3    C814219   2.186   1.142  11.459 -0.1663  0.5282  0.2552
    8TMC3    O114220   2.418   0.943  11.754 -0.2123 -0.8237 -0.3460
    8TMC3    O214221   2.095   1.213  11.485  0.3564 -0.2096  0.3990
    9MPD2     C14222   2.116   0.800  11.359  0.1025  0.6412 -0.6899
    9MPD2    C114223   2.080   0.932  11.379 -0.0232  0.3821 -0.1646
    9MPD2    C214224   1.948   0.972  11.396 -0.6555 -0.2783  0.4202
    9MPD2    C314225   1.849   0.877  11.383  0.0408  0.3670  0.0149
    9MPD2    C414226   1.878   0.748  11.364  0.2925  0.6658 -0.3937
    9MPD2    C514227   2.007   0.712  11.358  0.1183 -0.0299  0.0363
    9MPD2     H14228   1.922   1.078  11.397 -1.8952 -0.5671 -1.4280
    9MPD2    H114229   1.805   0.669  11.376 -1.7294  2.7930  1.1532
    9MPD2    H214230   2.220   0.770  11.354  0.2400  0.8296  1.0765
    9MPD2    H314231   2.028   0.606  11.356 -2.3722 -0.5312  0.3666
    9MPD2     N14232   1.717   0.904  11.402 -0.2541 -0.1735  0.6595
    9MPD2    H514233   1.655   0.828  11.374 -0.5315 -0.0185  0.8544
    9MPD2    N114234   2.190   1.017  11.403 -0.1029  0.1961 -0.2714
    9MPD2    H714235   2.281   0.974  11.389  0.9654  2.7368 -1.1068
    1MPD1     C14236   0.648   3.888  15.852 -0.0084 -0.3016  0.4335
    1MPD1    C114237   0.635   4.005  15.779 -0.0499 -0.3190  0.6034
    1MPD1    C214238   0.665   4.122  15.848  0.0021 -0.3997 -0.4532
    1MPD1    C314239   0.686   4.139  15.989 -0.1064  0.3555 -0.2614
    1MPD1    C414240   0.686   4.017  16.061  0.7049 -0.7914 -0.2429
    1MPD1    C514241   0.670   3.901  15.989 -0.1951  0.1858 -0.4947
    1MPD1     H14242   0.666   4.216  15.794 -0.3894 -0.6225 -0.8491
    1MPD1    H114243   0.705   4.017  16.168 -1.1171  0.9389  0.0753
    1MPD1    H214244   0.639   3.789  15.809 -1.3560 -0.6703  1.5541
    1MPD1    H314245   0.676   3.808  16.043  0.8518  0.2834 -0.4326
    1MPD1     N14246   0.708   4.257  16.054 -0.1007  0.0534  0.1107
    1MPD1    H514247   0.738   4.250  16.151 -2.4792 -4.2015  0.5203
    1MPD1    N114248   0.636   3.995  15.642 -0.5006 -0.8775  0.3434
    1MPD1    H614249   0.592   4.079  15.605 -0.1659  0.0661  2.0863
    1MPD1    H714250   0.574   3.919  15.613 -0.8389  0.5462 -2.6464
    2MPD1     C14251   1.270   4.249  16.684 -0.2956 -0.1588  0.4717
    2MPD1    C114252   1.174   4.165  16.625 -0.3297 -0.2226 -0.0811
    2MPD1    C214253   1.087   4.224  16.528  0.3690 -0.0985 -0.7002
    2MPD1    C314254   1.115   4.353  16.481 -0.5649  0.6322  0.4489
    2MPD1    C414255   1.211   4.434  16.545  0.0076 -0.5615  1.5872
    2MPD1    C514256   1.295   4.374  16.638 -0.6573  0.0167  0.5251
    2MPD1     H14257   0.998   4.173  16.492  1.7079 -2.4311 -0.7005
    2MPD1    H114258   1.238   4.535  16.516 -0.4189 -0.8104  0.2949
    2MPD1    H214259   1.330   4.207  16.764 -1.3006  0.8364  1.7598
    2MPD1    H314260   1.378   4.421  16.688 -0.0904 -0.5214  0.0924
    2MPD1     N14261   1.023   4.400  16.384 -0.1302  0.2065 -0.0736
    2MPD1    H514262   0.951   4.331  16.366 -1.8556  2.1217 -0.5537
    2MPD1    N114263   1.146   4.043  16.690  0.6376 -0.2519 -0.0377
    2MPD1    H614264   1.229   3.993  16.722  1.5288  1.3350  0.0981
    2MPD1    H714265   1.092   3.981  16.629  3.9288 -2.5046 -0.6549
    3TCq2    C114266   1.009   4.530  16.342  0.1182 -0.4019 -0.2293
    3TCq2    O214267   1.074   4.631  16.362  0.0871 -0.5925 -0.1862
    3TCq2    C214268   0.887   4.547  16.256 -0.2713 -0.6239  1.6583
    3TCq2    C314269   0.852   4.680  16.238 -0.0836 -0.2697 -0.3208
    3TCq2    C414270   0.748   4.713  16.149  0.0481 -0.7157  0.3862
    3TCq2    C514271   0.701   4.617  16.066  0.5586  0.3424  0.0400
    3TCq2    C614272   0.747   4.483  16.083  0.0785  0.0661 -0.2210
    3TCq2    C714273   0.836   4.451  16.179  0.3291  0.0115  0.6174
    3TCq2    C814274   0.694   4.378  15.997  0.2103 -0.0319 -0.8816
    3TCq2    O414275   0.632   4.417  15.900  0.0802 -0.6192  0.1836
    3TCq2    C914276   0.717   0.123  16.129 -0.1071  0.2965 -0.4029
    3TCq2    O514277   0.774   0.207  16.202  0.4705  0.6510  0.0748
    3TCq2    O614278   0.670   0.152  16.016 -0.0080  0.4861 -0.2134
    3TCq2    H214279   0.893   0.030  16.304 -0.1464  0.3932 -1.0526
    3TCq2    H314280   0.637   4.640  15.982 -1.2610 -0.9536  1.0689
    3TCq2    H414281   0.892   4.359  16.171 -1.3081 -0.8974 -0.2982
    1TCq1    O114282   0.152   4.070  13.078 -0.7998 -0.0621 -0.7125
    1TCq1    C114283   0.274   4.092  13.127 -0.8978  0.2523 -0.8861
    1TCq1    O214284   0.331   4.022  13.214 -0.2227  0.0601  0.2663
    1TCq1    C214285   0.283   4.234  13.114 -0.6221 -0.0625 -0.0727
    1TCq1    C314286   0.267   4.296  12.997 -0.1853  0.8333  0.7333
    1TCq1    C414287   0.318   4.418  12.971 -0.8821  0.3204 -0.7273
    1TCq1    C514288   0.366   4.494  13.076  0.1742  0.3422 -0.4155
    1TCq1    C614289   0.393   4.429  13.195  0.2267  0.6138 -0.0351
    1TCq1    C714290   0.349   4.301  13.216 -0.2144 -0.0960 -0.7294
    1TCq1    C814291   0.504   4.483  13.279 -0.0272 -0.7985 -1.4013
    1TCq1    O414292   0.571   4.573  13.224  0.3011 -0.0758 -0.0980
    1TCq1    C914293   0.283   4.484  12.851  0.0406 -0.5454  0.0433
    1TCq1    O514294   0.216   4.421  12.766  0.0329 -0.2148  0.2602
    1TCq1    O614295   0.330   4.605  12.843  0.6171 -0.3003 -0.2635
    1TCq1    H114296   0.116   4.158  13.054 -1.3949 -0.3353 -0.8384
    1TCq1    H214297   0.221   4.251  12.910 -0.8731  1.8355  0.5724
    1TCq1    H314298   0.406   4.593  13.055 -0.5753  0.0826 -3.0819
    1TCq1    H414299   0.361   4.251  13.311  0.9823  1.0801 -0.2585
    2MPD2     C14300   0.707   4.516  13.498  0.0658 -0.2231  0.6428
    2MPD2    C114301   0.578   4.472  13.514 -0.0661  0.3961  1.0433
    2MPD2    C214302   0.528   4.462  13.641 -0.1558  0.5608  0.1751
    2MPD2    C314303   0.612   4.483  13.745 -0.4763 -0.1705 -0.5175
    2MPD2    C414304   0.743   4.512  13.728 -0.2126 -0.5112  0.3652
    2MPD2    C514305   0.789   4.539  13.603 -0.3612 -0.0353 -0.2872
    2MPD2     H14306   0.423   4.448  13.665 -0.6552  1.2612 -1.5586
    2MPD2    H114307   0.812   4.525  13.811  0.7296  0.8454 -0.6312
    2MPD2    H214308   0.746   4.529  13.398 -0.8692 -0.1338  0.2841
    2MPD2    H314309   0.895   4.562  13.594  0.1463 -1.5080  1.8112
    2MPD2     N14310   0.575   4.481  13.882  0.5784 -0.3362 -0.2743
    2MPD2    H514311   0.642   4.506  13.954 -0.6567 -2.1417  1.5215
    2MPD2    N114312   0.489   4.437  13.408  0.3916 -0.6375 -0.3912
    2MPD2    H714313   0.411   4.379  13.439 -1.3645  3.0001  2.0323
    3TCq1    O114314   0.156   4.562  14.423 -0.5489  0.1081 -0.2803
    3TCq1    C114315   0.157   4.470  14.317 -0.5699 -0.0539 -0.1394
    3TCq1    O214316   0.069   4.469  14.233 -0.4616  0.2722 -0.3124
    3TCq1    C214317   0.294   4.481  14.264  0.0579 -0.1127 -0.4582
    3TCq1    C314318   0.404   4.525  14.338  0.5474  0.5328 -0.2860
    3TCq1    C414319   0.529   4.509  14.282  0.3428  0.1322  0.1797
    3TCq1    C514320   0.542   4.483  14.153 -0.3276  0.1062 -0.6102
    3TCq1    C614321   0.434   4.468  14.072 -0.0482 -0.4250  0.4539
    3TCq1    C714322   0.310   4.463  14.130  0.5625 -0.3729  0.7697
    3TCq1    C814323   0.447   4.444  13.930  0.0660 -0.3451 -0.0593
    3TCq1    O414324   0.353   4.386  13.874  0.5304 -0.3672  0.7191
    3TCq1    C914325   0.644   4.530  14.364 -0.4160  0.1730 -0.0550
    3TCq1    O514326   0.747   4.467  14.328  0.0055 -0.1859  0.5457
    3TCq1    O614327   0.638   4.590  14.475 -0.0972  0.3524  0.2808
    3TCq1    H114328   0.225   4.543  14.489 -1.6197 -2.2829  0.1548
    3TCq1    H214329   0.384   4.552  14.441 -1.1173  1.8571 -0.9490
    3TCq1    H314330   0.643   4.490  14.112 -0.2950  0.0958 -0.5308
    3TCq1    H414331   0.224   4.437  14.068 -0.2978  2.7603  0.6722
    1MPD2     C14332   3.553   0.041  15.523  0.0632 -0.1923  0.4273
    1MPD2    C114333   3.477   4.662  15.509 -0.0354 -0.4986 -0.0742
    1MPD2    C214334   3.520   4.539  15.536 -0.4027  0.3821  0.4938
    1MPD2    C314335   3.651   4.518  15.571 -0.0584 -0.3101  0.2838
    1MPD2    C414336   3.734   4.629  15.587  0.9875  0.5785  0.3991
    1MPD2    C514337   3.684   0.024  15.563  0.4831  0.4008 -0.3481
    1MPD2     H14338   3.456   4.453  15.519 -1.1187  1.0040  0.0335
    1MPD2    H114339   3.837   4.616  15.616  0.9088  0.3414  0.5719
    1MPD2    H214340   3.532   0.146  15.508 -0.7720 -0.1827  1.6825
    1MPD2    H314341   3.747   0.112  15.569  2.5886 -1.1893  1.3503
    1MPD2     N14342   3.715   4.393  15.593 -0.2245  0.1710  0.4657
    1MPD2    H514343   3.816   4.400  15.597  0.0132 -2.0357 -1.8431
    1MPD2    N114344   3.349   4.680  15.460  0.0072  0.1247  0.4556
    1MPD2    H714345   3.322   0.049  15.434 -0.1015 -0.8165 -2.8636
    2TMC3    C114346   3.161   4.631  15.330 -0.0984 -0.2921  0.4019
    2TMC3    C214347   3.075   4.528  15.303  0.1853  0.0808  0.5276
    2TMC3    C314348   3.032   4.503  15.174  0.4905  0.3146  0.2351
    2TMC3    C414349   3.210   4.718  15.227 -0.7435  0.4745  0.6932
    2TMC3    C514350   3.155   4.699  15.100  0.3344  0.1755  0.2419
    2TMC3    C614351   3.080   4.589  15.075  0.6441  0.4026  0.2993
    2TMC3     C14352   3.261   4.583  15.425  0.2329  0.3479 -0.5251
    2TMC3     O14353   3.260   4.462  15.438  0.0538 -0.1713  0.2136
    2TMC3     H14354   3.044   4.465  15.385  1.1308  1.0190  1.6119
    2TMC3    H114355   3.291   0.060  15.252 -1.3413  0.7008  2.0703
    2TMC3    H214356   3.051   4.564  14.974  3.3862  0.0943 -0.4214
    2TMC3    C714357   3.157   0.084  15.005  0.0677  0.4474 -0.3593
    2TMC3    C814358   3.052   4.360  15.135  0.5469 -0.5260  0.9954
    2TMC3    O114359   3.076   0.076  14.913  0.2050  0.2162 -0.0730
    2TMC3    O214360   3.025   4.324  15.023 -0.1986  0.4332  0.1973
    3TCq1    O114361   3.707   0.942  14.561 -1.0734 -0.4239 -0.2360
    3TCq1    C114362   3.796   0.969  14.655  0.2337 -0.0983  0.6767
    3TCq1    O214363   3.883   1.058  14.660 -0.1611  0.0738 -0.2501
    3TCq1    C214364   3.771   0.887  14.764  0.0204 -0.5588  0.1859
    3TCq1    C314365   3.868   0.810  14.802 -0.3454 -0.1198 -0.6601
    3TCq1    C414366   3.859   0.710  14.900  0.0562 -0.0096 -0.1849
    3TCq1    C514367   3.739   0.684  14.945 -0.5666  0.6270  0.6233
    3TCq1    C614368   3.635   0.758  14.898  0.4041  1.1607  0.4456
    3TCq1    C714369   3.643   0.856  14.807  0.2218 -0.0753 -0.1287
    3TCq1    C814370   3.498   0.713  14.934 -0.0368 -0.4632 -0.0868
    3TCq1    O414371   3.415   0.804  14.917 -0.0073  0.2561 -0.0307
    3TCq1    C914372   3.964   0.603  14.910 -0.0405  0.0910 -0.5966
    3TCq1    O514373   3.929   0.503  14.979 -0.5145 -0.3691 -0.1922
    3TCq1    O614374   4.063   0.603  14.829  0.0196 -0.0187 -0.2519
    3TCq1    H114375   3.686   0.846  14.563 -1.7583 -0.2269  1.7845
    3TCq1    H214376   3.968   0.844  14.777 -0.2922 -0.9556 -1.5778
    3TCq1    H314377   3.727   0.613  15.026  2.7993  0.0083  0.5976
    3TCq1    H414378   3.555   0.907  14.768 -0.4890 -2.1800 -1.2744
    4MPD2     C14379   3.237   0.570  14.929  1.0329  0.5789 -0.4256
    4MPD2    C114380   3.360   0.516  14.968 -0.4424 -0.4491  0.7255
    4MPD2    C214381   3.357   0.384  15.004 -0.0822 -0.1877  0.2392
    4MPD2    C314382   3.244   0.307  14.992 -0.5896 -0.3426  0.1796
    4MPD2    C414383   3.129   0.358  14.942 -0.7721 -0.5381 -0.4307
    4MPD2    C514384   3.126   0.489  14.911  0.2479  0.2529 -0.1968
    4MPD2     H14385   3.453   0.346  15.037 -0.0039  0.4667  0.7734
    4MPD2    H114386   3.042   0.297  14.923 -2.5797  1.9115 -0.0344
    4MPD2    H214387   3.230   0.674  14.899 -1.6010  0.0900 -1.4455
    4MPD2    H314388   3.037   0.548  14.892 -0.1788 -0.4000 -0.2472
    4MPD2     N14389   3.248   0.178  15.042  0.0776  0.1692 -0.2850
    4MPD2    H514390   3.326   0.150  15.102  0.3355  0.3315 -0.5480
    4MPD2    N114391   3.482   0.579  14.951 -0.2450 -0.3023  0.6962
    4MPD2    H714392   3.566   0.524  14.965  0.7813  1.1132  0.1189
    5TMC2    C114393   3.723   3.985  15.399  0.6433 -0.3503  0.0445
    5TMC2    C214394   3.825   4.027  15.321  0.1335  0.0850 -0.1319
    5TMC2    C314395   3.885   4.152  15.359 -0.6018 -0.0690  0.1364
    5TMC2    C414396   3.690   4.054  15.513  0.0067  0.9650  0.6308
    5TMC2    C514397   3.753   4.170  15.548 -0.5810  0.4299  0.4849
    5TMC2    C614398   3.866   4.209  15.480 -0.0217 -0.4257  0.2889
    5TMC2     C14399   3.609   3.943  15.317  0.4182 -0.2132  0.0935
    5TMC2     O14400   3.629   3.867  15.223 -0.2810  0.1196  0.2892
    5TMC2     H14401   3.827   3.993  15.218  0.7017 -1.5778  0.4285
    5TMC2    H114402   3.609   4.018  15.575  0.9851 -2.0517  0.1999
    5TMC2    H214403   3.929   4.291  15.511 -0.0954 -0.6906  1.1320
    5TMC2    C714404   3.654   4.280  15.567  0.9056 -0.1748 -0.2113
    5TMC2    C814405   3.996   4.188  15.287  0.1900  0.3006 -0.7040
    5TMC2    O114406   3.542   4.247  15.537  0.2990  0.3138  0.1305
    5TMC2    O214407   4.094   4.242  15.336 -0.3734  0.5014 -0.3708
    5TMC2    O514408   3.954   4.209  15.165  0.2256 -0.5247 -0.0778
    5TMC2    H514409   3.859   4.191  15.152 -0.1117  0.5785  0.8354
    6MPD2     C14410   3.156   4.089  15.125  0.1716  0.4360 -0.2624
    6MPD2    C114411   3.209   4.187  15.201 -0.0791  0.0817 -0.1345
    6MPD2    C214412   3.318   4.164  15.273  0.2886 -0.3924  0.0847
    6MPD2    C314413   3.385   4.047  15.269 -0.5255 -0.0587 -0.3818
    6MPD2    C414414   3.333   3.942  15.196  0.5911 -0.4087 -0.6161
    6MPD2    C514415   3.220   3.965  15.119 -0.1522 -0.9476  0.1401
    6MPD2     H14416   3.355   4.245  15.335 -2.4586 -0.6289  2.0121
    6MPD2    H114417   3.394   3.852  15.185  0.9039 -0.2990  0.2070
    6MPD2    H214418   3.079   4.108  15.051  0.8648 -0.4482 -1.1931
    6MPD2    H314419   3.183   3.881  15.062 -3.0930  0.8803 -0.6432
    6MPD2     N14420   3.506   4.030  15.347 -0.0213 -0.1629  0.1258
    6MPD2    H514421   3.523   4.114  15.401 -2.0497  0.5152 -0.2792
    6MPD2    N114422   3.140   4.309  15.222 -0.4072  0.1872 -0.3213
    6MPD2    H714423   3.179   4.378  15.286  0.5826 -1.2084  0.5773
  945NH4     N114424   4.313   2.601  10.715  0.1055  0.2488  0.1232
  945NH4     H214425   4.371   2.609  10.801 -1.8359  0.1914  1.4472
  945NH4     H314426   4.327   2.678  10.646  0.6000 -0.2225 -0.3011
  945NH4     H414427   4.214   2.605  10.747  0.4666  0.2215  1.2268
  945NH4     H514428   4.323   2.508  10.670  0.2910 -0.3513  1.4120
  946SOD     NA14429   0.267   3.254   6.464  0.0210 -0.0294 -0.3092
  947SOD     NA14430   0.683   0.131  15.807  0.0896  0.1934 -0.0128
  948SOD     NA14431   3.395   4.177  11.344 -0.2651  0.1645 -0.3983
  949SOD     NA14432   1.090   2.105  17.052  0.4427  0.1651 -0.3373
  950SOD     NA14433   2.543   1.901   1.100 -0.3124 -0.8597  0.1474
  951SOD     NA14434   0.436   3.553  11.760 -0.0425  0.3689 -0.8989
  952SOD     NA14435   2.631   4.360  16.287  0.2455 -0.2452 -0.2176
  953SOD     NA14436   4.574   2.500  17.376 -0.2158  0.2722  0.0238
  954SOD     NA14437   0.603   2.767  10.104  0.4110 -0.1187  0.1487
  955SOD     NA14438   2.466   2.182   2.785 -0.1016  0.0768  0.6369
  956SOD     NA14439   2.700   2.339  12.767 -0.2383 -0.3425 -0.2849
  957SOD     NA14440   0.383   0.520  10.501  0.3508  0.3195 -0.5491
  958SOD     NA14441   4.082   0.367  14.911 -0.1850 -0.0934 -0.4164
  959SOD     NA14442   2.699   3.800  10.627 -0.3316  0.3100  0.0429
  960SOD     NA14443   0.450   0.886  14.001 -0.2823  0.1346 -0.2356
  961SOD     NA14444   3.970   2.819   9.604 -0.1978 -0.2875  0.2126
  962SOD     NA14445   0.453   4.667   0.407 -0.0322  0.4723 -0.1759
  963SOD     NA14446   4.219   1.273   0.072  0.0192  0.4513  0.1678
  964SOD     NA14447   3.593   1.949  12.021  0.0067  0.2791 -0.0157
  965SOD     NA14448   3.973   4.550   0.925  0.3767 -0.1463  0.0726
  966SOD     NA14449   4.239   4.371  15.409 -0.3881 -0.1375 -0.1271
  967SOD     NA14450   1.167   0.262   1.580 -0.2728  0.0486  0.0473
  968SOD     NA14451   3.690   3.515  12.912 -0.1727 -0.1799  0.0718
  969SOD     NA14452   0.821   3.953  11.530  0.3496  0.0247  0.2473
  970SOD     NA14453   0.380   0.831  10.776 -0.0313 -0.1749  0.1733
  971SOD     NA14454   4.495   3.893   8.337 -0.0682  0.3484  0.4829
  972SOD     NA14455   1.942   4.468  16.055 -0.0490  0.4366  0.2618
  973SOD     NA14456   2.459   3.689  14.208  0.3710  0.1447 -0.3549
  974SOD     NA14457   3.239   3.921  10.354 -0.3804 -0.8276 -0.4134
  975SOD     NA14458   4.692   0.682   1.952  0.5758  0.0000 -0.3212
  976SOD     NA14459   0.727   2.966  14.351 -0.2025  0.2234 -0.1351
  977SOD     NA14460   3.593   2.261   5.707 -0.1246 -0.0478  0.1631
  978SOD     NA14461   4.587   2.315   6.782 -0.5552 -0.1575 -0.1673
  979SOD     NA14462   1.918   0.517   5.827  0.0687  0.0954 -0.2262
  980SOD     NA14463   3.315   0.339  16.501  0.1879 -0.1149  0.7281
  981SOD     NA14464   3.232   2.943  11.059 -0.0775 -0.4743 -0.3645
  982SOD     NA14465   0.802   4.479  14.582 -0.5375  0.1443 -0.5169
  983SOD     NA14466   4.279   4.147   9.499  0.1323  0.7269 -0.3993
  984SOD     NA14467   2.561   0.895   3.220 -0.1295 -0.2994 -0.1938
  985SOD     NA14468   2.090   1.118   9.244 -0.0258 -0.5255 -0.0740
  986SOD     NA14469   3.280   1.843  14.258  0.1552 -0.2121  0.3026
  987SOD     NA14470   0.885   4.023   0.426 -0.4030 -0.5654 -0.3247
  988SOD     NA14471   0.829   4.130  14.588  0.1404 -0.0538  0.2110
  989SOD     NA14472   0.265   0.716   2.740  0.3130  0.2401 -0.0171
  990SOD     NA14473   4.642   3.994  12.410  0.5940  0.3624 -0.4217
  991SOD     NA14474   0.745   0.052  14.508  0.0429 -0.4773  0.1588
  992SOD     NA14475   3.289   3.353  13.890 -0.3540 -0.1528  0.3150
  993SOD     NA14476   0.622   0.561  15.995 -0.1637 -0.0411  0.1553
  994SOD     NA14477   0.153   4.523  12.587 -0.0361 -0.0962  0.0721
  995SOD     NA14478   4.653   3.856   4.850  0.2713 -0.3498  0.2127
  996SOD     NA14479   4.605   3.953  12.110 -0.3207  0.2434 -0.3864
  997SOD     NA14480   3.087   4.314  11.394  0.0968  0.1601 -0.2061
  998SOD     NA14481   0.402   3.048  10.275 -0.4403 -0.1776  0.2484
  999SOD     NA14482   3.908   2.998  10.334 -0.3114 -0.1061  0.3085
 1000SOD     NA14483   4.456   2.938  10.718  0.3068 -0.1015 -0.1820
 1001SOD     NA14484   1.248   2.340  14.345 -0.7050 -0.2471  0.4403
 1002SOD     NA14485   1.899   4.040   1.140  0.3255  0.1437  0.2571
 1003SOD     NA14486   3.472   4.497   9.400  0.3465 -0.7781  0.1359
 1004SOD     NA14487   1.365   3.751  14.661  0.0182 -0.1522  0.0099
 1005SOD     NA14488   1.979   1.073  13.576 -0.3721  0.1941  0.9491
 1006SOD     NA14489   4.668   2.858  11.276 -0.0812 -0.3811  0.0416
 1007SOD     NA14490   2.143   3.516   8.565  0.1814  0.1164 -0.0043
 1008SOD     NA14491   2.820   2.312   6.764 -0.3484  0.2728  0.2465
 1009SOD     NA14492   1.158   4.577  11.148  0.4678  0.5201 -0.1732
 1010SOD     NA14493   4.273   0.587  14.879 -0.0563 -0.2952  0.1471
 1011SOL     OW14494   1.997   1.906   3.845 -0.0802  0.4979  0.2719
 1011SOL    HW114495   2.022   1.929   3.934 -0.8048  1.4314  0.2270
 1011SOL    HW214496   2.034   1.978   3.793 -0.1674  0.0102 -0.4666
 1012SOL     OW14497   0.095   3.830   5.461  0.4033 -0.2513  0.2655
 1012SOL    HW114498   0.101   3.794   5.550 -1.0996 -0.9586  0.0945
 1012SOL    HW214499   0.177   3.804   5.420  0.1575  2.6198 -2.0151
 1013SOL     OW14500   2.415   0.661  12.168  0.6619  0.8915 -0.0672
 1013SOL    HW114501   2.333   0.685  12.125  0.9462  1.0761 -0.5035
 1013SOL    HW214502   2.476   0.732  12.151  0.1631  0.7135 -2.7058
 1014SOL     OW14503   4.199   0.453   5.515 -0.0798  0.3903  0.6982
 1014SOL    HW114504   4.138   0.514   5.555  1.7172  1.1412  2.3178
 1014SOL    HW214505   4.138   0.396   5.469  1.8671  0.9122 -2.5496
 1015SOL     OW14506   4.089   0.173  15.407 -0.1226 -0.6387  0.1433
 1015SOL    HW114507   4.127   0.245  15.356 -1.8348  0.3722  0.3014
 1015SOL    HW214508   4.169   0.130  15.437 -0.1064 -0.4035  0.4377
 1016SOL     OW14509   0.302   2.462   5.627 -0.0491  0.1601 -0.6510
 1016SOL    HW114510   0.373   2.398   5.625  0.1905  0.3631  1.1611
 1016SOL    HW214511   0.341   2.549   5.620 -0.3445  0.6257  3.3621
 1017SOL     OW14512   4.231   1.768   8.058 -0.3825 -0.3616 -0.1846
 1017SOL    HW114513   4.135   1.764   8.062 -0.2789 -1.5147  1.0249
 1017SOL    HW214514   4.251   1.862   8.054 -0.6821 -0.2945 -0.1152
 1018SOL     OW14515   0.971   4.170   5.164  0.7331  0.0164 -0.4040
 1018SOL    HW114516   0.890   4.196   5.121 -0.9392 -2.4436  1.2699
 1018SOL    HW214517   1.020   4.252   5.156  1.7767 -0.6231 -0.7414
 1019SOL     OW14518   0.832   3.739   5.252 -0.4151 -0.0152 -0.1663
 1019SOL    HW114519   0.906   3.781   5.206 -1.1959  2.3651  0.7529
 1019SOL    HW214520   0.859   3.743   5.344  0.6463 -1.3288 -0.4238
 1020SOL     OW14521   0.836   1.873  11.117  0.0143  0.7440 -0.2596
 1020SOL    HW114522   0.928   1.897  11.107  0.3044 -1.2046 -2.4528
 1020SOL    HW214523   0.802   1.904  11.033 -0.6626 -0.3759 -0.4043
 1021SOL     OW14524   1.081   0.735   8.087  0.0050 -0.1327  0.1076
 1021SOL    HW114525   1.132   0.807   8.049  1.9128 -0.2302  2.4311
 1021SOL    HW214526   1.145   0.664   8.091 -0.7457 -0.6956  1.9707
 1022SOL     OW14527   1.667   3.440   8.526  0.2148 -0.4744 -0.4611
 1022SOL    HW114528   1.571   3.430   8.525  0.1719  0.0709 -1.6264
 1022SOL    HW214529   1.684   3.355   8.566  2.1600  0.9422  1.6701
 1023SOL     OW14530   4.268   3.344   3.934 -0.8720 -0.1780  0.0554
 1023SOL    HW114531   4.315   3.385   4.006  0.2582  1.8456 -1.8458
 1023SOL    HW214532   4.178   3.368   3.956 -0.7072  1.1551 -0.6912
 1024SOL     OW14533   2.337   0.226   5.269 -0.3832  0.4549 -0.1319
 1024SOL    HW114534   2.386   0.144   5.274  1.7049  1.7155  0.5583
 1024SOL    HW214535   2.397   0.289   5.310  1.7364 -1.1365 -0.7683
 1025SOL     OW14536   1.573   2.220   3.169  0.2914 -0.2830 -0.0701
 1025SOL    HW114537   1.558   2.271   3.090 -1.1680  0.9647  1.0128
 1025SOL    HW214538   1.607   2.299   3.211 -1.0288  1.2469 -1.8623
 1026SOL     OW14539   1.643   3.352   4.108  0.0859 -0.3342 -0.0956
 1026SOL    HW114540   1.736   3.337   4.097  0.4588 -0.3026  3.1770
 1026SOL    HW214541   1.636   3.365   4.203  1.8723  1.0445 -0.1598
 1027SOL     OW14542   1.736   0.800   2.133  0.5259  0.0363 -0.7286
 1027SOL    HW114543   1.827   0.815   2.158  0.2970 -1.2738  0.9207
 1027SOL    HW214544   1.697   0.885   2.114  0.0086  0.1245  0.7153
 1028SOL     OW14545   3.091   4.455   4.672 -0.3593 -0.2944  0.0510
 1028SOL    HW114546   3.184   4.436   4.660 -0.3968 -0.7100  0.4309
 1028SOL    HW214547   3.070   4.520   4.605  1.4825  0.7672  0.4914
 1029SOL     OW14548   2.568   0.444  12.028  0.1076  0.1545 -0.1647
 1029SOL    HW114549   2.561   0.371  12.089 -0.5511  0.9543  0.7114
 1029SOL    HW214550   2.526   0.519  12.069  3.1683  1.9125 -0.2175
 1030SOL     OW14551   4.010   3.674   3.672 -0.1303  0.4104  0.0883
 1030SOL    HW114552   4.048   3.761   3.662 -1.1319  0.4803 -2.9785
 1030SOL    HW214553   3.930   3.675   3.620  0.0345  1.0795 -0.1484
 1031SOL     OW14554   2.303   3.948  10.839  0.0187 -0.3542 -0.0309
 1031SOL    HW114555   2.311   3.910  10.926 -0.3493  2.4807  1.2610
 1031SOL    HW214556   2.223   3.902  10.817  0.1872 -1.1592  1.0630
 1032SOL     OW14557   0.623   0.370   5.584  0.3174  0.2730 -0.2128
 1032SOL    HW114558   0.560   0.342   5.517  0.5340 -1.1124  0.1651
 1032SOL    HW214559   0.568   0.409   5.653  0.2097  0.6622 -0.5183
 1033SOL     OW14560   2.567   4.035   6.772 -0.6823 -0.4291 -0.1326
 1033SOL    HW114561   2.602   3.971   6.835 -0.6316 -0.1161  0.1575
 1033SOL    HW214562   2.493   3.983   6.741 -0.8644 -0.7352  0.8242
 1034SOL     OW14563   2.410   1.160   8.745  0.0963  0.3434  0.1866
 1034SOL    HW114564   2.356   1.081   8.748 -0.1891  0.6290  2.7784
 1034SOL    HW214565   2.480   1.146   8.808 -0.3993 -2.0323  0.1856
 1035SOL     OW14566   2.511   1.680   2.495  0.0718  0.0114 -0.0722
 1035SOL    HW114567   2.474   1.607   2.445 -0.2510 -1.9665  3.0554
 1035SOL    HW214568   2.466   1.662   2.577  3.9583  0.4586  2.1434
 1036SOL     OW14569   2.155   1.806   2.397  0.2857  0.2919  0.1708
 1036SOL    HW114570   2.062   1.811   2.374 -0.3721  0.2399  2.7577
 1036SOL    HW214571   2.197   1.818   2.312  0.2953 -1.3636 -0.0711
 1037SOL     OW14572   3.297   2.839   7.724 -0.1274  0.6660 -0.3145
 1037SOL    HW114573   3.260   2.813   7.808  0.4572  1.8817  0.3196
 1037SOL    HW214574   3.389   2.819   7.742  0.5287  2.3139 -1.8774
 1038SOL     OW14575   0.799   2.682   2.540 -0.2802 -0.2538  0.6274
 1038SOL    HW114576   0.811   2.776   2.530  0.3622 -0.4828 -0.6369
 1038SOL    HW214577   0.705   2.683   2.520 -0.0832 -0.7219 -0.2977
 1039SOL     OW14578   0.574   1.573  17.494 -0.0496  0.4144 -0.0134
 1039SOL    HW114579   0.645   1.510  17.507  1.8867  2.6119  0.0855
 1039SOL    HW214580   0.632   1.648  17.482 -0.6770  1.3350  2.8630
 1040SOL     OW14581   1.182   0.434   2.869 -0.3012  0.0204  0.5815
 1040SOL    HW114582   1.195   0.510   2.812  0.3140 -0.8113 -0.3945
 1040SOL    HW214583   1.159   0.371   2.800  0.7140  2.1082 -1.6729
 1041SOL     OW14584   1.551   3.698  10.704  0.3718 -0.2922  0.3567
 1041SOL    HW114585   1.518   3.612  10.680 -1.3929  0.3362  0.5236
 1041SOL    HW214586   1.488   3.759  10.664  1.2243  0.2875 -0.0986
 1042SOL     OW14587   2.303   3.560   5.022  0.2344 -0.0932  0.2895
 1042SOL    HW114588   2.306   3.555   4.926  0.1883 -0.1244  0.2893
 1042SOL    HW214589   2.284   3.652   5.038 -0.7198 -0.1208 -0.6413
 1043SOL     OW14590   1.881   4.696   7.904 -0.4089 -0.1166  0.1418
 1043SOL    HW114591   1.875   4.651   7.820  3.0714 -1.5703  0.7168
 1043SOL    HW214592   1.802   0.022   7.887 -0.7367  0.0035  2.0106
 1044SOL     OW14593   1.416   1.995   9.180 -0.1301 -0.1726  0.4379
 1044SOL    HW114594   1.490   1.972   9.123 -0.4255  1.8392 -0.7646
 1044SOL    HW214595   1.447   2.067   9.234 -1.5507 -0.1946  1.2679
 1045SOL     OW14596   1.946   0.252   6.424 -0.7690 -0.5524  0.3984
 1045SOL    HW114597   2.000   0.296   6.490  1.9310 -0.3525 -1.8910
 1045SOL    HW214598   1.874   0.221   6.477 -1.1585  0.4970  0.4856
 1046SOL     OW14599   0.509   1.746   8.331 -0.0474 -0.1203 -0.0715
 1046SOL    HW114600   0.594   1.789   8.332 -0.8977  1.5704 -1.6050
 1046SOL    HW214601   0.511   1.680   8.401  1.0954 -1.4418 -1.3675
 1047SOL     OW14602   1.190   0.064   1.880 -0.0283 -0.1401 -0.6308
 1047SOL    HW114603   1.272   0.065   1.829 -0.9062  1.8920 -2.0060
 1047SOL    HW214604   1.210   0.126   1.950  1.0631 -3.0248  1.6396
 1048SOL     OW14605   2.409   1.892   2.171 -0.0677 -0.6877 -0.5598
 1048SOL    HW114606   2.489   1.859   2.129 -0.0256 -0.1452 -0.9013
 1048SOL    HW214607   2.444   1.925   2.254  0.9291 -2.8680 -0.0991
 1049SOL     OW14608   2.769   1.944   1.107 -0.4726  0.1053 -0.2825
 1049SOL    HW114609   2.809   1.981   1.029  2.2789 -1.6911  0.2697
 1049SOL    HW214610   2.843   1.918   1.163 -0.4379  1.8661  0.5007
 1050SOL     OW14611   0.149   2.590   4.746 -0.1755 -0.4332 -0.0746
 1050SOL    HW114612   0.177   2.552   4.662 -1.4561 -0.2758 -0.5696
 1050SOL    HW214613   0.054   2.599   4.736 -0.0929  1.1376  0.4529
 1051SOL     OW14614   4.379   1.491  10.882  0.0795 -0.0686 -0.3198
 1051SOL    HW114615   4.455   1.444  10.849  2.6103  2.7119  1.5222
 1051SOL    HW214616   4.349   1.439  10.956  0.3598 -0.1787 -0.2843
 1052SOL     OW14617   1.863   1.588   2.341  0.1315  0.2174  0.1681
 1052SOL    HW114618   1.861   1.684   2.336  0.1281  0.0840 -2.3252
 1052SOL    HW214619   1.786   1.570   2.287  0.9016 -1.5441 -0.3249
 1053SOL     OW14620   4.139   1.496   3.347 -0.0667 -0.3387 -0.1845
 1053SOL    HW114621   4.134   1.401   3.344  2.1281 -0.4370 -0.7434
 1053SOL    HW214622   4.142   1.510   3.252 -1.0544 -3.3625 -0.6484
 1054SOL     OW14623   1.969   1.391   7.111 -0.5994 -0.5975 -0.0012
 1054SOL    HW114624   1.947   1.300   7.131  0.8665 -1.1525 -0.9335
 1054SOL    HW214625   2.012   1.401   7.196  0.6424 -2.6107 -0.3895
 1055SOL     OW14626   3.955   4.161   2.165  0.0597  0.0806  0.1944
 1055SOL    HW114627   4.000   4.205   2.237 -0.0774 -0.8073  0.8141
 1055SOL    HW214628   4.023   4.154   2.098 -0.4917  1.0419 -0.4778
 1056SOL     OW14629   2.825   4.237   8.755 -0.0725 -0.1922 -0.5641
 1056SOL    HW114630   2.825   4.327   8.721  1.5669 -0.3330 -0.9613
 1056SOL    HW214631   2.899   4.192   8.714  0.2166  1.5964 -2.0217
 1057SOL     OW14632   3.697   1.609   7.128 -0.0205 -0.6310  0.0290
 1057SOL    HW114633   3.717   1.686   7.074  0.9790  1.2184  3.0489
 1057SOL    HW214634   3.639   1.553   7.075 -0.1672 -0.2326 -0.2331
 1058SOL     OW14635   4.356   2.238   6.241  0.2954 -0.0435 -0.0354
 1058SOL    HW114636   4.432   2.206   6.192  0.2235  1.7476 -1.3116
 1058SOL    HW214637   4.310   2.274   6.166  0.2622  0.1433  0.0753
 1059SOL     OW14638   2.065   2.602   9.204 -0.4714  0.0037  0.1301
 1059SOL    HW114639   2.070   2.543   9.279  0.3959 -1.8437 -1.3780
 1059SOL    HW214640   2.028   2.677   9.250 -0.9997 -0.6259  0.7275
 1060SOL     OW14641   4.167   4.544   8.457  0.2391  0.3246 -0.3439
 1060SOL    HW114642   4.233   4.489   8.415  3.3132  3.6598  0.1433
 1060SOL    HW214643   4.213   4.628   8.452  1.0001 -0.1832 -1.8910
 1061SOL     OW14644   2.222   2.069  16.304  0.3001  0.3929  0.6258
 1061SOL    HW114645   2.245   2.019  16.226 -0.7322  0.7785  0.0777
 1061SOL    HW214646   2.217   2.160  16.273  1.0444 -0.8012 -2.9550
 1062SOL     OW14647   1.030   0.086   7.446  0.0566 -0.1572  0.8031
 1062SOL    HW114648   1.100   0.033   7.484 -0.9554 -1.4295  0.8725
 1062SOL    HW214649   1.077   0.104   7.364  0.2617  3.0162  1.6082
 1063SOL     OW14650   4.706   1.849   5.603 -1.0427 -0.2512 -0.1810
 1063SOL    HW114651   4.692   1.831   5.510 -1.8925 -0.3656 -0.0218
 1063SOL    HW214652   4.692   1.944   5.602 -1.8396 -0.3658  0.9545
 1064SOL     OW14653   2.609   1.372   9.819  0.4553  0.5099 -0.4218
 1064SOL    HW114654   2.674   1.412   9.877 -1.2666  2.5975  0.0423
 1064SOL    HW214655   2.577   1.446   9.768 -0.9803  1.9512  2.5931
 1065SOL     OW14656   2.930   2.740   4.253 -0.4069  0.1735  0.4043
 1065SOL    HW114657   2.963   2.652   4.231 -0.6006  0.9485 -2.9662
 1065SOL    HW214658   2.868   2.764   4.184 -0.1594 -0.1484  0.0664
 1066SOL     OW14659   0.632   1.827   4.688  0.0596 -0.6516 -0.4029
 1066SOL    HW114660   0.627   1.913   4.647  1.3639 -1.3748 -2.0413
 1066SOL    HW214661   0.544   1.793   4.671 -0.3588 -0.0744  0.6157
 1067SOL     OW14662   4.228   3.584  12.687 -0.2662 -0.2349  0.1594
 1067SOL    HW114663   4.221   3.555  12.778 -1.5260  1.2665  0.5378
 1067SOL    HW214664   4.267   3.669  12.703  0.4755 -0.9279  1.9678
 1068SOL     OW14665   1.969   1.725   9.230 -0.1367 -0.1905  0.1820
 1068SOL    HW114666   2.028   1.664   9.274  0.2394 -1.4093 -1.9951
 1068SOL    HW214667   1.891   1.672   9.218  0.1134 -0.7699  1.0813
 1069SOL     OW14668   3.646   4.434   6.576  0.5059 -0.2257 -0.2729
 1069SOL    HW114669   3.698   4.490   6.633  0.6424  0.8735 -1.4794
 1069SOL    HW214670   3.713   4.424   6.509 -0.3546 -0.3253 -1.1183
 1070SOL     OW14671   3.017   2.296   8.839 -0.4179 -0.4606  0.1846
 1070SOL    HW114672   2.929   2.302   8.874  0.3198  0.3717  1.8710
 1070SOL    HW214673   3.067   2.265   8.915 -2.1643 -0.6522  1.2489
 1071SOL     OW14674   0.706   2.786   5.448 -0.0258  0.3156 -0.3723
 1071SOL    HW114675   0.733   2.875   5.427  0.6746  0.2530  0.2874
 1071SOL    HW214676   0.657   2.819   5.523  1.5050 -2.1015  1.6882
 1072SOL     OW14677   4.021   4.061  15.689  0.0602  0.2662  0.5374
 1072SOL    HW114678   4.087   4.000  15.722 -0.7270 -0.9027 -0.0215
 1072SOL    HW214679   4.012   4.023  15.601  3.1629  1.1212 -0.1305
 1073SOL     OW14680   2.205   2.377   5.705 -0.2547 -0.4970  0.0859
 1073SOL    HW114681   2.239   2.460   5.738 -0.9851 -0.3906  0.5499
 1073SOL    HW214682   2.148   2.341   5.772 -0.3814  0.1771  0.3378
 1074SOL     OW14683   2.757   2.997   8.995 -0.1019 -0.1656 -0.1535
 1074SOL    HW114684   2.783   2.967   9.082 -2.0753 -2.0198 -0.2066
 1074SOL    HW214685   2.666   2.968   8.984 -0.9902  1.8929  1.5889
 1075SOL     OW14686   1.942   2.203  16.016  0.0841  0.1836  0.6979
 1075SOL    HW114687   2.013   2.267  16.006  1.2171 -1.4556 -1.6769
 1075SOL    HW214688   1.980   2.118  15.991 -1.3165  0.0573 -1.0096
 1076SOL     OW14689   3.573   3.998   9.352 -0.0467  0.3868  0.5576
 1076SOL    HW114690   3.638   3.962   9.411 -2.1205 -0.1362  2.5340
 1076SOL    HW214691   3.562   4.082   9.396  0.7103  0.8313 -0.0978
 1077SOL     OW14692   1.971   1.360   9.696 -0.0762 -0.4500 -0.2726
 1077SOL    HW114693   1.899   1.310   9.657 -0.4813  0.2309 -0.3823
 1077SOL    HW214694   2.044   1.322   9.648 -0.7691 -0.4053 -1.3550
 1078SOL     OW14695   1.265   3.951   7.725 -0.0665 -1.0361  0.5497
 1078SOL    HW114696   1.319   3.972   7.802 -1.0997  1.2643  0.6644
 1078SOL    HW214697   1.320   3.888   7.679 -1.5647 -0.0360 -2.6080
 1079SOL     OW14698   3.486   2.160   8.343 -0.1571 -0.1294 -0.5624
 1079SOL    HW114699   3.487   2.076   8.388 -0.7395 -0.2390 -0.7613
 1079SOL    HW214700   3.394   2.183   8.354 -0.3766 -1.8372  1.1517
 1080SOL     OW14701   0.910   0.618   1.174  0.0852  0.3403  0.0588
 1080SOL    HW114702   0.905   0.697   1.119  1.8229  0.3129 -0.1579
 1080SOL    HW214703   0.916   0.658   1.260  0.6926  2.4225 -0.9397
 1081SOL     OW14704   2.450   2.532   8.495  0.1178  0.2539 -0.6150
 1081SOL    HW114705   2.537   2.505   8.525 -0.4141  1.4277  1.9042
 1081SOL    HW214706   2.453   2.625   8.516 -2.4674  0.8177 -2.6641
 1082SOL     OW14707   0.405   1.060   3.466 -0.0752  0.1953  0.2780
 1082SOL    HW114708   0.342   1.119   3.508  0.5035  1.0491 -0.0539
 1082SOL    HW214709   0.347   1.031   3.396 -0.1473 -2.1973  1.3439
 1083SOL     OW14710   0.783   1.737   0.105 -0.0787  0.1392  0.3975
 1083SOL    HW114711   0.696   1.700   0.122  0.5397 -1.8255 -0.6688
 1083SOL    HW214712   0.770   1.825   0.140 -0.4783  1.0021 -1.9369
 1084SOL     OW14713   2.895   2.182   1.991 -0.3336 -0.7346  0.3465
 1084SOL    HW114714   2.988   2.178   2.013  0.5128 -1.8541 -3.4544
 1084SOL    HW214715   2.888   2.260   1.936 -0.5500 -1.4010 -0.5719
 1085SOL     OW14716   3.650   0.192   8.371  0.2887 -0.9135 -0.1170
 1085SOL    HW114717   3.723   0.131   8.381  0.4920 -0.4256  1.4419
 1085SOL    HW214718   3.675   0.226   8.286 -2.5162  0.3574 -0.4464
 1086SOL     OW14719   0.800   0.422   1.688 -0.7077 -0.2959 -0.3752
 1086SOL    HW114720   0.761   0.403   1.773 -1.0050 -1.5051 -0.7826
 1086SOL    HW214721   0.772   0.513   1.678 -0.5344 -0.1880  0.1251
 1087SOL     OW14722   0.942   0.863   9.867 -0.0559 -0.1087 -0.1848
 1087SOL    HW114723   0.959   0.933   9.804  1.4114 -0.4072 -0.1220
 1087SOL    HW214724   0.988   0.888   9.947  2.7207 -1.2396 -1.4235
 1088SOL     OW14725   3.283   3.937  10.607 -0.0710 -0.3230  0.2221
 1088SOL    HW114726   3.236   4.010  10.646  0.4323  0.3950 -0.5188
 1088SOL    HW214727   3.335   3.892  10.674 -0.7733  0.3841  1.2415
 1089SOL     OW14728   1.462   2.218   2.741 -0.2345 -0.0060 -0.5681
 1089SOL    HW114729   1.481   2.294   2.687  0.9832 -1.1299 -1.7290
 1089SOL    HW214730   1.422   2.262   2.816  0.1701  3.5980 -2.5156
 1090SOL     OW14731   2.492   2.055   6.661 -0.5428  0.1702 -0.0858
 1090SOL    HW114732   2.413   2.001   6.654  1.2431 -2.2486 -1.3295
 1090SOL    HW214733   2.503   2.090   6.573 -1.3041 -2.4930 -1.2245
 1091SOL     OW14734   0.218   3.686   8.359  1.0237  0.5659  0.0332
 1091SOL    HW114735   0.233   3.777   8.384  1.6866  0.3508  0.4018
 1091SOL    HW214736   0.176   3.654   8.439 -0.3677  1.6734 -0.2517
 1092SOL     OW14737   1.065   3.166  17.025 -0.2699  0.3394 -0.0866
 1092SOL    HW114738   1.158   3.171  17.003 -0.1121  1.6954  0.9036
 1092SOL    HW214739   1.020   3.187  16.943  1.3559  0.5052 -0.9566
 1093SOL     OW14740   4.288   4.693  14.120  0.1070  0.7620  0.4667
 1093SOL    HW114741   4.361   4.661  14.174  1.3903  0.4828 -1.4386
 1093SOL    HW214742   4.269   0.050  14.164 -0.4380  1.3208 -0.8401
 1094SOL     OW14743   2.988   3.269   9.282  0.4149 -0.7968  0.1345
 1094SOL    HW114744   2.893   3.267   9.296  0.4439 -3.5609 -0.0952
 1094SOL    HW214745   3.022   3.309   9.363 -1.2274 -1.0426  0.9518
 1095SOL     OW14746   2.861   3.508   4.230 -0.4383  0.4860 -0.0150
 1095SOL    HW114747   2.898   3.484   4.145  1.7095  0.0513  1.0393
 1095SOL    HW214748   2.940   3.527   4.280 -0.7052 -1.3635  1.0992
 1096SOL     OW14749   1.989   0.027   8.774  0.0018 -0.4367 -0.1062
 1096SOL    HW114750   1.916   0.074   8.735 -0.0925 -1.3317 -1.0194
 1096SOL    HW214751   1.978   4.668   8.731 -0.6941 -0.5452  0.2972
 1097SOL     OW14752   4.549   3.659   1.543 -0.2561 -0.3813  0.0255
 1097SOL    HW114753   4.617   3.654   1.476 -1.3982 -0.3537 -1.1215
 1097SOL    HW214754   4.565   3.575   1.586 -1.5426 -0.1428  0.9724
 1098SOL     OW14755   1.499   3.425   9.534  0.1398 -0.4292  0.4292
 1098SOL    HW114756   1.518   3.482   9.608 -0.4351  0.4756 -0.1138
 1098SOL    HW214757   1.554   3.453   9.460 -0.9090  3.9611  1.3176
 1099SOL     OW14758   3.401   3.460  16.432  0.8301 -0.2199  0.4063
 1099SOL    HW114759   3.422   3.455  16.525  1.0352  1.2012  0.4401
 1099SOL    HW214760   3.478   3.429  16.384  0.5462  0.6053 -0.5858
 1100SOL     OW14761   4.121   4.381  15.621 -0.7593  0.7043 -0.0591
 1100SOL    HW114762   4.160   4.441  15.684 -1.0372 -0.1987  0.9674
 1100SOL    HW214763   4.087   4.323  15.689  1.9792 -0.4792  0.3197
 1101SOL     OW14764   3.885   2.498   2.378 -0.4104  0.0732  0.1655
 1101SOL    HW114765   3.923   2.411   2.392  1.4373  0.6537 -1.1960
 1101SOL    HW214766   3.916   2.514   2.288 -1.0107  0.7721  0.0796
 1102SOL     OW14767   4.594   1.179   6.546  0.0668 -0.0853  0.3082
 1102SOL    HW114768   4.600   1.086   6.525 -1.1390  0.0607 -0.6603
 1102SOL    HW214769   4.658   1.204   6.613  1.5285 -0.4653 -0.9494
 1103SOL     OW14770   2.558   3.454   5.026  0.1315 -0.3964  0.6995
 1103SOL    HW114771   2.571   3.473   4.933  0.1067  1.7905  1.1381
 1103SOL    HW214772   2.471   3.492   5.035  0.1337 -0.3315  0.4385
 1104SOL     OW14773   0.046   4.160  12.510 -0.1264  0.4668  0.1652
 1104SOL    HW114774   0.122   4.210  12.482  0.6085 -0.7129  0.0376
 1104SOL    HW214775   0.019   4.199  12.593 -0.4813 -1.5152  0.9979
 1105SOL     OW14776   0.418   1.683  12.222  0.3227 -0.2952  1.1489
 1105SOL    HW114777   0.462   1.690  12.137 -0.2000 -1.2110  0.7996
 1105SOL    HW214778   0.420   1.774  12.252 -0.0274 -0.3757  1.4277
 1106SOL     OW14779   0.589   2.444  11.318 -0.4922  0.1427 -0.4987
 1106SOL    HW114780   0.558   2.366  11.273 -1.2053  0.7234 -1.0338
 1106SOL    HW214781   0.507   2.484  11.349  0.4607  0.3760  1.6912
 1107SOL     OW14782   2.424   0.144   3.664 -0.0934 -0.0091 -0.2673
 1107SOL    HW114783   2.332   0.157   3.642 -0.2026  0.4134  0.4624
 1107SOL    HW214784   2.443   0.066   3.611  0.5931 -0.6586  0.9424
 1108SOL     OW14785   2.351   3.124   2.973 -0.4357 -0.0056 -0.2142
 1108SOL    HW114786   2.266   3.080   2.969 -0.6364  0.2721  0.9602
 1108SOL    HW214787   2.339   3.182   3.049  2.3281  0.4167 -0.1088
 1109SOL     OW14788   0.573   3.737   9.327  0.1015  0.3486 -0.1827
 1109SOL    HW114789   0.558   3.797   9.253 -0.7897  0.2312 -0.1018
 1109SOL    HW214790   0.649   3.772   9.372  1.4899  0.6876 -2.8090
 1110SOL     OW14791   2.213   2.206   4.559 -0.0010 -0.6976 -0.0306
 1110SOL    HW114792   2.256   2.291   4.568 -2.2095  0.2778  1.3658
 1110SOL    HW214793   2.290   2.149   4.559 -0.5859 -1.4802  1.6850
 1111SOL     OW14794   1.674   3.236   2.254 -0.1072  0.0510 -0.1211
 1111SOL    HW114795   1.748   3.250   2.195  0.8047 -0.2675  0.9623
 1111SOL    HW214796   1.671   3.141   2.261  1.1449  0.1027  1.0521
 1112SOL     OW14797   3.215   1.529   4.811  0.4842 -0.2703  0.0059
 1112SOL    HW114798   3.134   1.576   4.830  1.7618  0.6615  3.0967
 1112SOL    HW214799   3.200   1.476   4.733 -0.5891  1.3117 -0.8636
 1113SOL     OW14800   0.818   2.703   5.961  0.4133  0.1823  0.0849
 1113SOL    HW114801   0.907   2.697   5.997 -0.6139  0.6274  2.6890
 1113SOL    HW214802   0.767   2.693   6.042  0.4734 -1.1728 -0.0582
 1114SOL     OW14803   0.034   3.500   5.910 -0.2985 -0.0998  0.5944
 1114SOL    HW114804   4.671   3.522   5.884  0.0898  1.0410  0.2436
 1114SOL    HW214805   0.046   3.561   5.983  4.0028  1.3783 -1.3370
 1115SOL     OW14806   4.513   0.237   7.407 -0.2605 -0.1290 -0.2656
 1115SOL    HW114807   4.490   0.274   7.492 -0.9398  2.4470 -1.5971
 1115SOL    HW214808   4.464   0.155   7.419 -0.4743 -0.1435 -1.3008
 1116SOL     OW14809   2.519   4.346   2.963 -0.0929  0.1655 -0.1009
 1116SOL    HW114810   2.450   4.409   2.942 -0.5919 -0.5206 -0.4745
 1116SOL    HW214811   2.592   4.406   2.982  0.7402 -0.6234 -0.8283
 1117SOL     OW14812   4.690   2.104   3.766  0.0101 -0.2356 -1.0321
 1117SOL    HW114813   4.635   2.078   3.839  0.8425 -1.9909 -1.0203
 1117SOL    HW214814   4.633   2.164   3.718  0.8361  1.1713 -0.2169
 1118SOL     OW14815   2.800   2.315   7.235  0.2725  0.3233 -0.7060
 1118SOL    HW114816   2.776   2.394   7.282  1.7813 -0.3482  1.2079
 1118SOL    HW214817   2.782   2.252   7.305  0.2717 -0.7308 -1.6390
 1119SOL     OW14818   0.204   2.629   3.452  0.5452 -0.1215  0.4240
 1119SOL    HW114819   0.268   2.686   3.409  0.3711 -1.3520 -1.4173
 1119SOL    HW214820   0.175   2.687   3.522 -0.1420 -1.2021  1.0304
 1120SOL     OW14821   0.815   3.299   5.950  0.0405 -0.2598 -0.6052
 1120SOL    HW114822   0.842   3.378   5.998  0.3149 -0.4352 -0.4733
 1120SOL    HW214823   0.903   3.263   5.945  0.9880  2.0398 -0.4162
 1121SOL     OW14824   2.595   2.045  16.713  0.2638 -0.1683 -0.2392
 1121SOL    HW114825   2.566   2.078  16.628  0.1614  0.3174 -0.0143
 1121SOL    HW214826   2.577   2.114  16.776 -0.5089 -1.4637  0.9513
 1122SOL     OW14827   0.511   0.867   0.661 -0.2419 -0.1629  0.1362
 1122SOL    HW114828   0.511   0.919   0.580  3.3636 -1.3516 -0.6508
 1122SOL    HW214829   0.471   0.789   0.624 -0.1063 -0.1144 -0.1166
 1123SOL     OW14830   0.373   1.874  10.181  0.6936  0.0097 -0.1398
 1123SOL    HW114831   0.351   1.961  10.215 -1.7573 -1.2953  1.6549
 1123SOL    HW214832   0.294   1.836  10.142  1.9830 -2.8953  0.1043
 1124SOL     OW14833   3.132   3.339   3.005  0.4262 -0.6027 -0.4604
 1124SOL    HW114834   3.042   3.372   2.995  0.9558  0.8239 -0.4581
 1124SOL    HW214835   3.148   3.328   3.099 -1.3063  0.5225 -0.0309
 1125SOL     OW14836   0.278   1.707   6.485 -0.2178 -0.4608  0.4632
 1125SOL    HW114837   0.351   1.645   6.480  0.5197  0.5032 -0.7317
 1125SOL    HW214838   0.220   1.647   6.532 -0.1373  0.8698  2.2675
 1126SOL     OW14839   4.005   2.879  10.585  0.2655 -0.1013  0.5321
 1126SOL    HW114840   4.051   2.820  10.526  0.1448 -0.9052  1.2450
 1126SOL    HW214841   3.934   2.826  10.621 -0.3023 -1.1691 -2.1624
 1127SOL     OW14842   2.403   2.167   9.119 -0.0511  0.1258 -0.5005
 1127SOL    HW114843   2.389   2.104   9.049  1.0024  0.8743 -1.4002
 1127SOL    HW214844   2.317   2.209   9.121 -0.8708 -1.5725 -0.8763
 1128SOL     OW14845   2.942   0.567  16.480 -0.1627  0.1607  1.1964
 1128SOL    HW114846   2.857   0.526  16.469  0.9356 -1.4693 -1.1659
 1128SOL    HW214847   2.973   0.503  16.544 -2.1281 -0.7731  1.2058
 1129SOL     OW14848   2.149   1.461   5.298  0.4221  0.4166  0.2584
 1129SOL    HW114849   2.082   1.419   5.244  1.1945 -2.8994  1.8750
 1129SOL    HW214850   2.194   1.523   5.240 -0.7505 -0.6136 -1.7782
 1130SOL     OW14851   0.606   3.352   8.520  0.5990  0.1298 -0.1716
 1130SOL    HW114852   0.579   3.343   8.611  0.0190 -3.4901 -0.7435
 1130SOL    HW214853   0.599   3.259   8.499  1.3262 -0.0994  0.5864
 1131SOL     OW14854   2.348   3.541   9.158 -0.1691  0.5029  0.0516
 1131SOL    HW114855   2.409   3.488   9.107  0.5794  0.7594  0.6780
 1131SOL    HW214856   2.338   3.488   9.237  0.5498  0.8207  0.3557
 1132SOL     OW14857   4.484   2.107  15.670  0.3195  0.3212  0.2085
 1132SOL    HW114858   4.547   2.044  15.706  0.2631  0.2924  0.2567
 1132SOL    HW214859   4.497   2.174  15.738 -1.1595  0.2657  0.5559
 1133SOL     OW14860   4.720   4.263   1.696  0.0358 -1.4567 -0.3949
 1133SOL    HW114861   0.058   4.314   1.746 -1.9612  1.8081 -1.1680
 1133SOL    HW214862   4.662   4.243   1.769 -2.6387  0.0927 -2.1008
 1134SOL     OW14863   2.875   3.187   2.044  0.1211  0.6218  0.0499
 1134SOL    HW114864   2.950   3.244   2.063  1.0029 -0.8422  0.9632
 1134SOL    HW214865   2.839   3.238   1.972 -0.6038  0.5594  0.3727
 1135SOL     OW14866   1.696   4.272   4.855 -0.0461  0.4886 -0.9671
 1135SOL    HW114867   1.735   4.347   4.809  1.6995 -0.6007 -1.2926
 1135SOL    HW214868   1.629   4.236   4.796 -0.4060  0.0464 -0.2881
 1136SOL     OW14869   0.703   1.116  10.948  0.6878  0.2891  0.1113
 1136SOL    HW114870   0.739   1.089  10.864  0.9584  0.2117  0.2525
 1136SOL    HW214871   0.673   1.036  10.992 -0.2073 -1.7318 -4.1452
 1137SOL     OW14872   2.185   1.492  14.445 -0.2144  0.8533 -0.9041
 1137SOL    HW114873   2.278   1.517  14.444  0.4034 -1.3280  2.1538
 1137SOL    HW214874   2.174   1.438  14.523 -1.8038  0.2374 -1.5533
 1138SOL     OW14875   4.031   2.684   4.323 -0.4065 -0.0216 -0.1317
 1138SOL    HW114876   4.107   2.627   4.332 -2.0148 -1.9484  1.4075
 1138SOL    HW214877   3.964   2.616   4.337  0.1826 -0.9274 -1.6222
 1139SOL     OW14878   3.560   1.849   5.906 -0.5619 -0.1664 -0.0123
 1139SOL    HW114879   3.507   1.826   5.982 -0.0251  0.1385  0.4558
 1139SOL    HW214880   3.643   1.857   5.954 -1.2548 -2.5659  1.5656
 1140SOL     OW14881   0.253   3.720   7.317  0.4248  0.0143  0.1516
 1140SOL    HW114882   0.186   3.789   7.322 -0.9863 -1.3859  0.5110
 1140SOL    HW214883   0.202   3.642   7.295  1.4102 -0.9336  1.2971
 1141SOL     OW14884   2.032   2.921  10.909 -0.0004 -0.0609 -0.3518
 1141SOL    HW114885   2.089   2.864  10.859  0.0420 -0.5664  0.2703
 1141SOL    HW214886   2.098   2.960  10.967  0.6685 -2.0493  0.2364
 1142SOL     OW14887   2.600   4.676   2.916  0.2091  0.4438  0.5289
 1142SOL    HW114888   2.505   4.676   2.925  0.0687 -0.1887 -1.0207
 1142SOL    HW214889   2.600   4.690   2.821 -0.1730 -1.1271  0.2930
 1143SOL     OW14890   2.448   3.729  15.653 -0.0832  0.0310 -0.1174
 1143SOL    HW114891   2.419   3.642  15.678 -0.7945  0.4938  0.6524
 1143SOL    HW214892   2.487   3.707  15.569 -1.1762  0.6219 -0.7768
 1144SOL     OW14893   4.131   0.481   4.997  0.2391  0.2376  0.1767
 1144SOL    HW114894   4.173   0.555   4.954 -0.2678  0.6010  0.3064
 1144SOL    HW214895   4.134   0.517   5.086  0.4522  1.6513 -0.4013
 1145SOL     OW14896   0.142   1.575  12.199  0.4919 -0.5656 -0.1090
 1145SOL    HW114897   0.229   1.604  12.227  1.5533 -1.4546 -2.4784
 1145SOL    HW214898   0.157   1.481  12.188 -0.4834 -0.9189  1.6894
 1146SOL     OW14899   3.533   4.290   5.059 -0.4537 -0.6113 -0.0109
 1146SOL    HW114900   3.526   4.237   4.979  2.3365  0.2159 -0.7949
 1146SOL    HW214901   3.627   4.303   5.048 -1.1198  1.6022 -2.8857
 1147SOL     OW14902   3.234   2.218   3.505 -0.4080 -0.1863 -0.7999
 1147SOL    HW114903   3.174   2.220   3.431  0.6254 -1.1374 -1.6771
 1147SOL    HW214904   3.284   2.297   3.485  1.9313 -1.6763 -0.9084
 1148SOL     OW14905   4.674   0.383  12.231 -0.5190  0.0034 -0.2460
 1148SOL    HW114906   4.682   0.350  12.142  0.8057  0.0066 -0.1327
 1148SOL    HW214907   0.027   0.341  12.267 -0.7015  1.2674  1.6269
 1149SOL     OW14908   2.606   2.915  16.815 -0.3784  0.2199  0.1388
 1149SOL    HW114909   2.532   2.919  16.755 -0.2483  0.2761 -0.0173
 1149SOL    HW214910   2.568   2.940  16.899 -0.5100 -1.8258  0.6711
 1150SOL     OW14911   2.758   3.235   5.997 -0.1977 -0.0187 -0.1955
 1150SOL    HW114912   2.853   3.227   5.983 -0.1468 -0.2699  0.2789
 1150SOL    HW214913   2.731   3.143   5.997  1.0167 -0.3798  1.4363
 1151SOL     OW14914   0.652   0.646   6.497 -0.2666  0.3168 -0.2154
 1151SOL    HW114915   0.722   0.588   6.527 -0.3012  0.1953 -0.3697
 1151SOL    HW214916   0.708   0.718   6.470  0.2827 -0.1168 -0.2370
 1152SOL     OW14917   4.187   4.280   9.115 -0.2367  0.5516  0.5714
 1152SOL    HW114918   4.203   4.325   9.032  0.7682 -0.3095  0.2984
 1152SOL    HW214919   4.092   4.284   9.105 -0.5095 -1.6422  2.2513
 1153SOL     OW14920   0.765   3.122   8.981  0.0917  0.3527  0.2729
 1153SOL    HW114921   0.817   3.175   9.042  1.4171  0.2092 -0.7237
 1153SOL    HW214922   0.720   3.061   9.039  0.1139  3.6328  3.7303
 1154SOL     OW14923   4.481   2.467   9.537 -0.3830 -0.0702  0.0756
 1154SOL    HW114924   4.427   2.520   9.596 -0.3563  0.7843 -0.6674
 1154SOL    HW214925   4.426   2.404   9.490 -0.4032  0.5908 -0.8008
 1155SOL     OW14926   1.100   0.547  17.688 -0.3920  0.1409  0.5762
 1155SOL    HW114927   1.036   0.513   0.046  0.2011 -3.2102 -0.6881
 1155SOL    HW214928   1.064   0.512  17.607  1.7920 -1.4230  0.2826
 1156SOL     OW14929   1.438   2.228   4.788  0.2564  0.5719  0.0484
 1156SOL    HW114930   1.359   2.200   4.740  0.6388 -1.0729  0.3956
 1156SOL    HW214931   1.486   2.146   4.779  2.4854  1.9980 -0.8364
 1157SOL     OW14932   3.393   4.451   3.867  0.1573 -0.3157  0.3834
 1157SOL    HW114933   3.417   4.364   3.834  1.0065  0.3714 -0.7916
 1157SOL    HW214934   3.443   4.457   3.949  1.8042  0.7055 -0.7032
 1158SOL     OW14935   3.274   3.135  17.347  0.2008  0.2124 -0.0891
 1158SOL    HW114936   3.207   3.112  17.412  0.3127 -1.6886 -0.6501
 1158SOL    HW214937   3.240   3.219  17.315 -0.7643 -0.5918 -1.1643
 1159SOL     OW14938   3.615   1.416   8.565 -0.4942  1.0999  0.3573
 1159SOL    HW114939   3.687   1.368   8.607 -2.2090 -1.5022  0.3653
 1159SOL    HW214940   3.558   1.347   8.531  1.7687 -1.0699  0.9251
 1160SOL     OW14941   1.689   1.415   7.741  0.6009 -0.7492 -0.3279
 1160SOL    HW114942   1.713   1.487   7.800 -3.2594  0.9951 -0.8945
 1160SOL    HW214943   1.730   1.443   7.659 -0.3729  1.2515 -0.1470
 1161SOL     OW14944   0.296   4.155   7.420  0.3617  0.0851  0.2442
 1161SOL    HW114945   0.214   4.106   7.416  0.4629  0.0763 -1.5667
 1161SOL    HW214946   0.267   4.245   7.406 -0.9658 -0.1533  1.4378
 1162SOL     OW14947   4.166   0.317   0.515 -0.0878  1.0266 -0.1927
 1162SOL    HW114948   4.118   0.286   0.592  1.2570  1.4949  0.8522
 1162SOL    HW214949   4.112   0.392   0.488  0.2893  1.7282  0.9834
 1163SOL     OW14950   2.193   0.678   6.923 -0.0938  0.4762  0.0079
 1163SOL    HW114951   2.276   0.721   6.941 -1.2751  2.0971  1.5936
 1163SOL    HW214952   2.134   0.746   6.889 -0.5801 -0.9723 -2.0719
 1164SOL     OW14953   2.673   0.413   9.562  0.2923  0.2984  0.2409
 1164SOL    HW114954   2.682   0.472   9.487  0.6792 -1.2490 -0.9259
 1164SOL    HW214955   2.680   0.334   9.509 -0.6093 -1.1640  2.3053
 1165SOL     OW14956   3.018   4.097   3.939  0.7353  0.3459  0.4300
 1165SOL    HW114957   2.958   4.164   3.906  0.7636 -0.7855 -1.9160
 1165SOL    HW214958   3.067   4.075   3.860  0.4102  0.6777  0.1336
 1166SOL     OW14959   3.264   2.867   2.411 -0.1639  0.2312  0.4679
 1166SOL    HW114960   3.354   2.899   2.405 -1.1836  2.8905 -0.4773
 1166SOL    HW214961   3.231   2.903   2.329 -1.3905 -0.1395  0.7969
 1167SOL     OW14962   3.182   0.527   0.850 -0.1249  0.1809  0.6085
 1167SOL    HW114963   3.210   0.436   0.860 -0.3538 -0.2091 -2.1924
 1167SOL    HW214964   3.092   0.515   0.820 -0.4814 -0.2112  1.8413
 1168SOL     OW14965   3.943   1.086   4.116 -0.0205 -0.1532 -0.1682
 1168SOL    HW114966   3.949   1.015   4.180 -1.9769 -1.5961 -1.6133
 1168SOL    HW214967   3.896   1.155   4.165  0.8835  1.1476 -1.1354
 1169SOL     OW14968   2.783   1.870  12.911 -0.3388 -0.6156 -0.4000
 1169SOL    HW114969   2.743   1.825  12.986  0.1032  0.2780  0.3793
 1169SOL    HW214970   2.794   1.789  12.862 -1.7508 -1.2768  0.3867
 1170SOL     OW14971   0.116   2.494  11.347  0.1632  0.4781 -0.3044
 1170SOL    HW114972   0.087   2.496  11.439 -1.6888 -1.5582 -0.8500
 1170SOL    HW214973   0.049   2.550  11.308  0.7629  1.7143  0.4149
 1171SOL     OW14974   1.128   1.231  16.887 -0.0379 -0.2447 -0.5644
 1171SOL    HW114975   1.077   1.270  16.958 -1.9311 -1.7598 -1.0708
 1171SOL    HW214976   1.121   1.301  16.822  0.2105  0.5092  0.2433
 1172SOL     OW14977   1.429   0.022  12.679  0.6912  0.4175  0.2808
 1172SOL    HW114978   1.494   4.701  12.733 -0.5162 -1.1060  0.4258
 1172SOL    HW214979   1.359   0.030  12.744 -0.2341  1.3545 -0.8511
 1173SOL     OW14980   1.293   3.099   9.120 -0.4849  0.3922 -0.2271
 1173SOL    HW114981   1.386   3.079   9.108 -0.9060 -2.0890  0.7012
 1173SOL    HW214982   1.256   3.087   9.033 -0.0592 -3.0456  0.0987
 1174SOL     OW14983   3.453   1.081   0.286  0.1183 -0.1585  0.1612
 1174SOL    HW114984   3.416   1.102   0.372 -0.9609 -2.0407  0.1361
 1174SOL    HW214985   3.382   1.026   0.253  1.8416 -1.6974 -0.9252
 1175SOL     OW14986   2.769   0.088   3.330 -1.5601  0.3278 -0.1059
 1175SOL    HW114987   2.707   0.034   3.282  0.3808 -3.3455  1.5543
 1175SOL    HW214988   2.746   0.072   3.421 -1.5172  3.1927  0.3940
 1176SOL     OW14989   4.165   3.503  15.246  0.0639 -0.1628 -0.1081
 1176SOL    HW114990   4.198   3.427  15.293 -1.1527 -0.0224  0.9845
 1176SOL    HW214991   4.138   3.464  15.163 -1.9987 -0.0574  0.5278
 1177SOL     OW14992   2.209   1.898   4.954  0.0783  0.2789  0.0134
 1177SOL    HW114993   2.244   1.916   4.867 -0.4403 -1.6333 -0.5885
 1177SOL    HW214994   2.197   1.803   4.949  0.9544  0.1791 -0.2306
 1178SOL     OW14995   3.009   3.311  16.573 -0.4787 -0.5914 -0.0539
 1178SOL    HW114996   2.913   3.302  16.574 -0.5932  0.3911 -1.5035
 1178SOL    HW214997   3.023   3.399  16.607 -0.6216 -0.7402  0.3808
 1179SOL     OW14998   2.319   2.477  15.121  0.3720 -0.9360  0.2617
 1179SOL    HW114999   2.415   2.474  15.115  0.1835 -0.2916 -3.0778
 1179SOL    HW215000   2.298   2.569  15.104  1.8150 -0.0637  3.2386
 1180SOL     OW15001   0.528   1.080   5.520  0.1979  0.5749 -0.3001
 1180SOL    HW115002   0.564   1.168   5.528 -2.7224  1.8834 -1.6487
 1180SOL    HW215003   0.605   1.039   5.483 -0.7198 -2.7629  1.4785
 1181SOL     OW15004   0.475   3.524   7.355 -0.3492 -0.2607  0.0538
 1181SOL    HW115005   0.463   3.484   7.269 -0.4375  2.6119 -1.2878
 1181SOL    HW215006   0.389   3.555   7.380 -0.8489 -0.4681 -1.3680
 1182SOL     OW15007   4.195   3.179   2.914 -0.2462 -0.2151  0.1518
 1182SOL    HW115008   4.146   3.098   2.897 -0.2722 -0.2608  0.4432
 1182SOL    HW215009   4.271   3.149   2.963  0.6871 -0.4556 -1.4495
 1183SOL     OW15010   3.073   3.348   2.102  0.0873  0.1675  0.3436
 1183SOL    HW115011   3.150   3.310   2.145  1.4116  1.5180 -0.8564
 1183SOL    HW215012   3.102   3.366   2.013 -1.0653 -1.4504 -0.3604
 1184SOL     OW15013   2.902   2.079   3.895 -0.0272 -0.6597  1.0141
 1184SOL    HW115014   2.967   2.140   3.928  1.6540 -0.3225 -2.8956
 1184SOL    HW215015   2.846   2.078   3.973  0.2171  1.7721  1.2068
 1185SOL     OW15016   2.397   3.555   3.828 -0.2705  0.0564  0.2461
 1185SOL    HW115017   2.466   3.580   3.767  1.1564  1.5963  2.4723
 1185SOL    HW215018   2.447   3.523   3.903 -0.4697  0.0674  0.3862
 1186SOL     OW15019   1.260   2.728   5.946  0.1954  0.0235 -0.4454
 1186SOL    HW115020   1.297   2.706   5.861 -1.1431 -0.9780 -0.7792
 1186SOL    HW215021   1.300   2.648   5.978 -1.1846  0.3155  2.0236
 1187SOL     OW15022   0.412   2.349   4.865  0.0713 -0.5437 -0.1211
 1187SOL    HW115023   0.488   2.332   4.808  0.9600  3.0687 -0.0050
 1187SOL    HW215024   0.459   2.425   4.898  0.6464 -0.8454 -0.2405
 1188SOL     OW15025   1.240   2.447   8.923  0.3049 -0.2970  0.6270
 1188SOL    HW115026   1.330   2.479   8.934 -0.0403  0.7456  0.4753
 1188SOL    HW215027   1.240   2.355   8.948  0.8436 -0.9479 -1.7415
 1189SOL     OW15028   3.161   0.817   4.235 -0.4107 -0.0381  0.0746
 1189SOL    HW115029   3.155   0.745   4.298  0.8263  0.6112  0.9434
 1189SOL    HW215030   3.102   0.784   4.168  2.2604 -0.6002 -2.0157
 1190SOL     OW15031   0.399   0.092   0.557  0.7292 -0.5089  0.1413
 1190SOL    HW115032   0.409   0.065   0.648  0.9966  1.1500  0.6075
 1190SOL    HW215033   0.348   0.167   0.586  2.2439  0.1046  1.1764
 1191SOL     OW15034   2.659   0.566   0.169 -0.3378 -0.3725  0.2031
 1191SOL    HW115035   2.693   0.490   0.217 -1.0070 -1.0747 -0.4321
 1191SOL    HW215036   2.577   0.581   0.217  0.2628  0.0368  1.1005
 1192SOL     OW15037   3.611   3.095  11.304 -0.0410 -0.3139  0.4453
 1192SOL    HW115038   3.692   3.044  11.314  2.1515  3.5843  2.4172
 1192SOL    HW215039   3.649   3.162  11.247 -0.3348  0.6400  1.3705
 1193SOL     OW15040   1.307   3.050   6.180 -0.1063  0.4752 -0.2643
 1193SOL    HW115041   1.348   2.963   6.179  1.5886  1.2649  1.2130
 1193SOL    HW215042   1.347   3.081   6.262  2.9412 -3.6193 -0.1770
 1194SOL     OW15043   3.207   1.689   6.937 -0.4269 -0.3500 -0.0741
 1194SOL    HW115044   3.132   1.631   6.953 -0.4177 -0.5869 -0.9445
 1194SOL    HW215045   3.159   1.765   6.905 -1.0560  0.4905  2.8009
 1195SOL     OW15046   0.643   3.212   3.184  0.3243  0.0898  0.2737
 1195SOL    HW115047   0.625   3.120   3.203  1.3057 -0.5725 -1.9476
 1195SOL    HW215048   0.590   3.227   3.106 -0.8100  1.3995  1.3015
 1196SOL     OW15049   4.283   2.190  12.378 -0.1318 -0.0909  1.2039
 1196SOL    HW115050   4.192   2.201  12.350 -0.1432 -1.5449  0.7098
 1196SOL    HW215051   4.288   2.101  12.412  1.0911 -0.1937  0.7465
 1197SOL     OW15052   4.143   2.522   3.847  0.1564 -0.5743  0.5461
 1197SOL    HW115053   4.148   2.577   3.769 -2.1764 -0.5006  0.4587
 1197SOL    HW215054   4.136   2.433   3.814  1.9176 -1.5324  2.7185
 1198SOL     OW15055   2.740   0.282   5.262 -0.0621 -0.4612  0.2062
 1198SOL    HW115056   2.814   0.280   5.322 -0.5261 -0.0409  0.7852
 1198SOL    HW215057   2.753   0.206   5.205  2.2121 -0.4363  0.6836
 1199SOL     OW15058   4.309   4.098   6.978  0.1489  0.3036  0.5458
 1199SOL    HW115059   4.219   4.105   6.946  0.2750  0.2067  0.1669
 1199SOL    HW215060   4.291   4.027   7.040  1.6102 -0.6511 -0.1249
 1200SOL     OW15061   2.249   0.467  13.074 -0.0947 -0.1487 -0.3012
 1200SOL    HW115062   2.315   0.458  13.006 -0.5456  1.7142 -0.9834
 1200SOL    HW215063   2.202   0.384  13.064 -0.7924 -0.1208  2.7493
 1201SOL     OW15064   3.015   0.878   8.267  0.0599  0.0605 -0.1381
 1201SOL    HW115065   3.019   0.936   8.342 -1.0317  0.7389 -0.6030
 1201SOL    HW215066   2.967   0.809   8.312  1.1890 -2.2600 -2.4220
 1202SOL     OW15067   1.045   0.813  17.459 -0.1042 -0.3943  0.1245
 1202SOL    HW115068   1.102   0.750  17.501 -1.0538 -1.9905 -0.9947
 1202SOL    HW215069   1.100   0.866  17.401 -0.5600 -1.4339 -1.2494
 1203SOL     OW15070   3.386   1.977   7.819 -0.0108 -0.0627  0.2856
 1203SOL    HW115071   3.318   2.011   7.762  0.1572  2.8593  1.8300
 1203SOL    HW215072   3.458   2.040   7.823  0.1287 -0.2527  0.9011
 1204SOL     OW15073   2.019   3.855  11.163 -0.5558 -0.0568  0.2423
 1204SOL    HW115074   2.019   3.826  11.254 -3.3140 -2.5645 -0.5734
 1204SOL    HW215075   1.926   3.870  11.148 -1.0259 -1.8599  1.3744
 1205SOL     OW15076   1.907   0.816   8.980  0.4933 -0.7758  0.2037
 1205SOL    HW115077   1.832   0.759   8.963 -0.8286  1.1664 -0.4825
 1205SOL    HW215078   1.948   0.816   8.894 -1.5538 -1.4671 -0.7589
 1206SOL     OW15079   3.249   2.972   7.481 -0.2434  0.2036  0.1201
 1206SOL    HW115080   3.259   2.945   7.573 -0.3361  2.0604  0.6663
 1206SOL    HW215081   3.156   2.973   7.461 -0.6039  1.1393  1.8477
 1207SOL     OW15082   4.527   0.884   8.198 -0.1567 -0.2605  0.2793
 1207SOL    HW115083   4.468   0.920   8.264 -1.9409 -1.2903 -0.7551
 1207SOL    HW215084   4.583   0.825   8.250 -0.4449 -1.3357 -0.6359
 1208SOL     OW15085   2.997   2.452   2.538  0.0247  0.1879  0.1761
 1208SOL    HW115086   3.088   2.476   2.551  0.2906  0.4900 -2.2117
 1208SOL    HW215087   2.999   2.366   2.495 -2.6206  0.8161 -1.2538
 1209SOL     OW15088   0.016   2.951   9.974 -0.0740  0.2550 -0.5447
 1209SOL    HW115089   0.091   2.915  10.022 -0.5287  0.5268  0.3860
 1209SOL    HW215090   0.011   2.903   9.892 -1.2776 -1.0202  0.2679
 1210SOL     OW15091   0.979   0.844   4.938  0.4063 -0.0073 -0.6728
 1210SOL    HW115092   0.934   0.886   4.865 -2.0366 -1.0071  0.2415
 1210SOL    HW215093   1.068   0.877   4.928  0.5237  0.0664  0.6352
 1211SOL     OW15094   1.878   1.221   8.725  0.2391  0.4651  0.2004
 1211SOL    HW115095   1.936   1.194   8.654  1.4125  0.4903  1.1446
 1211SOL    HW215096   1.941   1.192   8.792  0.9366  0.4378 -0.4685
 1212SOL     OW15097   1.479   0.119   4.846 -0.1810  0.1506  0.3680
 1212SOL    HW115098   1.466   0.205   4.887  0.2499 -0.2065  1.2569
 1212SOL    HW215099   1.458   0.131   4.754  1.2104 -2.1727 -0.2412
 1213SOL     OW15100   2.396   3.089   2.144 -0.4648 -0.7766 -0.1222
 1213SOL    HW115101   2.447   3.071   2.065 -0.0040 -0.4049  0.0864
 1213SOL    HW215102   2.412   3.182   2.161  3.3940 -1.2720 -1.0511
 1214SOL     OW15103   1.163   2.614   3.825 -0.1142 -0.7035  0.0763
 1214SOL    HW115104   1.109   2.568   3.761  0.3581 -0.1234 -0.7396
 1214SOL    HW215105   1.248   2.570   3.817 -0.3931 -1.4257  1.1712
 1215SOL     OW15106   1.598   3.832  10.950 -0.0032  0.0058  0.3762
 1215SOL    HW115107   1.535   3.899  10.976  0.3429  1.5796 -2.8392
 1215SOL    HW215108   1.573   3.822  10.858 -1.3086 -0.7720  0.8236
 1216SOL     OW15109   3.660   4.354   5.366 -0.0353  0.3101 -0.2511
 1216SOL    HW115110   3.733   4.416   5.360  0.9837 -0.9382 -0.7341
 1216SOL    HW215111   3.598   4.411   5.321 -0.4878  0.4771  0.5956
 1217SOL     OW15112   3.432   4.140  16.797 -0.0344  0.0792  0.0986
 1217SOL    HW115113   3.457   4.215  16.742 -0.2742  0.4150  0.4509
 1217SOL    HW215114   3.347   4.109  16.767 -0.0515  2.8499 -2.8022
 1218SOL     OW15115   4.161   1.882   9.160 -0.0471 -0.1643 -0.2699
 1218SOL    HW115116   4.254   1.858   9.158  0.3258  1.1834  1.1801
 1218SOL    HW215117   4.129   1.805   9.207  1.2388  1.5836  3.5178
 1219SOL     OW15118   4.346   4.000   4.146  0.3056  0.2266  0.5841
 1219SOL    HW115119   4.353   4.068   4.078 -1.3881 -2.3044 -2.1385
 1219SOL    HW215120   4.279   4.043   4.199 -1.1486  0.7908 -1.7150
 1220SOL     OW15121   0.149   0.199   8.351  0.1103  0.0852  0.0049
 1220SOL    HW115122   0.054   0.207   8.364  0.0371 -0.3334 -0.2933
 1220SOL    HW215123   0.174   0.244   8.432 -3.4604 -2.0758  2.3246
 1221SOL     OW15124   1.049   3.029   9.316 -0.0684 -0.1197 -0.0501
 1221SOL    HW115125   1.059   3.055   9.408 -2.0658  0.5128 -0.0132
 1221SOL    HW215126   1.140   3.035   9.287 -0.7765 -0.3648 -2.2880
 1222SOL     OW15127   2.323   1.589  10.596  0.2224  0.4105  0.8808
 1222SOL    HW115128   2.418   1.585  10.603  0.1243 -2.1093  0.8524
 1222SOL    HW215129   2.295   1.576  10.687  0.4549 -3.0542  0.4617
 1223SOL     OW15130   1.508   0.247   8.436 -0.7937 -0.1596 -0.4756
 1223SOL    HW115131   1.494   0.157   8.464  4.3287 -0.6422  0.6752
 1223SOL    HW215132   1.603   0.257   8.443 -1.3342  4.7042 -0.4076
 1224SOL     OW15133   3.429   2.826   5.297  0.7109 -0.4186  0.0933
 1224SOL    HW115134   3.434   2.797   5.206 -0.9737  1.0779 -0.4604
 1224SOL    HW215135   3.406   2.917   5.282  3.1631 -0.1891 -2.2421
 1225SOL     OW15136   4.435   3.937   6.491 -0.3552  0.3232  0.0535
 1225SOL    HW115137   4.431   4.027   6.523  0.3761  0.5689 -0.5259
 1225SOL    HW215138   4.340   3.924   6.487 -0.6132  2.2909 -0.2281
 1226SOL     OW15139   3.304   0.217   7.600  0.2344  0.2557  0.0658
 1226SOL    HW115140   3.232   0.272   7.569 -1.7945 -2.5101 -0.1331
 1226SOL    HW215141   3.279   0.125   7.590  1.2210 -0.1948  1.8055
 1227SOL     OW15142   2.601   3.544   8.503 -0.6753  0.2627 -0.2821
 1227SOL    HW115143   2.525   3.592   8.469 -1.3033 -0.5514 -0.0156
 1227SOL    HW215144   2.640   3.613   8.557 -1.9719  0.1626  0.7848
 1228SOL     OW15145   4.220   1.165   4.298  0.1992 -0.1384  0.2450
 1228SOL    HW115146   4.264   1.088   4.334  1.8624  1.5707  1.8883
 1228SOL    HW215147   4.226   1.163   4.203 -0.6639 -1.8458  0.2383
 1229SOL     OW15148   4.149   1.262   9.999 -0.0581  0.5026 -0.7409
 1229SOL    HW115149   4.178   1.171   9.992 -3.6332 -0.7720  0.8151
 1229SOL    HW215150   4.159   1.281  10.092  1.2394 -0.3329 -0.7115
 1230SOL     OW15151   1.199   3.146   4.595 -0.1132 -0.6039 -0.1439
 1230SOL    HW115152   1.255   3.068   4.593 -0.5329 -0.9060 -0.0068
 1230SOL    HW215153   1.245   3.224   4.624 -1.9724  0.0276  1.0268
 1231SOL     OW15154   0.240   1.839  11.899 -0.1733  0.4243  0.3936
 1231SOL    HW115155   0.291   1.827  11.819 -2.3190 -0.6408 -0.8444
 1231SOL    HW215156   0.275   1.771  11.956  0.3090  0.7805  0.5179
 1232SOL     OW15157   0.272   1.815   9.129  0.1190  0.2131  0.0733
 1232SOL    HW115158   0.199   1.755   9.113  0.8470 -0.2300 -1.6440
 1232SOL    HW215159   0.251   1.894   9.080  0.6769  1.4122  1.7642
 1233SOL     OW15160   0.401   0.804   7.389  0.0504  0.8882 -0.2206
 1233SOL    HW115161   0.377   0.862   7.317  1.1281  1.5863 -0.0042
 1233SOL    HW215162   0.422   0.721   7.346 -3.4391  0.8994 -1.9732
 1234SOL     OW15163   4.549   3.006   8.123 -0.5192 -0.1969 -0.0809
 1234SOL    HW115164   4.494   2.989   8.199  0.7212  3.2045  1.5741
 1234SOL    HW215165   4.514   2.940   8.062 -0.1499  0.2760 -0.8085
 1235SOL     OW15166   0.255   2.876  10.086  0.1860 -0.1580  0.4009
 1235SOL    HW115167   0.295   2.802  10.131  0.0212 -0.7304 -0.4055
 1235SOL    HW215168   0.224   2.929  10.159  1.3062 -1.1491  1.5955
 1236SOL     OW15169   0.671   0.311   7.226 -0.1510  0.3932 -0.3264
 1236SOL    HW115170   0.734   0.344   7.162 -0.9100 -1.1150 -1.8481
 1236SOL    HW215171   0.701   0.224   7.250  1.1099  0.2511 -2.4617
 1237SOL     OW15172   4.690   3.015  12.699 -0.1730 -0.5465  0.4067
 1237SOL    HW115173   4.640   2.948  12.652  0.2134  0.2610 -1.1447
 1237SOL    HW215174   4.622   3.076  12.725 -1.3681 -1.5066 -0.4577
 1238SOL     OW15175   1.892   0.480   3.136 -0.3891  0.4558  0.2909
 1238SOL    HW115176   1.832   0.526   3.077 -1.4422 -0.3941  0.7017
 1238SOL    HW215177   1.950   0.429   3.080 -1.8636  0.6728 -1.4313
 1239SOL     OW15178   2.818   4.549   8.161 -0.2527  0.6782 -0.0627
 1239SOL    HW115179   2.817   4.644   8.166 -0.5724  0.6060  1.2009
 1239SOL    HW215180   2.756   4.538   8.090 -0.8079  2.2860  0.1919
 1240SOL     OW15181   0.193   3.229   7.059  0.3738  0.4231 -0.1078
 1240SOL    HW115182   0.134   3.299   7.084 -0.9027 -0.8396  0.4051
 1240SOL    HW215183   0.138   3.189   6.992  0.6716 -0.2698  0.0552
 1241SOL     OW15184   4.512   2.277   3.681  0.7274  0.8069  0.3634
 1241SOL    HW115185   4.455   2.324   3.620  2.2476  1.8563 -0.2214
 1241SOL    HW215186   4.496   2.324   3.763 -1.0969  3.7458 -1.7330
 1242SOL     OW15187   1.223   0.676  12.870  0.2238  0.2130  0.5120
 1242SOL    HW115188   1.215   0.581  12.883 -1.1038  0.0383 -1.6036
 1242SOL    HW215189   1.201   0.712  12.955 -0.2930 -0.7106  0.7752
 1243SOL     OW15190   0.144   2.523   4.191 -0.1974  0.2747  0.2391
 1243SOL    HW115191   0.161   2.596   4.250 -4.5173  1.0920  0.4679
 1243SOL    HW215192   0.159   2.451   4.252  0.0132 -0.7912 -1.0725
 1244SOL     OW15193   1.165   2.406  12.093 -0.4855 -0.2085 -0.7350
 1244SOL    HW115194   1.176   2.496  12.065 -2.1509  0.4950  0.8241
 1244SOL    HW215195   1.238   2.394  12.153 -0.6574 -1.2910 -0.7309
 1245SOL     OW15196   1.616   2.564  14.600 -0.6217 -0.1213 -0.0371
 1245SOL    HW115197   1.546   2.503  14.577 -0.7107 -0.6326  1.5894
 1245SOL    HW215198   1.685   2.533  14.542 -2.1473 -0.5117 -1.6602
 1246SOL     OW15199   3.119   1.916   5.511  0.6177  0.2286 -0.0218
 1246SOL    HW115200   3.056   1.844   5.518  1.0635 -0.0575  0.8954
 1246SOL    HW215201   3.052   1.980   5.487  1.6851  1.1201 -0.6448
 1247SOL     OW15202   1.611   1.140  13.221  0.6575  0.4730  0.2244
 1247SOL    HW115203   1.636   1.095  13.140  3.0368 -0.3400  1.4160
 1247SOL    HW215204   1.548   1.076  13.256  1.8676 -0.1710  1.2335
 1248SOL     OW15205   0.686   0.090   3.804 -0.1759 -0.1769 -0.0976
 1248SOL    HW115206   0.754   0.129   3.860 -0.3743 -1.6294  1.1531
 1248SOL    HW215207   0.727   0.006   3.784 -2.1598 -1.2846  0.5360
 1249SOL     OW15208   1.839   0.340   6.865 -0.2878  0.2800 -0.0424
 1249SOL    HW115209   1.930   0.365   6.885 -0.8910  1.6157  0.9988
 1249SOL    HW215210   1.790   0.422   6.852  1.4293  1.3265  0.0114
 1250SOL     OW15211   4.432   3.218   9.193  0.2795 -0.0347  0.4137
 1250SOL    HW115212   4.439   3.145   9.254 -0.2998 -1.0353 -0.7134
 1250SOL    HW215213   4.415   3.161   9.118  0.0969 -1.4477  1.5271
 1251SOL     OW15214   2.611   3.716   8.740  0.4943 -0.7528  0.1888
 1251SOL    HW115215   2.624   3.807   8.714  1.2321 -0.8133  0.3623
 1251SOL    HW215216   2.655   3.709   8.824  1.1340  0.3221 -0.0565
 1252SOL     OW15217   1.266   2.188   3.766 -0.3190  0.1606 -0.7222
 1252SOL    HW115218   1.277   2.131   3.842  1.0029 -0.2432 -1.2268
 1252SOL    HW215219   1.253   2.122   3.698 -0.3022 -0.0959 -0.4787
 1253SOL     OW15220   4.510   3.549  13.033  0.5881  1.0127 -0.1718
 1253SOL    HW115221   4.535   3.472  12.981 -1.6971 -0.9134  1.5827
 1253SOL    HW215222   4.415   3.535  13.031  0.6753  0.3262  0.5482
 1254SOL     OW15223   0.299   4.322  12.537  0.4342 -0.1481  0.2831
 1254SOL    HW115224   0.386   4.361  12.528 -0.0822  1.2401  1.2540
 1254SOL    HW215225   0.277   4.336  12.629 -0.7530 -2.7767  0.4040
 1255SOL     OW15226   1.280   3.312   9.693 -0.8031 -0.1303 -0.2842
 1255SOL    HW115227   1.247   3.242   9.636 -0.9019  0.1827 -0.6168
 1255SOL    HW215228   1.371   3.325   9.667 -0.0877  0.6928  2.7291
 1256SOL     OW15229   1.926   0.153   8.239 -0.1210  0.0857  0.1068
 1256SOL    HW115230   1.858   0.090   8.264  0.8027 -0.4824  1.2076
 1256SOL    HW215231   1.921   0.145   8.144  0.7163 -0.6146  0.1236
 1257SOL     OW15232   0.652   1.549   1.638  0.4842  0.1697  0.0248
 1257SOL    HW115233   0.658   1.480   1.704  1.8269 -1.4651 -1.8212
 1257SOL    HW215234   0.578   1.604   1.665 -0.8938 -1.5214 -0.2521
 1258SOL     OW15235   2.383   1.218   0.351  0.1954  0.5898  0.1009
 1258SOL    HW115236   2.419   1.134   0.323  0.4527  1.1350 -1.2100
 1258SOL    HW215237   2.371   1.222   0.446 -3.5673  0.5848 -0.3520
 1259SOL     OW15238   0.998   0.271   7.654 -0.5048 -0.1011 -0.2490
 1259SOL    HW115239   0.999   0.218   7.574 -0.9162 -0.4641 -0.0094
 1259SOL    HW215240   0.960   0.352   7.619  0.9783  0.5225 -0.4397
 1260SOL     OW15241   3.111   1.263   9.844 -0.3351 -0.6877 -0.4946
 1260SOL    HW115242   3.188   1.253   9.900  0.3347  1.3434 -1.0432
 1260SOL    HW215243   3.098   1.358   9.857  2.3850 -0.5240  1.0482
 1261SOL     OW15244   3.686   0.781   5.641  0.4623  0.2527  0.1680
 1261SOL    HW115245   3.654   0.870   5.621  0.8408  0.1918 -0.7385
 1261SOL    HW215246   3.692   0.746   5.552  1.2652 -0.5807  0.5561
 1262SOL     OW15247   2.101   3.227   1.575 -0.1236  0.1975  0.0176
 1262SOL    HW115248   2.030   3.194   1.520  1.8624 -3.2080 -0.5080
 1262SOL    HW215249   2.088   3.321   1.564  1.7766  0.5856  1.0389
 1263SOL     OW15250   3.273   4.577   6.544  0.2679 -0.0887 -0.3770
 1263SOL    HW115251   3.289   4.499   6.492 -1.5217  1.1030 -2.6908
 1263SOL    HW215252   3.218   4.627   6.484  1.8015  0.1771 -1.5559
 1264SOL     OW15253   3.633   2.191   3.248 -0.2995  0.3551  0.0772
 1264SOL    HW115254   3.674   2.145   3.175  0.4271  3.7255 -1.6201
 1264SOL    HW215255   3.700   2.220   3.309 -0.3947  1.1726 -0.2115
 1265SOL     OW15256   3.162   4.060  16.737 -0.4628  0.0064 -0.3841
 1265SOL    HW115257   3.192   4.005  16.809  1.0523 -0.2164 -1.1858
 1265SOL    HW215258   3.118   3.993  16.684  0.0859 -1.6438  1.2330
 1266SOL     OW15259   1.812   0.220   5.197 -0.3221  0.1872 -0.3460
 1266SOL    HW115260   1.836   0.138   5.241 -0.9420  1.5850  2.6041
 1266SOL    HW215261   1.808   0.192   5.106  2.1403 -0.9989 -0.0783
 1267SOL     OW15262   4.012   3.732   4.533 -0.0242 -0.1328  0.1029
 1267SOL    HW115263   4.060   3.672   4.590  0.2295 -0.0131  0.0147
 1267SOL    HW215264   3.933   3.745   4.585  0.2603  0.2591  0.4416
 1268SOL     OW15265   0.328   1.946   4.221  0.0337  0.3498 -0.0678
 1268SOL    HW115266   0.358   1.976   4.306  1.3728 -1.1682  0.0019
 1268SOL    HW215267   0.363   1.998   4.149  3.2552 -1.6563  0.0497
 1269SOL     OW15268   4.631   0.372   4.707 -0.0601 -0.0033 -0.0408
 1269SOL    HW115269   4.663   0.448   4.755  0.7173 -1.2011  1.3492
 1269SOL    HW215270   4.709   0.352   4.656 -1.0026 -0.2646 -1.3849
 1270SOL     OW15271   0.346   4.078   9.460  0.0680  0.3162 -0.0569
 1270SOL    HW115272   0.414   4.025   9.502 -1.7873 -2.9910 -1.1737
 1270SOL    HW215273   0.402   4.122   9.395  0.1056 -0.0568 -0.2779
 1271SOL     OW15274   0.891   4.361   8.055 -0.1432 -0.4298 -0.0320
 1271SOL    HW115275   0.934   4.379   8.138  1.6534 -2.3453 -0.5608
 1271SOL    HW215276   0.859   4.275   8.081 -1.3700 -0.1275 -0.5373
 1272SOL     OW15277   0.207   4.166   5.660  0.2853  0.3243 -0.0993
 1272SOL    HW115278   0.164   4.149   5.576  0.8497 -0.2521 -0.2678
 1272SOL    HW215279   0.130   4.157   5.717 -0.4202  1.2288 -0.9047
 1273SOL     OW15280   0.829   1.130   5.529 -0.4547  0.7397  0.2143
 1273SOL    HW115281   0.868   1.206   5.485 -0.5304  1.2678  1.0752
 1273SOL    HW215282   0.883   1.059   5.494  0.8106  2.2539 -0.9340
 1274SOL     OW15283   0.007   2.650   3.692 -0.1858 -0.1294 -0.3407
 1274SOL    HW115284   4.650   2.629   3.736  0.4991  1.1124  1.5338
 1274SOL    HW215285   0.060   2.574   3.717  1.0818  1.6628  2.4053
 1275SOL     OW15286   2.516   4.591  16.308  1.2016 -0.1310 -0.1507
 1275SOL    HW115287   2.451   4.628  16.248 -0.2660  0.2315  1.6724
 1275SOL    HW215288   2.533   4.668  16.362  1.2309 -0.3246  0.1139
 1276SOL     OW15289   4.438   4.643   5.472  0.0300 -0.6005 -0.2076
 1276SOL    HW115290   4.461   4.560   5.513 -2.7036 -1.2121  0.1042
 1276SOL    HW215291   4.438   4.696   5.552  1.5129 -0.0647 -0.5683
 1277SOL     OW15292   2.654   2.528  13.183  0.0178  0.2570  0.2407
 1277SOL    HW115293   2.569   2.568  13.199 -0.6546 -1.3433  0.6654
 1277SOL    HW215294   2.693   2.568  13.260  1.2629  0.0031 -0.2589
 1278SOL     OW15295   4.140   3.112   7.113  0.1709  0.2389  0.3549
 1278SOL    HW115296   4.061   3.071   7.077 -1.2497  1.7839  1.7239
 1278SOL    HW215297   4.115   3.201   7.137  0.9318  0.4584  0.3176
 1279SOL     OW15298   1.063   2.671   5.535 -0.4889 -0.3964  0.2437
 1279SOL    HW115299   1.061   2.690   5.442  1.1774  0.8378  0.4504
 1279SOL    HW215300   1.127   2.602   5.523  1.6468  1.6275  0.0169
 1280SOL     OW15301   3.853   0.381  15.533 -0.3024 -0.2812  0.1081
 1280SOL    HW115302   3.854   0.454  15.471  1.7065  0.7721  1.3638
 1280SOL    HW215303   3.948   0.375  15.534 -0.3104 -0.2037  2.1385
 1281SOL     OW15304   1.751   1.892  12.932  0.1795  0.3392 -0.1122
 1281SOL    HW115305   1.723   1.872  12.843  2.6852  1.2427 -1.0996
 1281SOL    HW215306   1.721   1.811  12.974 -0.6971 -0.0600 -1.5378
 1282SOL     OW15307   1.468   0.909   3.803 -0.3396 -0.2321 -0.0138
 1282SOL    HW115308   1.481   0.866   3.718 -0.5097  1.2574 -0.8054
 1282SOL    HW215309   1.373   0.894   3.805 -0.1875 -1.1227  0.5474
 1283SOL     OW15310   2.180   0.040   8.445  0.0976  0.2897  0.2873
 1283SOL    HW115311   2.123   4.695   8.415 -0.6595  1.1254 -0.2392
 1283SOL    HW215312   2.110   0.105   8.442 -0.8387 -0.7190  0.5246
 1284SOL     OW15313   0.010   1.668   6.879 -0.0642 -0.4416  0.3960
 1284SOL    HW115314   0.036   1.592   6.931  1.3757  1.0123  1.8012
 1284SOL    HW215315   0.038   1.659   6.788  3.2582  0.1314  1.3711
 1285SOL     OW15316   1.146   0.832  15.200 -0.2115 -0.1339 -0.4238
 1285SOL    HW115317   1.119   0.813  15.110  1.5711  1.4781 -1.2922
 1285SOL    HW215318   1.186   0.749  15.228  1.2073  0.6179 -0.2234
 1286SOL     OW15319   1.013   0.549   5.234  0.6964 -0.5225 -0.1049
 1286SOL    HW115320   1.011   0.522   5.326 -0.4355 -0.7610 -0.1985
 1286SOL    HW215321   0.932   0.599   5.230  0.3104 -1.2757 -1.5329
 1287SOL     OW15322   1.609   1.227   8.977 -0.8369 -0.2595  0.0983
 1287SOL    HW115323   1.567   1.282   8.910 -2.4435 -1.5978 -0.0004
 1287SOL    HW215324   1.594   1.141   8.939  2.1899 -0.4750 -0.5437
 1288SOL     OW15325   0.083   2.770   8.230  0.7349  0.4614  0.0987
 1288SOL    HW115326   0.030   2.817   8.295 -1.3785  0.2536 -1.4689
 1288SOL    HW215327   0.162   2.764   8.284  1.1124 -0.2665 -0.5424
 1289SOL     OW15328   2.827   0.956   3.878  0.6078 -0.0111 -0.1648
 1289SOL    HW115329   2.784   0.873   3.858  1.4394 -0.8060  1.3897
 1289SOL    HW215330   2.763   1.014   3.837 -0.1703  0.7332  2.0664
 1290SOL     OW15331   3.188   1.730   5.144  0.8447 -0.0086 -0.9445
 1290SOL    HW115332   3.159   1.813   5.181  1.5159 -1.3748  2.5601
 1290SOL    HW215333   3.154   1.741   5.055 -1.8259 -2.3350 -0.2164
 1291SOL     OW15334   3.110   1.178   7.787  0.8132 -0.1257  0.5517
 1291SOL    HW115335   3.151   1.255   7.747 -1.5405 -0.3720 -2.2905
 1291SOL    HW215336   3.025   1.215   7.808  0.9270  0.1603  0.5151
 1292SOL     OW15337   0.899   2.394   4.705  0.7808 -0.6613 -0.5833
 1292SOL    HW115338   0.846   2.457   4.656 -0.1341 -1.0549 -0.0936
 1292SOL    HW215339   0.896   2.318   4.647  2.4582 -1.3140  0.1921
 1293SOL     OW15340   4.642   3.087   6.128 -0.3679 -0.5847  0.7277
 1293SOL    HW115341   4.557   3.060   6.162 -0.2403  0.6982  2.0689
 1293SOL    HW215342   4.643   3.181   6.147 -1.1209 -0.4088 -0.0774
 1294SOL     OW15343   2.145   3.127  15.012 -0.1450  0.5760 -0.3591
 1294SOL    HW115344   2.086   3.190  15.052  0.0383 -0.9054  2.2799
 1294SOL    HW215345   2.211   3.111  15.081 -2.4087 -0.1102  1.6343
 1295SOL     OW15346   3.152   3.774   8.258 -0.8343 -0.1528 -0.0487
 1295SOL    HW115347   3.177   3.682   8.251  3.3686  0.9253  1.2048
 1295SOL    HW215348   3.158   3.791   8.352 -0.7277  0.7743 -0.2245
 1296SOL     OW15349   0.115   2.580  11.835  0.2549 -0.0497  0.2610
 1296SOL    HW115350   0.134   2.492  11.801 -1.0389  0.4346 -1.7202
 1296SOL    HW215351   0.194   2.630  11.818  0.1022  0.5281  1.2667
 1297SOL     OW15352   2.171   3.967   8.882 -0.3879 -0.4367  0.1536
 1297SOL    HW115353   2.131   4.012   8.807 -0.5097 -0.3995  0.2404
 1297SOL    HW215354   2.138   4.025   8.951 -0.9413 -0.8745  0.2547
 1298SOL     OW15355   4.336   3.946   2.985  0.0396 -0.1026 -0.1808
 1298SOL    HW115356   4.245   3.975   2.985 -0.0182 -0.2984 -2.9215
 1298SOL    HW215357   4.334   3.885   2.911 -0.0461  0.2803 -0.4956
 1299SOL     OW15358   3.388   0.784   5.327  0.1188 -0.7573 -0.0182
 1299SOL    HW115359   3.454   0.846   5.296  0.2727 -0.5584  0.7112
 1299SOL    HW215360   3.399   0.720   5.257  0.6640 -1.2223  0.5016
 1300SOL     OW15361   1.569   4.524   3.533 -0.3059  0.0872 -0.6211
 1300SOL    HW115362   1.574   4.495   3.441 -1.6649  0.8408 -0.9407
 1300SOL    HW215363   1.577   4.437   3.572 -0.7675  1.0415  1.5620
 1301SOL     OW15364   1.775   0.063  15.780  0.1482 -0.2467  0.1493
 1301SOL    HW115365   1.818   0.047  15.696 -2.2636 -1.8384 -0.7827
 1301SOL    HW215366   1.683   0.077  15.757  0.1006  0.6210  0.8802
 1302SOL     OW15367   0.481   2.577  12.895  0.0416  0.2157  0.3318
 1302SOL    HW115368   0.427   2.601  12.819  1.7909  0.3668 -0.8717
 1302SOL    HW215369   0.555   2.638  12.890  1.1988 -1.1107  1.4623
 1303SOL     OW15370   0.019   2.544   0.852 -0.2584  0.2042 -0.2654
 1303SOL    HW115371   4.657   2.561   0.816 -0.6524  1.5833  1.3817
 1303SOL    HW215372   0.075   2.593   0.791  0.8462  2.3409  2.4785
 1304SOL     OW15373   0.475   2.055   3.152  0.4864 -0.0430  0.1493
 1304SOL    HW115374   0.456   2.068   3.059  1.0901  1.7034  0.2824
 1304SOL    HW215375   0.459   2.142   3.187 -1.0842  1.0283 -3.2104
 1305SOL     OW15376   3.503   0.056  15.120  0.0011 -0.0401  0.2004
 1305SOL    HW115377   3.517   4.689  15.101 -3.2229 -0.7146  1.1396
 1305SOL    HW215378   3.579   0.074  15.176 -0.3755 -0.3832  0.8290
 1306SOL     OW15379   0.701   2.319   5.143  0.7092 -0.4962  0.0356
 1306SOL    HW115380   0.762   2.372   5.091 -0.7806  0.5800 -0.6260
 1306SOL    HW215381   0.617   2.364   5.128  0.9795  0.2654  0.8188
 1307SOL     OW15382   2.497   1.398   8.707 -0.0513 -0.3289  0.2773
 1307SOL    HW115383   2.470   1.306   8.713 -1.3438  0.0854  0.5899
 1307SOL    HW215384   2.430   1.432   8.649  1.3525  3.1982  0.7409
 1308SOL     OW15385   3.310   1.253  14.311 -0.5019 -0.1168 -0.1261
 1308SOL    HW115386   3.270   1.280  14.229  0.6931 -0.2273 -0.7389
 1308SOL    HW215387   3.402   1.233  14.292 -0.5402 -0.4748  0.0725
 1309SOL     OW15388   4.559   1.093  11.896 -0.3969  0.2165  0.0384
 1309SOL    HW115389   4.602   1.172  11.864  0.8430 -1.2392 -1.8805
 1309SOL    HW215390   4.551   1.113  11.989 -0.6732 -0.3921  0.1467
 1310SOL     OW15391   0.694   4.252   2.547 -0.1767 -0.2373  0.7666
 1310SOL    HW115392   0.781   4.215   2.528 -1.1359 -2.8634  1.5158
 1310SOL    HW215393   0.704   4.318   2.615 -0.4068  0.9519 -0.3422
 1311SOL     OW15394   0.470   0.488   5.805  0.9007 -0.0806 -0.2112
 1311SOL    HW115395   0.395   0.538   5.838  0.4085  0.2964 -1.9287
 1311SOL    HW215396   0.518   0.474   5.887  0.1693 -1.9891 -0.1275
 1312SOL     OW15397   0.660   3.912   2.758 -0.0204 -0.0246 -0.2336
 1312SOL    HW115398   0.719   3.885   2.687 -0.0029 -1.2739  0.2617
 1312SOL    HW215399   0.729   3.944   2.817  0.0603  0.1389 -0.4142
 1313SOL     OW15400   1.095   3.812  12.448 -0.2738 -0.3790  0.3046
 1313SOL    HW115401   1.004   3.842  12.446  0.7731  2.7777  0.3385
 1313SOL    HW215402   1.087   3.733  12.502  1.9790 -0.4197  0.5694
 1314SOL     OW15403   4.065   2.724   4.818  0.2986  0.0268  0.2565
 1314SOL    HW115404   3.987   2.762   4.776 -0.9866 -2.3891  0.4370
 1314SOL    HW215405   4.079   2.643   4.769  0.7142 -0.2665  0.8661
 1315SOL     OW15406   0.438   2.943   6.404  0.1146 -0.2923  0.3622
 1315SOL    HW115407   0.502   3.000   6.448 -0.5632 -1.0627  2.3055
 1315SOL    HW215408   0.392   2.918   6.484  0.0796 -0.0205  0.4299
 1316SOL     OW15409   0.074   0.876   2.743 -0.0462 -0.0007 -0.1903
 1316SOL    HW115410   0.092   0.939   2.673  1.0663  2.1130  2.0026
 1316SOL    HW215411   4.706   0.885   2.731 -0.1550  1.0616  1.5091
 1317SOL     OW15412   0.314   1.460   6.836  0.1228 -0.2750 -0.3611
 1317SOL    HW115413   0.244   1.395   6.836 -1.0146  0.9609  0.9527
 1317SOL    HW215414   0.367   1.429   6.762  1.7796  0.5525  0.4731
 1318SOL     OW15415   2.284   2.513   4.488  0.3079  0.4291  0.6816
 1318SOL    HW115416   2.334   2.513   4.406  1.1984  2.6954  1.2278
 1318SOL    HW215417   2.226   2.588   4.476  0.1530  0.4332  1.5005
 1319SOL     OW15418   0.054   2.838  11.705  0.5257  0.0309  0.0519
 1319SOL    HW115419   0.061   2.766  11.768  0.9803  0.8958  0.9901
 1319SOL    HW215420   0.140   2.879  11.714 -0.1499  1.5165 -0.2966
 1320SOL     OW15421   1.259   1.443  16.783  0.5640 -0.2079  0.3316
 1320SOL    HW115422   1.310   1.423  16.862 -0.9093  0.7573  1.5305
 1320SOL    HW215423   1.321   1.421  16.713  1.4315  1.6141  0.5349
 1321SOL     OW15424   0.351   3.013   6.031 -0.4239  0.0078 -0.1997
 1321SOL    HW115425   0.375   2.932   5.986  1.5555 -0.1367  1.1163
 1321SOL    HW215426   0.265   2.994   6.068  1.3200 -4.3558  1.6366
 1322SOL     OW15427   4.321   2.273   7.983  0.2035  0.7254 -0.0877
 1322SOL    HW115428   4.338   2.290   7.890  2.2723 -1.2831 -0.0618
 1322SOL    HW215429   4.226   2.288   7.983 -0.2568 -2.2037 -0.5022
 1323SOL     OW15430   2.410   2.330  10.061  0.0314 -0.2262 -0.1797
 1323SOL    HW115431   2.423   2.242  10.025 -2.0356 -0.1882 -1.0012
 1323SOL    HW215432   2.493   2.376  10.042  0.9219 -1.7774 -0.0330
 1324SOL     OW15433   4.640   0.246   4.389 -0.0237  0.1172 -0.1397
 1324SOL    HW115434   4.576   0.252   4.460 -1.6235 -2.1477 -1.3882
 1324SOL    HW215435   4.617   0.168   4.339 -0.1328  0.1272 -0.1045
 1325SOL     OW15436   3.424   2.434   5.752  0.6920  0.2796  0.1590
 1325SOL    HW115437   3.458   2.522   5.733  3.8747 -0.9750  0.1283
 1325SOL    HW215438   3.361   2.460   5.820  0.5564 -0.9129  0.4774
 1326SOL     OW15439   2.163   3.660   6.942  0.0152  0.0376 -0.4702
 1326SOL    HW115440   2.228   3.617   6.887 -0.3551 -1.2079  0.0779
 1326SOL    HW215441   2.110   3.590   6.980  1.3619 -0.6605  0.1344
 1327SOL     OW15442   4.654   0.244   3.649  0.6010 -0.0309  0.4560
 1327SOL    HW115443   4.712   0.278   3.717  1.5480 -0.7886  0.0369
 1327SOL    HW215444   4.579   0.299   3.671  0.6162  0.2263 -0.1300
 1328SOL     OW15445   3.441   0.712   8.767 -0.4229 -0.2075  0.6545
 1328SOL    HW115446   3.400   0.626   8.768 -0.1650 -0.3392 -0.5036
 1328SOL    HW215447   3.496   0.710   8.689 -0.8259  2.9584  0.2708
 1329SOL     OW15448   2.281   1.193   4.885 -0.3429 -0.1750  0.7241
 1329SOL    HW115449   2.374   1.201   4.865 -0.2735 -1.6260  0.5310
 1329SOL    HW215450   2.278   1.128   4.955  1.2971  0.9188  1.8207
 1330SOL     OW15451   1.149   3.896   5.871  0.4099 -0.1915 -0.3602
 1330SOL    HW115452   1.069   3.939   5.900  0.8711 -0.4902  1.4026
 1330SOL    HW215453   1.210   3.951   5.921  1.1860  1.1067 -2.7482
 1331SOL     OW15454   3.978   2.455   3.018 -0.4394  0.4635 -0.0119
 1331SOL    HW115455   4.073   2.445   3.010 -0.6125 -0.8130 -0.4553
 1331SOL    HW215456   3.956   2.363   3.031  0.6086  0.2333  0.1622
 1332SOL     OW15457   3.443   0.957   2.502 -0.4427 -0.2935 -0.5095
 1332SOL    HW115458   3.415   0.930   2.589  0.3856 -1.1012 -0.4864
 1332SOL    HW215459   3.537   0.943   2.514 -0.9266 -0.0012  3.4594
 1333SOL     OW15460   3.423   3.681   6.777 -0.0493 -0.2233 -0.0734
 1333SOL    HW115461   3.418   3.641   6.863  2.0531 -3.1004 -1.3059
 1333SOL    HW215462   3.330   3.691   6.758 -0.4157 -0.8950  1.3620
 1334SOL     OW15463   0.945   2.697   3.967 -0.4625  0.7162  0.3731
 1334SOL    HW115464   1.020   2.653   3.928 -1.4418  0.4228 -1.1808
 1334SOL    HW215465   0.955   2.671   4.058 -1.8511 -1.5333 -0.1251
 1335SOL     OW15466   2.628   0.226   8.144 -0.0315 -0.6772 -0.1494
 1335SOL    HW115467   2.563   0.221   8.214 -1.2979  3.0592 -1.0970
 1335SOL    HW215468   2.661   0.315   8.154 -0.6129 -0.5552  0.6321
 1336SOL     OW15469   2.752   2.859   5.140  0.0209  0.3034 -0.2963
 1336SOL    HW115470   2.840   2.894   5.121  0.5775 -0.5705  0.6797
 1336SOL    HW215471   2.728   2.927   5.203 -2.4140  0.0504 -0.9696
 1337SOL     OW15472   2.572   0.716  16.735 -0.3376 -0.4181 -0.3535
 1337SOL    HW115473   2.562   0.706  16.640  0.4656  0.8858 -0.5686
 1337SOL    HW215474   2.583   0.623  16.758  0.0628 -0.2881 -0.0210
 1338SOL     OW15475   4.239   3.881  17.333 -0.3789 -0.4534 -0.3348
 1338SOL    HW115476   4.200   3.817  17.393 -0.3549 -1.3574 -1.2737
 1338SOL    HW215477   4.293   3.933  17.392 -0.4209 -1.0331  0.2156
 1339SOL     OW15478   4.019   3.333   8.487  0.4356 -0.1109  0.0642
 1339SOL    HW115479   4.058   3.400   8.542 -0.5617  1.3279 -0.9928
 1339SOL    HW215480   3.965   3.292   8.555 -1.2338  1.4439 -0.3223
 1340SOL     OW15481   2.582   3.636   7.382 -0.5508  0.3058 -0.3067
 1340SOL    HW115482   2.629   3.630   7.299  1.0473  1.3897  0.5380
 1340SOL    HW215483   2.545   3.724   7.376  0.7111  1.0167  2.4604
 1341SOL     OW15484   3.740   2.907  10.954 -0.5289 -0.4455  0.7144
 1341SOL    HW115485   3.701   2.872  11.034  2.2476  2.9551  3.5195
 1341SOL    HW215486   3.809   2.970  10.975 -1.4195  0.3409  1.2746
 1342SOL     OW15487   0.795   0.709  17.374 -0.1777 -0.2405  0.0738
 1342SOL    HW115488   0.822   0.703  17.282 -0.7065 -0.0244 -0.0989
 1342SOL    HW215489   0.868   0.741  17.426 -1.3422  0.2747  1.3747
 1343SOL     OW15490   4.421   0.082  17.225 -0.0293  0.1210 -0.1673
 1343SOL    HW115491   4.436   0.054  17.134 -1.9376  3.6810 -1.5683
 1343SOL    HW215492   4.443   0.003  17.275  1.7328 -0.3375 -1.6728
 1344SOL     OW15493   3.784   1.105   0.162  0.5417 -0.2190 -0.0522
 1344SOL    HW115494   3.724   1.081   0.091  0.3297  2.7259 -0.8334
 1344SOL    HW215495   3.753   1.191   0.188  1.4079  0.5677 -1.6554
 1345SOL     OW15496   1.624   1.850   3.598 -0.1796  0.3171  1.3074
 1345SOL    HW115497   1.590   1.915   3.661  0.8913  1.3379  0.8299
 1345SOL    HW215498   1.713   1.884   3.591 -0.2864  0.1885 -0.6106
 1346SOL     OW15499   3.266   0.270   4.395 -0.4342 -0.3906  0.8300
 1346SOL    HW115500   3.260   0.181   4.360 -2.6807  0.1735 -0.2543
 1346SOL    HW215501   3.355   0.294   4.369  0.3191 -0.4954  3.3295
 1347SOL     OW15502   3.840   2.685   3.068  0.3398 -0.5529  0.1108
 1347SOL    HW115503   3.880   2.608   3.028  1.1100 -0.7688  1.2942
 1347SOL    HW215504   3.901   2.707   3.138  0.2536  2.1929 -0.6869
 1348SOL     OW15505   0.993   2.837   9.073 -0.5892 -0.4828 -0.2290
 1348SOL    HW115506   1.028   2.819   9.161 -0.5397  1.3929  0.1506
 1348SOL    HW215507   0.900   2.817   9.080 -1.1847  1.6356 -2.0626
 1349SOL     OW15508   3.405   1.923  11.913  0.3198  0.0494  0.4514
 1349SOL    HW115509   3.370   1.838  11.886  0.1931 -0.6802  2.8722
 1349SOL    HW215510   3.324   1.974  11.912 -1.0653 -2.1142  0.3036
 1350SOL     OW15511   3.288   1.204  11.693  0.6595 -0.0771 -0.4163
 1350SOL    HW115512   3.316   1.155  11.771  0.1469  0.6439  0.2235
 1350SOL    HW215513   3.309   1.142  11.623 -0.7087 -0.5429 -0.4157
 1351SOL     OW15514   3.259   0.697   1.310  0.2863 -0.6141  0.3947
 1351SOL    HW115515   3.165   0.712   1.319  0.1505 -0.7133 -0.9717
 1351SOL    HW215516   3.279   0.705   1.217  0.0577  0.0944  0.4124
 1352SOL     OW15517   0.762   4.490   2.764 -0.0806  0.1572 -0.0154
 1352SOL    HW115518   0.776   4.584   2.754 -0.1413  0.1130 -0.4964
 1352SOL    HW215519   0.771   4.476   2.858 -1.1018 -0.3156  0.0177
 1353SOL     OW15520   3.657   3.259  14.604  0.0973  0.2660 -0.1198
 1353SOL    HW115521   3.588   3.275  14.540  1.2869  0.2637 -1.4147
 1353SOL    HW215522   3.609   3.208  14.669 -1.6867  0.3385 -1.3903
 1354SOL     OW15523   0.259   4.601   4.001 -0.3567 -0.3544  0.2811
 1354SOL    HW115524   0.202   4.545   4.053  0.3063 -2.7654 -1.5764
 1354SOL    HW215525   0.332   4.539   3.994  0.5103  0.7998 -0.8737
 1355SOL     OW15526   1.671   0.639   3.063  0.1201  0.0422 -0.3027
 1355SOL    HW115527   1.583   0.602   3.054  0.5583 -1.7438  2.5168
 1355SOL    HW215528   1.710   0.639   2.976  0.8780  0.7270  0.0323
 1356SOL     OW15529   2.758   1.341   3.902  0.3959 -0.1618  0.4223
 1356SOL    HW115530   2.829   1.332   3.965  0.5082  1.4295  0.5171
 1356SOL    HW215531   2.679   1.336   3.957  0.6578  1.9483  0.9887
 1357SOL     OW15532   1.034   0.499   3.539  0.2718 -0.0331 -0.3176
 1357SOL    HW115533   1.003   0.546   3.617  1.1193  0.8759 -0.5255
 1357SOL    HW215534   1.049   0.411   3.574 -0.1143  0.2325  0.5064
 1358SOL     OW15535   2.679   1.540   7.984 -0.2841  0.9326  0.1420
 1358SOL    HW115536   2.733   1.513   8.058 -2.0051 -1.5782  0.4826
 1358SOL    HW215537   2.667   1.454   7.944 -0.1048  0.7220  0.5485
 1359SOL     OW15538   3.403   2.130  10.203 -0.4950  0.2196 -0.5925
 1359SOL    HW115539   3.493   2.101  10.191 -1.4267 -1.7716 -2.9218
 1359SOL    HW215540   3.384   2.155  10.293 -1.4507 -0.3438 -0.6297
 1360SOL     OW15541   1.931   3.529   4.336  0.5249 -0.3144  0.5827
 1360SOL    HW115542   1.924   3.473   4.259  1.0596 -2.1305  1.8671
 1360SOL    HW215543   1.850   3.511   4.384  0.9294 -0.2103  1.3006
 1361SOL     OW15544   4.570   4.632   8.602 -0.2844 -0.3518 -0.1361
 1361SOL    HW115545   4.567   4.594   8.689  2.4083 -0.6630 -0.1839
 1361SOL    HW215546   4.652   4.680   8.609  0.2741 -1.4645  0.7446
 1362SOL     OW15547   0.684   3.559  14.777 -0.3676 -0.6585  0.3871
 1362SOL    HW115548   0.769   3.528  14.809  1.2811  1.1696 -2.2374
 1362SOL    HW215549   0.718   3.628  14.720  0.1352 -0.1084  1.3600
 1363SOL     OW15550   2.159   3.108   8.038 -0.4743 -0.3913  0.9840
 1363SOL    HW115551   2.066   3.086   8.046  0.0520 -2.9143  0.2448
 1363SOL    HW215552   2.177   3.138   8.127  1.1248 -1.5142  1.0334
 1364SOL     OW15553   3.350   2.870   1.824  0.1691 -0.1048 -0.3312
 1364SOL    HW115554   3.304   2.920   1.891 -1.6632 -0.6296 -1.2097
 1364SOL    HW215555   3.378   2.801   1.884 -2.7796 -1.1589 -0.1606
 1365SOL     OW15556   2.603   0.765   3.902 -0.3548 -0.3862  0.1108
 1365SOL    HW115557   2.525   0.815   3.878  0.7413 -0.4000 -3.4333
 1365SOL    HW215558   2.608   0.793   3.993 -0.2472 -2.5869  0.7922
 1366SOL     OW15559   4.518   2.787   6.336 -0.1074  0.1168 -0.2090
 1366SOL    HW115560   4.480   2.874   6.347  1.7945  0.8261  0.5818
 1366SOL    HW215561   4.532   2.764   6.428 -0.8864  3.5145  0.7622
 1367SOL     OW15562   3.282   1.841   9.710 -0.1206 -0.2420 -1.1062
 1367SOL    HW115563   3.266   1.891   9.630  1.8778  1.7443 -0.2584
 1367SOL    HW215564   3.378   1.844   9.711 -0.0839 -1.4895  0.0216
 1368SOL     OW15565   0.116   1.143   2.027 -0.2645  0.2498 -0.6653
 1368SOL    HW115566   0.094   1.234   2.049 -2.0008 -0.0546 -1.2032
 1368SOL    HW215567   0.049   1.104   2.082  0.1680  0.5667  0.0920
 1369SOL     OW15568   2.898   4.359   0.038  0.3595  0.4052 -0.3231
 1369SOL    HW115569   2.821   4.390   0.087 -2.2862 -2.0604 -2.9147
 1369SOL    HW215570   2.951   4.438   0.031  0.4298  0.6968  3.1392
 1370SOL     OW15571   4.360   4.102   5.754 -0.5580 -0.2599 -0.7253
 1370SOL    HW115572   4.314   4.186   5.754 -0.6383 -0.3445  3.2453
 1370SOL    HW215573   4.313   4.059   5.682  0.5098 -1.7604 -0.5416
 1371SOL     OW15574   3.803   4.452   4.288 -0.0656 -0.3487  0.4499
 1371SOL    HW115575   3.780   4.508   4.214 -1.2834  1.6887  2.3735
 1371SOL    HW215576   3.834   4.371   4.246 -1.5953  0.1143 -1.5779
 1372SOL     OW15577   3.704   1.769   1.340  0.1288  0.2806 -0.3281
 1372SOL    HW115578   3.705   1.697   1.402 -1.8802  1.8446  1.5079
 1372SOL    HW215579   3.701   1.719   1.259  0.5185  0.0957 -0.2297
 1373SOL     OW15580   0.189   0.862   6.841 -0.4470  0.8757 -0.2965
 1373SOL    HW115581   0.109   0.902   6.875 -1.9331 -2.0269 -0.4465
 1373SOL    HW215582   0.254   0.932   6.837 -0.2801  0.8324  1.5142
 1374SOL     OW15583   1.423   4.337   4.758 -0.6037 -0.4768  0.1932
 1374SOL    HW115584   1.419   4.402   4.828 -4.0307 -0.2039 -0.2379
 1374SOL    HW215585   1.421   4.391   4.680 -0.8517 -0.8134 -0.0320
 1375SOL     OW15586   2.884   0.111   8.051 -0.1783  0.2620 -0.0483
 1375SOL    HW115587   2.902   0.178   7.985  0.5457  0.6489  0.5372
 1375SOL    HW215588   2.795   0.133   8.078  0.1745  2.5935 -0.8373
 1376SOL     OW15589   2.686   1.642   4.311  0.0042 -0.0833 -0.2606
 1376SOL    HW115590   2.598   1.605   4.313  0.9631 -2.2939  0.1001
 1376SOL    HW215591   2.744   1.567   4.299  1.4525  1.0372 -0.3808
 1377SOL     OW15592   3.599   0.733   6.432 -0.8539 -0.0558 -0.1540
 1377SOL    HW115593   3.531   0.798   6.447  0.8025  1.7087 -0.3628
 1377SOL    HW215594   3.677   0.786   6.446 -1.5851  1.5779 -2.1602
 1378SOL     OW15595   1.261   0.620  15.339  0.1122 -0.3182 -0.1968
 1378SOL    HW115596   1.336   0.586  15.291  0.9552  0.4388  0.6056
 1378SOL    HW215597   1.300   0.631  15.425  0.0457 -0.6752 -0.1181
 1379SOL     OW15598   0.290   3.780   5.303 -0.0010 -0.7129 -0.1353
 1379SOL    HW115599   0.288   3.686   5.284 -1.6999 -0.7384  0.1501
 1379SOL    HW215600   0.330   3.804   5.220 -3.0430  0.2606 -1.3248
 1380SOL     OW15601   1.901   1.617   7.749 -0.5015 -0.0889 -0.1097
 1380SOL    HW115602   1.831   1.680   7.736  0.5161  1.0027 -0.2887
 1380SOL    HW215603   1.975   1.677   7.744 -0.0032 -0.7630 -0.8715
 1381SOL     OW15604   3.110   1.500   9.963 -0.2634  0.0145 -0.6985
 1381SOL    HW115605   3.133   1.462  10.048  1.0135  1.0270 -0.5940
 1381SOL    HW215606   3.073   1.578  10.004 -1.4020 -0.7407 -0.2797
 1382SOL     OW15607   1.352   3.725  14.905 -0.0538  0.2217  0.6421
 1382SOL    HW115608   1.271   3.675  14.897 -0.6639  0.9718  2.1220
 1382SOL    HW215609   1.415   3.661  14.938  1.1069  1.2036  0.3273
 1383SOL     OW15610   0.705   1.506   8.098  0.3558 -0.2845  1.1209
 1383SOL    HW115611   0.756   1.462   8.166  2.4632 -2.1445 -1.6180
 1383SOL    HW215612   0.617   1.500   8.133 -1.4481 -0.3872 -3.3365
 1384SOL     OW15613   1.879   4.107   2.806 -0.4348  1.0210  0.2110
 1384SOL    HW115614   1.943   4.136   2.740 -0.3933 -0.3910 -0.3712
 1384SOL    HW215615   1.914   4.153   2.882  0.2688  0.5324  0.1882
 1385SOL     OW15616   0.097   4.145  11.971  0.7038 -0.4688 -0.4017
 1385SOL    HW115617   0.139   4.138  12.057 -2.1511 -0.4681  0.9878
 1385SOL    HW215618   0.047   4.224  11.994  0.2714 -1.0122  0.5293
 1386SOL     OW15619   4.312   3.002   6.906  0.3676 -0.5376  0.1136
 1386SOL    HW115620   4.257   2.939   6.859 -0.1720 -0.0095  0.0350
 1386SOL    HW215621   4.245   3.025   6.970 -0.3284  1.3949 -1.3437
 1387SOL     OW15622   1.415   1.684   3.520  0.7382  0.0707 -0.8318
 1387SOL    HW115623   1.501   1.708   3.554 -0.1542  1.0327  0.7654
 1387SOL    HW215624   1.421   1.681   3.425  0.8579 -2.0766 -0.7710
 1388SOL     OW15625   3.855   0.965   6.261 -0.5999  0.2267  0.1215
 1388SOL    HW115626   3.919   1.013   6.208 -0.3096 -2.4434 -1.9709
 1388SOL    HW215627   3.820   0.895   6.206 -0.9422  1.9269 -1.7962
 1389SOL     OW15628   3.176   2.567   3.789 -0.2806 -0.0487  0.2210
 1389SOL    HW115629   3.167   2.640   3.727  0.2442 -1.4765 -1.5256
 1389SOL    HW215630   3.106   2.512   3.755 -0.0233  0.3264 -0.9138
 1390SOL     OW15631   0.527   0.538  11.702 -0.4212 -0.0580  0.0903
 1390SOL    HW115632   0.444   0.511  11.662 -0.2998 -0.0572 -0.1621
 1390SOL    HW215633   0.573   0.563  11.622 -2.2099  1.5671 -0.4295
 1391SOL     OW15634   0.231   3.580   2.141  0.1923 -0.2425 -0.6843
 1391SOL    HW115635   0.247   3.506   2.200 -0.2683 -1.0741 -1.5994
 1391SOL    HW215636   0.314   3.582   2.094  0.9131  2.0293  0.7138
 1392SOL     OW15637   1.394   0.065   3.096  0.0514 -0.0887  0.3119
 1392SOL    HW115638   1.470   0.007   3.096 -1.1050 -1.5618 -1.5099
 1392SOL    HW215639   1.382   0.087   3.004  1.6232 -0.7456 -0.0486
 1393SOL     OW15640   4.407   1.249  13.657  0.6220  0.7848 -0.4784
 1393SOL    HW115641   4.319   1.277  13.634  0.3993  0.2167 -0.3246
 1393SOL    HW215642   4.457   1.266  13.577  3.2949 -0.3246  0.9555
 1394SOL     OW15643   1.172   1.027   0.308  0.1599 -0.0469  0.1502
 1394SOL    HW115644   1.121   0.946   0.304 -0.3974  0.2532  1.3133
 1394SOL    HW215645   1.230   1.014   0.382 -1.9302  1.9478  2.1553
 1395SOL     OW15646   1.964   4.534   3.780  0.0464 -0.2512 -0.2039
 1395SOL    HW115647   1.946   4.455   3.830 -2.3760 -0.7003 -1.7382
 1395SOL    HW215648   1.961   4.602   3.847  4.2783  0.6292 -0.9002
 1396SOL     OW15649   2.274   2.668   5.711  0.3820  0.7096 -0.2753
 1396SOL    HW115650   2.355   2.707   5.677  1.3321  0.8769  2.1364
 1396SOL    HW215651   2.305   2.645   5.799  0.5683  1.2703 -0.1904
 1397SOL     OW15652   4.509   4.370   8.091 -0.3694 -0.0711 -0.2854
 1397SOL    HW115653   4.583   4.371   8.152  0.8618  0.1753 -1.7696
 1397SOL    HW215654   4.558   4.338   8.015 -1.4194 -0.4132 -0.8093
 1398SOL     OW15655   0.232   0.211   3.619 -0.1893  0.1702 -0.0391
 1398SOL    HW115656   0.283   0.133   3.641  0.9545  0.5966 -1.1428
 1398SOL    HW215657   0.284   0.290   3.638 -0.0940 -0.1025  0.8109
 1399SOL     OW15658   4.476   2.117   5.108  0.1014  0.2789 -0.4326
 1399SOL    HW115659   4.562   2.106   5.150 -0.3177 -0.3137  0.2511
 1399SOL    HW215660   4.423   2.050   5.150 -0.2681  1.4459  0.9813
 1400SOL     OW15661   1.040   3.341  16.497  0.0647 -0.5312 -0.7438
 1400SOL    HW115662   1.030   3.332  16.402 -1.1413  0.2227 -0.6979
 1400SOL    HW215663   0.996   3.259  16.521  1.7906 -0.6346  2.0078
 1401SOL     OW15664   2.679   3.399   3.194 -0.3717  0.0549 -0.2174
 1401SOL    HW115665   2.632   3.363   3.118  2.2726  0.3996 -1.9975
 1401SOL    HW215666   2.717   3.477   3.154  0.9466 -0.8762 -0.7761
 1402SOL     OW15667   0.636   0.497  12.863  0.2565  0.4379  0.0331
 1402SOL    HW115668   0.605   0.564  12.802 -0.9431  0.0777  0.2331
 1402SOL    HW215669   0.688   0.551  12.923  0.8839  0.9234 -0.9529
 1403SOL     OW15670   1.875   1.511   0.039 -0.1756  0.1474 -0.0644
 1403SOL    HW115671   1.821   1.434   0.057  2.6840 -1.6715  0.7437
 1403SOL    HW215672   1.938   1.477  17.678  0.1153 -0.5085  0.5621
 1404SOL     OW15673   0.870   3.378  12.144  0.1777  0.2695  0.0819
 1404SOL    HW115674   0.820   3.452  12.107  1.2139  0.7856 -0.2904
 1404SOL    HW215675   0.819   3.351  12.220 -0.1126  3.0794  0.8934
 1405SOL     OW15676   0.165   3.250   8.445 -0.5535 -0.0842 -0.0823
 1405SOL    HW115677   0.170   3.271   8.538 -0.3163 -0.8841  0.0793
 1405SOL    HW215678   0.078   3.283   8.419 -0.5198 -1.8948 -2.4974
 1406SOL     OW15679   2.483   4.424   9.085  0.2197 -0.7323 -0.3002
 1406SOL    HW115680   2.432   4.482   9.141  0.2565 -2.3000  1.3294
 1406SOL    HW215681   2.567   4.451   9.122 -1.1876  1.2241  1.4882
 1407SOL     OW15682   3.411   0.298   9.827  0.1490  0.0077 -0.4832
 1407SOL    HW115683   3.390   0.347   9.906 -0.4027 -0.0224 -0.6131
 1407SOL    HW215684   3.334   0.313   9.772  0.4388  0.3858 -0.7910
 1408SOL     OW15685   3.495   2.916   9.060 -0.4500 -0.4880 -0.5009
 1408SOL    HW115686   3.467   2.894   9.149 -1.0104  0.6904 -0.3744
 1408SOL    HW215687   3.411   2.913   9.014 -0.6751  0.2450 -0.1553
 1409SOL     OW15688   3.543   0.450   5.532 -0.0879  0.2642 -0.2873
 1409SOL    HW115689   3.479   0.488   5.471 -1.3959 -0.7340  0.4565
 1409SOL    HW215690   3.510   0.473   5.618 -0.1214  0.2955 -0.3085
 1410SOL     OW15691   0.973   1.604  13.082  0.1746 -0.0986 -0.3597
 1410SOL    HW115692   0.960   1.565  13.168  0.9893  1.5872  0.5229
 1410SOL    HW215693   1.067   1.587  13.075  0.5700  1.5310  1.0203
 1411SOL     OW15694   1.081   0.182   7.190 -0.0522  0.5888 -0.2037
 1411SOL    HW115695   1.024   0.165   7.116  1.0444  2.4393 -1.4703
 1411SOL    HW215696   1.063   0.273   7.215 -1.6730  0.0248  0.6862
 1412SOL     OW15697   3.086   0.196   8.353 -0.0862  0.4525 -0.5751
 1412SOL    HW115698   3.073   0.267   8.290  0.1366 -0.3647 -1.5423
 1412SOL    HW215699   3.170   0.217   8.393 -0.4168  0.4858  0.1005
 1413SOL     OW15700   2.929   2.759  13.981  0.3354  0.0001  0.2801
 1413SOL    HW115701   2.839   2.748  13.951  0.0615  2.4481  0.2073
 1413SOL    HW215702   2.949   2.671  14.013  1.4768  0.2870  0.3640
 1414SOL     OW15703   4.391   1.132  16.155  0.3611  0.0196 -0.2594
 1414SOL    HW115704   4.468   1.102  16.106  0.1956  0.8718 -1.0342
 1414SOL    HW215705   4.386   1.220  16.118 -0.2019 -0.0458 -0.3490
 1415SOL     OW15706   3.567   0.111   4.101  0.0433  0.4103  0.4030
 1415SOL    HW115707   3.475   0.113   4.075  0.2326  0.7135 -0.2449
 1415SOL    HW215708   3.603   0.191   4.062  0.2920  0.3442  0.4983
 1416SOL     OW15709   3.901   4.524  17.378  0.8348  0.4174 -0.1539
 1416SOL    HW115710   3.993   4.548  17.389  0.7327  1.3124 -1.2232
 1416SOL    HW215711   3.873   4.464  17.448 -0.9974  0.1751 -1.1149
 1417SOL     OW15712   3.732   0.618  14.244  0.5120  0.7076 -0.0468
 1417SOL    HW115713   3.824   0.640  14.228 -0.1173  5.0309  2.0343
 1417SOL    HW215714   3.707   0.690  14.186 -0.4294  1.0145  0.7230
 1418SOL     OW15715   1.178   4.405   7.730  1.1106 -0.3141 -0.1088
 1418SOL    HW115716   1.133   4.330   7.691 -0.5070  0.4130  0.3643
 1418SOL    HW215717   1.109   4.441   7.785 -0.1821 -2.0242 -0.6317
 1419SOL     OW15718   2.009   3.495   0.439  0.4027 -0.1129  0.0703
 1419SOL    HW115719   1.992   3.402   0.453 -0.9749  0.1437  0.1454
 1419SOL    HW215720   2.046   3.496   0.351  1.5144  0.6379  0.5540
 1420SOL     OW15721   2.607   2.544  17.035  0.5017  0.4163  0.2323
 1420SOL    HW115722   2.686   2.518  17.083  0.8511 -0.7373 -0.9707
 1420SOL    HW215723   2.540   2.486  17.071 -2.1912  3.3534 -0.0557
 1421SOL     OW15724   3.425   2.587  15.346 -0.4472  0.1023  0.1728
 1421SOL    HW115725   3.477   2.593  15.265  0.8111  1.3595  1.0780
 1421SOL    HW215726   3.374   2.667  15.334  2.4030  1.7173 -1.3371
 1422SOL     OW15727   1.220   1.984   8.854  0.4601  0.5527 -0.2571
 1422SOL    HW115728   1.246   1.941   8.935  3.4636 -1.3265 -2.2279
 1422SOL    HW215729   1.201   2.068   8.896 -1.4914  1.0385 -2.0932
 1423SOL     OW15730   3.341   0.751   3.850  0.1550 -0.3719 -0.3174
 1423SOL    HW115731   3.387   0.819   3.800 -1.0156  0.4034 -0.3260
 1423SOL    HW215732   3.301   0.694   3.785  0.4306  0.2217 -1.0120
 1424SOL     OW15733   1.602   4.167   6.811 -0.4118 -0.5971  0.1746
 1424SOL    HW115734   1.520   4.204   6.777  0.3774  0.9566 -0.0351
 1424SOL    HW215735   1.572   4.109   6.881 -0.4852  0.0617  0.6870
 1425SOL     OW15736   4.107   2.800   1.783 -0.1099  0.0145 -0.2240
 1425SOL    HW115737   4.037   2.774   1.723  1.1063 -1.6827 -0.8943
 1425SOL    HW215738   4.069   2.882   1.814  1.4700  1.0132 -0.9943
 1426SOL     OW15739   0.473   1.074   8.320  0.1866  0.1942  0.2556
 1426SOL    HW115740   0.425   1.097   8.400  1.1641  1.2199  0.5484
 1426SOL    HW215741   0.523   0.999   8.350 -0.2182  0.2929  1.1750
 1427SOL     OW15742   3.714   2.063   2.467 -0.5577 -0.2567 -0.2335
 1427SOL    HW115743   3.641   2.111   2.506 -0.7468 -0.5804 -0.1848
 1427SOL    HW215744   3.736   2.009   2.543  0.1206 -2.0282 -1.6755
 1428SOL     OW15745   1.413   3.854   5.723  0.5694 -0.3962 -0.4753
 1428SOL    HW115746   1.474   3.805   5.668 -1.9133 -1.7367 -2.0161
 1428SOL    HW215747   1.340   3.794   5.736 -0.3419  1.1115  1.3431
 1429SOL     OW15748   1.294   3.698   5.188  0.4234 -0.0028 -0.0696
 1429SOL    HW115749   1.220   3.637   5.190 -1.5422  2.3236 -2.2333
 1429SOL    HW215750   1.353   3.639   5.235 -0.8619 -0.8745  0.4699
 1430SOL     OW15751   0.024   1.498   7.654  0.1689 -0.3860  0.1284
 1430SOL    HW115752   0.097   1.458   7.608 -1.3605 -2.4167 -0.5180
 1430SOL    HW215753   0.070   1.521   7.735  0.7731 -0.0707 -0.3144
 1431SOL     OW15754   4.067   3.045  12.872 -0.5058  0.6300 -0.1166
 1431SOL    HW115755   4.121   3.020  12.948 -1.0008  1.0202  0.3618
 1431SOL    HW215756   4.129   3.027  12.802 -0.3236 -3.2543  1.0651
 1432SOL     OW15757   3.263   2.278   9.353 -0.4528 -0.3530  1.0682
 1432SOL    HW115758   3.199   2.349   9.366  2.0326  2.4331 -1.7738
 1432SOL    HW215759   3.347   2.316   9.376  0.1504 -2.0787  1.6808
 1433SOL     OW15760   2.331   1.975   5.224 -0.2411  0.7347 -0.2347
 1433SOL    HW115761   2.272   1.968   5.149  0.3117  0.0366 -0.6008
 1433SOL    HW215762   2.341   2.070   5.226 -0.4389  0.7427  0.3504
 1434SOL     OW15763   0.153   1.110  10.805  0.2289 -0.0016 -0.2591
 1434SOL    HW115764   0.104   1.028  10.796 -0.3822 -0.0373  3.5904
 1434SOL    HW215765   0.230   1.093  10.750  1.1701  1.6692  0.5377
 1435SOL     OW15766   2.790   3.616  16.833 -0.2328  0.2491  0.4929
 1435SOL    HW115767   2.703   3.603  16.869 -1.1259 -0.8709 -2.1007
 1435SOL    HW215768   2.829   3.674  16.898  0.0884  0.3439  0.2176
 1436SOL     OW15769   2.439   1.432   6.007  0.2984  0.0070  0.2241
 1436SOL    HW115770   2.363   1.414   5.951 -1.0345  2.8262  1.1207
 1436SOL    HW215771   2.495   1.454   5.933  1.5167 -2.5531  0.3992
 1437SOL     OW15772   2.426   4.537   0.882 -0.0769 -0.4646 -0.5738
 1437SOL    HW115773   2.452   4.628   0.868 -0.7629 -0.2907 -0.7282
 1437SOL    HW215774   2.515   4.508   0.901  0.9681  0.6387 -3.7638
 1438SOL     OW15775   0.014   2.119  11.994 -0.1167  0.2775  0.2468
 1438SOL    HW115776   0.038   2.212  11.986 -1.1757  0.4409 -0.9802
 1438SOL    HW215777   0.022   2.108  12.089  1.0430 -2.0032 -0.1313
 1439SOL     OW15778   4.103   1.842   5.914 -0.2757 -0.2802  0.1449
 1439SOL    HW115779   4.196   1.827   5.892 -0.3628 -0.3487 -0.1842
 1439SOL    HW215780   4.088   1.750   5.936 -2.4514  0.2150  0.6638
 1440SOL     OW15781   1.481   0.039   4.150  0.4871 -0.2020 -0.3225
 1440SOL    HW115782   1.461   4.672   4.164 -0.6350  0.1428  0.3716
 1440SOL    HW215783   1.481   0.036   4.054 -0.4050  0.5463 -0.3452
 1441SOL     OW15784   4.242   2.723   7.366  0.2334 -0.1071  0.2658
 1441SOL    HW115785   4.247   2.627   7.365 -1.4907 -0.1881 -1.6841
 1441SOL    HW215786   4.230   2.727   7.461  1.7178  2.5266  0.3158
 1442SOL     OW15787   3.794   3.494   9.610  0.0049 -0.7285  0.1421
 1442SOL    HW115788   3.765   3.514   9.699 -1.4328  0.4436 -0.5729
 1442SOL    HW215789   3.786   3.581   9.570 -1.8774 -0.8151  0.3111
 1443SOL     OW15790   0.371   1.188   7.678  0.1493 -0.1938  0.6286
 1443SOL    HW115791   0.415   1.111   7.641 -1.6182 -0.4983 -0.8206
 1443SOL    HW215792   0.406   1.217   7.763 -0.0413 -1.7745  1.2491
 1444SOL     OW15793   1.567   4.380  14.984 -0.3977 -0.3211  0.2211
 1444SOL    HW115794   1.580   4.329  14.904 -1.9722  0.6080 -0.6100
 1444SOL    HW215795   1.501   4.331  15.033 -0.7677 -1.1241 -1.0860
 1445SOL     OW15796   4.097   4.012   8.919  0.0164 -0.1950  0.4887
 1445SOL    HW115797   4.062   3.990   9.006  4.8107  5.0206  3.7483
 1445SOL    HW215798   4.019   4.001   8.865 -0.9293  1.7669  1.4661
 1446SOL     OW15799   4.062   0.082   1.393 -0.7387 -0.0098  0.9393
 1446SOL    HW115800   4.022   0.109   1.476  0.6350  1.5001  1.1148
 1446SOL    HW215801   4.008   0.004   1.386  0.2563 -0.6684  0.5636
 1447SOL     OW15802   2.742   3.182   9.835  0.0853  0.3988 -0.5656
 1447SOL    HW115803   2.817   3.125   9.850  0.0474  0.7576  1.0579
 1447SOL    HW215804   2.750   3.197   9.741  0.6010 -0.0797 -0.5951
 1448SOL     OW15805   1.604   1.984   7.351  0.5010 -0.2211  0.1231
 1448SOL    HW115806   1.543   1.931   7.402 -0.5019  1.7308  0.9488
 1448SOL    HW215807   1.682   1.986   7.407  1.5395 -2.4981 -1.2292
 1449SOL     OW15808   3.772   0.558   9.467  0.2964 -0.5334  0.0265
 1449SOL    HW115809   3.700   0.561   9.530 -0.1701 -0.5336 -0.5193
 1449SOL    HW215810   3.845   0.550   9.529 -1.2746  1.2822  2.1340
 1450SOL     OW15811   2.812   1.198  11.521 -0.2458  0.1440 -0.9395
 1450SOL    HW115812   2.835   1.222  11.431 -0.0114 -0.0716 -0.9356
 1450SOL    HW215813   2.779   1.281  11.555  0.9152 -0.6665  2.1249
 1451SOL     OW15814   0.143   3.904   6.862 -0.3134  0.5957  0.3789
 1451SOL    HW115815   0.072   3.856   6.819  2.4646 -1.4159 -1.9938
 1451SOL    HW215816   0.167   3.953   6.784 -2.7735 -0.2613 -0.9144
 1452SOL     OW15817   3.047   2.914   5.166  0.0455  0.2823  0.2711
 1452SOL    HW115818   3.130   2.939   5.207  0.9494  0.5927 -1.7382
 1452SOL    HW215819   3.074   2.828   5.135 -0.7615  0.9607 -2.3259
 1453SOL     OW15820   1.984   0.570   6.320 -0.0827  0.1053 -0.0869
 1453SOL    HW115821   2.079   0.580   6.324 -0.2689  0.8845  2.3569
 1453SOL    HW215822   1.954   0.610   6.401 -0.5580 -0.7566  0.1647
 1454SOL     OW15823   4.220   4.529   3.314 -0.0448  0.4015 -0.7352
 1454SOL    HW115824   4.305   4.518   3.272  0.2664 -0.8437  0.2104
 1454SOL    HW215825   4.235   4.593   3.383  0.7616  1.1620 -1.6228
 1455SOL     OW15826   1.063   0.975   0.658  0.3464 -0.6276  0.0927
 1455SOL    HW115827   1.149   1.009   0.630 -0.5012 -1.1743 -3.1562
 1455SOL    HW215828   1.085   0.960   0.750  0.9299  0.4633  0.1344
 1456SOL     OW15829   1.248   0.211   3.459 -0.0738  0.0550 -0.3188
 1456SOL    HW115830   1.224   0.127   3.421  1.6867 -0.8297  0.5671
 1456SOL    HW215831   1.202   0.208   3.542  0.3909  1.0515 -0.0231
 1457SOL     OW15832   2.137   0.155  12.771  0.2823 -0.4440  0.4724
 1457SOL    HW115833   2.064   0.212  12.745  3.0275  2.9511  0.1338
 1457SOL    HW215834   2.150   0.181  12.862 -0.6236 -0.1118  0.5131
 1458SOL     OW15835   3.754   1.023   8.217  0.0118 -0.0305  0.1700
 1458SOL    HW115836   3.771   0.960   8.287  2.1917  1.4937  1.0337
 1458SOL    HW215837   3.698   0.967   8.165  0.8258  0.4413 -1.2234
 1459SOL     OW15838   3.720   2.090   8.145 -0.3165  0.2240 -0.2232
 1459SOL    HW115839   3.719   2.020   8.210  1.4576 -0.7666 -1.2532
 1459SOL    HW215840   3.792   2.150   8.164  0.5160 -0.8440  0.0171
 1460SOL     OW15841   2.149   3.953   5.965  0.1679 -0.3258 -0.2017
 1460SOL    HW115842   2.241   3.950   5.939  0.2080 -2.3715  0.2006
 1460SOL    HW215843   2.156   3.973   6.059  3.7863  1.0963 -0.8156
 1461SOL     OW15844   2.464   2.118   3.424  0.0953 -0.3845  0.4695
 1461SOL    HW115845   2.429   2.030   3.408 -1.1701  0.2671 -0.3003
 1461SOL    HW215846   2.458   2.159   3.338  0.6415  2.3574  1.7263
 1462SOL     OW15847   4.033   3.271  13.023 -0.0887  0.3283  0.2288
 1462SOL    HW115848   3.978   3.228  13.089 -1.7521 -0.3129 -1.5699
 1462SOL    HW215849   4.040   3.204  12.954 -0.5459  1.2368 -0.6933
 1463SOL     OW15850   4.609   1.354   7.440  0.3541 -0.0211  0.3129
 1463SOL    HW115851   4.665   1.361   7.518  2.2714  1.6775 -1.2295
 1463SOL    HW215852   4.528   1.398   7.467 -0.3668 -1.4853  0.5028
 1464SOL     OW15853   0.678   0.549   9.024 -0.2590 -0.6128 -0.6084
 1464SOL    HW115854   0.655   0.456   9.032 -1.5535 -0.3763 -1.4829
 1464SOL    HW215855   0.764   0.536   8.985  1.4209  0.9216  2.6219
 1465SOL     OW15856   0.264   0.616  10.074  0.2558 -0.2237 -0.1402
 1465SOL    HW115857   0.187   0.665  10.103 -1.2956 -2.4261 -0.5060
 1465SOL    HW215858   0.319   0.688  10.044  1.1274 -0.4073  1.0315
 1466SOL     OW15859   3.316   1.257   8.724 -0.1204  0.1717 -0.4597
 1466SOL    HW115860   3.234   1.233   8.766 -0.5421  0.4255 -1.1380
 1466SOL    HW215861   3.389   1.202   8.754 -0.2076  0.6785  0.6832
 1467SOL     OW15862   4.677   0.701   0.715 -0.6715  0.3780  0.0955
 1467SOL    HW115863   4.634   0.772   0.666  0.6195 -1.1252 -3.1801
 1467SOL    HW215864   4.679   0.736   0.804 -1.6209  1.5709 -0.3549
 1468SOL     OW15865   1.800   4.626   5.299 -0.1640  0.5503  0.0206
 1468SOL    HW115866   1.813   4.567   5.374 -0.9726 -0.0432 -0.2960
 1468SOL    HW215867   1.891   4.629   5.270  0.0854 -0.8664  0.6268
 1469SOL     OW15868   4.157   2.760  16.624  0.3482 -0.2680  0.8850
 1469SOL    HW115869   4.148   2.843  16.670 -0.7464  1.6540 -2.8420
 1469SOL    HW215870   4.075   2.769  16.576 -0.3624  0.5575  2.2683
 1470SOL     OW15871   3.365   2.636   6.024  0.0898  0.9138  0.7352
 1470SOL    HW115872   3.360   2.607   6.115  1.9714  2.7773  1.4297
 1470SOL    HW215873   3.274   2.659   6.008 -0.4712 -0.5657  1.7713
 1471SOL     OW15874   2.486   2.388   3.531 -0.7761  0.1117  0.4071
 1471SOL    HW115875   2.474   2.295   3.512 -0.3176  0.7965 -3.2179
 1471SOL    HW215876   2.531   2.421   3.453 -0.7057  0.6246  0.6615
 1472SOL     OW15877   4.263   4.418   6.194 -0.1802 -0.3480  0.1320
 1472SOL    HW115878   4.218   4.334   6.183 -2.5679  1.0517 -0.7927
 1472SOL    HW215879   4.212   4.465   6.128 -1.0972 -0.6399  0.6215
 1473SOL     OW15880   2.027   3.488   1.235  0.0452 -0.3908 -0.0833
 1473SOL    HW115881   2.025   3.396   1.208  1.6103 -0.4633  0.0434
 1473SOL    HW215882   1.975   3.536   1.170  3.1068  1.2226 -1.3357
 1474SOL     OW15883   0.770   2.372   8.478 -0.3195  0.2670  0.3555
 1474SOL    HW115884   0.743   2.425   8.403  0.7745 -0.4606 -0.5502
 1474SOL    HW215885   0.706   2.301   8.465 -0.9219  0.1570  4.1655
 1475SOL     OW15886   2.163   1.214   2.869  0.3386  0.0517 -0.0525
 1475SOL    HW115887   2.123   1.130   2.845  2.1995 -0.7600 -0.2716
 1475SOL    HW215888   2.088   1.256   2.911  0.3479 -0.0674  0.0810
 1476SOL     OW15889   2.120   1.055   3.135  0.3895 -0.7395 -0.1971
 1476SOL    HW115890   2.024   1.060   3.144  0.3929  0.9612 -1.0015
 1476SOL    HW215891   2.138   1.087   3.047  0.1921  0.1850  0.0974
 1477SOL     OW15892   0.085   3.077   8.782  0.3973  0.4002 -0.1139
 1477SOL    HW115893   0.175   3.108   8.784  0.3478  0.6575 -1.5671
 1477SOL    HW215894   0.041   3.144   8.833  0.3748 -0.2164  0.6725
 1478SOL     OW15895   3.570   1.901   6.470  0.6694 -0.7437 -0.0244
 1478SOL    HW115896   3.643   1.842   6.451  0.0850 -1.4432 -0.1017
 1478SOL    HW215897   3.603   1.930   6.555  0.4321 -0.0053 -0.1787
 1479SOL     OW15898   1.375   2.035   2.274  0.1478 -0.0490 -0.8490
 1479SOL    HW115899   1.373   2.101   2.205 -1.3122 -0.4881 -1.2173
 1479SOL    HW215900   1.289   2.050   2.312  1.3852 -0.4907  2.1392
 1480SOL     OW15901   1.390   1.252   5.343  0.4481  0.2549 -0.0358
 1480SOL    HW115902   1.307   1.210   5.318  0.9475  1.5199 -3.7632
 1480SOL    HW215903   1.360   1.329   5.390  2.0738  0.5221  0.5691
 1481SOL     OW15904   0.469   3.922   0.539  0.1182  0.0022 -0.1730
 1481SOL    HW115905   0.553   3.875   0.537 -0.2840 -0.9102  3.5293
 1481SOL    HW215906   0.502   4.000   0.494 -0.0497 -0.5100 -1.1691
 1482SOL     OW15907   2.585   1.858   7.590 -0.0546  0.2008 -0.0747
 1482SOL    HW115908   2.533   1.892   7.663 -3.0143  0.3116 -2.2311
 1482SOL    HW215909   2.510   1.836   7.534 -0.0735 -1.4106  0.5689
 1483SOL     OW15910   1.697   1.756  10.233  0.6196 -0.2002  0.5195
 1483SOL    HW115911   1.784   1.716  10.232  0.2854 -0.8616 -2.3664
 1483SOL    HW215912   1.635   1.684  10.242 -1.1979  1.1174 -1.3394
 1484SOL     OW15913   1.865   0.208   4.306 -0.5790 -0.1768 -0.0971
 1484SOL    HW115914   1.861   0.113   4.311 -0.0691 -0.0214  3.4004
 1484SOL    HW215915   1.898   0.213   4.216  0.1419  1.7686  0.2748
 1485SOL     OW15916   2.801   0.876  10.084  0.2391  0.7176  0.1430
 1485SOL    HW115917   2.833   0.820  10.155 -3.6109  1.4167  2.4357
 1485SOL    HW215918   2.724   0.908  10.132  0.0990 -0.0870  0.4554
 1486SOL     OW15919   4.373   3.247   5.803  0.4469 -0.2512  0.0392
 1486SOL    HW115920   4.381   3.189   5.878  2.9559  0.2815  0.1968
 1486SOL    HW215921   4.454   3.230   5.753 -0.2542 -0.5985 -0.9851
 1487SOL     OW15922   1.269   3.297   2.897 -0.4645  0.1501  0.0973
 1487SOL    HW115923   1.358   3.281   2.931 -0.8824 -1.3153  0.5238
 1487SOL    HW215924   1.230   3.213   2.921 -0.0268 -0.3609 -0.9797
 1488SOL     OW15925   0.942   0.348  15.832 -0.0347 -0.2017 -0.2888
 1488SOL    HW115926   0.906   0.383  15.913  0.6789 -0.6315  0.2111
 1488SOL    HW215927   1.017   0.294  15.858 -0.0301 -0.3037 -0.5132
 1489SOL     OW15928   0.333   1.699   1.952  0.4617  0.3191 -0.5136
 1489SOL    HW115929   0.380   1.628   1.996  0.4804  0.9698  0.4998
 1489SOL    HW215930   0.259   1.710   2.012  1.7771 -0.7416  1.3084
 1490SOL     OW15931   0.515   3.451   2.910 -0.1632  0.5044  0.5193
 1490SOL    HW115932   0.477   3.501   2.982 -1.0248 -1.1847  1.2394
 1490SOL    HW215933   0.469   3.367   2.914 -1.0926  1.0296  0.7970
 1491SOL     OW15934   0.088   1.810   1.757 -0.2800  0.2616  0.2523
 1491SOL    HW115935   0.065   1.726   1.716 -1.0026  1.8054 -2.5230
 1491SOL    HW215936   0.174   1.831   1.721 -0.8166 -0.6046 -1.5460
 1492SOL     OW15937   3.831   3.811   8.502  0.2059  0.1943 -0.3166
 1492SOL    HW115938   3.742   3.842   8.485  0.2212  0.4129  0.0048
 1492SOL    HW215939   3.819   3.722   8.535 -0.2156  0.5097  0.3649
 1493SOL     OW15940   3.398   1.122   4.783 -0.2055  1.1355 -0.2436
 1493SOL    HW115941   3.373   1.167   4.702 -3.4904 -0.9950 -0.4155
 1493SOL    HW215942   3.464   1.055   4.764  3.1076  4.0482  1.1313
 1494SOL     OW15943   3.643   1.504   9.578 -0.1157 -0.1448 -0.3537
 1494SOL    HW115944   3.640   1.587   9.626 -0.1426 -0.6260  0.4812
 1494SOL    HW215945   3.550   1.484   9.588  0.0486 -0.1951  1.0935
 1495SOL     OW15946   4.134   3.415   7.084 -0.1014 -0.1612  0.5868
 1495SOL    HW115947   4.127   3.448   6.994  2.1296 -0.0191  0.4879
 1495SOL    HW215948   4.045   3.436   7.113  0.2127  1.8510  0.1161
 1496SOL     OW15949   2.831   3.710   7.228  0.1593 -0.5515  0.0029
 1496SOL    HW115950   2.841   3.771   7.155  1.1002  2.0657  2.3124
 1496SOL    HW215951   2.897   3.647   7.202  0.2396 -2.0752  3.9696
 1497SOL     OW15952   3.358   3.597   3.002  0.8479 -0.3378 -0.7084
 1497SOL    HW115953   3.355   3.502   3.000 -1.6443 -0.1865 -3.9088
 1497SOL    HW215954   3.400   3.607   3.088 -0.0845  0.2802 -0.3206
 1498SOL     OW15955   2.810   0.952   3.571  0.4606  0.0712 -0.3835
 1498SOL    HW115956   2.769   0.899   3.502  1.1094  0.0062 -0.7156
 1498SOL    HW215957   2.741   1.011   3.601 -0.7606 -0.7002 -1.6034
 1499SOL     OW15958   1.725   1.595   4.965  0.2652  0.3794 -0.1880
 1499SOL    HW115959   1.796   1.557   4.913  0.9785 -2.9863  3.3059
 1499SOL    HW215960   1.669   1.621   4.892 -1.1460  1.3405  1.2315
 1500SOL     OW15961   1.053   2.473  17.561 -0.1618  0.4034  0.4899
 1500SOL    HW115962   0.968   2.428  17.569 -0.3581  0.9519  1.6093
 1500SOL    HW215963   1.064   2.490  17.468  0.6123  0.1870  0.5474
 1501SOL     OW15964   0.218   0.415   1.720 -0.6758  0.1098 -0.5289
 1501SOL    HW115965   0.256   0.484   1.775 -1.2912  1.6197 -2.0214
 1501SOL    HW215966   0.290   0.356   1.696 -1.5618 -0.4344 -1.7941
 1502SOL     OW15967   2.290   2.342  16.252  0.3947  0.5870  0.0943
 1502SOL    HW115968   2.208   2.353  16.300  0.0952 -1.3854  0.0472
 1502SOL    HW215969   2.350   2.395  16.304  0.0638  1.2843 -0.2452
 1503SOL     OW15970   4.133   2.062   3.876 -0.5540  0.5755 -0.5203
 1503SOL    HW115971   4.176   1.982   3.846  0.7853  0.9853  0.3068
 1503SOL    HW215972   4.192   2.088   3.946 -1.5229  0.1561  0.4481
 1504SOL     OW15973   2.071   0.499   8.965  0.7537 -0.3457 -0.5018
 1504SOL    HW115974   2.072   0.433   8.896 -1.7464 -0.0190 -0.8239
 1504SOL    HW215975   1.990   0.475   9.009  0.8761 -0.9753 -0.6212
 1505SOL     OW15976   4.691   4.603   0.215  0.3718  0.6521  0.1615
 1505SOL    HW115977   4.713   4.684   0.168  1.8321  0.4009  0.4213
 1505SOL    HW215978   0.028   4.590   0.286 -2.3688 -0.9299  2.2944
 1506SOL     OW15979   0.056   2.414   8.931  0.3755 -0.1598 -0.3409
 1506SOL    HW115980   0.064   2.355   9.006  1.8607 -1.2170 -1.3270
 1506SOL    HW215981   0.026   2.490   8.981  0.5816 -0.5757  0.4274
 1507SOL     OW15982   2.739   3.441  11.686  0.2300  0.0056 -0.2339
 1507SOL    HW115983   2.651   3.408  11.665  0.8723 -2.8342  1.5091
 1507SOL    HW215984   2.743   3.510  11.620 -0.3584 -0.2871 -0.5775
 1508SOL     OW15985   1.149   0.809   5.575  0.2156 -0.1905 -0.4446
 1508SOL    HW115986   1.180   0.762   5.498  1.3844  1.0907 -0.7726
 1508SOL    HW215987   1.076   0.861   5.542  0.4580  0.1308 -0.4799
 1509SOL     OW15988   3.518   3.490   8.454 -0.1601 -0.1960  0.1922
 1509SOL    HW115989   3.449   3.520   8.514  0.2382 -0.6331  0.8621
 1509SOL    HW215990   3.513   3.549   8.379 -1.3224 -0.3526  0.1372
 1510SOL     OW15991   2.257   3.428   5.252  0.1204 -0.4753 -0.0814
 1510SOL    HW115992   2.244   3.522   5.266 -1.1166 -0.4302 -1.5841
 1510SOL    HW215993   2.270   3.434   5.158  3.0118  2.6627  0.5244
 1511SOL     OW15994   3.401   2.276  11.698 -0.1522 -0.0451 -0.0661
 1511SOL    HW115995   3.320   2.255  11.743 -0.4029  0.9001 -0.0771
 1511SOL    HW215996   3.470   2.278  11.765 -2.0225  1.0191  1.8078
 1512SOL     OW15997   4.362   0.009   0.692  0.2325  0.6021  0.6629
 1512SOL    HW115998   4.422   0.001   0.617  0.8518 -0.4758  1.2791
 1512SOL    HW215999   4.397   0.086   0.737 -3.1581  2.6070 -0.0867
 1513SOL     OW16000   3.791   2.784   2.802 -0.5299 -0.1028 -0.4321
 1513SOL    HW116001   3.868   2.839   2.795  0.8022 -1.8768  0.2339
 1513SOL    HW216002   3.796   2.750   2.891 -2.3291  2.5243  0.6434
 1514SOL     OW16003   1.759   2.632  13.390  1.1758 -0.5978 -0.1981
 1514SOL    HW116004   1.704   2.653  13.466  1.8733  0.9384 -0.1122
 1514SOL    HW216005   1.799   2.552  13.425  0.1101 -1.4009 -0.8265
 1515SOL     OW16006   1.552   2.565  11.446 -0.9252 -0.3388  0.0218
 1515SOL    HW116007   1.527   2.509  11.519 -0.8290  1.8518  1.7429
 1515SOL    HW216008   1.586   2.638  11.497  0.3380 -0.6779 -0.3375
 1516SOL     OW16009   0.218   4.359   5.303  0.5766 -0.6674 -0.1306
 1516SOL    HW116010   0.235   4.265   5.317  1.3109 -0.5405 -0.1592
 1516SOL    HW216011   0.137   4.375   5.350  0.6897 -1.7075  0.4234
 1517SOL     OW16012   0.912   4.158  11.638 -0.2710  0.3922  0.3594
 1517SOL    HW116013   0.943   4.247  11.620 -0.7829  0.6394  0.7208
 1517SOL    HW216014   0.915   4.159  11.734  0.3813 -0.5060  0.3524
 1518SOL     OW16015   1.172   0.347  16.918  0.0789 -0.2518 -0.1054
 1518SOL    HW116016   1.262   0.340  16.949 -0.0580 -1.3707  0.0447
 1518SOL    HW216017   1.171   0.418  16.854  2.9561  0.1008  0.2515
 1519SOL     OW16018   4.035   3.440   4.022 -0.0882  0.3657  0.2110
 1519SOL    HW116019   4.023   3.389   4.103 -0.4667  0.4080  0.1794
 1519SOL    HW216020   4.022   3.529   4.055 -2.9432 -0.3186  0.9070
 1520SOL     OW16021   2.600   3.843   0.502 -0.3152  0.2269  0.2547
 1520SOL    HW116022   2.689   3.815   0.526 -0.1445  0.0186 -0.6284
 1520SOL    HW216023   2.541   3.788   0.554 -0.8297  0.9825  0.4617
 1521SOL     OW16024   4.114   2.801  11.974 -0.4490 -0.0674  0.1369
 1521SOL    HW116025   4.178   2.839  11.915 -1.3144  1.8895  0.4438
 1521SOL    HW216026   4.058   2.878  11.988  0.3346  0.4496  0.4227
 1522SOL     OW16027   2.527   0.225  12.165  0.0820 -0.2958  0.6771
 1522SOL    HW116028   2.543   0.135  12.137 -1.3525  0.1891 -1.7632
 1522SOL    HW216029   2.600   0.243  12.224 -2.0846  0.1674  3.2293
 1523SOL     OW16030   1.450   0.528   2.054  0.5434  0.1558  0.1872
 1523SOL    HW116031   1.375   0.554   2.107  0.5887  0.1016  0.2777
 1523SOL    HW216032   1.418   0.558   1.970  2.1668 -0.1081 -0.5368
 1524SOL     OW16033   2.037   0.937   9.969  0.2738 -0.2554  0.2375
 1524SOL    HW116034   2.085   0.882  10.031  0.5655 -0.0105  0.2294
 1524SOL    HW216035   1.964   0.882   9.939 -0.5591  1.1785 -0.3346
 1525SOL     OW16036   0.465   0.285   1.679  0.2553 -0.3585  0.1812
 1525SOL    HW116037   0.450   0.213   1.617  1.4913  1.2837 -2.0512
 1525SOL    HW216038   0.507   0.233   1.747 -0.3546 -1.1351 -0.0315
 1526SOL     OW16039   1.269   0.931   6.623 -0.3870 -0.2184 -0.3368
 1526SOL    HW116040   1.296   0.966   6.538  0.1174  0.3040  0.0319
 1526SOL    HW216041   1.194   0.984   6.650 -0.1672  0.0188 -0.1901
 1527SOL     OW16042   0.809   0.786   3.569 -0.0862 -0.7036  0.2292
 1527SOL    HW116043   0.730   0.837   3.579  1.7795  2.5992 -1.8485
 1527SOL    HW216044   0.792   0.727   3.495  0.8527  1.3447 -1.6076
 1528SOL     OW16045   3.173   1.334   3.911 -0.0918 -0.0684  0.2679
 1528SOL    HW116046   3.143   1.248   3.883 -0.4471  0.9973 -2.7408
 1528SOL    HW216047   3.118   1.344   3.988  0.4107 -1.0700  0.7418
 1529SOL     OW16048   1.045   4.197   1.639 -0.3278 -0.3272  0.6042
 1529SOL    HW116049   1.046   4.266   1.706  2.7438 -0.3747  0.6416
 1529SOL    HW216050   0.984   4.236   1.576 -0.7817 -1.3599  0.4058
 1530SOL     OW16051   0.021   2.265   8.575  0.4058  0.2037  0.8713
 1530SOL    HW116052   0.065   2.342   8.538  1.5617 -0.1975  1.4286
 1530SOL    HW216053   4.702   2.243   8.493  0.3886 -1.0941  1.2287
 1531SOL     OW16054   4.439   4.087  17.405  0.1939 -0.0502  0.7293
 1531SOL    HW116055   4.475   4.164  17.361 -3.2320  0.2885 -1.3997
 1531SOL    HW216056   4.428   4.115  17.496  0.3834  0.8486  0.4775
 1532SOL     OW16057   1.226   0.873   2.338  0.5825 -0.1811  0.5638
 1532SOL    HW116058   1.135   0.901   2.347 -0.3088 -3.1807  1.0758
 1532SOL    HW216059   1.259   0.916   2.417  1.2355 -0.1447  0.2639
 1533SOL     OW16060   1.841   1.417   4.670  0.2273  0.1411 -0.0803
 1533SOL    HW116061   1.807   1.366   4.743  0.1376  1.7161  0.9955
 1533SOL    HW216062   1.772   1.408   4.604  1.8164  2.0776 -2.0307
 1534SOL     OW16063   3.589   4.557  11.956 -0.6840  0.0625  0.4960
 1534SOL    HW116064   3.679   4.586  11.941 -0.3218 -0.9872  0.5883
 1534SOL    HW216065   3.587   4.540  12.050  2.2829  1.4886  0.8090
 1535SOL     OW16066   1.872   4.407   3.265  0.4953 -0.1233 -0.0821
 1535SOL    HW116067   1.965   4.432   3.270  0.5142 -0.1678 -0.2118
 1535SOL    HW216068   1.840   4.465   3.334 -2.8953 -2.9347  0.6799
 1536SOL     OW16069   3.177   3.667   7.395 -0.0621 -0.5251  0.3175
 1536SOL    HW116070   3.202   3.729   7.326 -0.9691  0.6720  1.0713
 1536SOL    HW216071   3.257   3.653   7.446 -0.7629 -0.8103  1.3235
 1537SOL     OW16072   1.260   2.672   4.728 -0.6058  0.3596  0.4081
 1537SOL    HW116073   1.237   2.696   4.639  0.2411  0.5180  0.2281
 1537SOL    HW216074   1.200   2.599   4.745  0.4173 -0.7077 -0.5324
 1538SOL     OW16075   1.299   0.269   8.700  0.1647  0.0690  0.3767
 1538SOL    HW116076   1.353   0.346   8.719 -0.6933  0.7481  0.0565
 1538SOL    HW216077   1.215   0.292   8.659  0.4905  0.3551 -0.1438
 1539SOL     OW16078   0.690   2.171   6.278  0.2005  0.0486 -0.0634
 1539SOL    HW116079   0.714   2.221   6.199  1.4086 -0.0979  0.2230
 1539SOL    HW216080   0.760   2.106   6.284 -1.2511 -1.4316  0.7896
 1540SOL     OW16081   1.478   4.524   7.505 -0.1212 -0.2916 -0.0623
 1540SOL    HW116082   1.478   4.430   7.522 -2.0564 -0.4354 -0.8715
 1540SOL    HW216083   1.534   4.533   7.428  3.4568 -3.3363  2.2406
 1541SOL     OW16084   2.873   0.593   5.222 -0.0104 -0.5663  0.4539
 1541SOL    HW116085   2.874   0.605   5.127  0.0871 -1.7309  0.3105
 1541SOL    HW216086   2.811   0.664   5.241  1.1903  0.5111  0.3814
 1542SOL     OW16087   3.335   1.514   8.693 -0.1203 -0.5449  0.1656
 1542SOL    HW116088   3.311   1.421   8.700  2.0325 -1.1156 -0.1643
 1542SOL    HW216089   3.418   1.513   8.647 -0.0749 -2.7644  0.2800
 1543SOL     OW16090   0.950   1.138  17.419 -0.2309  0.6582 -0.2341
 1543SOL    HW116091   0.959   1.176  17.506 -0.3736 -1.7455  0.8169
 1543SOL    HW216092   1.043   1.140  17.400  0.4171  2.2150  3.2687
 1544SOL     OW16093   0.031   4.430   1.462  0.2010  0.3311 -0.2004
 1544SOL    HW116094   4.701   4.506   1.475  0.5656  0.4166  0.8218
 1544SOL    HW216095   0.020   4.388   1.547 -1.1159 -1.9241 -1.4781
 1545SOL     OW16096   0.409   1.571   1.239  0.1517 -0.0778 -0.0324
 1545SOL    HW116097   0.409   1.476   1.255  2.3804  0.1372  1.1794
 1545SOL    HW216098   0.498   1.589   1.211  1.2076 -4.4147  0.6203
 1546SOL     OW16099   4.277   3.889   9.514  0.7307 -0.6025  0.9218
 1546SOL    HW116100   4.274   3.799   9.482  0.8174  0.3614 -1.8337
 1546SOL    HW216101   4.328   3.884   9.595  1.5058  0.3972  0.5014
 1547SOL     OW16102   1.561   0.970   1.889 -0.0256  0.0134 -0.3704
 1547SOL    HW116103   1.500   0.919   1.941  0.0230 -1.9128 -2.2031
 1547SOL    HW216104   1.589   1.040   1.948  0.8574  0.7375 -1.6391
 1548SOL     OW16105   0.000   1.547   1.695 -0.2957 -0.5771 -0.5708
 1548SOL    HW116106   4.657   1.514   1.753 -2.0833  2.1090 -1.1812
 1548SOL    HW216107   4.705   1.500   1.614 -0.7894 -2.8385  0.8676
 1549SOL     OW16108   4.638   1.952   6.149 -0.3016  0.6859  0.0353
 1549SOL    HW116109   4.702   1.938   6.079 -0.7607 -0.7085 -0.1184
 1549SOL    HW216110   4.632   2.047   6.156  1.5613  0.8291 -0.4136
 1550SOL     OW16111   1.190   0.041  15.623 -0.2873 -0.2252 -0.0877
 1550SOL    HW116112   1.098   0.016  15.608 -0.7902  1.4876  0.0445
 1550SOL    HW216113   1.231   4.697  15.573 -1.6492 -0.4415 -0.9003
 1551SOL     OW16114   4.117   1.401  10.324 -0.6593 -0.4832  0.3163
 1551SOL    HW116115   4.037   1.451  10.342  0.0171  1.1692 -1.3202
 1551SOL    HW216116   4.172   1.474  10.295 -0.7354  0.6390  2.9615
 1552SOL     OW16117   3.528   1.390   3.066 -0.2781  0.3780 -0.3533
 1552SOL    HW116118   3.438   1.400   3.097  0.2730  1.5554  0.8867
 1552SOL    HW216119   3.572   1.439   3.135 -2.2679  0.5231  0.8204
 1553SOL     OW16120   1.494   1.642  16.874  0.1356  0.3925 -0.3015
 1553SOL    HW116121   1.516   1.669  16.963 -0.5593 -1.0194  0.3048
 1553SOL    HW216122   1.490   1.547  16.888 -1.3409  0.5867  0.5580
 1554SOL     OW16123   3.457   2.373   6.409  0.0949  0.1349 -0.6386
 1554SOL    HW116124   3.468   2.363   6.314  0.1121 -1.3890 -0.4738
 1554SOL    HW216125   3.370   2.335   6.417  0.7309 -1.4889 -1.3107
 1555SOL     OW16126   2.549   3.828  15.882  0.2259 -0.0358  0.4861
 1555SOL    HW116127   2.492   3.821  15.806 -0.2314  0.5871  0.7749
 1555SOL    HW216128   2.502   3.757  15.926  0.7175 -0.3967  0.4330
 1556SOL     OW16129   0.296   2.925   9.498 -0.1009 -0.1413 -0.5068
 1556SOL    HW116130   0.286   2.830   9.504 -0.0538 -0.2275 -1.8853
 1556SOL    HW216131   0.349   2.925   9.419 -0.0550  0.0962 -0.4748
 1557SOL     OW16132   3.958   0.550   5.599 -0.0500  0.6438 -0.5744
 1557SOL    HW116133   3.950   0.510   5.686  0.9662  1.7520  0.0317
 1557SOL    HW216134   3.869   0.583   5.590 -0.2672  0.0069 -0.7862
 1558SOL     OW16135   3.184   3.748   9.448 -0.3905  0.1973 -0.4863
 1558SOL    HW116136   3.190   3.705   9.362  0.9747 -0.7735  0.0995
 1558SOL    HW216137   3.275   3.768   9.465 -0.3568  1.8785 -2.6418
 1559SOL     OW16138   0.199   1.398   3.370 -0.1985 -0.7034  0.2823
 1559SOL    HW116139   0.266   1.393   3.302  1.0708  0.1579  1.4503
 1559SOL    HW216140   0.146   1.334   3.323  0.9826 -2.4753  1.3620
 1560SOL     OW16141   1.063   2.746  12.384 -0.0653 -0.5980  0.5553
 1560SOL    HW116142   0.992   2.710  12.332  0.7875 -1.7665  0.2059
 1560SOL    HW216143   1.104   2.660  12.389  0.8155 -0.3169 -2.0054
 1561SOL     OW16144   2.187   0.216   6.036 -0.2333  0.3639 -0.6900
 1561SOL    HW116145   2.169   0.141   5.980  0.2583  1.7145 -2.6804
 1561SOL    HW216146   2.187   0.179   6.124 -3.3293  1.3288 -0.2741
 1562SOL     OW16147   1.856   4.483   5.783  0.3166  0.8152 -0.0173
 1562SOL    HW116148   1.825   4.527   5.703 -1.0981 -1.2764 -0.6251
 1562SOL    HW216149   1.928   4.431   5.747  0.5781  1.2045 -0.0624
 1563SOL     OW16150   2.961   4.512   3.019  0.0608 -0.5301 -0.2392
 1563SOL    HW116151   2.944   4.453   2.946  0.4040 -0.2227 -0.5665
 1563SOL    HW216152   3.057   4.516   3.019 -0.0165  1.0080 -1.1919
 1564SOL     OW16153   2.930   1.418   4.530 -0.1954 -0.6919 -0.0295
 1564SOL    HW116154   3.001   1.356   4.547  0.2136 -0.1531  0.2003
 1564SOL    HW216155   2.977   1.500   4.539 -0.6173 -0.4735  0.1974
 1565SOL     OW16156   2.184   2.767   4.451 -0.3833 -0.0996 -0.1372
 1565SOL    HW116157   2.094   2.740   4.468 -1.3887  1.5876 -2.6493
 1565SOL    HW216158   2.193   2.797   4.360  1.9778 -3.1383 -0.9394
 1566SOL     OW16159   3.814   2.042   9.589  0.1657 -0.4438 -0.0676
 1566SOL    HW116160   3.896   2.034   9.540  1.4706 -0.4015  2.1147
 1566SOL    HW216161   3.790   2.134   9.577 -1.4720 -0.6641  1.4218
 1567SOL     OW16162   1.824   4.367   8.283  0.1669  0.2951  0.5577
 1567SOL    HW116163   1.758   4.419   8.238  1.8085  0.9694 -1.1274
 1567SOL    HW216164   1.886   4.331   8.218  0.8288  0.3838  1.1375
 1568SOL     OW16165   0.285   1.652   3.131 -0.3338 -0.1159 -0.0307
 1568SOL    HW116166   0.250   1.741   3.140 -1.1250 -0.3899 -0.3787
 1568SOL    HW216167   0.219   1.607   3.078  0.5624  0.2027 -1.4252
 1569SOL     OW16168   1.588   1.008  17.249 -0.3259  0.0985 -0.4465
 1569SOL    HW116169   1.609   0.915  17.257 -1.9326 -0.3109 -1.0267
 1569SOL    HW216170   1.503   1.007  17.293 -1.2071  0.5059 -2.1223
 1570SOL     OW16171   4.495   0.166  13.276  0.0151  0.2295  0.0064
 1570SOL    HW116172   4.564   0.164  13.209  1.5751  0.2112  1.5889
 1570SOL    HW216173   4.534   0.142  13.361 -0.4021 -2.9276 -0.6673
 1571SOL     OW16174   4.635   2.256   0.478  0.0547 -0.0612 -0.3316
 1571SOL    HW116175   4.669   2.189   0.538 -2.9014 -1.2323  0.0605
 1571SOL    HW216176   4.548   2.281   0.510 -0.0488 -2.1874  1.1098
 1572SOL     OW16177   0.666   1.303   3.255  0.6579 -0.5638  0.1682
 1572SOL    HW116178   0.685   1.210   3.251  1.2732 -0.4814  1.1794
 1572SOL    HW216179   0.574   1.307   3.229  0.6942 -0.9602 -0.0140
 1573SOL     OW16180   3.474   0.576   2.980 -0.2326 -0.2179  0.6329
 1573SOL    HW116181   3.399   0.541   3.029 -0.0705  1.5702  2.1574
 1573SOL    HW216182   3.543   0.557   3.044  1.1602  0.8860 -0.5398
 1574SOL     OW16183   3.074   3.259   4.779 -0.7679  0.2098 -0.0117
 1574SOL    HW116184   3.148   3.318   4.794  1.3421 -2.6792  0.8499
 1574SOL    HW216185   3.098   3.210   4.700 -2.7773 -2.5872  1.1514
 1575SOL     OW16186   1.825   3.026   2.520  0.2053 -0.3208 -0.1825
 1575SOL    HW116187   1.781   3.009   2.436  0.3973  0.0266 -0.3554
 1575SOL    HW216188   1.914   3.054   2.497  0.5823 -1.7373 -0.4176
 1576SOL     OW16189   3.354   2.070   1.679  0.1765 -0.7349 -0.0378
 1576SOL    HW116190   3.373   1.977   1.667  1.0519 -0.5532 -0.0625
 1576SOL    HW216191   3.440   2.093   1.714  0.1391  1.1183 -1.1877
 1577SOL     OW16192   1.533   0.955   1.610  0.4117  0.1886  0.2943
 1577SOL    HW116193   1.446   0.916   1.623 -1.1079  3.5572  0.3557
 1577SOL    HW216194   1.562   0.973   1.699  0.0426 -0.8713  0.6290
 1578SOL     OW16195   0.002   1.068  11.145  0.0460 -0.3927  0.0846
 1578SOL    HW116196   4.638   1.056  11.177  0.5783 -0.2731  1.6234
 1578SOL    HW216197   0.046   0.990  11.179  1.1702 -0.5204 -1.6537
 1579SOL     OW16198   0.358   4.518   8.415  0.2259  0.2419  0.4750
 1579SOL    HW116199   0.357   4.545   8.507 -3.9699  2.5167 -0.2579
 1579SOL    HW216200   0.265   4.524   8.394  0.4876 -1.1122 -1.0579
 1580SOL     OW16201   3.562   0.086   0.986 -0.4504 -0.0854 -0.0528
 1580SOL    HW116202   3.612   0.152   0.938 -0.5402  0.5899  0.7876
 1580SOL    HW216203   3.528   0.138   1.059 -1.3274 -0.5165 -0.1474
 1581SOL     OW16204   4.505   1.519  10.487 -0.3752  0.1894 -0.2622
 1581SOL    HW116205   4.414   1.515  10.517 -0.3121 -2.1212 -0.4010
 1581SOL    HW216206   4.528   1.607  10.516  1.7901 -0.6881  0.6090
 1582SOL     OW16207   1.555   2.702  10.166 -0.3783  0.0214 -0.7355
 1582SOL    HW116208   1.560   2.678  10.073  1.5034 -3.7802  0.3177
 1582SOL    HW216209   1.566   2.619  10.214  0.0686  1.1306  1.0749
 1583SOL     OW16210   0.050   0.277   3.919 -0.2640 -0.0327  0.5100
 1583SOL    HW116211   0.016   0.189   3.906 -0.3839  0.4428 -2.3699
 1583SOL    HW216212   0.144   0.261   3.910 -0.5757 -1.9043  0.4899
 1584SOL     OW16213   1.181   4.630   8.071  0.0825 -0.2542  0.0088
 1584SOL    HW116214   1.168   4.537   8.051  1.2433 -0.2656 -0.6769
 1584SOL    HW216215   1.113   4.666   8.015  0.5751 -0.7553 -0.9062
 1585SOL     OW16216   0.677   3.436  14.349 -0.6056 -0.2746 -0.3776
 1585SOL    HW116217   0.653   3.503  14.285 -0.2031 -1.3017 -1.6107
 1585SOL    HW216218   0.740   3.491  14.395  0.2582 -1.9784  0.5081
 1586SOL     OW16219   4.636   3.185  15.520 -0.5670  0.0989 -0.3954
 1586SOL    HW116220   4.566   3.250  15.512  0.0659  0.9714  1.2549
 1586SOL    HW216221   4.624   3.130  15.442  0.7666  1.4974 -1.5772
 1587SOL     OW16222   4.505   4.048  11.921  0.3352 -0.0312  0.2156
 1587SOL    HW116223   4.521   4.124  11.865  1.1511  0.0085  0.5144
 1587SOL    HW216224   4.464   3.989  11.857  0.4332 -0.7185  0.7800
 1588SOL     OW16225   3.245   0.917   7.663 -0.2428 -0.0705 -0.4342
 1588SOL    HW116226   3.213   0.977   7.730  1.6232  0.5373 -0.0909
 1588SOL    HW216227   3.180   0.849   7.645 -0.1860 -0.3472  0.4346
 1589SOL     OW16228   4.618   0.895   6.677 -0.0683  0.7430  0.2365
 1589SOL    HW116229   4.621   0.808   6.718 -1.8284 -0.8287 -2.9324
 1589SOL    HW216230   4.552   0.934   6.734 -0.3536  0.6480 -0.0253
 1590SOL     OW16231   4.328   0.561   4.628  0.5009  0.2175 -0.1002
 1590SOL    HW116232   4.367   0.644   4.655  1.6555  0.5307 -2.7132
 1590SOL    HW216233   4.380   0.547   4.550 -0.6963  1.2476 -1.0945
 1591SOL     OW16234   2.984   2.441   0.542  0.5918 -0.0599  0.2617
 1591SOL    HW116235   2.995   2.348   0.525  2.8844  0.1744  0.4911
 1591SOL    HW216236   2.961   2.464   0.452 -0.5474 -0.7829  0.3712
 1592SOL     OW16237   1.224   0.783  17.670  0.0078  0.2874  0.8864
 1592SOL    HW116238   1.183   0.703  17.702 -1.5024  0.9648  0.6231
 1592SOL    HW216239   1.313   0.748  17.664 -0.3545 -0.1159 -2.1291
 1593SOL     OW16240   0.898   4.092  15.557  0.3461  0.0755  0.4274
 1593SOL    HW116241   0.901   4.065  15.465  0.6402 -0.0222  0.4640
 1593SOL    HW216242   0.809   4.074  15.588 -0.6810  4.9107  0.3217
 1594SOL     OW16243   3.852   2.544  10.191  0.0330 -0.0676 -0.6393
 1594SOL    HW116244   3.929   2.501  10.230  0.4797  1.3860  0.0700
 1594SOL    HW216245   3.801   2.569  10.268  0.5072 -1.0315 -0.0039
 1595SOL     OW16246   3.012   2.627   9.242 -0.1080  0.2298 -0.2138
 1595SOL    HW116247   2.954   2.616   9.166  1.1903 -1.7245 -0.9185
 1595SOL    HW216248   2.990   2.545   9.287 -1.0888  1.9398  2.4163
 1596SOL     OW16249   3.438   0.334   7.144  0.3070  0.3776  0.0449
 1596SOL    HW116250   3.512   0.273   7.143  0.3705  0.4601 -1.0622
 1596SOL    HW216251   3.485   0.414   7.168 -0.4480  0.3428  1.6276
 1597SOL     OW16252   3.639   0.392   7.663 -0.4344  0.2037  0.0030
 1597SOL    HW116253   3.618   0.483   7.645 -0.3179  0.4226  0.9606
 1597SOL    HW216254   3.611   0.345   7.585  0.9765 -0.5688 -0.0459
 1598SOL     OW16255   2.717   4.692   1.823  0.0209  0.0858 -0.1153
 1598SOL    HW116256   2.784   4.723   1.762 -1.0733  0.0616 -1.3284
 1598SOL    HW216257   2.662   0.043   1.837 -1.0172 -0.3623 -1.7371
 1599SOL     OW16258   2.894   4.673   4.878  0.1433 -0.4604  0.1988
 1599SOL    HW116259   2.954   0.021   4.862 -0.3074 -0.1841 -0.2401
 1599SOL    HW216260   2.824   4.688   4.813  0.9651  0.7925 -0.4060
 1600SOL     OW16261   3.664   0.146  15.858  0.3006 -0.0591  0.1059
 1600SOL    HW116262   3.605   0.071  15.853 -0.0602  0.1086  1.8563
 1600SOL    HW216263   3.687   0.138  15.951 -0.4490  4.3095  0.7018
 1601SOL     OW16264   2.252   1.516   3.588 -0.4781 -0.1564 -0.2021
 1601SOL    HW116265   2.186   1.558   3.643 -0.0567 -0.9101  0.8742
 1601SOL    HW216266   2.263   1.580   3.517  1.7429 -2.1092 -1.6121
 1602SOL     OW16267   1.640   2.416   9.518 -0.0563 -0.6912  0.2365
 1602SOL    HW116268   1.623   2.379   9.432  0.0544 -0.7694  0.2476
 1602SOL    HW216269   1.671   2.336   9.561  0.9872 -0.1735  0.4381
 1603SOL     OW16270   1.390   4.134   8.840  0.3834 -0.2709  0.2796
 1603SOL    HW116271   1.296   4.145   8.856  0.5069  3.0520 -1.2940
 1603SOL    HW216272   1.405   4.202   8.774 -2.1544 -0.3259 -0.3586
 1604SOL     OW16273   1.633   3.279  17.316 -0.1215  0.3272  0.6038
 1604SOL    HW116274   1.668   3.340  17.381 -0.5787 -0.8918  1.9769
 1604SOL    HW216275   1.606   3.199  17.360  0.6697 -0.3760 -0.1808
 1605SOL     OW16276   3.658   3.273  12.972 -0.7862 -0.2850  0.1824
 1605SOL    HW116277   3.701   3.204  12.922 -1.2328  0.6472 -1.4918
 1605SOL    HW216278   3.691   3.265  13.061 -1.0461  0.5942  0.3538
 1606SOL     OW16279   2.154   0.752   2.684 -0.2890  0.1529 -0.5393
 1606SOL    HW116280   2.162   0.676   2.626  0.4912  0.4598 -0.8260
 1606SOL    HW216281   2.189   0.714   2.765 -0.8530 -0.9337 -0.8025
 1607SOL     OW16282   3.732   2.294   9.545  0.2253 -0.1629  0.1894
 1607SOL    HW116283   3.803   2.328   9.490 -0.7671 -0.2656 -1.1508
 1607SOL    HW216284   3.694   2.373   9.584 -0.5175 -0.5468  0.2382
 1608SOL     OW16285   4.032   0.244   8.358 -0.7304 -0.4946  0.4987
 1608SOL    HW116286   4.040   0.318   8.418  0.2639 -0.8203  0.7759
 1608SOL    HW216287   4.107   0.262   8.301 -1.2931 -1.2866 -0.4821
 1609SOL     OW16288   0.908   2.065   8.908  0.1430  0.5039 -0.0006
 1609SOL    HW116289   0.870   2.146   8.875  2.2269  2.0658  1.4448
 1609SOL    HW216290   0.926   2.022   8.824  2.1220  0.0032  0.6823
 1610SOL     OW16291   4.425   0.329   1.733 -0.0799  0.2974 -0.2815
 1610SOL    HW116292   4.438   0.264   1.802  2.5269 -0.1335 -1.1994
 1610SOL    HW216293   4.486   0.303   1.664 -1.1224 -0.0446 -1.0723
 1611SOL     OW16294   2.543   4.353   5.740 -0.3895  0.2511 -0.1126
 1611SOL    HW116295   2.563   4.366   5.833 -1.5415  0.0574  0.1583
 1611SOL    HW216296   2.624   4.317   5.704 -0.6043  1.0770 -1.4353
 1612SOL     OW16297   3.699   0.389   8.563  0.4541  0.3020 -0.0257
 1612SOL    HW116298   3.684   0.326   8.492 -0.4177  0.6549 -0.1632
 1612SOL    HW216299   3.777   0.354   8.606 -0.0216 -1.5918 -0.7004
 1613SOL     OW16300   1.955   3.530   5.613 -0.1314  0.6049 -0.0709
 1613SOL    HW116301   1.905   3.453   5.641  0.0011  0.7079  0.4643
 1613SOL    HW216302   1.875   3.583   5.611  0.1182  1.0612  1.5547
 1614SOL     OW16303   0.774   1.143   0.141  0.3211  0.1478  0.3521
 1614SOL    HW116304   0.846   1.165   0.201 -1.9823  0.3292  3.0151
 1614SOL    HW216305   0.826   1.154   0.061 -0.2571 -3.0907 -0.4710
 1615SOL     OW16306   0.457   4.297   6.447 -0.7407 -0.1340  0.5671
 1615SOL    HW116307   0.400   4.276   6.522 -1.2808 -0.0990  0.1636
 1615SOL    HW216308   0.389   4.336   6.393 -0.6016 -2.6467 -1.4060
 1616SOL     OW16309   1.245   2.165   1.536 -0.1046  0.0456  0.3098
 1616SOL    HW116310   1.326   2.138   1.580  1.1342  1.3987 -1.0931
 1616SOL    HW216311   1.258   2.255   1.504  0.2730 -0.5278 -1.1534
 1617SOL     OW16312   0.043   3.754   2.174  0.2561 -0.5235 -0.0264
 1617SOL    HW116313   0.119   3.697   2.160  0.4773  0.3050 -2.2095
 1617SOL    HW216314   4.716   3.703   2.236 -1.4803  0.0884 -1.0136
 1618SOL     OW16315   0.686   1.617   5.935  0.1380  0.0705  0.3665
 1618SOL    HW116316   0.754   1.550   5.929 -0.8796 -0.9177 -0.0608
 1618SOL    HW216317   0.629   1.582   5.866  0.4326 -0.2810  0.3002
 1619SOL     OW16318   1.239   0.532   4.850  0.5134  0.3781  0.7571
 1619SOL    HW116319   1.263   0.504   4.762 -5.6369  1.9838 -1.3717
 1619SOL    HW216320   1.181   0.462   4.881  1.9853 -0.9300  0.5723
 1620SOL     OW16321   3.152   1.758   6.371 -0.0120  0.4048  0.0339
 1620SOL    HW116322   3.163   1.757   6.275  1.5459  2.3194  0.1858
 1620SOL    HW216323   3.070   1.712   6.389  0.6167 -0.6589  0.1543
 1621SOL     OW16324   3.017   2.136   8.173  0.0603 -0.3153 -0.6210
 1621SOL    HW116325   2.991   2.124   8.081  2.2640  2.5028 -1.6176
 1621SOL    HW216326   3.070   2.057   8.187 -0.6942 -1.0090 -1.6842
 1622SOL     OW16327   4.429   2.786   4.940  0.5914  0.1155  0.2788
 1622SOL    HW116328   4.349   2.735   4.950  0.9672 -0.4922  0.2091
 1622SOL    HW216329   4.410   2.815   4.851 -0.8360 -1.0791  0.1896
 1623SOL     OW16330   3.789   2.813   6.074 -0.1995 -0.0970 -0.7034
 1623SOL    HW116331   3.880   2.822   6.048  0.3332 -0.6429  1.0091
 1623SOL    HW216332   3.776   2.875   6.146 -0.0510 -0.8539 -0.0288
 1624SOL     OW16333   2.806   3.481   6.721  0.0509  0.3897 -0.6625
 1624SOL    HW116334   2.896   3.449   6.715  0.6625  2.3936 -2.3818
 1624SOL    HW216335   2.813   3.505   6.814 -3.2592 -2.4152  0.2951
 1625SOL     OW16336   3.352   4.515   8.601  0.0286  0.0288 -0.0142
 1625SOL    HW116337   3.328   4.561   8.521  1.1154  1.3498  0.4263
 1625SOL    HW216338   3.400   4.581   8.651 -1.0751  0.4714  0.4586
 1626SOL     OW16339   2.901   4.067   4.874  0.4566 -0.2240  0.4032
 1626SOL    HW116340   2.940   4.153   4.889 -2.3908  1.4018 -1.5906
 1626SOL    HW216341   2.926   4.019   4.953 -0.5573  1.6239  1.8540
 1627SOL     OW16342   4.613   2.740  16.089  1.2514 -0.4054  0.4414
 1627SOL    HW116343   4.563   2.763  16.011  0.2544 -0.2617  1.1211
 1627SOL    HW216344   4.667   2.817  16.105  1.1425 -0.7296  2.4340
 1628SOL     OW16345   3.256   0.829   6.210 -0.0633  0.2323  0.4568
 1628SOL    HW116346   3.280   0.847   6.301 -0.8873 -0.4535  0.8113
 1628SOL    HW216347   3.331   0.775   6.187  0.5246  1.0955  0.3634
 1629SOL     OW16348   1.135   3.522  12.506  0.1488 -0.8337  0.0080
 1629SOL    HW116349   1.076   3.447  12.510  0.7681 -1.2445  1.1838
 1629SOL    HW216350   1.172   3.516  12.418 -1.5855  0.2548 -0.8085
 1630SOL     OW16351   0.326   4.386  10.670  0.0756  0.3201  0.2957
 1630SOL    HW116352   0.355   4.296  10.686  0.2613  0.5498  1.2305
 1630SOL    HW216353   0.250   4.385  10.728 -0.3678  2.1361 -0.2638
 1631SOL     OW16354   3.241   3.938   3.465 -0.0412  0.1084 -0.0697
 1631SOL    HW116355   3.210   3.865   3.412  0.4580 -1.6085  2.0193
 1631SOL    HW216356   3.262   4.011   3.406  0.4100 -0.3299 -0.4501
 1632SOL     OW16357   1.535   0.191  16.611 -0.0506 -0.3800  0.1729
 1632SOL    HW116358   1.555   0.183  16.704  1.5576  1.4871 -0.0170
 1632SOL    HW216359   1.440   0.199  16.606 -0.2521 -2.1210  1.0848
 1633SOL     OW16360   4.362   0.733   6.062  0.7350  0.3275 -0.2436
 1633SOL    HW116361   4.395   0.820   6.086  1.6698  0.4412 -1.9145
 1633SOL    HW216362   4.325   0.710   6.147  2.4366 -1.5114  0.0017
 1634SOL     OW16363   3.269   4.215   4.030  0.6564  0.1250 -0.4588
 1634SOL    HW116364   3.201   4.159   3.992 -0.6498  0.9429  0.6820
 1634SOL    HW216365   3.327   4.146   4.061 -1.2669 -0.8879  0.8857
 1635SOL     OW16366   2.832   0.421  13.371 -0.3710 -0.0633 -0.0368
 1635SOL    HW116367   2.834   0.334  13.411  0.6139  0.1047  0.2755
 1635SOL    HW216368   2.912   0.419  13.319 -0.6298 -1.2293 -0.3935
 1636SOL     OW16369   4.660   3.756   6.782 -0.1574 -0.3822 -0.1104
 1636SOL    HW116370   4.606   3.831   6.807 -0.1010 -1.1586  2.3455
 1636SOL    HW216371   4.605   3.733   6.707 -0.2304 -0.9106  0.1016
 1637SOL     OW16372   3.151   0.051   2.596 -0.0611 -0.4523 -0.0966
 1637SOL    HW116373   3.151   4.714   2.669  1.0219  1.4106  1.5311
 1637SOL    HW216374   3.201   0.004   2.530 -1.4960 -0.1589 -1.3695
 1638SOL     OW16375   3.136   4.670   0.983 -0.1107 -0.4330  0.2969
 1638SOL    HW116376   3.145   4.604   1.052 -0.4963  0.7746  1.5273
 1638SOL    HW216377   3.100   4.604   0.925  0.1807 -0.3459  0.0170
 1639SOL     OW16378   3.975   3.562   0.459 -0.5059  0.0800  0.6086
 1639SOL    HW116379   4.046   3.598   0.512  0.2296  0.5316 -0.6606
 1639SOL    HW216380   3.906   3.612   0.502  0.5412  1.2774  0.9386
 1640SOL     OW16381   3.486   0.434  16.388 -0.5663  0.2230  0.1472
 1640SOL    HW116382   3.556   0.399  16.332 -0.9789  0.4507 -0.5151
 1640SOL    HW216383   3.517   0.523  16.406 -1.4315  0.4093  0.7206
 1641SOL     OW16384   4.410   0.572   3.968 -0.1686 -0.1186  0.5184
 1641SOL    HW116385   4.382   0.481   3.977  1.3320 -0.3776  2.5526
 1641SOL    HW216386   4.424   0.564   3.874  2.7954  1.0031  0.8693
 1642SOL     OW16387   1.566   1.060   0.477 -0.3222 -0.1010 -0.4458
 1642SOL    HW116388   1.586   0.972   0.445 -1.7745 -0.1353 -1.2736
 1642SOL    HW216389   1.615   1.052   0.559 -1.2418 -0.7967  0.0382
 1643SOL     OW16390   2.143   0.851   3.601 -0.1818  0.1842  0.4207
 1643SOL    HW116391   2.154   0.940   3.634 -3.2114 -0.1770  2.3709
 1643SOL    HW216392   2.077   0.858   3.532  0.6908  1.1465 -0.3305
 1644SOL     OW16393   0.890   3.950   5.681  0.4763  0.0277  0.4178
 1644SOL    HW116394   0.850   3.933   5.766  0.3397  0.8549  0.5222
 1644SOL    HW216395   0.879   4.045   5.674  2.3928  0.1592 -0.8544
 1645SOL     OW16396   2.099   0.379   8.524 -0.2700  0.0504  0.1857
 1645SOL    HW116397   2.113   0.375   8.429  0.4931  0.9471  0.2576
 1645SOL    HW216398   2.018   0.430   8.528 -1.3670 -1.6274 -0.5893
 1646SOL     OW16399   1.241   0.996   2.583 -0.0630 -0.3912 -0.2130
 1646SOL    HW116400   1.171   1.055   2.611  1.6279  0.9904  1.1574
 1646SOL    HW216401   1.320   1.040   2.616 -1.3834  0.0596  2.3395
 1647SOL     OW16402   2.887   4.237   5.136 -0.5096  0.2690  0.2636
 1647SOL    HW116403   2.975   4.271   5.153 -0.9141  1.7241 -0.5351
 1647SOL    HW216404   2.865   4.288   5.058 -0.9246 -1.2654 -0.6176
 1648SOL     OW16405   3.455   3.892  12.670 -0.1120 -0.6670  0.1596
 1648SOL    HW116406   3.465   3.925  12.759  1.9299 -1.2635  0.1470
 1648SOL    HW216407   3.362   3.894  12.646 -0.2372  0.0206  0.7068
 1649SOL     OW16408   1.014   0.251  15.496 -0.4108  0.2617 -0.1081
 1649SOL    HW116409   1.026   0.344  15.514 -0.8956  0.3511 -0.2373
 1649SOL    HW216410   1.104   0.221  15.495 -0.7862 -0.9087  2.5995
 1650SOL     OW16411   2.665   1.041   1.887  0.0338  0.3275 -0.3459
 1650SOL    HW116412   2.750   1.020   1.926  0.0302  0.3008 -0.3529
 1650SOL    HW216413   2.616   1.050   1.969 -1.1331  0.0100 -1.0016
 1651SOL     OW16414   0.451   2.902   8.749 -0.0145  0.0072 -0.1775
 1651SOL    HW116415   0.370   2.920   8.701 -1.1499 -0.8369  1.4574
 1651SOL    HW216416   0.482   2.823   8.705 -1.0958  0.4932 -1.8153
 1652SOL     OW16417   1.426   4.219   2.571  0.1606  0.4717  0.5764
 1652SOL    HW116418   1.437   4.127   2.551  0.8706  1.0360 -1.6152
 1652SOL    HW216419   1.486   4.266   2.513  1.5422 -0.1529  1.5012
 1653SOL     OW16420   2.204   1.213   0.112 -0.3625  0.2750 -0.1998
 1653SOL    HW116421   2.125   1.235   0.162 -0.2317 -3.0916  1.4318
 1653SOL    HW216422   2.266   1.207   0.184 -0.6004  2.1725  0.1881
 1654SOL     OW16423   1.173   3.473   9.881  0.0848  0.0751 -0.4963
 1654SOL    HW116424   1.181   3.396   9.937  2.2924  2.1963  2.1007
 1654SOL    HW216425   1.201   3.422   9.805  0.2377 -0.6135  0.0145
 1655SOL     OW16426   2.249   2.705   1.899  0.3049  0.2751  0.3484
 1655SOL    HW116427   2.197   2.776   1.935  0.4887  0.2537  0.6540
 1655SOL    HW216428   2.224   2.708   1.806 -1.4684 -2.3469  0.7305
 1656SOL     OW16429   0.276   3.075   2.813 -0.4752  0.0656  0.2563
 1656SOL    HW116430   0.230   2.992   2.808 -0.3864  0.1582 -1.9789
 1656SOL    HW216431   0.285   3.101   2.721  1.0949 -1.9897 -0.1861
 1657SOL     OW16432   4.051   1.628   3.569 -0.4699 -0.4518 -0.3890
 1657SOL    HW116433   3.994   1.556   3.596  1.5244 -2.0177 -0.3789
 1657SOL    HW216434   4.090   1.597   3.488 -0.2092 -0.1315 -0.3885
 1658SOL     OW16435   2.253   2.221   6.495  0.3856  0.1658  0.5453
 1658SOL    HW116436   2.215   2.211   6.582 -2.2905 -1.6914 -0.8142
 1658SOL    HW216437   2.201   2.289   6.451  1.1230  0.6015  0.3524
 1659SOL     OW16438   3.712   4.676   5.646 -0.0432  0.4505  0.4582
 1659SOL    HW116439   3.647   0.002   5.695 -0.0894 -0.1415  1.0202
 1659SOL    HW216440   3.649   4.644   5.580  1.3109  1.0136 -1.1054
 1660SOL     OW16441   4.681   0.418   4.158 -0.2682  0.2254  0.0331
 1660SOL    HW116442   4.672   0.327   4.186 -1.1730 -0.4331 -2.3743
 1660SOL    HW216443   4.694   0.408   4.064 -1.5730  1.3254 -0.2690
 1661SOL     OW16444   3.477   2.675   5.666  0.4499  0.3968  0.1019
 1661SOL    HW116445   3.495   2.753   5.719  2.4932 -1.5816  2.2942
 1661SOL    HW216446   3.512   2.689   5.578  0.3222  1.0015  0.1416
 1662SOL     OW16447   3.442   3.182   5.099 -0.0440 -0.3820  0.2463
 1662SOL    HW116448   3.462   3.115   5.034  1.2266 -1.2581  1.5311
 1662SOL    HW216449   3.521   3.185   5.153 -0.0696 -0.4544  0.2862
 1663SOL     OW16450   2.786   0.873   5.198 -0.0438 -0.0501 -0.4142
 1663SOL    HW116451   2.717   0.825   5.244 -0.8023  0.4382 -1.0634
 1663SOL    HW216452   2.738   0.887   5.117 -1.1658  1.5232  0.5203
 1664SOL     OW16453   2.873   3.392   3.388  0.1124 -0.8061  0.1481
 1664SOL    HW116454   2.902   3.483   3.391 -0.2837 -0.8060  4.3399
 1664SOL    HW216455   2.787   3.406   3.350 -0.4416 -2.6811  0.6768
 1665SOL     OW16456   1.144   2.055  10.147 -0.2038 -0.1186 -0.0198
 1665SOL    HW116457   1.174   1.982  10.093 -1.7712 -0.2902 -0.6405
 1665SOL    HW216458   1.111   2.002  10.219  0.1752  0.1933  0.3836
 1666SOL     OW16459   0.105   0.813   9.270 -0.1890  0.2722  0.0470
 1666SOL    HW116460   0.142   0.734   9.310  4.1811  1.6879 -1.2165
 1666SOL    HW216461   0.078   0.861   9.348  1.4132  5.6791 -2.7039
 1667SOL     OW16462   0.150   1.943   7.816  0.5675 -0.6353  0.0398
 1667SOL    HW116463   0.070   1.901   7.846  0.4062 -1.8918 -2.2079
 1667SOL    HW216464   0.188   1.950   7.904 -2.0191 -1.7108  1.2204
 1668SOL     OW16465   1.067   2.520  14.291 -0.4531 -0.1808 -0.2960
 1668SOL    HW116466   1.032   2.529  14.203  0.6649  2.0126 -0.4940
 1668SOL    HW216467   1.115   2.602  14.301  0.1707 -0.6970  0.9765
 1669SOL     OW16468   4.517   0.381   9.124  0.0433 -0.1914 -0.1264
 1669SOL    HW116469   4.573   0.453   9.154  1.3330 -0.4907 -1.7983
 1669SOL    HW216470   4.542   0.309   9.182 -0.9168  0.0762  0.6109
 1670SOL     OW16471   3.125   4.322   4.377  0.5871  0.4095  0.2824
 1670SOL    HW116472   3.075   4.282   4.448  1.7067  2.5050  2.2547
 1670SOL    HW216473   3.070   4.401   4.372  1.6912  1.1500 -0.1428
 1671SOL     OW16474   3.043   4.046  13.080 -0.5009 -0.3833  0.1437
 1671SOL    HW116475   2.986   3.982  13.124  1.3961 -1.2489  1.2984
 1671SOL    HW216476   3.134   4.020  13.091 -0.0973  0.6246 -0.7899
 1672SOL     OW16477   0.708   0.851   6.998 -0.3715 -0.1842  0.0966
 1672SOL    HW116478   0.631   0.899   6.968 -0.9000  1.2361  3.8267
 1672SOL    HW216479   0.662   0.767   6.998  2.0070 -1.4953 -1.7514
 1673SOL     OW16480   1.177   1.778   4.112 -0.2508  0.1020 -0.3179
 1673SOL    HW116481   1.111   1.724   4.155 -0.4533 -0.3347 -1.1892
 1673SOL    HW216482   1.216   1.712   4.054 -0.2058 -1.3992  1.4002
 1674SOL     OW16483   3.774   2.859   9.919 -0.7418  0.2597  0.6484
 1674SOL    HW116484   3.723   2.890   9.844 -1.1174 -0.3227  0.6682
 1674SOL    HW216485   3.860   2.872   9.879 -0.4744 -3.8072 -0.0451
 1675SOL     OW16486   3.944   2.185   4.699  0.4230 -0.0678  0.3134
 1675SOL    HW116487   3.860   2.166   4.740  0.5537  1.2903  1.1905
 1675SOL    HW216488   3.966   2.269   4.738 -1.1513  0.5973 -0.2363
 1676SOL     OW16489   1.958   1.324   0.273 -0.8055  0.1234 -0.1686
 1676SOL    HW116490   1.865   1.307   0.288 -0.4753 -3.0804 -1.9169
 1676SOL    HW216491   1.988   1.236   0.296  2.0517  0.3050 -3.2737
 1677SOL     OW16492   3.548   1.961  15.545  0.1145 -0.8906  0.4785
 1677SOL    HW116493   3.638   1.929  15.537  0.0801 -0.8474 -0.0565
 1677SOL    HW216494   3.556   2.051  15.575 -0.4247  0.0231 -2.1209
 1678SOL     OW16495   4.150   2.878   2.548  0.1349 -0.1064  0.0120
 1678SOL    HW116496   4.155   2.970   2.520  1.0504  0.0860  0.8102
 1678SOL    HW216497   4.120   2.835   2.468 -0.4771 -1.3894  0.9449
 1679SOL     OW16498   2.006   1.700   5.675 -0.0712 -0.2971  0.0657
 1679SOL    HW116499   1.940   1.685   5.607 -1.1471  1.2143  0.7917
 1679SOL    HW216500   2.072   1.640   5.638  0.2909 -0.0189  0.2571
 1680SOL     OW16501   3.702   2.233   6.416  0.7306  0.7953  0.3012
 1680SOL    HW116502   3.699   2.196   6.327 -1.1141  1.0791  0.2551
 1680SOL    HW216503   3.623   2.285   6.408  0.5833  0.4725 -0.3684
 1681SOL     OW16504   4.345   3.661   4.729 -0.5591  0.5895  0.5080
 1681SOL    HW116505   4.376   3.751   4.739  2.0538 -0.2219 -0.5555
 1681SOL    HW216506   4.388   3.637   4.647  0.2086  3.3118  0.1085
 1682SOL     OW16507   3.610   0.197   3.050  0.4917  0.3125  0.2645
 1682SOL    HW116508   3.521   0.196   3.085 -0.9327  0.6417 -3.3401
 1682SOL    HW216509   3.590   0.176   2.959 -0.1744 -0.4104  0.5798
 1683SOL     OW16510   0.323   2.977  14.923  0.2282 -0.5370  0.5709
 1683SOL    HW116511   0.402   3.021  14.955 -0.1685  0.5202  0.0890
 1683SOL    HW216512   0.254   3.013  14.978 -0.1073 -0.3781  0.0410
 1684SOL     OW16513   4.534   2.081  14.528 -0.1331 -0.1275 -0.0864
 1684SOL    HW116514   4.441   2.097  14.544 -0.4762  0.9454 -2.9779
 1684SOL    HW216515   4.552   1.997  14.571  0.5606  0.3388  0.5302
 1685SOL     OW16516   2.134   3.695   5.298 -0.4993  0.4855 -0.0328
 1685SOL    HW116517   2.129   3.789   5.314  1.7152  0.4341  0.9073
 1685SOL    HW216518   2.048   3.686   5.256  0.1815 -1.4569 -1.0194
 1686SOL     OW16519   3.850   3.785   3.000  0.1397  0.0744  0.1825
 1686SOL    HW116520   3.833   3.699   3.037 -0.0385 -0.6688 -1.6239
 1686SOL    HW216521   3.758   3.805   2.979  0.8893  2.7363 -0.5920
 1687SOL     OW16522   2.518   0.453  16.820 -0.2037 -0.1910 -0.4138
 1687SOL    HW116523   2.450   0.450  16.752 -0.6435 -0.2420  0.0301
 1687SOL    HW216524   2.528   0.360  16.839 -0.1111  0.3433  2.1868
 1688SOL     OW16525   2.250   1.581   4.596 -0.1088  0.3896  0.2868
 1688SOL    HW116526   2.293   1.530   4.665  0.0585 -0.5162 -0.4853
 1688SOL    HW216527   2.201   1.512   4.551 -0.9630  1.2176 -0.0582
 1689SOL     OW16528   0.245   0.091   6.284 -0.0614 -0.4242 -0.3807
 1689SOL    HW116529   0.255   0.165   6.343  0.9743  0.2861 -1.4574
 1689SOL    HW216530   0.156   0.113   6.254 -1.2437 -3.7205  0.6153
 1690SOL     OW16531   3.774   4.556   9.236  0.2420 -0.4387 -0.2269
 1690SOL    HW116532   3.807   4.467   9.246  0.7883 -0.1872  0.2416
 1690SOL    HW216533   3.834   4.607   9.290 -0.3178 -0.9100  0.8321
 1691SOL     OW16534   0.977   4.063   2.286 -0.5742 -0.7811 -0.1553
 1691SOL    HW116535   0.970   4.076   2.381  2.7151 -1.5852  0.1991
 1691SOL    HW216536   1.053   4.004   2.284 -0.3472 -0.5188  0.6077
 1692SOL     OW16537   3.324   1.363   6.075 -0.5381  0.2051 -0.6233
 1692SOL    HW116538   3.294   1.275   6.055  0.9476 -0.2021 -1.0497
 1692SOL    HW216539   3.287   1.411   6.001  0.3830 -0.5843 -1.6068
 1693SOL     OW16540   4.423   1.178   0.610  0.3515  0.6624 -0.1716
 1693SOL    HW116541   4.332   1.190   0.581 -0.0687 -0.2210  0.7442
 1693SOL    HW216542   4.407   1.157   0.702  1.6602  3.9520  0.8123
 1694SOL     OW16543   4.272   2.291  15.554 -0.0061 -0.1046  0.0809
 1694SOL    HW116544   4.280   2.254  15.642  0.5120  1.2083  0.5983
 1694SOL    HW216545   4.361   2.318  15.532 -0.7322  1.3020 -1.1116
 1695SOL     OW16546   1.866   1.315   3.607  0.2375  0.2186  0.3119
 1695SOL    HW116547   1.819   1.233   3.596 -1.2518  1.0989  0.2318
 1695SOL    HW216548   1.938   1.294   3.547 -0.6868 -0.4082 -0.5789
 1696SOL     OW16549   3.605   1.162  10.917  0.0821 -0.2024  0.3950
 1696SOL    HW116550   3.649   1.218  10.981  2.2230 -0.8266 -0.5351
 1696SOL    HW216551   3.672   1.097  10.897 -0.2798 -0.6248  0.5582
 1697SOL     OW16552   3.194   1.760   3.326  0.3172  0.4686 -0.2760
 1697SOL    HW116553   3.122   1.726   3.273 -0.8760  0.8513  1.0976
 1697SOL    HW216554   3.155   1.829   3.379 -0.9929  0.3169 -1.0285
 1698SOL     OW16555   1.511   3.733  12.386 -1.0065 -0.0476  0.0192
 1698SOL    HW116556   1.518   3.782  12.304 -2.9540  0.0828 -0.0727
 1698SOL    HW216557   1.473   3.795  12.448 -0.6431 -1.2800  1.4684
 1699SOL     OW16558   1.357   2.110   4.501  0.0720 -0.0708  0.6289
 1699SOL    HW116559   1.434   2.073   4.544  1.1769  1.3011 -0.1467
 1699SOL    HW216560   1.341   2.032   4.449  1.6334  0.3665 -0.5368
 1700SOL     OW16561   0.795   2.928  11.954 -0.2291  0.0830 -0.3476
 1700SOL    HW116562   0.849   2.854  11.925  1.8846  0.9266  1.3880
 1700SOL    HW216563   0.838   2.955  12.036  1.1569  1.1402 -1.4351
 1701SOL     OW16564   4.595   1.414   9.645  0.0897 -0.1109  0.2102
 1701SOL    HW116565   4.622   1.501   9.675  0.2272 -0.8363  2.2086
 1701SOL    HW216566   4.507   1.401   9.681 -0.2959 -1.8747 -1.3613
 1702SOL     OW16567   4.423   1.044   7.652  0.7894  0.3824 -0.6088
 1702SOL    HW116568   4.496   1.018   7.597 -1.4689 -1.1253 -2.8765
 1702SOL    HW216569   4.389   0.962   7.688 -0.0778  0.1237 -2.0258
 1703SOL     OW16570   4.289   4.365   1.778  0.1966 -0.1721  0.5690
 1703SOL    HW116571   4.315   4.284   1.735 -1.3751  0.1327 -0.9554
 1703SOL    HW216572   4.305   4.424   1.704  0.0815  2.2711  2.4980
 1704SOL     OW16573   4.369   3.097   7.492  0.2253 -0.5079 -0.0559
 1704SOL    HW116574   4.439   3.156   7.466 -0.1185 -1.0543 -2.1622
 1704SOL    HW216575   4.344   3.050   7.413 -1.2030 -0.2051  0.2126
 1705SOL     OW16576   4.148   3.717  12.998 -0.4011 -0.2736 -0.3464
 1705SOL    HW116577   4.122   3.782  13.063  1.0205  0.9992 -1.0500
 1705SOL    HW216578   4.161   3.781  12.928  3.5799 -0.1272  0.5764
 1706SOL     OW16579   2.091   2.714   8.185 -0.2530  0.3886  0.4764
 1706SOL    HW116580   2.171   2.761   8.208  0.8955 -1.6065  0.5403
 1706SOL    HW216581   2.101   2.649   8.255  1.0119  0.5457  0.4305
 1707SOL     OW16582   1.383   1.419   1.724  0.1592 -0.1582 -0.7324
 1707SOL    HW116583   1.313   1.389   1.665  0.3113 -0.9583 -0.5154
 1707SOL    HW216584   1.358   1.363   1.798 -0.6250 -0.7943 -1.4618
 1708SOL     OW16585   1.190   2.943   8.226  0.1682  0.6172  0.8702
 1708SOL    HW116586   1.225   2.869   8.275  0.5205 -0.0256 -0.3279
 1708SOL    HW216587   1.241   2.953   8.145  0.4247 -0.6881  0.8736
 1709SOL     OW16588   2.384   2.075   2.980  0.3434  0.4341  0.6292
 1709SOL    HW116589   2.292   2.071   2.955  0.2880  0.7492  0.7806
 1709SOL    HW216590   2.383   2.135   3.055  0.7834 -0.1725  1.1195
 1710SOL     OW16591   3.015   1.851   5.838 -0.1343  0.0800  0.4131
 1710SOL    HW116592   2.956   1.926   5.828  1.6117  1.3200 -0.3824
 1710SOL    HW216593   2.950   1.783   5.817  0.0461 -0.2785  1.0197
 1711SOL     OW16594   2.885   0.973   4.219  0.3832  0.0038 -0.4310
 1711SOL    HW116595   2.933   0.944   4.297 -0.2849  3.4171  1.2326
 1711SOL    HW216596   2.815   0.908   4.216  0.1471  0.2846 -0.9393
 1712SOL     OW16597   0.161   4.033  16.216 -0.2782  0.0225  0.2510
 1712SOL    HW116598   0.169   3.957  16.274  1.8809  0.1870  0.1918
 1712SOL    HW216599   0.067   4.026  16.202 -0.1479 -3.1568  0.9421
 1713SOL     OW16600   0.787   3.426   8.053  0.0067  0.0669  0.2578
 1713SOL    HW116601   0.810   3.334   8.065 -1.4295 -0.2970  0.2369
 1713SOL    HW216602   0.768   3.449   8.144 -1.2965  1.1108 -0.2763
 1714SOL     OW16603   2.259   0.572   7.793 -0.0183  0.4140  0.1436
 1714SOL    HW116604   2.341   0.615   7.817  0.8982 -2.5445  2.3306
 1714SOL    HW216605   2.199   0.647   7.784 -0.9594 -0.3213  0.3435
 1715SOL     OW16606   1.784   2.483   8.137 -0.4778  0.4523  0.2405
 1715SOL    HW116607   1.859   2.452   8.188 -0.0979  0.5701 -0.2433
 1715SOL    HW216608   1.744   2.531   8.210 -1.6546  0.8590 -0.6888
 1716SOL     OW16609   1.925   1.407   2.696 -0.5763 -0.2831 -0.3747
 1716SOL    HW116610   1.931   1.388   2.603 -0.9205  2.1295 -0.8885
 1716SOL    HW216611   2.012   1.384   2.727 -1.1499 -1.8776  0.0602
 1717SOL     OW16612   2.130   1.777  17.255 -0.1222  0.0468  0.1673
 1717SOL    HW116613   2.213   1.813  17.223 -1.1997  2.4456  0.0732
 1717SOL    HW216614   2.082   1.760  17.173  0.9949 -0.0557 -0.4675
 1718SOL     OW16615   2.260   1.913   8.958 -0.1747  0.2773  0.1262
 1718SOL    HW116616   2.186   1.867   8.918  1.3623 -1.7205 -0.4212
 1718SOL    HW216617   2.268   1.993   8.907 -0.9414 -0.5106 -1.2237
 1719SOL     OW16618   1.862   0.111   2.814  0.4454 -0.1714  0.0596
 1719SOL    HW116619   1.868   0.147   2.725 -1.4733 -0.4563 -0.1759
 1719SOL    HW216620   1.768   0.095   2.821 -0.3992  3.2452 -3.3172
 1720SOL     OW16621   2.259   4.050   2.647  0.3209 -0.1307 -0.1667
 1720SOL    HW116622   2.187   4.107   2.619  0.7561  0.6599  0.3274
 1720SOL    HW216623   2.289   4.094   2.726  1.3770 -1.8543  0.3920
 1721SOL     OW16624   1.063   0.391   1.211 -0.0123  0.2228  0.0577
 1721SOL    HW116625   1.015   0.474   1.208 -1.3565 -0.4009  4.2798
 1721SOL    HW216626   1.020   0.345   1.139 -2.7684  3.7844 -0.5370
 1722SOL     OW16627   0.657   2.275   3.174 -0.0528  0.1308 -0.1822
 1722SOL    HW116628   0.591   2.309   3.234 -0.8617 -1.4503 -0.1881
 1722SOL    HW216629   0.610   2.297   3.094  2.3603  1.3002 -1.2847
 1723SOL     OW16630   0.060   3.248  15.742  0.7094 -0.0321  0.6621
 1723SOL    HW116631   0.003   3.207  15.677 -0.6207  2.4363  0.2589
 1723SOL    HW216632   0.027   3.338  15.745  1.1095  0.2495 -3.7723
 1724SOL     OW16633   0.421   0.335   3.038 -0.4314  0.7931  0.4464
 1724SOL    HW116634   0.332   0.355   3.007 -0.0751 -0.4987 -1.3790
 1724SOL    HW216635   0.412   0.240   3.042 -0.9565  0.8098 -0.3335
 1725SOL     OW16636   2.550   0.888   8.178 -0.1511 -0.7364 -0.2752
 1725SOL    HW116637   2.498   0.860   8.103 -0.8841 -0.7917  0.2500
 1725SOL    HW216638   2.507   0.842   8.250  0.5696  1.7410  1.7247
 1726SOL     OW16639   4.642   1.431   5.968 -0.3665  0.0064  0.0851
 1726SOL    HW116640   4.623   1.477   5.886  2.9230 -1.3333 -1.4236
 1726SOL    HW216641   4.571   1.470   6.019  0.0488  0.3152  0.4219
 1727SOL     OW16642   3.524   2.056   3.475 -0.4344 -0.1187 -0.5915
 1727SOL    HW116643   3.539   2.099   3.391  0.2809  1.0720  0.1342
 1727SOL    HW216644   3.432   2.030   3.472  0.1790 -2.4319  1.0213
 1728SOL     OW16645   0.097   3.939  10.654  0.1166 -0.3971 -0.0593
 1728SOL    HW116646   0.041   3.966  10.727 -0.1364 -1.1297  0.0163
 1728SOL    HW216647   0.057   3.867  10.607  0.6914 -0.3479 -0.6300
 1729SOL     OW16648   2.289   4.678   6.645  0.4631  0.1430 -0.3152
 1729SOL    HW116649   2.201   4.654   6.672  0.5342 -0.9950 -1.0644
 1729SOL    HW216650   2.320   4.611   6.583  2.4577 -0.9565  1.8328
 1730SOL     OW16651   1.215   0.900   3.982  0.0713  0.1436 -0.0442
 1730SOL    HW116652   1.299   0.854   3.989 -0.3243 -0.6409 -0.3892
 1730SOL    HW216653   1.198   0.903   4.076  2.2859  0.6365  0.3258
 1731SOL     OW16654   2.565   2.183   6.148 -0.8403 -0.1838  0.3149
 1731SOL    HW116655   2.619   2.116   6.105  0.0253  1.5579 -1.3394
 1731SOL    HW216656   2.503   2.127   6.194 -0.3376  0.0085  1.2142
 1732SOL     OW16657   1.371   1.131  14.273 -0.3220  0.1528  0.4542
 1732SOL    HW116658   1.454   1.170  14.299 -0.2590  2.4081 -3.0580
 1732SOL    HW216659   1.381   1.124  14.178  0.5733  0.9151  0.5057
 1733SOL     OW16660   2.829   3.755  17.062 -0.1496  0.3480 -0.1420
 1733SOL    HW116661   2.799   3.677  17.109  2.4268 -1.4817 -1.5802
 1733SOL    HW216662   2.742   3.796  17.058  0.5334  1.7721 -0.1005
 1734SOL     OW16663   0.629   0.627  17.561 -0.1529 -0.3466  0.0788
 1734SOL    HW116664   0.678   0.667  17.489 -3.0206  1.7745 -0.7440
 1734SOL    HW216665   0.663   0.676  17.635 -1.0754  1.8315 -0.9193
 1735SOL     OW16666   4.344   1.208   9.007  0.9865  0.8405 -0.4636
 1735SOL    HW116667   4.273   1.158   8.968  1.0075  0.7363 -0.3674
 1735SOL    HW216668   4.361   1.157   9.086  0.9598 -0.5393 -1.3516
 1736SOL     OW16669   0.627   4.170   3.487 -0.0850  0.1454 -0.1291
 1736SOL    HW116670   0.633   4.075   3.483 -2.3009  0.0355 -1.2876
 1736SOL    HW216671   0.586   4.178   3.573  0.3496 -4.4589  0.4575
 1737SOL     OW16672   2.980   0.945   1.843  0.0044  0.6494 -0.1485
 1737SOL    HW116673   2.952   0.998   1.768 -0.3184  0.9469  0.1879
 1737SOL    HW216674   2.960   0.857   1.809 -0.4966  0.3628  0.9034
 1738SOL     OW16675   0.768   3.677   7.465  0.2944 -1.0103 -0.1422
 1738SOL    HW116676   0.773   3.762   7.508  2.6937 -0.2578 -1.8673
 1738SOL    HW216677   0.769   3.608   7.531  0.8488 -0.1676  0.7321
 1739SOL     OW16678   1.228   3.958  14.659  0.3734 -0.3014 -0.3722
 1739SOL    HW116679   1.234   4.049  14.686 -0.4742 -1.5526  4.0447
 1739SOL    HW216680   1.148   3.963  14.608 -1.3108 -1.7158  2.1183
 1740SOL     OW16681   1.353   4.570  16.249  0.1662  0.1784 -0.0176
 1740SOL    HW116682   1.259   4.577  16.235  0.4442  0.5687 -1.7457
 1740SOL    HW216683   1.379   4.661  16.233 -1.8592  0.0704 -3.8740
 1741SOL     OW16684   3.291   0.239  15.415  0.6182 -0.7505 -0.1375
 1741SOL    HW116685   3.376   0.282  15.424  0.5859 -0.0632 -3.2319
 1741SOL    HW216686   3.239   0.305  15.370  0.9341 -1.1994 -1.1606
 1742SOL     OW16687   1.783   1.351   4.081 -0.2842 -0.2240 -0.0681
 1742SOL    HW116688   1.707   1.406   4.060  0.9355  1.5828  0.2727
 1742SOL    HW216689   1.783   1.280   4.017  0.7232  0.4160 -0.7747
 1743SOL     OW16690   2.067   3.343  12.456 -0.2569  0.1314 -0.1214
 1743SOL    HW116691   2.043   3.373  12.543  0.9910 -0.4230  0.4120
 1743SOL    HW216692   2.033   3.254  12.466  3.0054 -0.8129  2.4568
 1744SOL     OW16693   4.503   2.982   3.470 -0.4424  0.1793 -0.5278
 1744SOL    HW116694   4.547   3.018   3.547 -2.3012 -0.0047  0.6147
 1744SOL    HW216695   4.536   2.892   3.469  0.6963  0.5481  1.8352
 1745SOL     OW16696   1.624   2.754   6.527 -0.5098  0.1786 -0.3664
 1745SOL    HW116697   1.626   2.842   6.565 -0.6687 -0.4755  1.1743
 1745SOL    HW216698   1.716   2.732   6.515 -0.3708  0.6867 -0.2032
 1746SOL     OW16699   2.954   3.157  10.841 -0.3263 -0.5263 -0.2312
 1746SOL    HW116700   3.004   3.228  10.882  0.2492  0.8600 -3.3417
 1746SOL    HW216701   3.014   3.083  10.840  0.7845  0.3921 -1.9737
 1747SOL     OW16702   0.433   0.932  17.697  0.1190  0.3485  0.9936
 1747SOL    HW116703   0.365   0.965  17.638  0.6447  0.4751  0.4471
 1747SOL    HW216704   0.386   0.877   0.055  0.6581 -1.6606 -0.3730
 1748SOL     OW16705   3.312   1.350   2.317  0.3285  0.3137  0.0239
 1748SOL    HW116706   3.352   1.432   2.346 -1.3453  0.5424  1.6467
 1748SOL    HW216707   3.374   1.295   2.365 -0.0212 -2.6824 -2.9754
 1749SOL     OW16708   4.155   3.782   3.313 -0.2714  0.2205 -0.5821
 1749SOL    HW116709   4.072   3.828   3.307  0.0540  1.2502  2.4754
 1749SOL    HW216710   4.129   3.690   3.306 -0.3139  0.2893 -1.2513
 1750SOL     OW16711   1.275   3.940   5.278  0.0054 -0.3521 -0.2876
 1750SOL    HW116712   1.276   3.849   5.247  0.2064 -1.3879  2.7886
 1750SOL    HW216713   1.281   3.989   5.196 -1.3999  0.6465  0.2101
 1751SOL     OW16714   0.811   2.065   7.300  0.3168 -0.0533  0.4309
 1751SOL    HW116715   0.901   2.095   7.301 -0.0964  1.2131 -2.2987
 1751SOL    HW216716   0.804   2.020   7.385  0.5570 -0.1508  0.3987
 1752SOL     OW16717   3.550   3.630  13.058  0.2687 -0.3061 -0.0415
 1752SOL    HW116718   3.564   3.686  13.134  0.3445  1.7377 -1.5339
 1752SOL    HW216719   3.455   3.621  13.056  0.2992 -0.6473  0.0864
 1753SOL     OW16720   0.211   1.564   0.966  0.0718 -0.5943 -0.1968
 1753SOL    HW116721   0.184   1.648   1.003  1.5495 -1.0096  1.8583
 1753SOL    HW216722   0.306   1.570   0.971  0.2711 -3.2928 -0.4041
 1754SOL     OW16723   1.964   4.374   6.864  0.3771 -0.6974 -0.1420
 1754SOL    HW116724   2.013   4.388   6.782 -0.0099  0.4215 -0.1877
 1754SOL    HW216725   2.029   4.367   6.933  0.1411 -0.2043  0.1314
 1755SOL     OW16726   3.726   2.075   3.020 -0.2227  0.3342 -0.1943
 1755SOL    HW116727   3.681   1.991   3.017 -0.8164  0.6168  0.5783
 1755SOL    HW216728   3.722   2.093   2.926  1.1820 -1.0628 -0.5243
 1756SOL     OW16729   3.523   1.757   3.393 -0.5535 -0.4220  0.4335
 1756SOL    HW116730   3.535   1.678   3.340 -1.3131 -1.1203  1.3028
 1756SOL    HW216731   3.428   1.764   3.394 -0.5122  0.2760 -0.5635
 1757SOL     OW16732   0.253   4.420   1.171 -0.0446 -0.0054 -0.7061
 1757SOL    HW116733   0.277   4.332   1.141 -2.9588 -0.9032 -0.4822
 1757SOL    HW216734   0.172   4.436   1.123 -0.0937  0.1131 -0.5844
 1758SOL     OW16735   0.677   3.834   3.102 -0.3853 -0.2146 -0.1509
 1758SOL    HW116736   0.743   3.815   3.035 -1.7549  0.6237 -1.7524
 1758SOL    HW216737   0.667   3.748   3.141 -3.1893  0.6560  1.0634
 1759SOL     OW16738   0.584   2.035   3.790  0.0786 -1.0644  0.2924
 1759SOL    HW116739   0.653   2.030   3.724  0.8821  0.3390  1.0182
 1759SOL    HW216740   0.542   2.113   3.753  0.9787 -0.5595  0.3344
 1760SOL     OW16741   0.644   0.556  16.495 -0.2321 -0.7681 -0.1786
 1760SOL    HW116742   0.669   0.466  16.475 -0.6779 -0.8342 -0.4478
 1760SOL    HW216743   0.549   0.547  16.507 -0.5072  1.9009 -0.1872
 1761SOL     OW16744   2.088   3.179  10.312 -0.0903  0.1962 -0.5025
 1761SOL    HW116745   2.123   3.099  10.273 -1.9435 -0.9939  0.2670
 1761SOL    HW216746   2.028   3.143  10.377 -0.4206 -2.3100 -2.2117
 1762SOL     OW16747   2.672   4.720  12.041  0.1894  0.5185  0.4709
 1762SOL    HW116748   2.747   4.706  11.983  0.8260 -1.6134  1.8008
 1762SOL    HW216749   2.625   4.641  12.015  1.4859 -0.8849  2.3092
 1763SOL     OW16750   4.567   2.213   2.709  0.3913  0.0937 -0.0600
 1763SOL    HW116751   4.533   2.154   2.776  1.7829 -1.5044 -0.7491
 1763SOL    HW216752   4.536   2.172   2.628  0.4037 -0.8066  0.3861
 1764SOL     OW16753   3.735   2.824  12.059 -0.9725  0.2403  0.3757
 1764SOL    HW116754   3.753   2.894  12.121 -0.5854  1.5828 -1.2732
 1764SOL    HW216755   3.641   2.834  12.042 -1.4231 -0.4078  2.4931
 1765SOL     OW16756   4.478   4.070   8.480 -0.0323  0.1181 -0.3689
 1765SOL    HW116757   4.503   4.050   8.570 -0.5495  0.8644 -0.0553
 1765SOL    HW216758   4.383   4.084   8.483  0.0114  0.1935  0.6514
 1766SOL     OW16759   1.140   1.399   5.273 -0.5416 -0.2656 -0.3374
 1766SOL    HW116760   1.182   1.484   5.283 -0.5766 -0.2997  0.1246
 1766SOL    HW216761   1.081   1.424   5.202 -0.6170  0.1937 -0.1153
 1767SOL     OW16762   4.454   4.580  14.301 -0.9053 -0.4889  0.6238
 1767SOL    HW116763   4.532   4.524  14.298  0.6904  1.9541 -2.9242
 1767SOL    HW216764   4.405   4.531  14.367 -1.2019 -2.5382 -1.1276
 1768SOL     OW16765   1.686   0.253  15.375  0.7395  0.0304  0.6957
 1768SOL    HW116766   1.694   0.162  15.404  2.9955  0.2971  0.8701
 1768SOL    HW216767   1.776   0.283  15.385  1.9806 -2.9965 -1.5053
 1769SOL     OW16768   4.400   1.960   7.532 -0.2629  0.0647 -0.2086
 1769SOL    HW116769   4.396   1.923   7.620 -1.4815  2.1942  0.6316
 1769SOL    HW216770   4.357   1.884   7.491 -1.3438  0.8977 -0.6202
 1770SOL     OW16771   1.231   1.578   3.947 -0.2876 -0.0588  0.1477
 1770SOL    HW116772   1.175   1.579   3.869  0.7136  0.6962 -0.5530
 1770SOL    HW216773   1.242   1.483   3.940 -0.8445  0.0307 -2.0425
 1771SOL     OW16774   2.626   3.863   3.438  0.7764  0.0827  0.2582
 1771SOL    HW116775   2.591   3.775   3.424  0.7426  0.1295  0.0575
 1771SOL    HW216776   2.626   3.888   3.346 -1.8964 -0.4855  0.0985
 1772SOL     OW16777   0.867   2.380   7.356  0.1314  0.1580 -0.3911
 1772SOL    HW116778   0.798   2.345   7.298  0.5984  0.7950 -1.3206
 1772SOL    HW216779   0.947   2.341   7.321 -0.3218  0.0208 -1.2854
 1773SOL     OW16780   1.389   1.110  12.810 -0.2035  0.1101 -0.2563
 1773SOL    HW116781   1.338   1.085  12.888  1.5589  4.0432  2.1348
 1773SOL    HW216782   1.421   1.198  12.828 -2.0313  0.6194  0.5658
 1774SOL     OW16783   2.023   1.954   2.591 -0.4658 -0.5217 -0.0979
 1774SOL    HW116784   2.101   1.937   2.538 -1.0475 -0.9403 -0.8287
 1774SOL    HW216785   1.952   1.959   2.526 -1.8740 -1.1018  1.3972
 1775SOL     OW16786   0.158   3.437   3.794  0.4827 -0.0407  0.0890
 1775SOL    HW116787   0.243   3.476   3.816 -0.0958  0.3791  1.6366
 1775SOL    HW216788   0.113   3.521   3.779 -0.6955 -0.8328 -0.7642
 1776SOL     OW16789   1.300   2.009   3.985  0.3584 -0.2456  0.0484
 1776SOL    HW116790   1.374   1.951   4.005 -0.1746 -1.7511 -2.4416
 1776SOL    HW216791   1.235   1.990   4.053 -0.3300  1.2912 -0.1781
 1777SOL     OW16792   3.667   4.679  12.403  0.4040  0.7852 -0.1907
 1777SOL    HW116793   3.754   4.688  12.364  0.4674  0.6439 -0.0829
 1777SOL    HW216794   3.635   4.608  12.347 -0.1578 -0.0125  1.1381
 1778SOL     OW16795   2.893   2.089   9.246 -0.3118 -0.2130 -0.1004
 1778SOL    HW116796   2.800   2.074   9.262  0.0848 -1.3259  1.1062
 1778SOL    HW216797   2.929   2.021   9.302  0.1031  1.1989  1.3638
 1779SOL     OW16798   0.494   1.517   7.392 -0.2801 -0.3802 -0.8121
 1779SOL    HW116799   0.448   1.563   7.462  1.3840  1.4050 -0.8867
 1779SOL    HW216800   0.438   1.514   7.314  1.8081  0.1816 -2.3140
 1780SOL     OW16801   0.049   2.723   8.679 -0.4042  0.0503  0.7121
 1780SOL    HW116802   4.697   2.670   8.660  1.4156 -0.9113 -3.8258
 1780SOL    HW216803   0.002   2.796   8.720 -2.1452 -0.6367 -0.0417
 1781SOL     OW16804   1.651   3.467   7.055  0.3014 -0.2146  0.4587
 1781SOL    HW116805   1.570   3.501   7.018 -0.5201 -1.4575  1.1105
 1781SOL    HW216806   1.709   3.474   6.979  0.9850  0.2550  1.0227
 1782SOL     OW16807   1.298   4.141   7.491 -0.0913  0.1106 -0.3048
 1782SOL    HW116808   1.283   4.080   7.564  2.2074 -0.7828 -0.5846
 1782SOL    HW216809   1.264   4.100   7.411 -0.5093  1.8819 -1.0201
 1783SOL     OW16810   4.260   1.044   4.719  0.2718 -0.6824  0.4026
 1783SOL    HW116811   4.310   1.126   4.719 -1.5913  0.4478  2.9280
 1783SOL    HW216812   4.193   1.061   4.653  0.0762 -1.1544  0.4802
 1784SOL     OW16813   3.914   3.698   1.272 -0.1790  0.3606  0.1606
 1784SOL    HW116814   4.004   3.722   1.249 -0.7211  0.1754 -2.1247
 1784SOL    HW216815   3.884   3.785   1.298 -2.4507  0.0157 -1.2584
 1785SOL     OW16816   3.150   0.905  17.635  0.1451 -0.2445  0.2095
 1785SOL    HW116817   3.157   0.904   0.026 -0.4865 -1.9880  0.2460
 1785SOL    HW216818   3.108   0.820  17.621 -0.3854  0.4405 -2.3634
 1786SOL     OW16819   0.818   3.453   2.591 -0.1873 -0.4024  0.3055
 1786SOL    HW116820   0.907   3.488   2.591 -0.8663  1.3374  0.4912
 1786SOL    HW216821   0.796   3.459   2.684 -1.4905 -1.5085  0.0788
 1787SOL     OW16822   0.980   3.371   8.840 -0.7805  0.3794  0.1427
 1787SOL    HW116823   1.034   3.442   8.804 -1.1430  0.5859  0.0076
 1787SOL    HW216824   1.005   3.367   8.933  0.2820  0.3224 -0.1524
 1788SOL     OW16825   1.167   3.877  17.612  0.0897 -0.1303 -0.4798
 1788SOL    HW116826   1.235   3.851  17.674  1.4750  0.2279 -1.8460
 1788SOL    HW216827   1.163   3.795  17.563 -1.4021 -0.8792  0.8992
 1789SOL     OW16828   1.432   4.358   7.812 -0.0854  0.0083 -0.6245
 1789SOL    HW116829   1.348   4.374   7.768 -1.1309 -1.4938  0.8459
 1789SOL    HW216830   1.472   4.314   7.736  0.5891  2.0497 -1.4439
 1790SOL     OW16831   0.838   3.836  10.069  0.0717  0.3518  0.0336
 1790SOL    HW116832   0.799   3.757  10.105 -0.5705 -0.5194 -2.5906
 1790SOL    HW216833   0.928   3.804  10.063  0.2941  1.0468 -0.3361
 1791SOL     OW16834   3.240   4.349   7.457  0.1750 -0.2911  0.5118
 1791SOL    HW116835   3.198   4.435   7.450 -0.6110 -0.7944 -1.0784
 1791SOL    HW216836   3.173   4.291   7.419 -1.6217  2.7338 -0.8986
 1792SOL     OW16837   4.611   0.670   9.217 -0.4915 -0.3677 -0.1754
 1792SOL    HW116838   4.548   0.728   9.259 -0.2485 -0.5776  0.4780
 1792SOL    HW216839   4.685   0.726   9.193 -0.2821 -0.3925  0.4211
 1793SOL     OW16840   0.560   2.746   7.309 -0.3484 -0.0187  0.1954
 1793SOL    HW116841   0.482   2.765   7.362 -2.9269  1.2075 -4.0423
 1793SOL    HW216842   0.623   2.796   7.360 -1.3432 -0.8832  2.2836
 1794SOL     OW16843   3.937   0.797   4.787 -0.3298 -0.3920  0.0450
 1794SOL    HW116844   3.961   0.840   4.869  3.1717  0.4840 -1.4199
 1794SOL    HW216845   3.855   0.836   4.759  0.3890  1.8647  1.1375
 1795SOL     OW16846   0.048   3.070   9.487 -0.0896 -0.2909  0.3904
 1795SOL    HW116847   0.028   3.127   9.561  0.3970  0.5400 -0.1135
 1795SOL    HW216848   0.137   3.042   9.508 -0.8940 -2.6560  0.6716
 1796SOL     OW16849   0.346   2.961   3.882  0.0576  0.0529  0.2152
 1796SOL    HW116850   0.325   2.965   3.789 -0.9510 -0.1897  0.4324
 1796SOL    HW216851   0.272   3.011   3.917  0.2146  1.8368 -1.9684
 1797SOL     OW16852   0.453   0.552   8.288  0.3475  0.5570  0.4475
 1797SOL    HW116853   0.520   0.484   8.298 -1.1743 -0.5856  2.5979
 1797SOL    HW216854   0.430   0.533   8.197 -0.5606  0.7813  0.6371
 1798SOL     OW16855   0.561   2.526   3.647 -0.2465 -0.0188 -0.1642
 1798SOL    HW116856   0.632   2.583   3.677 -0.0791 -0.3799  0.1246
 1798SOL    HW216857   0.489   2.588   3.662  0.2103  0.4437  0.1310
 1799SOL     OW16858   4.119   0.149  12.196  0.1616 -0.4830 -0.2333
 1799SOL    HW116859   4.129   0.191  12.110 -0.6930  0.0248 -0.0824
 1799SOL    HW216860   4.091   0.218  12.256 -3.6204 -2.2883  0.0556
 1800SOL     OW16861   3.650   0.358  15.682  0.2708 -0.0922  0.1425
 1800SOL    HW116862   3.670   0.275  15.726  2.8955  0.5318  0.1217
 1800SOL    HW216863   3.729   0.372  15.630 -0.5016  2.2089 -0.4153
 1801SOL     OW16864   3.572   2.033   7.057 -0.8367 -0.0773  0.4230
 1801SOL    HW116865   3.667   2.029   7.058 -0.7570  2.1192  1.8359
 1801SOL    HW216866   3.554   1.997   7.144  1.1131  0.1788  0.9205
 1802SOL     OW16867   2.875   2.578   0.313 -0.4384 -0.4576 -0.2932
 1802SOL    HW116868   2.934   2.605   0.242 -0.5920 -1.9161 -0.9884
 1802SOL    HW216869   2.837   2.662   0.340  0.2590 -0.8811  1.9065
 1803SOL     OW16870   2.764   0.387   6.990  0.2888 -0.5101 -0.1881
 1803SOL    HW116871   2.716   0.377   7.072  1.6212 -0.0339  0.6504
 1803SOL    HW216872   2.829   0.454   7.009 -0.0515  0.2951 -1.8820
 1804SOL     OW16873   3.306   3.424   7.648 -0.0354 -0.3322 -0.2576
 1804SOL    HW116874   3.382   3.392   7.599 -0.1019 -0.6256 -0.1693
 1804SOL    HW216875   3.299   3.517   7.627  0.1069 -0.4566 -0.8650
 1805SOL     OW16876   0.148   3.171   3.909  0.0526  0.3447  0.0775
 1805SOL    HW116877   0.171   3.262   3.893  0.1088 -0.0347 -1.9852
 1805SOL    HW216878   0.053   3.174   3.912  0.0744  0.5558  0.6139
 1806SOL     OW16879   2.829   2.908   3.311  0.4066 -0.6514  0.0007
 1806SOL    HW116880   2.839   2.830   3.255 -0.4176  0.1197 -1.2166
 1806SOL    HW216881   2.865   2.880   3.395  2.4718 -0.1797 -0.7327
 1807SOL     OW16882   3.051   0.405   6.692  0.3580  0.1610 -0.1568
 1807SOL    HW116883   3.120   0.354   6.733 -0.5492 -2.6774 -2.1316
 1807SOL    HW216884   3.077   0.379   6.603  0.8545 -0.4157  0.1639
 1808SOL     OW16885   0.561   3.648   0.078  0.1119 -0.6046  0.0634
 1808SOL    HW116886   0.583   3.664   0.169 -1.8798  0.9881  0.2740
 1808SOL    HW216887   0.514   3.565   0.085 -0.2918 -0.2717  1.2465
 1809SOL     OW16888   1.601   1.757   4.237 -0.8980 -0.1843 -0.3574
 1809SOL    HW116889   1.663   1.686   4.257 -0.9287  0.3506  1.6612
 1809SOL    HW216890   1.647   1.805   4.168  0.2649  0.1205  0.6259
 1810SOL     OW16891   4.109   3.859   6.560 -0.1620  0.3899  0.0517
 1810SOL    HW116892   4.076   3.874   6.649  1.9218  2.1186  0.5235
 1810SOL    HW216893   4.071   3.775   6.535 -0.1224  0.3846  0.0083
 1811SOL     OW16894   4.532   2.021   3.980 -0.4756  0.4997  0.4462
 1811SOL    HW116895   4.533   1.927   3.958 -2.7425 -0.0398  2.6058
 1811SOL    HW216896   4.443   2.034   4.013  0.2449  4.5130  0.7115
 1812SOL     OW16897   3.396   2.620   8.625 -0.1506  0.1897  0.5610
 1812SOL    HW116898   3.482   2.591   8.654  0.3714  0.0135 -1.1824
 1812SOL    HW216899   3.340   2.555   8.669  2.5193 -0.1252  3.5612
 1813SOL     OW16900   3.578   3.630   5.263  0.3098  0.0455  0.5288
 1813SOL    HW116901   3.593   3.715   5.223  0.6334 -0.2781 -0.0276
 1813SOL    HW216902   3.660   3.621   5.311  0.0923  0.7653  1.0364
 1814SOL     OW16903   3.115   1.484   5.191  0.1392  0.0138  0.6832
 1814SOL    HW116904   3.089   1.499   5.282  1.1225 -1.1262  1.1508
 1814SOL    HW216905   3.142   1.573   5.171 -3.2062  1.1706  1.2979
 1815SOL     OW16906   0.277   2.390   7.784  0.2488 -0.2113 -0.1444
 1815SOL    HW116907   0.312   2.354   7.866 -2.6939  0.4182  1.3948
 1815SOL    HW216908   0.265   2.310   7.734  3.1149 -0.4469 -0.4638
 1816SOL     OW16909   4.439   4.241   1.488  0.4317  0.0433 -0.1594
 1816SOL    HW116910   4.416   4.192   1.567 -1.3083  0.3283 -0.5062
 1816SOL    HW216911   4.431   4.329   1.526  1.6074  0.2864 -0.4782
 1817SOL     OW16912   1.170   1.452   3.071 -0.6783  0.4635  0.0782
 1817SOL    HW116913   1.086   1.444   3.115 -0.5399 -0.8185  0.1262
 1817SOL    HW216914   1.163   1.508   2.994  2.2223 -0.7419 -1.0939
 1818SOL     OW16915   0.532   1.574   6.484 -0.2489  0.5262 -0.2978
 1818SOL    HW116916   0.596   1.645   6.480 -0.6684  0.8654 -0.9520
 1818SOL    HW216917   0.528   1.528   6.400  1.6992  1.9280 -1.1381
 1819SOL     OW16918   1.206   2.426   1.462  0.6136 -0.6260  0.2967
 1819SOL    HW116919   1.150   2.465   1.395  1.1150  0.2975  0.4083
 1819SOL    HW216920   1.144   2.433   1.535  0.3222 -0.4387  0.0287
 1820SOL     OW16921   3.078   3.066  13.551 -0.1928  0.1978  0.1224
 1820SOL    HW116922   3.109   2.992  13.499  0.8062 -0.1791  1.2501
 1820SOL    HW216923   2.992   3.031  13.575  0.5875 -1.6579  0.1527
 1821SOL     OW16924   2.612   2.119   4.918 -0.1583 -0.2168  0.2122
 1821SOL    HW116925   2.522   2.149   4.917  0.0944  0.5193 -2.0850
 1821SOL    HW216926   2.619   2.044   4.858 -2.1872  0.6042 -1.0162
 1822SOL     OW16927   3.236   4.183   5.797  0.4506  0.3219 -0.3020
 1822SOL    HW116928   3.295   4.255   5.820  0.6113  0.6254 -1.6738
 1822SOL    HW216929   3.241   4.126   5.874 -1.5484 -0.8482 -1.0551
 1823SOL     OW16930   1.122   1.413  16.554 -0.3952  0.6265  0.3856
 1823SOL    HW116931   1.141   1.445  16.642 -2.4848  1.3806  0.5643
 1823SOL    HW216932   1.096   1.491  16.505 -0.6987  0.6341  0.5607
 1824SOL     OW16933   4.261   4.335   2.987  0.8076 -0.2014  0.8193
 1824SOL    HW116934   4.194   4.383   3.035 -2.4471 -0.3228 -3.6033
 1824SOL    HW216935   4.224   4.325   2.899  0.8426 -0.9607  0.8891
 1825SOL     OW16936   0.130   3.907  10.343  0.6055 -0.1779 -0.0785
 1825SOL    HW116937   0.154   3.981  10.399  1.0934 -0.3263 -0.0914
 1825SOL    HW216938   0.074   3.849  10.395  0.2677 -0.8622 -1.2020
 1826SOL     OW16939   2.660   2.880  15.096 -0.4700 -0.1667  0.8868
 1826SOL    HW116940   2.724   2.904  15.028 -0.8564 -0.8182  0.2849
 1826SOL    HW216941   2.663   2.785  15.082 -2.2145  0.1425 -1.7365
 1827SOL     OW16942   3.445   2.988   8.289  0.5860  0.0809  0.8041
 1827SOL    HW116943   3.428   2.897   8.312  0.7584 -0.4743 -1.3284
 1827SOL    HW216944   3.472   3.026   8.373  0.0323  1.6871  0.2620
 1828SOL     OW16945   1.532   1.092  15.287  0.0458  0.5197  0.1352
 1828SOL    HW116946   1.544   1.008  15.242 -0.6532 -0.7752  2.3919
 1828SOL    HW216947   1.563   1.081  15.377 -2.9455  0.4158  1.1498
 1829SOL     OW16948   3.917   0.476  10.167 -0.3558 -1.4247  0.1712
 1829SOL    HW116949   3.923   0.492  10.073  0.8561  4.4003  1.2316
 1829SOL    HW216950   3.953   0.560  10.195 -2.0321 -0.7776  0.4218
 1830SOL     OW16951   2.498   0.089  16.489 -0.0498 -0.5179  0.5261
 1830SOL    HW116952   2.425   0.110  16.547  0.9043 -0.6967  1.7912
 1830SOL    HW216953   2.555   0.165  16.499 -2.2201  0.8706  2.4349
 1831SOL     OW16954   3.070   2.334   4.288  0.1239 -0.1258 -0.0531
 1831SOL    HW116955   3.136   2.403   4.293 -0.7291  0.7690 -0.9345
 1831SOL    HW216956   3.063   2.323   4.193 -1.7159 -2.0144  0.2920
 1832SOL     OW16957   2.882   1.298  15.039  0.4026 -0.3289  0.0998
 1832SOL    HW116958   2.829   1.219  15.053 -1.2595  0.6885 -0.4637
 1832SOL    HW216959   2.969   1.261  15.024  0.6868 -0.2284  1.5364
 1833SOL     OW16960   3.352   1.274   8.141 -0.3949 -0.3680  0.4253
 1833SOL    HW116961   3.289   1.303   8.207  0.5625 -0.5228  1.4063
 1833SOL    HW216962   3.401   1.354   8.124  0.6688 -1.5596 -2.0626
 1834SOL     OW16963   3.519   0.062   9.881  0.2263 -0.1810 -0.6579
 1834SOL    HW116964   3.497   0.072   9.973  0.3721  0.2614 -0.6716
 1834SOL    HW216965   3.468   0.134   9.846  2.1680  1.3172 -0.4373
 1835SOL     OW16966   3.742   2.376   5.574 -0.3294 -0.3291  0.2462
 1835SOL    HW116967   3.816   2.354   5.629 -0.1865 -1.1463 -0.2768
 1835SOL    HW216968   3.771   2.462   5.543 -0.0910  0.3130  2.2565
 1836SOL     OW16969   0.014   4.042   7.459 -0.3898 -0.1857 -0.0177
 1836SOL    HW116970   0.009   4.080   7.371  0.5171  0.0092  0.0228
 1836SOL    HW216971   4.657   4.075   7.496 -1.1210 -0.8975 -1.0085
 1837SOL     OW16972   2.520   2.697   2.019 -0.0504  0.1312  0.1609
 1837SOL    HW116973   2.570   2.733   1.945  0.9996  0.2293  0.9173
 1837SOL    HW216974   2.447   2.671   1.962 -0.6781  2.1837  0.0419
 1838SOL     OW16975   2.800   3.866  15.793 -0.2298 -0.1729 -0.0782
 1838SOL    HW116976   2.721   3.847  15.843 -1.0875 -1.1947 -1.8053
 1838SOL    HW216977   2.760   3.905  15.715  0.9674  0.7245 -0.2318
 1839SOL     OW16978   3.151   4.022  12.788 -0.3620  0.3535 -0.5782
 1839SOL    HW116979   3.245   4.033  12.801  0.0372 -1.3599 -2.0113
 1839SOL    HW216980   3.120   4.111  12.771  0.9686  0.5983 -1.6760
 1840SOL     OW16981   2.942   1.226  12.908 -0.1458  0.2507 -0.4167
 1840SOL    HW116982   2.988   1.301  12.946  1.9688 -2.0231  1.5054
 1840SOL    HW216983   2.881   1.274  12.851  1.4257  0.5662 -1.8357
 1841SOL     OW16984   4.446   2.074   7.133  0.0382 -0.1733 -0.3402
 1841SOL    HW116985   4.503   2.017   7.081 -1.9711 -1.2522 -1.3940
 1841SOL    HW216986   4.364   2.031   7.110  0.3694 -0.8688 -0.2202
 1842SOL     OW16987   4.623   4.319   2.804  0.3516 -0.5889  0.3628
 1842SOL    HW116988   4.567   4.394   2.824 -0.1503 -0.9175  0.2104
 1842SOL    HW216989   4.604   4.271   2.885  0.1018  1.8911  1.7578
 1843SOL     OW16990   3.051   3.362   6.662 -0.0386  0.5441  0.2700
 1843SOL    HW116991   3.141   3.337   6.684  0.1034 -0.3465 -1.3078
 1843SOL    HW216992   3.004   3.282   6.685  2.2067 -0.2690  1.9340
 1844SOL     OW16993   3.209   1.599   5.837 -0.0455 -0.0483  0.0909
 1844SOL    HW116994   3.294   1.635   5.814  0.9475 -2.0352  0.6993
 1844SOL    HW216995   3.160   1.639   5.764  0.2582 -0.2939 -0.2483
 1845SOL     OW16996   3.161   0.925   5.371 -0.5711 -0.0900  0.1117
 1845SOL    HW116997   3.147   0.923   5.276 -0.6496 -0.7884  0.1377
 1845SOL    HW216998   3.248   0.887   5.378 -0.5379 -0.4616 -2.3050
 1846SOL     OW16999   1.511   3.938  12.163 -0.1838  0.0612  0.6028
 1846SOL    HW117000   1.584   3.886  12.130  0.2011  0.2155  1.1980
 1846SOL    HW217001   1.560   4.020  12.177  0.1891 -0.1140  0.3067
 1847SOL     OW17002   3.036   1.401   5.924 -0.3867 -0.7136  0.2829
 1847SOL    HW117003   3.083   1.479   5.894 -0.0964 -0.2300  2.0089
 1847SOL    HW217004   2.986   1.439   5.996 -0.4182 -0.9316  0.3779
 1848SOL     OW17005   0.004   1.258   7.867 -0.4785  0.4249  0.6128
 1848SOL    HW117006   0.057   1.216   7.800 -0.0650  0.4108  0.9450
 1848SOL    HW217007   4.668   1.188   7.884 -0.5693  0.0560 -1.2835
 1849SOL     OW17008   2.443   0.262   3.031 -0.6693 -0.2703  0.4058
 1849SOL    HW117009   2.434   0.177   2.989 -2.5315  0.0545  0.1605
 1849SOL    HW217010   2.417   0.322   2.961 -1.3205 -0.4656  0.4862
 1850SOL     OW17011   0.879   1.345   3.034  0.6996  0.5595  0.1629
 1850SOL    HW117012   0.833   1.356   3.117  0.3774 -1.9447  0.3094
 1850SOL    HW217013   0.806   1.306   2.985 -0.4520  1.3299  1.2435
 1851SOL     OW17014   2.271   3.183   7.168  0.2657  0.4499  0.5316
 1851SOL    HW117015   2.281   3.088   7.170  0.9513  0.5109  0.2594
 1851SOL    HW217016   2.194   3.187   7.112  0.9701 -2.6591 -0.6754
 1852SOL     OW17017   0.529   4.193   5.347 -0.3925 -0.1588  0.0769
 1852SOL    HW117018   0.448   4.153   5.379  0.0337 -1.5157 -0.5254
 1852SOL    HW217019   0.600   4.129   5.356  0.1421  0.0127 -2.8050
 1853SOL     OW17020   2.172   0.711   4.822  0.3773  0.7935  0.3542
 1853SOL    HW117021   2.120   0.650   4.875 -2.1195  2.3472 -0.3209
 1853SOL    HW217022   2.261   0.679   4.837 -0.7332 -1.5774  1.7925
 1854SOL     OW17023   4.613   1.214   0.395  0.4623  0.1490  0.0033
 1854SOL    HW117024   4.576   1.246   0.477 -0.7671 -0.9675 -0.0979
 1854SOL    HW217025   4.665   1.289   0.368  0.6284  0.0161 -0.0463
 1855SOL     OW17026   1.348   2.639  12.249 -0.0219  0.6416 -0.5516
 1855SOL    HW117027   1.397   2.673  12.324 -1.4614  0.6908  0.3759
 1855SOL    HW217028   1.279   2.590  12.293  2.2456  0.6541  3.0333
 1856SOL     OW17029   0.949   2.406   3.454  0.4677 -0.0883  0.6931
 1856SOL    HW117030   0.950   2.327   3.400  0.8115  0.1581  0.3403
 1856SOL    HW217031   1.029   2.452   3.428  1.7508 -1.4721  2.1310
 1857SOL     OW17032   4.708   0.964  17.172 -0.3540  0.7942  0.2985
 1857SOL    HW117033   0.038   1.016  17.114 -1.3224  2.9099  1.2807
 1857SOL    HW217034   4.627   0.944  17.124 -1.9574  1.7014  2.6296
 1858SOL     OW17035   1.236   1.013  13.041  0.2875  0.6524 -0.4293
 1858SOL    HW117036   1.237   0.918  13.029 -0.9967  0.6940 -0.9617
 1858SOL    HW217037   1.150   1.017  13.084 -0.3127  0.4986 -1.6042
 1859SOL     OW17038   3.243   2.769   7.982 -0.3682 -0.2401 -0.1595
 1859SOL    HW117039   3.280   2.700   8.037 -0.3207  0.9864  1.3420
 1859SOL    HW217040   3.297   2.846   7.998  1.0482 -1.3363  0.2902
 1860SOL     OW17041   4.096   1.404   7.274 -0.0356  0.3429 -0.1708
 1860SOL    HW117042   4.137   1.416   7.360 -0.7147 -0.1629  0.2214
 1860SOL    HW217043   4.027   1.469   7.286  2.5953  3.3107 -1.0112
 1861SOL     OW17044   3.838   0.272  10.454 -0.0753  0.2032  0.1312
 1861SOL    HW117045   3.820   0.282  10.361  0.0375 -2.1770 -0.1393
 1861SOL    HW217046   3.757   0.232  10.485  0.2429 -0.6106 -0.0923
 1862SOL     OW17047   2.804   0.184  11.207 -0.1784 -0.3562 -0.4588
 1862SOL    HW117048   2.819   0.232  11.288  0.4679  0.7289 -1.2173
 1862SOL    HW217049   2.861   0.108  11.216 -0.2742 -0.4135 -0.3380
 1863SOL     OW17050   0.913   0.023  17.055 -0.1173 -0.3471  0.1702
 1863SOL    HW117051   0.844   4.684  17.073  0.3732 -0.4857  1.5426
 1863SOL    HW217052   0.952   4.715  16.975  0.6754 -1.6869  1.1386
 1864SOL     OW17053   1.458   0.356   5.512  0.1399 -0.5342 -0.2045
 1864SOL    HW117054   1.517   0.299   5.562  1.5034  0.9157 -0.1726
 1864SOL    HW217055   1.488   0.444   5.533  0.4559 -0.8323  0.6320
 1865SOL     OW17056   3.023   2.463   8.531 -0.2476  0.1440 -0.1385
 1865SOL    HW117057   3.041   2.518   8.454 -0.8170  0.4705 -0.0360
 1865SOL    HW217058   3.023   2.535   8.593 -1.1426 -0.0950  0.1423
 1866SOL     OW17059   0.599   3.570   5.382  0.2128 -0.2945  0.4104
 1866SOL    HW117060   0.532   3.561   5.314  0.4862 -0.8801  0.2165
 1866SOL    HW217061   0.655   3.637   5.342  0.2832 -0.5439  0.0920
 1867SOL     OW17062   1.961   1.986   9.084 -0.5308  0.0702 -0.4162
 1867SOL    HW117063   1.989   1.923   9.151  1.6224  1.2614 -0.1768
 1867SOL    HW217064   1.933   2.067   9.128  2.3548 -0.4418  2.4630
 1868SOL     OW17065   3.266   3.074  17.669 -0.0899 -0.0407  0.4143
 1868SOL    HW117066   3.278   3.168  17.653  1.7637 -1.0432 -4.0194
 1868SOL    HW217067   3.202   3.079   0.036  0.9738  0.3115  1.3483
 1869SOL     OW17068   4.174   1.682   4.044  0.0957  0.4718 -0.0798
 1869SOL    HW117069   4.201   1.712   4.130 -1.3487  0.6234  0.3251
 1869SOL    HW217070   4.148   1.590   4.051  0.1133  0.5713  1.1521
 1870SOL     OW17071   3.367   1.738  14.066 -0.1328 -0.3047  0.1501
 1870SOL    HW117072   3.442   1.679  14.079  0.5740  0.0638 -2.0728
 1870SOL    HW217073   3.384   1.779  13.980 -0.7268 -0.5543 -0.0863
 1871SOL     OW17074   2.870   2.060   5.730 -0.1808 -0.6315 -0.1385
 1871SOL    HW117075   2.851   2.093   5.642 -0.1466  0.7525  0.3806
 1871SOL    HW217076   2.792   2.074   5.784 -0.3809 -0.4797 -0.4672
 1872SOL     OW17077   0.804   0.505   4.392  0.7171 -0.3222 -0.1655
 1872SOL    HW117078   0.732   0.444   4.411  0.6998  0.4708  2.3499
 1872SOL    HW217079   0.856   0.489   4.470 -0.4961  1.6169  1.0542
 1873SOL     OW17080   0.123   3.713   8.097  0.3368  0.0692  0.1777
 1873SOL    HW117081   0.146   3.689   8.187  0.2802 -1.3275 -0.1751
 1873SOL    HW217082   0.174   3.792   8.081  1.3322 -0.3829  1.0967
 1874SOL     OW17083   2.829   1.313   8.922  0.2416 -0.4975  0.2208
 1874SOL    HW117084   2.907   1.319   8.977 -0.6859  1.3438  1.3251
 1874SOL    HW217085   2.797   1.403   8.927 -0.6391 -0.7212 -1.4183
 1875SOL     OW17086   2.510   0.242  15.958 -0.1789 -0.1645  0.8614
 1875SOL    HW117087   2.518   0.308  15.889 -2.0114 -1.3778 -0.4980
 1875SOL    HW217088   2.445   0.184  15.919 -2.8018  1.3533  2.9653
 1876SOL     OW17089   3.066   4.201   5.587  0.1423  0.1539 -0.1330
 1876SOL    HW117090   3.150   4.181   5.629 -0.0915  1.4248  0.9553
 1876SOL    HW217091   3.024   4.115   5.586 -0.0343  0.2381  0.4839
 1877SOL     OW17092   2.776   2.731   8.503 -0.0726 -0.4866  0.0437
 1877SOL    HW117093   2.870   2.735   8.488 -0.6871  1.2333 -3.2398
 1877SOL    HW217094   2.744   2.751   8.415  1.9989 -1.3388 -0.8916
 1878SOL     OW17095   0.053   4.110   6.489  0.3779  0.2236 -0.4417
 1878SOL    HW117096   4.698   4.141   6.531  2.0424  1.3418  1.9858
 1878SOL    HW217097   0.111   4.088   6.562  1.0184  0.2929 -0.9304
 1879SOL     OW17098   1.021   3.641   2.620  0.4841 -0.3811  1.1450
 1879SOL    HW117099   1.057   3.701   2.685  0.9035  0.3012  0.2806
 1879SOL    HW217100   1.085   3.570   2.611  1.0811  0.2913  0.0480
 1880SOL     OW17101   1.898   3.366   0.926 -0.0669 -0.2253  0.3874
 1880SOL    HW117102   1.964   3.325   0.981  0.3864 -0.0029  0.0164
 1880SOL    HW217103   1.885   3.452   0.966 -0.3054 -0.4502  0.7902
 1881SOL     OW17104   2.943   3.529   2.939  0.0810  0.1165 -0.3205
 1881SOL    HW117105   3.004   3.602   2.928  1.4101 -1.2962 -2.3834
 1881SOL    HW217106   2.965   3.476   2.863  0.9273 -0.2402  0.1839
 1882SOL     OW17107   4.034   2.886  10.974 -0.2386  0.4269  0.4875
 1882SOL    HW117108   4.025   2.835  11.054  1.4674  0.4524  0.6903
 1882SOL    HW217109   4.027   2.976  11.004  0.1600 -0.3944  3.0095
 1883SOL     OW17110   3.204   1.109   6.040  0.4019 -0.1354  0.4868
 1883SOL    HW117111   3.114   1.109   6.007  0.4551  0.0566  0.3432
 1883SOL    HW217112   3.213   1.013   6.045  2.3168  0.1035  1.4110
 1884SOL     OW17113   3.238   1.883   2.414 -0.3695  0.3639  0.0898
 1884SOL    HW117114   3.271   1.955   2.360 -1.9133  0.4555 -0.7156
 1884SOL    HW217115   3.170   1.850   2.354  0.5223 -1.2130 -0.0684
 1885SOL     OW17116   0.839   2.460   4.966  0.6717 -0.0197 -0.1658
 1885SOL    HW117117   0.777   2.515   4.918  0.8237  0.2666 -0.0396
 1885SOL    HW217118   0.912   2.456   4.904 -1.0171  2.4279 -2.3016
 1886SOL     OW17119   3.551   1.040   7.331 -0.0882 -0.1338 -0.2681
 1886SOL    HW117120   3.631   1.091   7.316  0.1220 -0.7684 -1.3283
 1886SOL    HW217121   3.496   1.085   7.395 -2.4385 -0.7555 -1.8523
 1887SOL     OW17122   3.580   2.350   0.403  0.1059 -0.3347 -0.0059
 1887SOL    HW117123   3.547   2.309   0.482  0.0284  0.5515  0.4220
 1887SOL    HW217124   3.552   2.287   0.336 -0.2986  0.9019 -1.0180
 1888SOL     OW17125   1.915   2.544   1.863  0.3681 -0.7068 -0.7693
 1888SOL    HW117126   1.929   2.522   1.771 -0.3416  0.1273 -1.0682
 1888SOL    HW217127   1.995   2.507   1.901 -0.4816 -0.6841  1.0609
 1889SOL     OW17128   1.107   3.136   7.035 -0.1838 -0.7934  0.2537
 1889SOL    HW117129   1.145   3.201   7.094 -1.5945  0.5474 -0.3093
 1889SOL    HW217130   1.171   3.065   7.036  1.7177  0.8459 -1.3579
 1890SOL     OW17131   2.026   2.776   9.420  0.3083  0.4232 -0.1704
 1890SOL    HW117132   1.943   2.820   9.439 -0.0834 -0.9744  1.3112
 1890SOL    HW217133   2.046   2.739   9.506 -0.0526  2.0540  0.6246
 1891SOL     OW17134   2.221   2.346  12.474 -0.0595  0.4780 -0.1337
 1891SOL    HW117135   2.240   2.379  12.562  2.4877  3.6660 -1.8952
 1891SOL    HW217136   2.210   2.427  12.424 -1.0964  1.2516  1.3401
 1892SOL     OW17137   1.761   3.578  10.547  0.6819 -0.3175 -0.2654
 1892SOL    HW117138   1.671   3.608  10.561  2.0614  2.8926  1.7127
 1892SOL    HW217139   1.750   3.492  10.507  0.8288 -0.8496  0.8570
 1893SOL     OW17140   3.402   0.114  14.257  0.2496 -0.1461 -0.1756
 1893SOL    HW117141   3.374   0.206  14.250 -1.1045 -0.4825  0.6639
 1893SOL    HW217142   3.381   0.083  14.169  0.4675  0.2643 -0.3725
 1894SOL     OW17143   1.942   2.512  15.837 -0.3629  0.2621 -0.4942
 1894SOL    HW117144   1.948   2.487  15.745  0.3769  1.1850 -0.6985
 1894SOL    HW217145   2.029   2.488  15.869  0.9347 -0.4070 -4.5798
 1895SOL     OW17146   1.436   2.142   3.415  0.2614  0.3060  0.1648
 1895SOL    HW117147   1.473   2.140   3.327 -0.7723  2.4910 -0.3219
 1895SOL    HW217148   1.346   2.110   3.402  0.7175 -0.3590 -1.3583
 1896SOL     OW17149   3.795   1.805  17.620  0.2096 -0.0974  0.1467
 1896SOL    HW117150   3.704   1.834  17.633 -0.0990 -1.8098  1.9431
 1896SOL    HW217151   3.774   1.746  17.547 -0.8084 -0.8932  1.0695
 1897SOL     OW17152   2.223   2.801   7.429  0.2968  0.1764 -0.7694
 1897SOL    HW117153   2.298   2.844   7.470 -0.9045  1.4724  0.0619
 1897SOL    HW217154   2.232   2.843   7.344 -3.1992  1.3190 -0.5870
 1898SOL     OW17155   1.320   4.517   7.000 -0.3832  0.4691 -0.2127
 1898SOL    HW117156   1.306   4.608   7.026  0.7523  0.4276  0.5411
 1898SOL    HW217157   1.245   4.474   7.043 -0.0963 -1.2148 -1.4090
 1899SOL     OW17158   2.718   3.523   1.731  0.6208 -0.2123  0.7338
 1899SOL    HW117159   2.625   3.501   1.731  0.8355 -0.9927 -2.9056
 1899SOL    HW217160   2.720   3.584   1.658  2.1913 -0.5213  0.5077
 1900SOL     OW17161   2.167   4.294   8.468  0.4284 -0.0057 -0.8666
 1900SOL    HW117162   2.232   4.237   8.508  1.2429  1.4249 -0.1389
 1900SOL    HW217163   2.092   4.234   8.465  0.2870  0.1151  0.0684
 1901SOL     OW17164   4.335   1.225   6.189 -0.1381 -0.0016 -0.0894
 1901SOL    HW117165   4.307   1.240   6.099  1.3099  0.3255 -0.4854
 1901SOL    HW217166   4.394   1.149   6.189  0.4824  0.4756  0.6834
 1902SOL     OW17167   4.188   0.739  10.750 -0.0284  0.1149  0.2713
 1902SOL    HW117168   4.155   0.663  10.798  3.9335 -1.4324  0.5859
 1902SOL    HW217169   4.281   0.742  10.772  0.2336  1.7101 -0.9841
 1903SOL     OW17170   1.324   0.372  12.561 -0.1204  0.1474  0.1321
 1903SOL    HW117171   1.333   0.414  12.647  0.6243 -1.3187  0.7963
 1903SOL    HW217172   1.415   0.353  12.536  0.0004 -0.9427  1.3873
 1904SOL     OW17173   3.394   0.582   4.417  0.2833  0.3032 -0.9537
 1904SOL    HW117174   3.416   0.558   4.327 -0.5314 -3.1281 -0.2378
 1904SOL    HW217175   3.475   0.545   4.453 -0.3741  0.7104  0.9111
 1905SOL     OW17176   2.877   2.216   6.989  0.1782  0.4148  0.1905
 1905SOL    HW117177   2.873   2.276   7.063  1.5260 -1.2582  1.6230
 1905SOL    HW217178   2.848   2.139   7.037 -2.2247  0.2927 -1.4497
 1906SOL     OW17179   1.681   1.043   7.143 -0.2395  0.5862  0.1869
 1906SOL    HW117180   1.674   1.133   7.112  3.1472  1.5497  2.2501
 1906SOL    HW217181   1.618   1.051   7.215 -2.0146  1.4450 -1.4421
 1907SOL     OW17182   0.354   3.058   2.019  0.2621  0.0655  0.0954
 1907SOL    HW117183   0.376   3.140   2.062  1.8473 -0.6340  0.6399
 1907SOL    HW217184   0.274   3.080   1.971  0.7005 -0.3658 -0.8296
 1908SOL     OW17185   0.952   3.226   4.049 -0.2258  0.3297 -0.0271
 1908SOL    HW117186   1.015   3.240   3.978  0.8479  0.2751  0.9080
 1908SOL    HW217187   0.979   3.137   4.072  0.5561  0.5016 -0.2894
 1909SOL     OW17188   0.063   4.377   2.565  0.1737 -0.1378 -0.0675
 1909SOL    HW117189   0.010   4.363   2.644 -1.6603  0.3645 -1.2139
 1909SOL    HW217190   0.003   4.345   2.498  0.4485  1.6639 -1.1833
 1910SOL     OW17191   3.746   3.333   7.355 -0.2735 -0.0750 -0.3941
 1910SOL    HW117192   3.840   3.332   7.333 -0.3098 -1.4391 -0.4894
 1910SOL    HW217193   3.731   3.245   7.387  3.0258 -0.4438  0.1837
 1911SOL     OW17194   3.301   2.464   3.375  0.1673  0.6377  0.4145
 1911SOL    HW117195   3.362   2.533   3.403  2.2895 -1.4380  0.9393
 1911SOL    HW217196   3.225   2.521   3.375 -0.7131 -0.5280  0.9060
 1912SOL     OW17197   0.580   0.942   0.225 -0.2044  0.1143 -0.1151
 1912SOL    HW117198   0.649   1.007   0.210 -0.4673  0.8050  1.6530
 1912SOL    HW217199   0.523   0.964   0.152 -1.2983  0.5456  0.8603
 1913SOL     OW17200   4.393   3.522   5.164 -0.2272 -0.1792 -0.5701
 1913SOL    HW117201   4.440   3.541   5.245 -1.1728 -1.7473  0.3460
 1913SOL    HW217202   4.385   3.427   5.169  0.5959 -0.1242  2.2715
 1914SOL     OW17203   1.032   2.491   9.099  0.1310  0.1178  0.0714
 1914SOL    HW117204   1.103   2.504   9.161  1.6514  1.7177 -1.9883
 1914SOL    HW217205   1.089   2.484   9.023  0.4138  1.2343  0.1738
 1915SOL     OW17206   3.320   4.247   3.646  0.5545  0.6003  0.0118
 1915SOL    HW117207   3.245   4.188   3.655  1.3264 -0.7876 -2.7193
 1915SOL    HW217208   3.298   4.287   3.561  1.8497  0.8515 -0.2013
 1916SOL     OW17209   3.569   4.619   5.255 -0.0156 -0.7171 -0.3262
 1916SOL    HW117210   3.635   4.651   5.316  0.6619  0.3197 -1.6052
 1916SOL    HW217211   3.598   4.669   5.179  0.2729 -0.3049  0.0573
 1917SOL     OW17212   2.298   2.260   7.130 -0.4838  0.2171  0.4972
 1917SOL    HW117213   2.367   2.267   7.065 -1.8289  1.1041 -0.8370
 1917SOL    HW217214   2.222   2.276   7.073 -0.8866 -1.0744  0.6664
 1918SOL     OW17215   0.331   0.756   5.553 -0.1939  0.0219  0.3330
 1918SOL    HW117216   0.395   0.755   5.481 -0.8368  3.0448 -0.2624
 1918SOL    HW217217   0.376   0.701   5.618  2.9280  1.0262 -0.9538
 1919SOL     OW17218   1.506   0.054  15.658 -0.3363  0.3731 -0.5774
 1919SOL    HW117219   1.437   0.120  15.663  0.5253  1.2816 -0.6781
 1919SOL    HW217220   1.512   0.042  15.563 -2.6701 -1.1654 -0.5304
 1920SOL     OW17221   0.870   1.281   4.545 -0.3958  0.0439 -0.6088
 1920SOL    HW117222   0.931   1.306   4.615 -1.3254 -1.7435  0.8332
 1920SOL    HW217223   0.789   1.297   4.593  1.2452 -1.2469  2.6381
 1921SOL     OW17224   1.697   0.602  10.586 -0.3557 -0.2131  0.0618
 1921SOL    HW117225   1.678   0.636  10.498  0.4545  1.8978  0.7080
 1921SOL    HW217226   1.780   0.557  10.570 -0.0907  0.0985  0.5711
 1922SOL     OW17227   2.802   4.193   3.506  0.2496 -0.5270  0.0243
 1922SOL    HW117228   2.809   4.099   3.526  2.7431 -0.4641 -0.5963
 1922SOL    HW217229   2.757   4.237   3.578 -0.8092 -3.6940  1.3030
 1923SOL     OW17230   2.230   0.530   9.868  0.3438 -0.2610 -0.2588
 1923SOL    HW117231   2.154   0.536   9.809 -0.0128  0.0912  0.2353
 1923SOL    HW217232   2.185   0.514   9.951 -0.1144  0.2025 -0.4175
 1924SOL     OW17233   1.182   0.552  16.732  0.1086 -0.6851 -0.0055
 1924SOL    HW117234   1.265   0.542  16.685 -0.6876  2.5717 -2.1241
 1924SOL    HW217235   1.153   0.640  16.709  3.1929  1.0827  2.8434
 1925SOL     OW17236   4.309   0.053   8.689  0.2070  0.7796 -0.6314
 1925SOL    HW117237   4.352   4.697   8.667 -0.4071  0.2118  0.2994
 1925SOL    HW217238   4.348   0.071   8.774  0.7712 -1.9708 -0.3292
 1926SOL     OW17239   0.752   3.166   8.200  0.3546  0.3698 -0.2784
 1926SOL    HW117240   0.659   3.143   8.200  0.4597 -0.0563 -0.4376
 1926SOL    HW217241   0.775   3.147   8.109 -3.7474  0.8332 -1.4343
 1927SOL     OW17242   0.385   2.463   6.393 -0.2294  1.1389 -0.8849
 1927SOL    HW117243   0.431   2.387   6.427  1.0934  2.1952 -0.3125
 1927SOL    HW217244   0.393   2.526   6.464  2.4174 -0.5443  0.2842
 1928SOL     OW17245   3.493   4.452   4.779 -0.3659 -0.0820  0.1118
 1928SOL    HW117246   3.422   4.505   4.815 -0.3834 -0.5784  0.8025
 1928SOL    HW217247   3.438   4.398   4.722  0.4351  0.5998 -1.3199
 1929SOL     OW17248   0.813   1.845   1.319 -0.1763  0.3750 -0.4222
 1929SOL    HW117249   0.837   1.921   1.371  0.7081  0.7855 -1.4303
 1929SOL    HW217250   0.858   1.779   1.371 -1.6977  0.6032  1.1822
 1930SOL     OW17251   1.802   2.469   4.288  0.4463 -0.7064  0.3323
 1930SOL    HW117252   1.781   2.459   4.195 -1.2657  1.8353  0.4419
 1930SOL    HW217253   1.866   2.399   4.294  0.5502 -0.4906  1.5984
 1931SOL     OW17254   0.078   0.857  10.421  0.0508 -0.1054  0.0155
 1931SOL    HW117255   0.006   0.811  10.464  1.0166 -1.1985  0.4612
 1931SOL    HW217256   0.056   0.950  10.424  0.2047 -0.1293  1.5817
 1932SOL     OW17257   0.960   4.720   3.568  0.6952  0.5913 -0.1833
 1932SOL    HW117258   0.927   0.024   3.483  2.0985  1.6689 -0.3498
 1932SOL    HW217259   1.052   4.705   3.543  0.8415 -1.2496  1.4388
 1933SOL     OW17260   4.599   4.717   7.674 -0.1179  0.5201  0.6142
 1933SOL    HW117261   4.545   0.018   7.748  1.2124  1.7458  1.1396
 1933SOL    HW217262   4.680   0.038   7.693  0.7588 -0.6397 -0.2331
 1934SOL     OW17263   0.733   3.618  12.121  0.1715 -0.0095  0.1180
 1934SOL    HW117264   0.716   3.593  12.212  0.3325 -0.3592  0.0503
 1934SOL    HW217265   0.815   3.666  12.130  1.4058 -2.2347  0.7608
 1935SOL     OW17266   2.805   0.227  10.904 -0.7698  0.1830  0.3543
 1935SOL    HW117267   2.748   0.153  10.883  0.6094 -0.5320 -0.8299
 1935SOL    HW217268   2.884   0.192  10.944 -0.0706  2.3482  0.8894
 1936SOL     OW17269   0.752   0.648   0.583  0.8480  0.1915 -0.5625
 1936SOL    HW117270   0.725   0.647   0.491  1.1383  0.5743 -0.6548
 1936SOL    HW217271   0.799   0.731   0.585  1.5271 -0.1973 -0.3252
 1937SOL     OW17272   0.634   1.870   5.717  0.6893 -0.3125 -0.0365
 1937SOL    HW117273   0.706   1.870   5.781 -0.0431  2.2504  0.7768
 1937SOL    HW217274   0.587   1.951   5.735 -1.9194 -1.4962 -1.4643
 1938SOL     OW17275   1.552   3.861   4.675 -0.3511  0.6143  0.5511
 1938SOL    HW117276   1.479   3.908   4.715 -0.8938 -1.4871  2.0437
 1938SOL    HW217277   1.622   3.924   4.696 -0.9736  1.4035  0.2686
 1939SOL     OW17278   1.249   0.419   7.364  0.2563  0.2524 -0.3131
 1939SOL    HW117279   1.313   0.371   7.311 -0.5037 -1.1165  0.0188
 1939SOL    HW217280   1.291   0.422   7.450  1.8697  1.9039 -1.1579
 1940SOL     OW17281   0.622   3.373  10.285  0.2476  0.0410 -0.3617
 1940SOL    HW117282   0.551   3.373  10.349  2.3399 -2.9752  1.8916
 1940SOL    HW217283   0.580   3.302  10.237 -1.0117  0.8426 -0.4609
 1941SOL     OW17284   1.926   3.733   7.094 -0.5007 -0.0854  0.1394
 1941SOL    HW117285   1.996   3.783   7.053 -0.4857  0.5360  0.9406
 1941SOL    HW217286   1.951   3.640   7.096  2.2914  0.6819  0.5343
 1942SOL     OW17287   1.035   2.041   5.029  0.0343 -0.2687 -0.3009
 1942SOL    HW117288   1.048   2.097   5.105  1.1501 -1.0144  0.0474
 1942SOL    HW217289   1.122   2.023   4.993 -0.5422 -0.6421 -1.5427
 1943SOL     OW17290   2.839   3.476   4.580  0.4012 -0.2462 -0.2053
 1943SOL    HW117291   2.934   3.485   4.578  0.5582 -1.4887  1.1260
 1943SOL    HW217292   2.823   3.409   4.514  0.4347  0.4351 -0.8958
 1944SOL     OW17293   0.554   4.356   8.038  0.0129 -0.0968 -0.1537
 1944SOL    HW117294   0.491   4.338   7.969 -2.2398  0.3338  1.7954
 1944SOL    HW217295   0.618   4.288   8.014  1.6047 -0.1128  4.0492
 1945SOL     OW17296   0.183   2.744  13.540  0.1004  0.4242 -0.5701
 1945SOL    HW117297   0.184   2.697  13.457  0.6713 -2.0379  0.8291
 1945SOL    HW217298   0.250   2.808  13.517 -0.7932  0.2516 -3.6461
 1946SOL     OW17299   1.632   2.302  11.177 -0.0892 -0.5324  0.3273
 1946SOL    HW117300   1.546   2.317  11.137  1.2541  2.9115 -1.3053
 1946SOL    HW217301   1.668   2.239  11.115  0.5785 -1.7057  1.9148
 1947SOL     OW17302   1.716   2.891   9.328  0.0181  0.1152  0.2580
 1947SOL    HW117303   1.700   2.807   9.286 -2.0706 -0.1223  1.5210
 1947SOL    HW217304   1.630   2.898   9.370  0.1690 -0.5069  0.6612
 1948SOL     OW17305   2.818   1.784   5.075 -0.0478 -0.4187  0.5627
 1948SOL    HW117306   2.817   1.695   5.108  0.4357 -1.0657 -1.1592
 1948SOL    HW217307   2.734   1.819   5.106  0.1162 -0.8142  1.4626
 1949SOL     OW17308   3.222   2.859   3.553 -0.1313 -0.3451 -0.3465
 1949SOL    HW117309   3.295   2.799   3.540  0.1909 -0.2199  0.9151
 1949SOL    HW217310   3.201   2.875   3.461  0.2853  1.3485 -0.1430
 1950SOL     OW17311   1.655   3.386  11.397 -0.6148 -0.2280  0.3812
 1950SOL    HW117312   1.718   3.457  11.379 -1.4084  0.7704  1.5470
 1950SOL    HW217313   1.671   3.337  11.317  0.0363 -0.2920  0.5469
 1951SOL     OW17314   3.985   2.073  14.528  0.2099  0.5319 -0.2088
 1951SOL    HW117315   3.952   2.100  14.442 -1.0063 -3.5072 -1.0048
 1951SOL    HW217316   3.991   1.978  14.521  1.2739  0.6211 -0.4975
 1952SOL     OW17317   2.090   2.054   3.028  0.5776 -0.3346  0.3447
 1952SOL    HW117318   2.060   1.984   2.971  1.1181 -0.9218  0.7813
 1952SOL    HW217319   2.036   2.130   3.006 -0.1812 -1.4551 -1.6530
 1953SOL     OW17320   0.610   1.906   8.567 -0.2696 -0.3136  0.1598
 1953SOL    HW117321   0.563   1.884   8.648 -2.2232  0.7546 -0.6796
 1953SOL    HW217322   0.694   1.863   8.580 -0.8137 -1.2980  0.4533
 1954SOL     OW17323   4.191   3.871   6.237  0.2009 -0.4736  0.2652
 1954SOL    HW117324   4.234   3.862   6.152  1.8088 -1.2259  1.1553
 1954SOL    HW217325   4.231   3.808   6.296 -1.1333 -0.1993  1.4372
 1955SOL     OW17326   3.683   1.135   3.470  0.4848 -0.4457 -0.7796
 1955SOL    HW117327   3.648   1.159   3.384  2.2513 -2.7505 -2.1602
 1955SOL    HW217328   3.690   1.039   3.472  0.2789 -0.4453  0.0009
 1956SOL     OW17329   0.520   1.343   5.105  0.3585 -0.4146 -0.0915
 1956SOL    HW117330   0.457   1.382   5.044 -2.0048  1.5497  3.5947
 1956SOL    HW217331   0.522   1.408   5.176  2.9668 -1.3542  0.7137
 1957SOL     OW17332   1.064   2.718   7.586  0.0121  0.0384 -0.1054
 1957SOL    HW117333   1.057   2.757   7.673  0.0470 -2.5211  1.0506
 1957SOL    HW217334   1.047   2.800   7.539 -2.0463 -0.3750 -0.0747
 1958SOL     OW17335   2.236   2.390  16.870  0.0483  0.2125 -0.9375
 1958SOL    HW117336   2.204   2.432  16.790  0.0410 -0.8594 -1.4966
 1958SOL    HW217337   2.237   2.467  16.926 -1.2502 -1.0211  0.8081
 1959SOL     OW17338   1.390   2.995   5.090 -0.3039  0.2892 -0.4179
 1959SOL    HW117339   1.401   2.980   4.996  2.2986 -1.3092  0.1356
 1959SOL    HW217340   1.325   3.065   5.090  1.6512  2.0917  1.0856
 1960SOL     OW17341   1.773   4.664  17.449  0.4130  0.0953 -0.1858
 1960SOL    HW117342   1.679   4.650  17.444  0.5447 -0.3736 -1.2310
 1960SOL    HW217343   1.780   0.030  17.425  0.4198 -0.1475 -1.1261
 1961SOL     OW17344   3.425   2.895  10.948 -0.4592  0.4217 -0.3985
 1961SOL    HW117345   3.510   2.865  10.981 -0.7790  1.5285  1.4278
 1961SOL    HW217346   3.437   2.884  10.854  1.4335 -0.9250 -0.0138
 1962SOL     OW17347   1.488   1.070   4.001  0.7958  0.3448  0.5636
 1962SOL    HW117348   1.577   1.095   3.977  0.6257  0.9968  0.5927
 1962SOL    HW217349   1.472   1.023   3.920  2.3399 -1.1359  1.1203
 1963SOL     OW17350   0.422   0.545   2.752 -0.3716 -0.0734 -0.3457
 1963SOL    HW117351   0.412   0.453   2.726 -1.1071 -0.1491  0.1835
 1963SOL    HW217352   0.517   0.552   2.742  0.1316 -0.8289  3.5793
 1964SOL     OW17353   3.517   3.103  17.471  0.3404 -0.5836 -0.6747
 1964SOL    HW117354   3.483   3.070  17.554 -0.1207 -0.8498 -0.9691
 1964SOL    HW217355   3.443   3.139  17.423 -1.0935  0.5598  2.3787
 1965SOL     OW17356   3.038   2.303   6.773 -0.4058 -0.9213  0.1335
 1965SOL    HW117357   3.098   2.250   6.824  0.9879 -0.2768 -0.8370
 1965SOL    HW217358   3.100   2.373   6.751  0.2118 -1.5398 -0.0648
 1966SOL     OW17359   2.929   4.654  14.746 -0.0403  0.1329 -0.2376
 1966SOL    HW117360   2.987   4.716  14.791 -0.8541  1.5822 -1.1890
 1966SOL    HW217361   2.854   4.705  14.718 -0.4452 -0.0971  0.4262
 1967SOL     OW17362   2.472   2.758  14.577  0.1527  0.3396 -0.5746
 1967SOL    HW117363   2.525   2.762  14.656 -1.1525  1.1057  0.2735
 1967SOL    HW217364   2.487   2.673  14.536 -3.1622  0.9696 -3.1426
 1968SOL     OW17365   3.214   1.189  14.030 -0.4820  0.3242 -0.1579
 1968SOL    HW117366   3.309   1.186  14.019 -0.3444 -0.3909  1.2529
 1968SOL    HW217367   3.178   1.164  13.945 -2.9242  0.5214  0.8114
 1969SOL     OW17368   2.333   0.106   3.960  0.1553  0.1532 -0.2647
 1969SOL    HW117369   2.298   0.175   3.904 -0.8362  1.1112  1.5105
 1969SOL    HW217370   2.305   0.030   3.910  1.5706 -2.0154  2.2502
 1970SOL     OW17371   2.158   3.787   3.555 -0.0117  0.0024  0.1079
 1970SOL    HW117372   2.232   3.824   3.603  0.9478 -1.6053 -0.1066
 1970SOL    HW217373   2.192   3.796   3.466  1.0608  1.3858  0.6651
 1971SOL     OW17374   3.637   0.380   4.718 -0.5315 -0.1220  0.0920
 1971SOL    HW117375   3.661   0.401   4.628 -0.3366  2.5920  0.7650
 1971SOL    HW217376   3.644   0.470   4.751  1.1649 -0.0956 -0.3305
 1972SOL     OW17377   2.950   4.573   3.498 -0.1927 -0.5176  0.5017
 1972SOL    HW117378   3.007   4.525   3.558 -0.0226 -1.7707 -0.6795
 1972SOL    HW217379   2.988   4.549   3.413 -0.7999  1.8460 -0.4300
 1973SOL     OW17380   4.000   3.193  13.684  0.0561  0.0256  0.0714
 1973SOL    HW117381   4.078   3.246  13.702 -0.2316  0.1564  0.9416
 1973SOL    HW217382   4.031   3.137  13.613  1.3901 -0.3981  1.0097
 1974SOL     OW17383   2.521   4.303   4.921 -0.2854  0.5558 -0.0929
 1974SOL    HW117384   2.615   4.320   4.919 -0.2279  0.3801  1.2443
 1974SOL    HW217385   2.488   4.357   4.849  2.0469  1.5854 -0.3759
 1975SOL     OW17386   3.196   1.422  10.229 -0.6331 -0.2576 -0.2761
 1975SOL    HW117387   3.222   1.477  10.303 -0.5054 -0.0959 -0.4395
 1975SOL    HW217388   3.285   1.415  10.194  0.0701  2.0115  1.0012
 1976SOL     OW17389   3.535   1.904   9.775 -0.1093  0.2028 -0.4806
 1976SOL    HW117390   3.617   1.868   9.741  1.5821 -0.1887  3.9019
 1976SOL    HW217391   3.522   1.979   9.717 -0.6746  0.4034 -0.0991
 1977SOL     OW17392   2.852   3.172  10.403  0.4494  0.3838 -0.1213
 1977SOL    HW117393   2.853   3.179  10.308  1.2943 -0.4035 -0.1629
 1977SOL    HW217394   2.933   3.123  10.416  0.4857  0.5345  0.2238
 1978SOL     OW17395   1.432   2.251   6.490  0.2919 -0.1000  0.5701
 1978SOL    HW117396   1.343   2.276   6.515  0.7927  1.1235  1.1429
 1978SOL    HW217397   1.470   2.338   6.498 -0.0711  0.0556  0.5999
 1979SOL     OW17398   4.118   3.605   8.608 -0.2416  0.3153  0.0382
 1979SOL    HW117399   4.200   3.643   8.639  0.3394 -0.8719 -0.0553
 1979SOL    HW217400   4.065   3.612   8.687 -2.5322 -0.1907 -1.4653
 1980SOL     OW17401   2.736   2.354   6.554  0.4361 -0.1099 -0.2805
 1980SOL    HW117402   2.708   2.445   6.543  1.1282  0.1956  0.4901
 1980SOL    HW217403   2.664   2.307   6.511 -1.9085  2.1163  1.2399
 1981SOL     OW17404   3.141   0.848   2.066 -0.1328  0.1593  0.4408
 1981SOL    HW117405   3.134   0.868   1.972 -2.7368 -2.0345  0.1770
 1981SOL    HW217406   3.236   0.842   2.071 -0.1548  1.5377  2.4205
 1982SOL     OW17407   2.449   1.109   1.702 -0.6026 -0.4623  0.3056
 1982SOL    HW117408   2.523   1.066   1.745 -1.0798  2.6703  4.2147
 1982SOL    HW217409   2.420   1.161   1.777 -0.4398 -1.7957  1.2794
 1983SOL     OW17410   2.776   3.240   7.315  1.0837  0.0293 -0.3685
 1983SOL    HW117411   2.727   3.174   7.267 -1.2683  1.7919 -0.4180
 1983SOL    HW217412   2.788   3.199   7.401 -2.8111  1.7794  1.0065
 1984SOL     OW17413   4.134   2.952  10.321  0.3221  0.1084  0.5950
 1984SOL    HW117414   4.154   2.929  10.230  1.4336  2.3981  0.2668
 1984SOL    HW217415   4.191   2.891  10.369  0.1007  0.0184  0.7456
 1985SOL     OW17416   0.533   1.009   7.500  0.3975  0.2048  0.3086
 1985SOL    HW117417   0.461   0.950   7.477 -0.2196  0.5576  1.3111
 1985SOL    HW217418   0.517   1.072   7.431  0.6238  0.4914  0.5205
 1986SOL     OW17419   4.653   0.739   1.071 -0.5955 -0.4125  0.3889
 1986SOL    HW117420   4.634   0.716   1.162  1.9958 -2.7112  0.3376
 1986SOL    HW217421   4.569   0.765   1.033 -0.7736 -0.7763  0.5367
 1987SOL     OW17422   3.020   2.169   8.608 -0.0071 -0.3632 -0.1531
 1987SOL    HW117423   3.022   2.193   8.700  2.0620  0.8076 -0.4938
 1987SOL    HW217424   2.980   2.247   8.569  0.2834 -1.1910 -2.1395
 1988SOL     OW17425   3.729   1.144  17.292 -0.1421 -0.2431 -0.3274
 1988SOL    HW117426   3.818   1.111  17.302  1.6201  4.1333 -1.2566
 1988SOL    HW217427   3.680   1.097  17.358 -0.0184 -0.1932 -0.1998
 1989SOL     OW17428   1.519   2.170   8.148  0.2536 -0.7988  0.6061
 1989SOL    HW117429   1.528   2.094   8.205  1.5872 -1.7184 -0.8214
 1989SOL    HW217430   1.495   2.125   8.067  0.2838  0.5667 -0.1759
 1990SOL     OW17431   0.276   0.054   2.708 -0.1112  0.4966  0.1878
 1990SOL    HW117432   0.306   4.713   2.771  0.7714  0.1805 -0.5594
 1990SOL    HW217433   0.248   0.005   2.631 -0.2262 -2.5921  2.1906
 1991SOL     OW17434   2.276   1.488   9.676 -0.4359  0.0225  0.8258
 1991SOL    HW117435   2.370   1.476   9.683 -0.1978  0.8330 -1.0220
 1991SOL    HW217436   2.246   1.401   9.649 -0.0134  1.3179 -3.8400
 1992SOL     OW17437   1.679   3.845   6.677  0.1788  0.1710 -0.1915
 1992SOL    HW117438   1.626   3.891   6.612  1.8085  1.1432 -0.8046
 1992SOL    HW217439   1.704   3.763   6.634 -1.1530  0.5444 -1.6537
 1993SOL     OW17440   1.392   4.560  13.850  0.2255 -0.3647 -0.0542
 1993SOL    HW117441   1.446   4.503  13.906 -0.3661 -2.2073 -1.3790
 1993SOL    HW217442   1.439   4.570  13.767  0.0637  0.9287  0.0104
 1994SOL     OW17443   4.020   2.307   7.999  0.6722 -0.0458 -0.6515
 1994SOL    HW117444   3.978   2.289   8.083 -2.4883 -0.0010 -2.2539
 1994SOL    HW217445   3.989   2.230   7.952 -0.4114 -0.1028  0.1657
 1995SOL     OW17446   1.096   3.508   7.710  0.4283  0.4010  0.0572
 1995SOL    HW117447   1.079   3.601   7.724  0.9578  0.7288 -1.4484
 1995SOL    HW217448   1.004   3.483   7.725  0.2712  1.1030  0.2639
 1996SOL     OW17449   3.232   4.571  15.979  0.2400  0.1559  0.7749
 1996SOL    HW117450   3.150   4.524  15.965  0.3333  0.5945 -1.2581
 1996SOL    HW217451   3.289   4.503  16.015 -0.0781 -0.9189 -0.7604
 1997SOL     OW17452   3.593   3.929   1.222 -0.0123 -0.3788  0.7931
 1997SOL    HW117453   3.637   3.966   1.145 -0.2708  0.5871  1.1103
 1997SOL    HW217454   3.666   3.913   1.282  0.6001  0.9656  0.4084
 1998SOL     OW17455   0.417   4.341   5.624  0.2667 -0.2801 -0.2472
 1998SOL    HW117456   0.327   4.308   5.616  0.3142 -0.3616 -0.4348
 1998SOL    HW217457   0.469   4.310   5.551 -0.0393 -0.5349 -0.3568
 1999SOL     OW17458   2.526   2.382   2.710  0.4984  0.3272  0.5702
 1999SOL    HW117459   2.621   2.391   2.706  0.6853 -2.3140 -1.2748
 1999SOL    HW217460   2.484   2.435   2.643  2.8750  1.2064 -0.1921
 2000SOL     OW17461   1.909   3.359   7.920 -0.3681  0.4663  0.1178
 2000SOL    HW117462   1.935   3.287   7.863  0.8941  0.5764  0.5567
 2000SOL    HW217463   1.853   3.417   7.867 -2.1135 -1.5722 -0.2909
 2001SOL     OW17464   0.996   1.033  12.373  0.4420  0.1227  0.4168
 2001SOL    HW117465   0.976   0.941  12.354  3.3500 -0.2551 -0.7806
 2001SOL    HW217466   1.076   1.033  12.425  0.1019  0.4576  0.9345
 2002SOL     OW17467   1.703   3.345   5.276 -0.5820 -0.4779 -0.1159
 2002SOL    HW117468   1.661   3.280   5.220 -0.4024  0.2051 -1.0307
 2002SOL    HW217469   1.757   3.382   5.206 -2.3017 -0.3615 -1.3588
 2003SOL     OW17470   0.432   2.258  14.918  0.0710 -0.3674 -0.5418
 2003SOL    HW117471   0.341   2.286  14.931  0.2006 -0.9297  1.5401
 2003SOL    HW217472   0.452   2.240  15.010  0.5320  2.5490 -0.0614
 2004SOL     OW17473   3.636   2.231   1.509 -0.6928  0.1780  0.4537
 2004SOL    HW117474   3.645   2.265   1.420 -0.8788  0.9242  0.7209
 2004SOL    HW217475   3.615   2.139   1.496 -0.3565  0.3010 -0.9440
 2005SOL     OW17476   0.582   1.003   4.894 -0.2583 -0.2046  0.2300
 2005SOL    HW117477   0.488   1.015   4.884 -0.0631 -1.0249 -2.6991
 2005SOL    HW217478   0.581   0.907   4.902  0.4643  0.0678  3.4343
 2006SOL     OW17479   0.177   0.398   7.302 -0.4751 -0.4699 -0.6701
 2006SOL    HW117480   0.170   0.492   7.285  0.1766  0.1849  2.7261
 2006SOL    HW217481   0.243   0.370   7.238 -0.4304 -2.7615  0.3993
 2007SOL     OW17482   1.989   1.850   1.479 -0.0817  0.4474  0.5251
 2007SOL    HW117483   1.963   1.759   1.492 -0.6618  0.6449  0.7528
 2007SOL    HW217484   1.899   1.873   1.455  0.8014  0.2447 -3.0217
 2008SOL     OW17485   1.136   1.333   6.831  0.0044  0.2544  0.2296
 2008SOL    HW117486   1.177   1.337   6.917 -0.6662 -0.9743  0.6038
 2008SOL    HW217487   1.076   1.408   6.833 -0.6297 -0.2775  1.5071
 2009SOL     OW17488   4.481   0.498  16.394  0.2978 -0.0557 -0.5156
 2009SOL    HW117489   4.501   0.569  16.333  4.1393 -0.3130  0.4488
 2009SOL    HW217490   4.521   0.545  16.468 -0.1141 -0.7400  0.1446
 2010SOL     OW17491   4.183   0.026   0.353 -0.2908 -0.4671 -0.2890
 2010SOL    HW117492   4.154   0.046   0.264 -0.9031  1.2843  0.3053
 2010SOL    HW217493   4.136   0.093   0.404 -1.5436 -1.4939 -0.1084
 2011SOL     OW17494   2.596   1.069   3.722  0.3413  0.5207 -0.8659
 2011SOL    HW117495   2.518   1.041   3.769  3.4601 -2.6459  2.3714
 2011SOL    HW217496   2.569   1.151   3.679  0.1733  0.9212 -0.0006
 2012SOL     OW17497   3.514   2.147   9.645  0.0515 -0.1885  0.3226
 2012SOL    HW117498   3.505   2.234   9.683  0.9340  0.4154 -0.8410
 2012SOL    HW217499   3.609   2.142   9.634 -0.3012  0.2421 -2.9506
 2013SOL     OW17500   0.059   2.313  13.446 -0.4214  0.1381  0.1642
 2013SOL    HW117501   0.135   2.340  13.498 -1.2028  2.1234  0.2560
 2013SOL    HW217502   0.088   2.228  13.411 -0.2063 -0.6568  2.2651
 2014SOL     OW17503   2.554   1.642   3.417 -0.2032 -0.1677 -0.5231
 2014SOL    HW117504   2.529   1.570   3.476 -0.2672 -0.4987 -0.9576
 2014SOL    HW217505   2.649   1.635   3.419  0.0594  3.6401  0.0433
 2015SOL     OW17506   0.372   2.542   7.577 -0.3677  0.0075 -0.2788
 2015SOL    HW117507   0.365   2.473   7.512  1.0373  0.1548 -0.5750
 2015SOL    HW217508   0.334   2.495   7.651 -0.0498  0.3315  0.0916
 2016SOL     OW17509   2.003   4.361   8.022 -0.0221 -0.0140 -0.0873
 2016SOL    HW117510   2.086   4.330   7.986 -0.0472 -1.6848  1.2957
 2016SOL    HW217511   1.956   4.399   7.948  3.5301  1.1890 -1.7227
 2017SOL     OW17512   3.347   4.203   5.240 -0.5614  0.2236 -0.2811
 2017SOL    HW117513   3.300   4.150   5.175 -1.3858 -0.4925  0.8916
 2017SOL    HW217514   3.401   4.252   5.178  0.8977  0.4655  1.1680
 2018SOL     OW17515   1.108   1.188   5.459 -0.6676  0.2738 -0.6959
 2018SOL    HW117516   1.117   1.111   5.403  2.7541  1.4692 -1.8153
 2018SOL    HW217517   1.101   1.261   5.397 -2.3119 -1.6031 -2.6832
 2019SOL     OW17518   3.445   1.692   4.879 -0.2978  0.2805 -0.0035
 2019SOL    HW117519   3.359   1.655   4.858 -0.0890 -1.1389  1.6880
 2019SOL    HW217520   3.478   1.728   4.797 -0.1479  0.0190 -0.0583
 2020SOL     OW17521   3.599   2.162  13.279 -0.1624  0.0760  0.0588
 2020SOL    HW117522   3.526   2.106  13.303  1.3221 -1.3841  1.2219
 2020SOL    HW217523   3.588   2.151  13.185  2.8814 -0.7827 -0.2057
 2021SOL     OW17524   3.673   4.415   8.620 -0.5948  0.0192 -0.0089
 2021SOL    HW117525   3.681   4.503   8.583  0.8112 -0.0632  0.0974
 2021SOL    HW217526   3.591   4.386   8.580 -1.1696  0.0373  1.1446
 2022SOL     OW17527   2.536   0.685  17.676 -0.7506  0.3203 -0.0467
 2022SOL    HW117528   2.593   0.658  17.604 -0.3210  1.1440 -0.0168
 2022SOL    HW217529   2.583   0.658   0.052 -2.3268  0.3128  0.8673
 2023SOL     OW17530   3.868   0.046   7.873 -0.0816 -0.2543 -0.5924
 2023SOL    HW117531   3.801   0.048   7.941  1.4424 -0.3686  0.8944
 2023SOL    HW217532   3.923   4.696   7.893  2.2040  1.9449  1.3641
 2024SOL     OW17533   4.474   2.506   8.603  0.3822  0.2007 -0.4142
 2024SOL    HW117534   4.511   2.545   8.683 -1.6205  1.1312  0.0680
 2024SOL    HW217535   4.539   2.531   8.537 -0.4905  1.6379 -0.7198
 2025SOL     OW17536   1.748   0.067  12.556  0.1011 -0.0167  0.0035
 2025SOL    HW117537   1.697   0.022  12.488 -1.7618  1.9903  0.0913
 2025SOL    HW217538   1.688   0.139  12.572  0.8086  0.2123  1.5501
 2026SOL     OW17539   3.290   4.534   8.151 -0.4544  0.3980  0.2502
 2026SOL    HW117540   3.287   4.541   8.055  1.5427 -1.4645  0.0650
 2026SOL    HW217541   3.385   4.544   8.155 -0.4752  0.6227  0.1964
 2027SOL     OW17542   4.534   3.452   6.603  0.0056  0.2328  0.1810
 2027SOL    HW117543   4.461   3.462   6.665  1.3351 -0.9994  1.9427
 2027SOL    HW217544   4.491   3.418   6.525  0.1043 -0.9947  0.6595
 2028SOL     OW17545   4.022   3.986  12.317  0.2475  0.0043 -0.2180
 2028SOL    HW117546   4.059   3.945  12.239  0.5773 -0.1311  0.0057
 2028SOL    HW217547   4.099   4.029  12.353  0.5727  1.4161 -2.6183
 2029SOL     OW17548   2.328   2.321   8.610 -0.1103 -0.2734  0.3728
 2029SOL    HW117549   2.291   2.397   8.654 -1.7469 -0.9638  0.2292
 2029SOL    HW217550   2.386   2.367   8.550  0.8528 -0.7611  0.9414
 2030SOL     OW17551   1.760   1.897   4.022  0.6127 -0.0895 -0.2963
 2030SOL    HW117552   1.815   1.885   3.945 -1.0993  0.1198 -1.5266
 2030SOL    HW217553   1.716   1.977   3.996 -0.2216 -0.1470  0.9469
 2031SOL     OW17554   2.367   0.881   1.867  0.1002 -0.5487 -0.0219
 2031SOL    HW117555   2.352   0.939   1.793  0.7589  0.4704  0.6359
 2031SOL    HW217556   2.298   0.914   1.924 -0.2134 -2.7428  0.8813
 2032SOL     OW17557   4.402   1.622   4.791  0.3753 -0.6735  0.0659
 2032SOL    HW117558   4.317   1.603   4.830  1.3965 -0.9442  2.1853
 2032SOL    HW217559   4.453   1.660   4.863  0.2939  0.9338 -0.7387
 2033SOL     OW17560   4.294   1.628  12.765 -0.0765  0.3738 -0.3949
 2033SOL    HW117561   4.377   1.617  12.811 -1.8085 -0.2219  2.5639
 2033SOL    HW217562   4.275   1.544  12.723  0.6055 -0.0931  0.2284
 2034SOL     OW17563   1.248   1.701   6.514  0.1844  0.4135 -0.1323
 2034SOL    HW117564   1.166   1.739   6.547 -0.2885  1.2109 -2.2232
 2034SOL    HW217565   1.313   1.739   6.572  1.0281 -1.8227  0.3609
 2035SOL     OW17566   1.169   3.074   9.553  0.6551  0.6941  0.9655
 2035SOL    HW117567   1.079   3.077   9.586 -1.1850  1.7030 -4.1143
 2035SOL    HW217568   1.209   3.005   9.605  1.5523  1.5716  1.4258
 2036SOL     OW17569   2.974   2.007  11.861 -0.8546 -0.5041  0.2171
 2036SOL    HW117570   3.049   2.002  11.802 -0.5713 -1.1994  0.6307
 2036SOL    HW217571   2.911   2.045  11.800 -0.6422 -1.5154 -0.6420
 2037SOL     OW17572   4.638   3.109   1.608  0.2831  0.1511  0.7174
 2037SOL    HW117573   4.711   3.133   1.665  0.8068  0.2545 -0.0113
 2037SOL    HW217574   4.673   3.101   1.520  0.8481  0.2138  0.9355
 2038SOL     OW17575   1.940   3.059   4.236  0.0618 -0.6555 -0.3096
 2038SOL    HW117576   1.900   3.037   4.321  0.7229 -0.7670 -0.0327
 2038SOL    HW217577   1.868   3.034   4.179 -1.2736  1.1999  0.5296
 2039SOL     OW17578   3.895   4.417   6.902  0.3520 -0.4151 -0.0547
 2039SOL    HW117579   3.818   4.451   6.857  0.3381  2.1547  1.9296
 2039SOL    HW217580   3.878   4.451   6.989 -2.9120 -2.8112  0.2250
 2040SOL     OW17581   3.431   0.961   1.105  0.2656 -0.2375 -0.3042
 2040SOL    HW117582   3.359   1.020   1.082  0.2621 -0.7707 -1.6815
 2040SOL    HW217583   3.395   0.877   1.076  0.7854  0.4365 -2.8847
 2041SOL     OW17584   0.023   3.717   3.756 -0.0597  0.2355  0.9029
 2041SOL    HW117585   4.721   3.777   3.825 -3.0879  0.5280 -0.5626
 2041SOL    HW217586   4.699   3.753   3.683 -0.7296  0.0796  1.2826
 2042SOL     OW17587   4.200   1.024   7.226  0.1232  0.0850  0.0384
 2042SOL    HW117588   4.212   1.111   7.265 -1.3010 -0.0458  0.7361
 2042SOL    HW217589   4.197   0.965   7.301  2.8264 -1.8503 -1.3430
 2043SOL     OW17590   2.808   3.216   2.690  0.0615 -0.6158 -0.1787
 2043SOL    HW117591   2.830   3.138   2.639  1.6836 -0.2070 -0.1297
 2043SOL    HW217592   2.894   3.259   2.685 -0.9872  1.7060  2.0157
 2044SOL     OW17593   3.363   1.873   8.434  0.5683 -0.0570  0.2705
 2044SOL    HW117594   3.385   1.784   8.465  0.3472  0.6093  2.3550
 2044SOL    HW217595   3.387   1.930   8.507 -1.8334 -0.1727  1.1479
 2045SOL     OW17596   2.937   3.932   2.879 -0.4468  0.2434  0.1264
 2045SOL    HW117597   2.953   3.848   2.836  1.5734  1.3578 -1.3128
 2045SOL    HW217598   2.874   3.965   2.815 -0.2526  1.8219  0.7504
 2046SOL     OW17599   3.169   0.219  16.637 -0.2986  0.2405  0.0332
 2046SOL    HW117600   3.113   0.141  16.643  1.2796 -0.7886  1.5791
 2046SOL    HW217601   3.145   0.275  16.711  0.8104  0.7054  0.0374
 2047SOL     OW17602   2.393   0.600   8.138  0.3356  0.4731 -0.4107
 2047SOL    HW117603   2.324   0.542   8.107 -0.7456  0.4263  2.0994
 2047SOL    HW217604   2.433   0.630   8.056  1.7088 -0.5244 -0.1144
 2048SOL     OW17605   1.751   3.874  11.173  0.3036 -0.3752 -0.7420
 2048SOL    HW117606   1.700   3.841  11.100 -1.8769 -0.2595  0.7495
 2048SOL    HW217607   1.694   3.942  11.210  1.7761 -1.2102  3.0191
 2049SOL     OW17608   3.718   1.740  13.485  0.5214  0.6263  0.2080
 2049SOL    HW117609   3.807   1.767  13.507  0.6391 -0.1705  0.7090
 2049SOL    HW217610   3.729   1.692  13.403  2.4420  0.6032  0.4933
 2050SOL     OW17611   3.228   3.859   8.518 -0.1241  0.2878 -0.2594
 2050SOL    HW117612   3.184   3.862   8.602  1.9629  2.3293  0.7912
 2050SOL    HW217613   3.287   3.786   8.532 -1.1937 -0.6714 -0.7708
 2051SOL     OW17614   2.374   0.793  14.376 -0.2033 -0.0711  0.6250
 2051SOL    HW117615   2.397   0.761  14.463  0.7726  0.3152  0.5040
 2051SOL    HW217616   2.416   0.724  14.324  0.0605  0.1349  0.5709
 2052SOL     OW17617   2.994   4.523  15.721  0.9170  0.2554 -0.3709
 2052SOL    HW117618   2.932   4.454  15.697  1.1695  0.0569 -0.4496
 2052SOL    HW217619   2.988   4.523  15.817 -0.2660 -0.9594 -0.4571
 2053SOL     OW17620   3.352   0.620   2.471  0.1155 -0.3423 -0.2225
 2053SOL    HW117621   3.288   0.658   2.411 -1.3096 -0.4605  1.2249
 2053SOL    HW217622   3.428   0.649   2.421 -0.6424  2.3966  0.2347
 2054SOL     OW17623   3.257   4.083   4.323 -0.0800  0.7092  0.5190
 2054SOL    HW117624   3.189   4.040   4.271 -1.2644  2.2472  0.8029
 2054SOL    HW217625   3.209   4.164   4.342 -1.8405 -0.7103  2.1175
 2055SOL     OW17626   4.178   3.952   4.740  0.6948  0.5548 -0.1314
 2055SOL    HW117627   4.103   3.892   4.741 -0.6830  2.2868 -1.0401
 2055SOL    HW217628   4.150   4.001   4.817 -2.3315  0.6149 -1.2436
 2056SOL     OW17629   2.614   3.433   4.116  0.5932  0.0552  0.1609
 2056SOL    HW117630   2.590   3.403   4.204  1.7444 -1.8795 -0.1814
 2056SOL    HW217631   2.698   3.477   4.130  0.1474  0.8589  0.3048
 2057SOL     OW17632   3.714   3.425   4.154  0.7033  0.3398  0.1223
 2057SOL    HW117633   3.699   3.379   4.236 -0.1163 -1.2584 -0.9294
 2057SOL    HW217634   3.778   3.491   4.182 -1.3814  0.9527  3.3710
 2058SOL     OW17635   2.308   3.044   7.829 -0.2246  0.2885  0.2489
 2058SOL    HW117636   2.249   3.069   7.901 -0.7151 -1.0619  0.3115
 2058SOL    HW217637   2.247   3.012   7.763  1.3779 -0.0856 -1.0315
 2059SOL     OW17638   1.941   2.349   8.568 -0.4640  0.1517 -0.7334
 2059SOL    HW117639   1.864   2.375   8.619  1.2302  0.4805  1.6642
 2059SOL    HW217640   2.010   2.409   8.597  0.3158 -1.5397  0.9524
 2060SOL     OW17641   3.305   1.505   2.664 -0.7329  0.6760  0.0880
 2060SOL    HW117642   3.371   1.555   2.616 -2.2749  0.8911 -1.8416
 2060SOL    HW217643   3.329   1.413   2.652 -0.8467  0.9177 -2.0541
 2061SOL     OW17644   0.360   0.511   2.277 -0.4472  0.0463  0.1458
 2061SOL    HW117645   0.298   0.490   2.207 -2.1816 -0.0859  1.7215
 2061SOL    HW217646   0.293   0.511   2.346 -1.5683  1.4457 -0.9603
 2062SOL     OW17647   3.645   1.537   3.295 -0.3455  0.5684  0.3711
 2062SOL    HW117648   3.648   1.489   3.378  0.6602  0.1133  0.0655
 2062SOL    HW217649   3.728   1.585   3.293  0.8521 -1.6578 -3.2668
 2063SOL     OW17650   0.485   3.908   6.600  0.2258 -0.0946 -0.1264
 2063SOL    HW117651   0.509   3.835   6.656 -1.3676 -0.2642  0.3584
 2063SOL    HW217652   0.509   3.874   6.514 -4.1725  0.4443 -1.5880
 2064SOL     OW17653   3.662   2.105   8.803 -0.2024 -0.4674 -0.0397
 2064SOL    HW117654   3.640   2.113   8.896 -0.3487 -0.4036 -0.0809
 2064SOL    HW217655   3.704   2.189   8.787  1.2272 -1.7322 -2.9962
 2065SOL     OW17656   4.164   3.574  17.218 -1.2566  0.2262 -0.1387
 2065SOL    HW117657   4.139   3.637  17.285  1.3097  2.0639 -0.9300
 2065SOL    HW217658   4.102   3.602  17.151  1.6330  2.9521 -1.6957
 2066SOL     OW17659   4.357   4.514   1.554  0.8109  0.2985 -0.1611
 2066SOL    HW117660   4.283   4.546   1.502  0.4966 -2.1857 -1.2454
 2066SOL    HW217661   4.403   4.596   1.574  3.3952 -1.2376  0.1849
 2067SOL     OW17662   0.757   3.463   3.616 -0.1677  0.0111 -0.3021
 2067SOL    HW117663   0.679   3.450   3.671 -0.1047  1.3457  0.0851
 2067SOL    HW217664   0.797   3.376   3.622 -2.2165 -0.8898  0.4002
 2068SOL     OW17665   0.551   4.094  11.234  0.4462  0.4384 -0.3672
 2068SOL    HW117666   0.501   4.103  11.315  0.7720 -0.1740 -0.1006
 2068SOL    HW217667   0.641   4.080  11.265  0.8227  1.1327 -1.1418
 2069SOL     OW17668   2.921   0.128  16.756 -0.0270  0.6477 -0.1069
 2069SOL    HW117669   2.911   0.112  16.850 -0.0509  0.6711 -0.1057
 2069SOL    HW217670   2.867   0.057  16.720  3.2931 -2.0283  0.2078
 2070SOL     OW17671   1.438   2.443   6.978 -0.1360 -0.3320 -0.1152
 2070SOL    HW117672   1.394   2.470   7.059  0.4444  1.4959 -0.4083
 2070SOL    HW217673   1.529   2.465   6.998 -0.2449  0.4942 -0.5190
 2071SOL     OW17674   2.249   3.873   0.483 -0.4112  0.1594 -0.4607
 2071SOL    HW117675   2.283   3.938   0.544 -0.4323 -2.1732  2.0168
 2071SOL    HW217676   2.231   3.801   0.543 -1.1463  0.6899 -0.0582
 2072SOL     OW17677   1.195   1.821   2.733 -0.2730 -0.1058 -0.1704
 2072SOL    HW117678   1.280   1.830   2.691 -0.2384 -2.3598 -0.5599
 2072SOL    HW217679   1.218   1.864   2.816 -0.6906  0.5323 -0.3839
 2073SOL     OW17680   0.842   2.590  12.331 -0.6945 -0.7534 -0.8638
 2073SOL    HW117681   0.789   2.614  12.255  2.4860  2.7847 -1.9748
 2073SOL    HW217682   0.879   2.506  12.304 -1.2241 -1.1558 -0.3292
 2074SOL     OW17683   0.249   1.906   3.510 -0.0120 -0.4637  0.2269
 2074SOL    HW117684   0.289   1.820   3.512 -0.4125 -0.5721  2.8810
 2074SOL    HW217685   0.196   1.912   3.590  0.8545 -2.3517  0.9335
 2075SOL     OW17686   0.121   4.409  13.623  0.1123 -0.3541  0.8204
 2075SOL    HW117687   0.047   4.401  13.683  0.3770 -1.7960  0.9572
 2075SOL    HW217688   0.154   4.498  13.639 -0.0835 -0.2211  0.4801
 2076SOL     OW17689   2.140   4.046   7.971 -0.1791  0.0102  0.3124
 2076SOL    HW117690   2.186   4.089   7.899 -0.2129 -0.4688  0.0022
 2076SOL    HW217691   2.204   3.978   7.993  0.2138 -0.2264 -1.5518
 2077SOL     OW17692   3.767   3.149   5.725 -0.0778  0.4708  0.0126
 2077SOL    HW117693   3.710   3.225   5.738  1.2460  1.0419  2.4789
 2077SOL    HW217694   3.823   3.166   5.801 -0.2801  0.6465  0.1231
 2078SOL     OW17695   0.714   1.359  13.667  0.2037  0.0659 -0.2232
 2078SOL    HW117696   0.681   1.336  13.580  0.9250  0.7326 -0.6648
 2078SOL    HW217697   0.737   1.451  13.654 -0.7760  0.3012 -0.3025
 2079SOL     OW17698   1.232   4.105   5.657  0.4293 -0.1325  0.0298
 2079SOL    HW117699   1.210   4.015   5.680  0.8568  0.2891  2.0998
 2079SOL    HW217700   1.162   4.130   5.596  0.0567  1.0680  0.9601
 2080SOL     OW17701   3.438   4.540   7.680  0.1782 -1.0650 -0.1480
 2080SOL    HW117702   3.487   4.566   7.602 -0.0740 -1.1873 -0.3446
 2080SOL    HW217703   3.481   4.600   7.741 -0.0674 -1.2759  0.2368
 2081SOL     OW17704   1.167   0.005  13.738 -0.2792 -0.9323  0.4064
 2081SOL    HW117705   1.241   0.011  13.678 -1.7590 -0.9627 -1.4314
 2081SOL    HW217706   1.210   0.062  13.802 -0.3485 -1.6022  1.0431
 2082SOL     OW17707   0.977   3.480   6.091  0.2844 -0.2591  0.0723
 2082SOL    HW117708   1.014   3.568   6.080  2.3507 -1.5969 -3.5265
 2082SOL    HW217709   1.059   3.429   6.091  0.8871  0.6986  0.6312
 2083SOL     OW17710   0.910   3.372  11.300  0.1957  0.5272  0.0508
 2083SOL    HW117711   0.978   3.431  11.333  0.7662 -1.5748  2.6586
 2083SOL    HW217712   0.949   3.287  11.318  0.4917  0.0622 -2.7666
 2084SOL     OW17713   1.067   0.486   7.147 -0.3343 -0.5859 -0.0435
 2084SOL    HW117714   1.137   0.477   7.211 -0.3673  1.3419  0.2496
 2084SOL    HW217715   1.123   0.488   7.069  0.1537 -2.9495  0.2264
 2085SOL     OW17716   2.139   1.789   8.146 -0.1817 -0.1148  0.0068
 2085SOL    HW117717   2.165   1.773   8.236 -0.2469  0.2605  0.0940
 2085SOL    HW217718   2.045   1.768   8.146 -0.4536  1.0241 -2.0342
 2086SOL     OW17719   2.398   3.180  11.721  0.3504  0.3270  0.2057
 2086SOL    HW117720   2.374   3.113  11.657 -1.9608  2.3376 -1.0477
 2086SOL    HW217721   2.473   3.133  11.758  0.2694  1.0352  1.2722
 2087SOL     OW17722   0.489   1.555  15.832 -0.1840  0.2139  0.0676
 2087SOL    HW117723   0.552   1.579  15.900 -0.8887  1.6182  0.2350
 2087SOL    HW217724   0.482   1.646  15.802  1.6079  0.4521  0.3829
 2088SOL     OW17725   1.297   2.137  16.706  0.4074 -0.1885 -0.4554
 2088SOL    HW117726   1.214   2.128  16.659 -0.0356  0.1417  0.2647
 2088SOL    HW217727   1.279   2.100  16.792 -0.3466  0.1074 -0.4884
 2089SOL     OW17728   0.663   2.102   4.641 -0.1557 -0.2887 -0.0999
 2089SOL    HW117729   0.627   2.184   4.673 -1.2003 -1.5142  1.8383
 2089SOL    HW217730   0.731   2.127   4.578  1.5899  0.4126  2.0485
 2090SOL     OW17731   2.160   1.806  13.755  0.4592  0.3565 -0.1788
 2090SOL    HW117732   2.132   1.848  13.673  0.0422 -0.8673 -0.6732
 2090SOL    HW217733   2.115   1.721  13.753 -0.3609  0.7640  1.7090
 2091SOL     OW17734   2.280   4.195   3.270  0.3653 -0.3401 -0.4725
 2091SOL    HW117735   2.241   4.267   3.222 -0.0934  0.0600  0.5047
 2091SOL    HW217736   2.283   4.226   3.361 -0.6394  0.3636 -0.6792
 2092SOL     OW17737   2.550   3.370   7.176 -0.4955  0.5234 -0.0891
 2092SOL    HW117738   2.622   3.351   7.236  1.3975  2.0236 -1.8922
 2092SOL    HW217739   2.477   3.316   7.207  0.8847 -2.7032 -2.3447
 2093SOL     OW17740   2.015   0.760   3.225  0.4975 -0.1281 -0.1190
 2093SOL    HW117741   2.095   0.708   3.232  0.3644 -0.1704  1.1527
 2093SOL    HW217742   1.956   0.698   3.184  0.4537 -0.7028  0.8241
 2094SOL     OW17743   3.075   0.702   8.724  0.2405 -0.4644 -0.4755
 2094SOL    HW117744   3.141   0.771   8.728  0.8087 -1.0438  0.2762
 2094SOL    HW217745   3.011   0.720   8.792  0.5747  0.2498 -0.3505
 2095SOL     OW17746   3.542   4.041   8.778 -0.2003 -0.3887  0.0379
 2095SOL    HW117747   3.498   4.039   8.693 -2.5897 -0.2840  1.2606
 2095SOL    HW217748   3.473   4.025   8.843  0.4752  0.5797  0.9965
 2096SOL     OW17749   1.068   0.491  15.605 -0.2120 -0.0369  0.2063
 2096SOL    HW117750   1.066   0.584  15.583  1.6792  0.5873  2.7366
 2096SOL    HW217751   1.017   0.480  15.685  2.0600  0.4131  1.7106
 2097SOL     OW17752   0.333   3.208  14.659  0.2558 -0.0140  0.1092
 2097SOL    HW117753   0.373   3.282  14.615 -0.7254  1.3217  1.4698
 2097SOL    HW217754   0.307   3.240  14.745 -0.1973  0.7396 -0.3161
 2098SOL     OW17755   4.468   0.602  10.664  0.0819  0.4078  0.1385
 2098SOL    HW117756   4.418   0.628  10.742  0.3019  1.6967 -0.1533
 2098SOL    HW217757   4.510   0.532  10.714  0.6464  0.7479  0.1475
 2099SOL     OW17758   3.660   3.843   2.497 -0.9267  0.5965  0.0491
 2099SOL    HW117759   3.565   3.838   2.486 -0.6804 -1.4414 -1.0161
 2099SOL    HW217760   3.683   3.750   2.499 -0.5709  0.6827  0.0797
 2100SOL     OW17761   1.395   3.297  15.266 -0.8526 -0.2939  0.1912
 2100SOL    HW117762   1.376   3.221  15.210  1.5641 -0.0923 -0.8989
 2100SOL    HW217763   1.309   3.337  15.272 -0.3263  0.9038 -0.3538
 2101SOL     OW17764   1.881   4.511   9.594  0.2388 -0.1102  0.0678
 2101SOL    HW117765   1.924   4.549   9.671  0.6087 -0.5073  0.0538
 2101SOL    HW217766   1.891   4.574   9.523  0.4402  0.5728  0.6933
 2102SOL     OW17767   2.330   2.122   8.801 -0.0438  0.4035  0.1275
 2102SOL    HW117768   2.265   2.189   8.824 -0.8464 -0.4002  0.2293
 2102SOL    HW217769   2.361   2.160   8.719  0.6832  2.5111  1.3844
 2103SOL     OW17770   1.263   3.223  14.224 -0.1947  0.0037  0.5550
 2103SOL    HW117771   1.210   3.269  14.159 -1.1471 -1.4109  0.3100
 2103SOL    HW217772   1.351   3.245  14.196 -0.7341  0.2715 -0.9598
 2104SOL     OW17773   4.547   2.725   7.398 -0.4601  0.2502  0.6552
 2104SOL    HW117774   4.453   2.708   7.396 -0.6444  1.1468  1.5274
 2104SOL    HW217775   4.566   2.731   7.492 -0.5696 -2.4937  0.8534
 2105SOL     OW17776   4.231   1.024   1.473  0.3100  0.3738 -0.0916
 2105SOL    HW117777   4.306   1.053   1.421 -0.4085  0.0533 -1.3062
 2105SOL    HW217778   4.259   1.061   1.557 -0.5754 -1.4310  0.9897
 2106SOL     OW17779   0.527   3.414  17.510 -0.0777 -0.0312  0.0160
 2106SOL    HW117780   0.482   3.431  17.593  0.1102 -3.8698  0.9031
 2106SOL    HW217781   0.582   3.340  17.536 -2.3556 -2.0845 -1.0412
 2107SOL     OW17782   4.703   2.874   9.297 -0.3247  0.3285 -0.2507
 2107SOL    HW117783   4.696   2.799   9.356 -1.3680  0.9248  0.3920
 2107SOL    HW217784   0.021   2.939   9.350  1.5070 -0.3806 -0.8989
 2108SOL     OW17785   4.500   3.691   3.458 -0.2449 -0.4215 -0.5690
 2108SOL    HW117786   4.552   3.643   3.393  1.5937  0.5912  0.1864
 2108SOL    HW217787   4.444   3.625   3.500  2.7704 -2.7762 -0.2551
 2109SOL     OW17788   4.295   2.574  13.562  0.0835 -0.3613 -0.6468
 2109SOL    HW117789   4.376   2.560  13.513  0.7100  0.1289  0.2439
 2109SOL    HW217790   4.327   2.595  13.650 -1.1974  2.7875 -0.9250
 2110SOL     OW17791   2.466   2.327  16.691 -0.2087  0.0411 -1.0132
 2110SOL    HW117792   2.465   2.284  16.605  2.0112 -0.0581 -1.0028
 2110SOL    HW217793   2.387   2.380  16.683 -0.8109 -0.6472  0.2984
 2111SOL     OW17794   3.659   0.752   9.030 -0.4418 -0.6521  0.1785
 2111SOL    HW117795   3.592   0.712   8.976 -1.2451 -0.1915  0.8231
 2111SOL    HW217796   3.609   0.771   9.109 -1.5140 -0.0169 -0.6578
 2112SOL     OW17797   1.488   0.480   9.208  0.6666 -0.4199  0.2525
 2112SOL    HW117798   1.479   0.573   9.230 -1.0053 -0.2645 -1.0605
 2112SOL    HW217799   1.476   0.474   9.113 -0.4498  0.5974  0.3272
 2113SOL     OW17800   1.362   1.603  10.975 -0.2882  0.5285 -0.4631
 2113SOL    HW117801   1.328   1.634  11.059 -2.1480  0.3612 -1.1693
 2113SOL    HW217802   1.354   1.684  10.926  2.2111 -0.4904 -2.5654
 2114SOL     OW17803   1.613   3.065   4.630 -0.3174  0.0164  0.5045
 2114SOL    HW117804   1.616   2.976   4.666 -1.3389  0.3006  1.2894
 2114SOL    HW217805   1.531   3.063   4.580  0.4495  1.9725 -0.8316
 2115SOL     OW17806   4.611   1.410   5.009  0.2971 -0.3259  0.0682
 2115SOL    HW117807   4.692   1.382   5.052  1.0305  2.3783  0.4111
 2115SOL    HW217808   4.630   1.364   4.927 -1.0910  0.8250 -0.9073
 2116SOL     OW17809   2.575   4.045  11.092  0.4316  0.0041 -0.1048
 2116SOL    HW117810   2.547   4.136  11.105 -1.0310 -0.3697 -0.6331
 2116SOL    HW217811   2.650   4.036  11.151 -0.5940 -0.0074  1.2274
 2117SOL     OW17812   0.121   1.470   1.953 -0.0056 -0.5717  0.4033
 2117SOL    HW117813   0.135   1.478   1.858  0.2913  2.0659  0.6714
 2117SOL    HW217814   0.198   1.431   1.993 -0.1482 -1.4004 -0.1185
 2118SOL     OW17815   3.876   0.979   6.808 -0.2737 -0.3779 -0.0713
 2118SOL    HW117816   3.930   1.039   6.756 -0.2294  0.8855  1.4347
 2118SOL    HW217817   3.933   0.986   6.885 -0.8849 -0.0673  0.3528
 2119SOL     OW17818   4.275   1.317   1.115  0.9037 -0.4942 -0.2664
 2119SOL    HW117819   4.287   1.302   1.209  1.7104 -3.3105 -0.8398
 2119SOL    HW217820   4.367   1.340   1.099  0.6785 -0.2611 -1.2241
 2120SOL     OW17821   0.179   2.301   6.930 -0.2607 -0.1383  0.1202
 2120SOL    HW117822   0.094   2.272   6.963  0.3926 -1.4774  0.6122
 2120SOL    HW217823   0.162   2.394   6.947  0.3665  0.2384 -1.3455
 2121SOL     OW17824   1.194   2.323   7.620  0.3539  0.3722 -0.2363
 2121SOL    HW117825   1.125   2.337   7.686  0.6042  0.0782  0.0830
 2121SOL    HW217826   1.161   2.364   7.540  1.7977  0.2019 -0.9122
 2122SOL     OW17827   1.169   3.919   2.449  0.2066 -0.2187 -0.1476
 2122SOL    HW117828   1.239   3.983   2.440 -0.4943  0.3681 -1.4491
 2122SOL    HW217829   1.219   3.838   2.436 -0.6870 -0.4012 -2.4477
 2123SOL     OW17830   0.118   0.564   2.660  0.2807 -0.4968 -0.7470
 2123SOL    HW117831   0.136   0.488   2.606 -0.5882 -0.7845 -0.6338
 2123SOL    HW217832   0.054   0.612   2.607 -2.8976 -2.9312  0.9206
 2124SOL     OW17833   3.406   1.016   3.680  0.0254  0.1318  0.4944
 2124SOL    HW117834   3.330   1.068   3.705 -0.9932 -0.9009 -0.4183
 2124SOL    HW217835   3.372   0.996   3.592 -0.8883 -0.1754  0.9180
 2125SOL     OW17836   0.479   4.417   5.210  0.1704 -0.4170  0.3225
 2125SOL    HW117837   0.470   4.333   5.255  0.8279 -1.6635 -1.8651
 2125SOL    HW217838   0.447   4.486   5.267 -0.4735 -1.4977  1.2670
 2126SOL     OW17839   0.941   3.773   3.053 -0.3854 -0.1880  0.2054
 2126SOL    HW117840   0.948   3.758   3.147  0.7360 -0.2179  0.1208
 2126SOL    HW217841   0.970   3.692   3.013  0.8402  0.0085  0.6977
 2127SOL     OW17842   0.432   1.325   2.176 -0.8515 -0.4248 -0.3286
 2127SOL    HW117843   0.340   1.315   2.199 -1.0132  0.4210 -0.6010
 2127SOL    HW217844   0.415   1.348   2.085 -0.4699  1.4159  0.0669
 2128SOL     OW17845   2.655   2.574  14.818 -0.1624  0.2101  0.2548
 2128SOL    HW117846   2.688   2.589  14.907 -0.5239 -0.5685  0.5292
 2128SOL    HW217847   2.693   2.649  14.773 -0.8049  0.8390  0.7498
 2129SOL     OW17848   3.493   3.599   3.265  0.2136  0.2954 -0.5442
 2129SOL    HW117849   3.446   3.563   3.340 -0.2584 -0.5445 -1.2347
 2129SOL    HW217850   3.559   3.531   3.250 -1.4803 -0.7720 -3.0549
 2130SOL     OW17851   4.316   2.336   8.421 -0.1790  0.5103 -0.3198
 2130SOL    HW117852   4.365   2.377   8.350  0.7345 -0.9048 -0.5280
 2130SOL    HW217853   4.359   2.372   8.499 -0.2172  0.3678 -0.2312
 2131SOL     OW17854   1.863   0.217   3.636  0.1635  0.5217 -0.1990
 2131SOL    HW117855   1.906   0.246   3.556 -1.7071 -2.0332 -2.1401
 2131SOL    HW217856   1.805   0.152   3.598  0.9069  0.7521 -1.7387
 2132SOL     OW17857   4.692   2.902  13.028  0.2623  0.3710  0.5894
 2132SOL    HW117858   0.060   2.887  13.046 -0.0354 -1.5145  0.6040
 2132SOL    HW217859   4.669   2.809  13.018 -0.6657  0.6700 -0.0210
 2133SOL     OW17860   3.901   1.868   6.683  0.5589  0.4201 -0.8925
 2133SOL    HW117861   3.840   1.939   6.664  0.0029  0.3187  0.5149
 2133SOL    HW217862   3.867   1.803   6.622  1.0705 -1.4598  0.8265
 2134SOL     OW17863   4.360   3.920  11.737 -0.0903  0.6647 -0.4870
 2134SOL    HW117864   4.366   3.982  11.664  1.7903  1.0744 -0.0022
 2134SOL    HW217865   4.267   3.920  11.758  0.2730 -1.4949  1.0416
 2135SOL     OW17866   0.107   0.853  16.844 -0.3513  0.1518  0.5025
 2135SOL    HW117867   0.177   0.918  16.838 -1.3060  1.1224 -0.0844
 2135SOL    HW217868   0.048   0.854  16.768 -0.8343 -0.3768  0.8684
 2136SOL     OW17869   4.194   3.381   2.044 -0.0739  0.1030 -0.0768
 2136SOL    HW117870   4.288   3.374   2.061 -0.4127 -1.6149  1.0899
 2136SOL    HW217871   4.156   3.414   2.125 -0.0473  2.7693 -1.1419
 2137SOL     OW17872   1.846   4.594   4.228 -0.0200  0.0497 -0.1219
 2137SOL    HW117873   1.784   4.601   4.155  0.3845 -0.6184 -0.5328
 2137SOL    HW217874   1.813   4.528   4.289 -0.6015  0.4843  0.0370
 2138SOL     OW17875   1.598   2.998   3.355  0.7269 -0.2139 -0.1285
 2138SOL    HW117876   1.664   3.056   3.316  1.2072 -1.1320 -0.6687
 2138SOL    HW217877   1.514   3.026   3.318  0.0162 -1.0418  0.8532
 2139SOL     OW17878   4.273   3.069  12.673 -0.4214 -0.1301  0.4660
 2139SOL    HW117879   4.347   3.121  12.705  1.2531 -1.3945 -1.3853
 2139SOL    HW217880   4.237   3.130  12.609 -1.5774 -0.8881  0.3921
 2140SOL     OW17881   3.824   3.278   5.963 -0.4457 -0.3439  0.0120
 2140SOL    HW117882   3.750   3.322   6.005  0.5436  1.6346 -0.3195
 2140SOL    HW217883   3.888   3.323   6.018 -0.6862 -1.5340  1.2648
 2141SOL     OW17884   2.721   3.789   9.487 -0.4281 -0.2381 -0.0507
 2141SOL    HW117885   2.695   3.853   9.420  0.6576  1.7710  1.4761
 2141SOL    HW217886   2.777   3.825   9.555 -0.4972 -1.8344  0.8403
 2142SOL     OW17887   2.090   1.870   3.451  0.0394  0.6567 -0.0323
 2142SOL    HW117888   2.000   1.898   3.435  0.0267  1.3093  1.1850
 2142SOL    HW217889   2.134   1.947   3.416  0.8403 -0.8576 -2.4087
 2143SOL     OW17890   1.789   0.904  12.119 -0.4593  0.2925  0.4292
 2143SOL    HW117891   1.735   0.957  12.177 -2.0706  0.7653 -1.4910
 2143SOL    HW217892   1.801   0.961  12.043 -0.4455 -0.4597 -0.1330
 2144SOL     OW17893   2.690   1.782   8.341 -0.3969  0.0142 -0.1376
 2144SOL    HW117894   2.750   1.792   8.414  1.5712 -2.0460 -1.4928
 2144SOL    HW217895   2.723   1.846   8.278 -3.9831  1.6609 -0.3744
 2145SOL     OW17896   0.705   2.042   2.854 -0.5550 -0.2077  0.8834
 2145SOL    HW117897   0.759   2.088   2.918  1.6344  0.6551 -1.5901
 2145SOL    HW217898   0.624   2.087   2.879 -1.3589  0.2743 -2.5071
 2146SOL     OW17899   0.691   0.265   3.104  0.3000  0.0812  1.0173
 2146SOL    HW117900   0.704   0.293   3.195  2.2886  0.0665  0.7558
 2146SOL    HW217901   0.606   0.298   3.075  0.9007  0.0352 -0.7734
 2147SOL     OW17902   4.038   1.733   8.870 -0.1588  0.8557 -0.3039
 2147SOL    HW117903   3.975   1.686   8.816 -0.0330  0.6690 -0.2874
 2147SOL    HW217904   4.076   1.664   8.924  1.5029  1.8205 -0.2416
 2148SOL     OW17905   0.243   3.297   7.473  0.3586 -0.2136 -0.6127
 2148SOL    HW117906   0.298   3.221   7.454  0.5114  0.3665 -2.4532
 2148SOL    HW217907   0.159   3.256   7.494 -0.0972  0.2583 -1.5233
 2149SOL     OW17908   1.453   3.122   6.418  0.2981  0.1361 -0.0106
 2149SOL    HW117909   1.377   3.143   6.472 -2.2026  0.8314 -3.8434
 2149SOL    HW217910   1.512   3.075   6.477  0.5547  0.4071 -0.0508
 2150SOL     OW17911   3.764   0.657   8.003 -0.4151  0.2101  0.0045
 2150SOL    HW117912   3.855   0.661   8.034 -0.2308  1.6032 -0.7481
 2150SOL    HW217913   3.717   0.701   8.073 -1.1277 -0.2219 -0.1985
 2151SOL     OW17914   0.426   2.798  11.536 -0.2244 -0.5604 -0.0256
 2151SOL    HW117915   0.430   2.893  11.532 -1.5509 -0.5009  0.2781
 2151SOL    HW217916   0.517   2.766  11.543  0.1298 -0.1088 -2.5669
 2152SOL     OW17917   2.969   1.978   4.693  0.9650  0.0331  0.5147
 2152SOL    HW117918   2.964   2.028   4.612  0.0200  1.2831  1.3549
 2152SOL    HW217919   2.957   2.045   4.760 -1.7844  0.7863 -0.7631
 2153SOL     OW17920   1.743   2.972   7.418 -0.0432  0.5075  0.4193
 2153SOL    HW117921   1.707   3.060   7.411 -1.1179  0.1506  1.4975
 2153SOL    HW217922   1.714   2.942   7.504  1.1495  1.6982  1.2346
 2154SOL     OW17923   0.073   1.788  14.541 -0.3553 -0.1291  0.1621
 2154SOL    HW117924   4.721   1.746  14.578 -0.1381 -0.1292  0.6089
 2154SOL    HW217925   0.076   1.866  14.596 -3.4087  0.5466 -0.5985
 2155SOL     OW17926   2.458   1.798   9.120 -0.0313 -0.4220 -0.1892
 2155SOL    HW117927   2.483   1.735   9.052  0.8700 -0.8322  0.5308
 2155SOL    HW217928   2.393   1.845   9.067 -2.3655 -3.2377  0.1794
 2156SOL     OW17929   3.649   2.572   1.684  0.2101  0.0974 -0.2405
 2156SOL    HW117930   3.664   2.626   1.761 -1.2675 -1.7222  1.3057
 2156SOL    HW217931   3.576   2.518   1.713  0.0480 -0.5253 -1.8002
 2157SOL     OW17932   4.154   4.316   4.526 -0.0175  0.3246 -0.0207
 2157SOL    HW117933   4.228   4.370   4.555 -0.8171  0.2688  2.1495
 2157SOL    HW217934   4.202   4.274   4.455 -0.1161  2.8538 -1.5775
 2158SOL     OW17935   2.223   1.064   9.840  0.1214 -0.1461 -0.0534
 2158SOL    HW117936   2.265   0.980   9.824 -1.2330 -0.8127 -0.1334
 2158SOL    HW217937   2.152   1.029   9.894  0.4299  1.8450  1.6204
 2159SOL     OW17938   0.297   3.043   9.890 -0.0334  0.1954 -0.3160
 2159SOL    HW117939   0.293   2.982   9.963 -1.7646 -0.7825 -1.2566
 2159SOL    HW217940   0.241   3.115   9.921  0.3920  1.1469 -1.7552
 2160SOL     OW17941   4.578   1.166   5.899 -1.0775 -0.6602  0.4278
 2160SOL    HW117942   4.489   1.182   5.867 -1.7705 -0.8956  2.2457
 2160SOL    HW217943   4.599   1.254   5.931 -0.5164 -1.1582  1.4329
 2161SOL     OW17944   4.420   0.549   0.688  0.6146 -0.2237  0.1432
 2161SOL    HW117945   4.510   0.530   0.663  0.6869  0.1786  0.0988
 2161SOL    HW217946   4.367   0.518   0.614 -0.9893 -1.8997  1.9705
 2162SOL     OW17947   1.073   1.907   5.434  0.3038  0.3749  0.1426
 2162SOL    HW117948   0.999   1.864   5.476  0.2023 -1.5163 -1.9538
 2162SOL    HW217949   1.057   1.993   5.472  1.5034  1.5483 -2.0227
 2163SOL     OW17950   3.802   0.312   9.333  0.1534 -0.2330  0.8993
 2163SOL    HW117951   3.743   0.289   9.404  0.1426 -0.7943  0.7069
 2163SOL    HW217952   3.810   0.406   9.351  2.2466  0.0979 -1.6628
 2164SOL     OW17953   3.627   1.786   2.963 -0.2228 -0.3563  0.0956
 2164SOL    HW117954   3.722   1.772   2.958  0.0046  1.1804  0.1290
 2164SOL    HW217955   3.603   1.699   2.996 -0.0101 -0.0790  0.9735
 2165SOL     OW17956   3.722   0.505   4.489  0.6091 -0.1452  0.5859
 2165SOL    HW117957   3.816   0.486   4.495  0.1900 -2.4067 -0.1498
 2165SOL    HW217958   3.704   0.503   4.395 -0.4787 -2.0302  0.8401
 2166SOL     OW17959   4.006   1.939   2.542  0.2151  0.2139  0.2962
 2166SOL    HW117960   4.074   1.964   2.605  0.2215  0.2216  0.2861
 2166SOL    HW217961   3.972   1.858   2.580  0.7665  0.0092  0.3599
 2167SOL     OW17962   4.649   1.445   6.463  0.3046  0.5512  0.1596
 2167SOL    HW117963   4.688   1.434   6.376 -0.3605  0.8272 -0.1748
 2167SOL    HW217964   4.622   1.354   6.470  1.0178  0.3788  0.6386
 2168SOL     OW17965   3.124   0.625  16.806 -0.5340 -0.1245 -0.9674
 2168SOL    HW117966   3.063   0.551  16.810  2.2236 -2.3625  0.3424
 2168SOL    HW217967   3.136   0.658  16.895  1.0153 -0.3587 -1.0834
 2169SOL     OW17968   1.202   2.215   9.055  0.2645 -0.2413 -0.0541
 2169SOL    HW117969   1.287   2.228   9.098  0.3454 -0.7674 -0.0522
 2169SOL    HW217970   1.142   2.252   9.120  0.2618  1.1089 -0.8275
 2170SOL     OW17971   0.077   0.156   0.201  0.5479 -0.7848  0.1556
 2170SOL    HW117972   4.718   0.156   0.158 -1.0878  1.0554  3.4115
 2170SOL    HW217973   0.116   0.232   0.159  1.0311 -0.6002  0.9275
 2171SOL     OW17974   4.653   2.009   7.447 -0.2838 -0.3079  0.0674
 2171SOL    HW117975   4.674   1.922   7.412  2.7547 -0.5178  2.4093
 2171SOL    HW217976   4.565   1.988   7.476  0.6737 -2.6503  1.2922
 2172SOL     OW17977   3.597   1.335   6.499 -0.1915  0.3546 -0.3211
 2172SOL    HW117978   3.530   1.397   6.530  0.1010 -0.1743  1.3843
 2172SOL    HW217979   3.595   1.352   6.405  1.5023 -0.6240 -0.5263
 2173SOL     OW17980   4.201   3.496   3.695  0.6036  0.2642 -0.0965
 2173SOL    HW117981   4.124   3.553   3.699  2.4623  2.9278 -1.9765
 2173SOL    HW217982   4.209   3.471   3.787 -0.2001  0.6746  0.0853
 2174SOL     OW17983   4.290   0.193  10.754 -0.5172 -0.4209 -0.1271
 2174SOL    HW117984   4.238   0.244  10.816  0.7410  1.4691 -0.6307
 2174SOL    HW217985   4.234   0.186  10.677 -0.3853 -2.7159 -0.0269
 2175SOL     OW17986   0.796   1.139  11.691  0.0369 -0.6819  0.1861
 2175SOL    HW117987   0.874   1.142  11.636  0.6575 -0.3858  1.0780
 2175SOL    HW217988   0.786   1.049  11.720 -1.8573 -0.9672 -1.3405
 2176SOL     OW17989   1.796   3.542  11.739  0.2057 -0.4350 -0.1885
 2176SOL    HW117990   1.787   3.470  11.676  0.1766 -1.4638  1.0077
 2176SOL    HW217991   1.736   3.603  11.695  0.3747 -0.3231 -0.2641
 2177SOL     OW17992   1.012   0.315   8.913 -0.0448  0.5050  0.2730
 2177SOL    HW117993   1.093   0.265   8.915  0.8215  2.0167  1.9787
 2177SOL    HW217994   1.008   0.336   8.819 -2.1823 -2.3893 -0.2751
 2178SOL     OW17995   0.277   4.026   2.653 -0.1546  0.2932 -0.5002
 2178SOL    HW117996   0.330   4.056   2.727  0.0508 -0.4274 -0.3474
 2178SOL    HW217997   0.312   3.938   2.641  0.8851  0.7984 -1.1277
 2179SOL     OW17998   0.029   1.468   1.161 -0.1320  0.4706  0.1978
 2179SOL    HW117999   0.054   1.559   1.147 -3.8681  1.4370 -0.1152
 2179SOL    HW218000   0.091   1.424   1.103  0.4536 -0.2020  1.3253
 2180SOL     OW18001   0.405   0.756   3.266 -0.2576 -0.3152 -0.5973
 2180SOL    HW118002   0.402   0.669   3.306 -0.3389 -0.1920 -0.3338
 2180SOL    HW218003   0.463   0.732   3.194  0.4189 -3.9166  1.1425
 2181SOL     OW18004   1.055   3.243   9.122 -0.1390 -0.5855 -0.3858
 2181SOL    HW118005   1.142   3.212   9.098 -1.0753 -2.0801 -1.9462
 2181SOL    HW218006   1.033   3.165   9.174 -0.0524 -0.6429 -0.4348
 2182SOL     OW18007   4.720   3.565   8.537 -0.0174  0.1984  0.3637
 2182SOL    HW118008   0.057   3.536   8.604 -0.0805  1.0825  0.8060
 2182SOL    HW218009   4.689   3.486   8.491  0.2651 -0.7222  1.7500
 2183SOL     OW18010   3.454   2.364  14.977  0.3362  0.1481 -0.1563
 2183SOL    HW118011   3.517   2.322  14.918  1.5171  1.2048  0.3635
 2183SOL    HW218012   3.497   2.449  14.986 -1.4501  0.8236  1.6924
 2184SOL     OW18013   2.858   3.650   3.634  0.0273 -0.4534 -0.2015
 2184SOL    HW118014   2.885   3.653   3.542  0.2269 -0.1568 -0.1324
 2184SOL    HW218015   2.946   3.661   3.672  0.3103 -0.5384 -0.8221
 2185SOL     OW18016   2.791   3.912   6.526  0.5457  0.0680  0.9527
 2185SOL    HW118017   2.876   3.925   6.483 -0.7548  0.0222 -1.6221
 2185SOL    HW218018   2.813   3.930   6.617  0.1165  0.8722  0.9001
 2186SOL     OW18019   2.561   2.859  16.436  0.3186 -0.3440 -0.9251
 2186SOL    HW118020   2.481   2.822  16.472 -0.2464  0.7565 -1.0415
 2186SOL    HW218021   2.614   2.790  16.475 -0.7859 -2.1269 -2.5775
 2187SOL     OW18022   1.062   0.097   7.858  0.2956 -0.0525 -0.1590
 2187SOL    HW118023   1.055   0.156   7.783  0.4715 -1.2771 -1.1583
 2187SOL    HW218024   1.034   0.017   7.813 -1.9465  1.5905 -1.6863
 2188SOL     OW18025   3.400   4.379  16.069 -0.3678  0.2658 -0.6114
 2188SOL    HW118026   3.385   4.297  16.116 -2.4129  0.4022 -1.0317
 2188SOL    HW218027   3.414   4.330  15.988 -2.8555  0.6472 -1.2669
 2189SOL     OW18028   4.153   1.742   5.566  0.2217 -0.1097 -0.3694
 2189SOL    HW118029   4.194   1.674   5.511  0.8079 -1.2337  1.4510
 2189SOL    HW218030   4.119   1.692   5.640 -1.5196 -0.3237 -1.3117
 2190SOL     OW18031   0.603   4.552   7.490 -0.6123 -0.3499  0.3648
 2190SOL    HW118032   0.631   4.611   7.420 -0.4572  1.6980  2.1333
 2190SOL    HW218033   0.622   4.465   7.455 -0.8700 -0.6383  0.9398
 2191SOL     OW18034   0.219   2.271   0.713 -0.1084  0.6521 -0.3770
 2191SOL    HW118035   0.276   2.287   0.638 -1.4870  0.3990 -1.4828
 2191SOL    HW218036   0.147   2.211   0.693 -1.3514  1.3844  1.9558
 2192SOL     OW18037   2.635   0.699   9.595 -0.0212  0.2094  0.2511
 2192SOL    HW118038   2.659   0.736   9.680 -1.2920 -1.3574  1.2909
 2192SOL    HW218039   2.619   0.606   9.613 -1.3930  0.0326 -1.8658
 2193SOL     OW18040   0.552   1.169   6.397 -0.0944 -0.2330  0.5285
 2193SOL    HW118041   0.470   1.154   6.445 -0.8627  0.6371 -0.4802
 2193SOL    HW218042   0.532   1.241   6.337 -2.0958 -0.2232  1.1802
 2194SOL     OW18043   1.135   1.949   0.064  0.5321 -0.1158 -0.2983
 2194SOL    HW118044   1.046   1.957   0.029  0.3696 -0.6673 -0.0021
 2194SOL    HW218045   1.185   2.026   0.036 -2.5189  2.3446  1.0061
 2195SOL     OW18046   0.026   3.222   8.178 -0.0088 -0.3275  0.3331
 2195SOL    HW118047   4.699   3.143   8.163 -1.0929  0.7118 -1.3190
 2195SOL    HW218048   0.111   3.205   8.136  1.0894  3.5746  1.0536
 2196SOL     OW18049   4.519   1.015  17.565 -0.8934  0.1084  0.7058
 2196SOL    HW118050   4.576   1.079  17.607  2.7854 -1.9860 -1.1197
 2196SOL    HW218051   4.512   0.942  17.627  1.8845 -1.0076 -0.2663
 2197SOL     OW18052   2.084   1.423   7.612  0.1974 -0.2256  0.8358
 2197SOL    HW118053   2.168   1.455   7.646  0.1324  0.1499  0.6492
 2197SOL    HW218054   2.027   1.498   7.626 -1.3385 -0.8620 -2.1155
 2198SOL     OW18055   1.846   4.238   6.241  0.2623  0.6368  0.4465
 2198SOL    HW118056   1.844   4.165   6.302  0.0150 -0.6620 -1.1226
 2198SOL    HW218057   1.780   4.215   6.176  2.3370 -0.8169 -1.1392
 2199SOL     OW18058   1.754   2.434   6.086  0.4422 -0.5464 -0.0415
 2199SOL    HW118059   1.808   2.413   6.010 -0.3377 -3.2975  0.1813
 2199SOL    HW218060   1.686   2.369   6.074 -0.4916  0.3893  0.1474
 2200SOL     OW18061   4.191   0.393   9.306 -0.0751  0.0335 -0.1884
 2200SOL    HW118062   4.116   0.347   9.268 -0.0839  0.5242 -0.7715
 2200SOL    HW218063   4.258   0.407   9.239 -0.3869  1.2855 -0.2432
 2201SOL     OW18064   1.873   1.262   1.879  0.2883 -0.0951  0.2896
 2201SOL    HW118065   1.876   1.167   1.872 -2.5583 -0.1952  0.5011
 2201SOL    HW218066   1.965   1.287   1.892 -0.2202  2.0919 -0.2351
 2202SOL     OW18067   4.416   0.687   0.943 -0.3162  0.6082 -0.6374
 2202SOL    HW118068   4.416   0.612   1.003  0.9491  0.7218 -0.4980
 2202SOL    HW218069   4.420   0.643   0.859  2.0426 -1.5705  0.6174
 2203SOL     OW18070   4.620   1.308  16.288 -0.0565 -0.5629 -0.3648
 2203SOL    HW118071   4.699   1.284  16.239  1.1597  1.5002  0.5717
 2203SOL    HW218072   4.560   1.333  16.218  2.3866  1.2932 -1.7923
 2204SOL     OW18073   0.145   1.616   5.673  0.2800 -0.4549  0.0443
 2204SOL    HW118074   0.230   1.643   5.640  0.8235 -0.6338  1.2907
 2204SOL    HW218075   0.084   1.689   5.662  1.6952  0.7783  0.5286
 2205SOL     OW18076   1.903   3.691   3.580 -0.3577 -0.0862 -0.0496
 2205SOL    HW118077   1.979   3.744   3.558  1.3574 -2.5174 -0.0610
 2205SOL    HW218078   1.947   3.606   3.585  0.2240  0.1065 -1.8371
 2206SOL     OW18079   0.422   2.772   2.770  0.2866  0.1386 -0.3562
 2206SOL    HW118080   0.384   2.716   2.838 -0.6026  0.8492 -0.2610
 2206SOL    HW218081   0.397   2.720   2.693 -1.6248  0.0114  0.3479
 2207SOL     OW18082   2.935   3.554   7.433  0.3330  0.0569 -0.2529
 2207SOL    HW118083   2.880   3.625   7.400 -2.0785 -1.9053 -0.4475
 2207SOL    HW218084   3.023   3.583   7.406 -1.1612  2.2138 -2.7399
 2208SOL     OW18085   4.396   0.777   5.226  0.3530 -0.4810 -0.1240
 2208SOL    HW118086   4.459   0.739   5.289  0.2228  2.3495  1.6992
 2208SOL    HW218087   4.320   0.745   5.275  0.3655  1.1061  0.9141
 2209SOL     OW18088   2.681   0.970   4.964  0.3078  0.7890  0.4501
 2209SOL    HW118089   2.749   0.979   4.897  0.0706  1.5704  0.3061
 2209SOL    HW218090   2.631   0.906   4.914  2.8218 -0.9975  0.2017
 2210SOL     OW18091   1.498   4.074  14.926  0.0779 -0.2732  0.2233
 2210SOL    HW118092   1.564   4.068  14.857  0.8822 -2.5690  1.1920
 2210SOL    HW218093   1.536   4.033  15.003  0.0925 -0.2870  0.2087
 2211SOL     OW18094   2.301   2.289   9.545  0.2331 -0.0520  0.1345
 2211SOL    HW118095   2.328   2.298   9.637  0.8426 -3.4760  0.2965
 2211SOL    HW218096   2.226   2.232   9.558  1.2500 -1.6903 -1.1468
 2212SOL     OW18097   4.234   0.705  16.566 -0.4668 -0.4049  0.3230
 2212SOL    HW118098   4.327   0.699  16.546 -0.2871  1.2687  0.6047
 2212SOL    HW218099   4.209   0.789  16.526  1.0589 -0.2524 -0.3274
 2213SOL     OW18100   1.077   1.186   2.977 -0.1083  0.9742  0.4717
 2213SOL    HW118101   1.000   1.239   2.997 -1.8360 -2.0318  1.7950
 2213SOL    HW218102   1.084   1.206   2.884 -0.4918 -1.8825 -0.1721
 2214SOL     OW18103   1.197   4.108   3.414  0.0891  0.0450 -0.8735
 2214SOL    HW118104   1.290   4.088   3.417 -0.0075 -0.2916 -0.0698
 2214SOL    HW218105   1.190   4.119   3.319  0.2928 -0.9681 -1.0053
 2215SOL     OW18106   3.778   3.021  12.904 -0.0593  0.2566 -0.2688
 2215SOL    HW118107   3.869   3.028  12.875 -0.5844 -0.9884 -2.2652
 2215SOL    HW218108   3.803   2.967  12.979  0.0509  1.9161  0.8996
 2216SOL     OW18109   2.036   0.113   2.269 -0.2459 -0.6785  0.2396
 2216SOL    HW118110   2.098   0.105   2.196  0.1714  0.7806  0.4421
 2216SOL    HW218111   1.953   0.084   2.230 -0.4841 -0.8346  0.8636
 2217SOL     OW18112   2.541   3.793   0.233  0.1692 -0.0652 -0.3496
 2217SOL    HW118113   2.573   3.820   0.319  0.4610  0.7221 -0.6986
 2217SOL    HW218114   2.477   3.863   0.219 -1.2753 -1.1445  0.9358
 2218SOL     OW18115   1.490   1.557   9.349  0.1954  0.3951 -0.5062
 2218SOL    HW118116   1.395   1.548   9.356  0.0506  0.9622 -1.6951
 2218SOL    HW218117   1.510   1.463   9.344 -0.9591  0.2497 -2.7570
 2219SOL     OW18118   4.513   2.020  12.678 -0.8986  0.6155  0.1816
 2219SOL    HW118119   4.583   2.083  12.662  0.7211 -1.7043 -1.8034
 2219SOL    HW218120   4.549   1.935  12.652 -2.3903  0.4226 -1.2486
 2220SOL     OW18121   2.263   3.804  11.066 -0.3677  0.2769  0.4341
 2220SOL    HW118122   2.176   3.794  11.103 -0.9558 -0.8937 -1.2274
 2220SOL    HW218123   2.316   3.827  11.142  1.6363 -0.7612 -0.6362
 2221SOL     OW18124   1.328   0.313   1.719 -0.0858  0.0192 -0.5241
 2221SOL    HW118125   1.408   0.360   1.695  0.2595 -1.0930 -1.5723
 2221SOL    HW218126   1.323   0.333   1.812 -1.0009  2.3928 -1.0853
 2222SOL     OW18127   2.720   2.744  14.256  0.0556  0.0538 -0.5606
 2222SOL    HW118128   2.655   2.676  14.273  0.4094 -0.1314  0.0716
 2222SOL    HW218129   2.709   2.746  14.161  1.5398 -0.7021 -0.7598
 2223SOL     OW18130   3.816   0.301   8.177 -0.4024 -0.4632  0.0090
 2223SOL    HW118131   3.885   0.268   8.234 -2.2423  0.8510  3.0160
 2223SOL    HW218132   3.839   0.393   8.164  0.1000 -0.6261 -0.2481
 2224SOL     OW18133   0.566   3.964   7.731  0.4325 -0.3458  0.1920
 2224SOL    HW118134   0.484   3.924   7.761  0.1096 -2.4194 -3.4661
 2224SOL    HW218135   0.529   4.038   7.682 -0.1299  0.9956  2.6247
 2225SOL     OW18136   3.589   1.554  15.631  0.3699 -0.4002  0.1771
 2225SOL    HW118137   3.516   1.568  15.571  0.4991  0.0706  0.1342
 2225SOL    HW218138   3.590   1.639  15.675  0.2918 -0.4119  0.2027
 2226SOL     OW18139   2.514   4.138   7.881  0.3821 -0.3782 -0.5479
 2226SOL    HW118140   2.604   4.106   7.886 -0.2608 -1.7935  2.1951
 2226SOL    HW218141   2.506   4.170   7.971  0.7294 -0.1803 -0.5899
 2227SOL     OW18142   1.216   1.663   5.335 -0.2460  0.3143  0.2435
 2227SOL    HW118143   1.208   1.692   5.244  0.0122 -1.1296 -0.2239
 2227SOL    HW218144   1.167   1.732   5.381  0.3850  0.5586  0.5517
 2228SOL     OW18145   3.896   0.964  10.130  0.0819  0.6703 -0.1608
 2228SOL    HW118146   3.860   0.922  10.207  2.0727  0.0378  0.4211
 2228SOL    HW218147   3.865   1.053  10.146  2.0321  1.4825 -0.8482
 2229SOL     OW18148   2.155   1.004  13.716  0.0523 -0.5449  0.2945
 2229SOL    HW118149   2.246   0.984  13.694  0.0009  0.3495 -0.7568
 2229SOL    HW218150   2.137   0.989  13.809 -1.0609 -0.9908  0.0105
 2230SOL     OW18151   0.372   4.673   1.913 -0.1191 -0.4376 -0.7464
 2230SOL    HW118152   0.276   4.676   1.914  0.0239  2.8384  2.6664
 2230SOL    HW218153   0.381   4.626   1.830 -0.4756  0.3223 -1.2252
 2231SOL     OW18154   2.944   2.943   4.827 -0.1276  0.2107 -0.3741
 2231SOL    HW118155   2.914   2.872   4.770 -2.2953  1.0303 -0.2381
 2231SOL    HW218156   2.872   2.952   4.889 -0.0518  2.6576 -0.6223
 2232SOL     OW18157   2.874   2.085   3.124  0.1714  0.1403 -0.0443
 2232SOL    HW118158   2.779   2.093   3.122  0.1383 -0.0804  0.4703
 2232SOL    HW218159   2.877   1.998   3.083 -0.0868 -0.1177  0.4825
 2233SOL     OW18160   3.630   3.249  12.105 -0.3165  0.2198  0.2439
 2233SOL    HW118161   3.667   3.305  12.173 -0.8589 -0.5704  1.1733
 2233SOL    HW218162   3.661   3.162  12.131 -0.8579  0.1119  0.5302
 2234SOL     OW18163   2.490   2.507  13.797  0.3393  0.6708  1.4732
 2234SOL    HW118164   2.478   2.430  13.853 -0.2806 -0.3782 -0.1114
 2234SOL    HW218165   2.426   2.491  13.728 -0.3627  2.0912  1.7923
 2235SOL     OW18166   2.853   4.580   2.473  0.1164  0.1403 -0.0216
 2235SOL    HW118167   2.903   4.589   2.392  2.6840  0.8764  1.6621
 2235SOL    HW218168   2.855   4.487   2.495 -0.1663  0.8716  3.0194
 2236SOL     OW18169   4.059   1.942  11.140  0.5931  0.0959  0.1490
 2236SOL    HW118170   4.113   1.886  11.084  0.7018 -0.0709  0.4185
 2236SOL    HW218171   4.062   1.889  11.220  0.4832  0.5750  0.4726
 2237SOL     OW18172   2.495   1.369   7.044  0.5640  0.4388 -0.4540
 2237SOL    HW118173   2.524   1.444   7.095  2.6141  0.3464 -1.4516
 2237SOL    HW218174   2.543   1.307   7.099 -0.2804  0.1336 -0.0703
 2238SOL     OW18175   4.660   3.662   4.703 -0.1745 -0.2694  0.1660
 2238SOL    HW118176   4.675   3.592   4.766  2.7086 -0.9332 -1.2669
 2238SOL    HW218177   0.001   3.648   4.636 -3.4279 -3.4577 -2.3641
 2239SOL     OW18178   0.875   1.288   1.524  0.5727 -0.1317 -0.0339
 2239SOL    HW118179   0.857   1.205   1.567 -0.0710  0.1542  0.2471
 2239SOL    HW218180   0.792   1.333   1.512 -0.2602 -1.1765  1.7612
 2240SOL     OW18181   0.170   0.560   6.366 -0.0899 -0.1388 -0.4715
 2240SOL    HW118182   0.176   0.464   6.366  2.3944  0.0114  1.4950
 2240SOL    HW218183   0.142   0.580   6.455  1.7726  2.4016 -0.4400
 2241SOL     OW18184   1.227   3.055  16.786 -0.5300 -0.4490 -0.2294
 2241SOL    HW118185   1.219   2.983  16.850 -1.2872 -1.6958 -1.7174
 2241SOL    HW218186   1.288   3.025  16.718 -0.1379  0.1879 -0.1543
 2242SOL     OW18187   0.496   2.123   8.493  0.2095 -0.0716  0.1383
 2242SOL    HW118188   0.537   2.044   8.527  1.4404 -0.1765 -1.6006
 2242SOL    HW218189   0.549   2.147   8.417  0.1804 -1.0406 -0.1856
 2243SOL     OW18190   0.558   1.645  17.076 -0.0883 -0.0622  0.3553
 2243SOL    HW118191   0.489   1.579  17.069 -0.6789  0.5751  0.2267
 2243SOL    HW218192   0.531   1.704  17.006  1.7461 -3.0843 -2.9008
 2244SOL     OW18193   0.515   2.185  15.437  0.3088  0.7320  0.1704
 2244SOL    HW118194   0.543   2.242  15.508  0.8394 -1.0248  1.3632
 2244SOL    HW218195   0.470   2.111  15.478 -1.1285  0.3364 -2.0814
 2245SOL     OW18196   2.823   1.792   6.117 -0.5666 -0.0455  0.4327
 2245SOL    HW118197   2.809   1.701   6.094  0.9975 -0.0563 -0.4904
 2245SOL    HW218198   2.919   1.791   6.127 -0.9690 -1.4796  4.2882
 2246SOL     OW18199   3.060   1.329  11.836  0.0357 -0.1699 -0.1921
 2246SOL    HW118200   3.148   1.309  11.806 -0.7982 -1.3786 -1.8208
 2246SOL    HW218201   3.051   1.424  11.838 -1.0261 -0.3039  1.0808
 2247SOL     OW18202   3.981   2.092   9.093 -0.1552  1.1037 -0.7771
 2247SOL    HW118203   3.932   2.036   9.033  1.0931 -0.3236 -0.4694
 2247SOL    HW218204   4.063   2.043   9.103 -1.1750 -0.4670 -0.1297
 2248SOL     OW18205   1.650   1.386   2.964 -0.8367 -0.0605  0.1259
 2248SOL    HW118206   1.557   1.363   2.971 -0.8746  0.3416  0.9237
 2248SOL    HW218207   1.672   1.371   2.872 -0.9714 -0.7015  0.1957
 2249SOL     OW18208   2.979   2.451  11.080  0.1894 -0.2002 -0.6205
 2249SOL    HW118209   3.035   2.485  11.009 -0.2487  1.3420 -0.2270
 2249SOL    HW218210   2.916   2.401  11.028 -1.0174 -0.7710  1.4250
 2250SOL     OW18211   2.859   3.153   6.950  0.4181  0.2547  0.2134
 2250SOL    HW118212   2.829   3.230   6.998 -1.0145  0.4140 -0.9402
 2250SOL    HW218213   2.819   3.079   6.997 -0.6121  0.5784 -0.1546
 2251SOL     OW18214   4.579   2.360   7.025  0.4681  0.4712  0.6087
 2251SOL    HW118215   4.548   2.295   7.088  1.7153 -0.4801  0.2341
 2251SOL    HW218216   4.581   2.445   7.068 -0.8162  1.2355 -0.8776
 2252SOL     OW18217   0.489   1.372   9.029 -0.1142 -0.1817 -0.1216
 2252SOL    HW118218   0.409   1.356   9.080  0.4709 -2.9373 -0.0445
 2252SOL    HW218219   0.491   1.467   9.028 -1.3416 -0.1309  1.4146
 2253SOL     OW18220   1.521   1.404   2.093  0.5047 -0.1034 -0.4831
 2253SOL    HW118221   1.550   1.385   2.004  2.7137 -0.6481  0.3358
 2253SOL    HW218222   1.591   1.463   2.122 -1.4815  0.9146  2.2602
 2254SOL     OW18223   1.011   4.173   0.771 -0.2705 -0.5265  0.1941
 2254SOL    HW118224   0.935   4.215   0.811  0.8030  1.1698  0.5123
 2254SOL    HW218225   0.964   4.115   0.712 -0.7601  1.6898 -1.6260
 2255SOL     OW18226   3.084   0.770   3.957 -0.1588  0.2951 -0.5241
 2255SOL    HW118227   3.171   0.810   3.953  0.2468 -0.2400  2.9054
 2255SOL    HW218228   3.022   0.837   3.927  0.8627  0.9490 -1.1824
 2256SOL     OW18229   1.631   3.620   2.686  0.8470  0.3217  1.0094
 2256SOL    HW118230   1.665   3.557   2.622 -1.6005  0.4628 -0.4497
 2256SOL    HW218231   1.715   3.655   2.715  2.0585 -0.3691 -1.5656
 2257SOL     OW18232   3.116   2.036   1.099  0.2696  0.5545 -0.3520
 2257SOL    HW118233   3.103   2.131   1.097  0.4648  0.6281  2.4534
 2257SOL    HW218234   3.194   2.037   1.154  0.8394 -0.2550 -1.1426
 2258SOL     OW18235   0.374   3.825   2.932 -0.1458 -0.1164  0.1187
 2258SOL    HW118236   0.466   3.812   2.955 -0.5747 -1.6158  0.9215
 2258SOL    HW218237   0.381   3.904   2.877 -1.5236 -1.4104 -1.9080
 2259SOL     OW18238   1.851   1.975   3.458  0.3798 -0.0567  0.1711
 2259SOL    HW118239   1.828   2.058   3.500  0.5342  0.2367 -0.3251
 2259SOL    HW218240   1.818   1.994   3.370 -1.5500  2.4111  1.4621
 2260SOL     OW18241   2.093   0.426  17.377 -0.5825  0.3005 -0.0671
 2260SOL    HW118242   2.105   0.491  17.446  0.8822  0.6383 -0.6402
 2260SOL    HW218243   2.156   0.452  17.309 -1.4873 -0.5849 -1.2453
 2261SOL     OW18244   1.728   2.505   6.724  0.2142  0.3252  0.2447
 2261SOL    HW118245   1.693   2.581   6.771  0.5271  1.1731 -0.9071
 2261SOL    HW218246   1.765   2.550   6.648  0.5757  0.0311  0.2450
 2262SOL     OW18247   3.882   2.833  10.186 -0.1668 -0.4796 -0.3397
 2262SOL    HW118248   3.896   2.740  10.203 -0.7971 -0.7846 -1.5759
 2262SOL    HW218249   3.849   2.839  10.097 -0.1179 -0.8852 -0.3826
 2263SOL     OW18250   0.037   0.769  10.168 -0.3988 -0.4930 -0.0853
 2263SOL    HW118251   4.725   0.692  10.210 -1.0825 -0.4209 -0.5521
 2263SOL    HW218252   0.066   0.814  10.247  0.3836 -0.3049 -0.4748
 2264SOL     OW18253   1.870   0.592   6.041  0.2837 -0.4217  0.0730
 2264SOL    HW118254   1.913   0.648   6.105 -0.1814 -0.3037  0.2858
 2264SOL    HW218255   1.815   0.540   6.100 -0.8300  0.5604 -0.0816
 2265SOL     OW18256   0.865   2.513  14.495 -0.2063 -0.4547  0.0998
 2265SOL    HW118257   0.915   2.500  14.415  0.0166 -2.3207  0.5390
 2265SOL    HW218258   0.907   2.446  14.549 -0.5246 -0.1815  0.6893
 2266SOL     OW18259   3.128   3.902   6.124  0.5596  0.0495  0.6958
 2266SOL    HW118260   3.051   3.863   6.082  0.0945  0.8370  0.8158
 2266SOL    HW218261   3.128   3.988   6.083  0.2132 -0.2481  0.0838
 2267SOL     OW18262   3.596   2.575   3.210  0.0784 -0.2577 -0.3015
 2267SOL    HW118263   3.627   2.504   3.265 -0.7349 -0.1191  0.3303
 2267SOL    HW218264   3.677   2.625   3.200  1.8391 -3.3717 -1.5624
 2268SOL     OW18265   1.659   1.367   4.455 -0.3548  0.3455 -0.5020
 2268SOL    HW118266   1.637   1.277   4.429 -1.4465 -0.4221  3.0816
 2268SOL    HW218267   1.583   1.412   4.491  0.3272 -1.2494  3.0045
 2269SOL     OW18268   0.279   1.503   1.521  0.1091  0.0570 -0.1547
 2269SOL    HW118269   0.319   1.552   1.592 -0.9765  0.5747  0.0974
 2269SOL    HW218270   0.317   1.536   1.440 -2.0259 -0.8295 -1.5267
 2270SOL     OW18271   3.965   2.919   8.704 -0.0342  0.0050 -0.2721
 2270SOL    HW118272   3.911   2.915   8.784 -2.4339 -0.5714 -1.9303
 2270SOL    HW218273   3.921   2.856   8.647 -1.6201 -1.0988  2.1530
 2271SOL     OW18274   1.207   0.087   8.877 -0.1840  0.1518  0.4322
 2271SOL    HW118275   1.147   0.017   8.852  0.1543  0.1260 -0.2990
 2271SOL    HW218276   1.241   0.123   8.795 -0.3494 -0.2062  0.2099
 2272SOL     OW18277   3.690   4.242  15.118 -0.3274 -0.0587 -0.3724
 2272SOL    HW118278   3.639   4.322  15.130  0.1336  0.0421  0.8821
 2272SOL    HW218279   3.617   4.186  15.090  0.5345 -2.3677  1.9569
 2273SOL     OW18280   2.933   0.692   3.060 -0.1902  0.1294  0.4074
 2273SOL    HW118281   2.933   0.598   3.043 -0.3748  0.4937 -1.6130
 2273SOL    HW218282   3.022   0.717   3.084 -0.8205  3.2518 -0.5192
 2274SOL     OW18283   2.112   4.202  12.661  0.3277 -0.3669 -0.0415
 2274SOL    HW118284   2.080   4.293  12.661  0.2824 -0.3824  0.2230
 2274SOL    HW218285   2.104   4.171  12.751 -0.4633 -2.4932 -0.8548
 2275SOL     OW18286   2.461   3.319   8.411 -0.1978  0.5723  0.0942
 2275SOL    HW118287   2.474   3.336   8.318  2.7047  0.0388  0.3805
 2275SOL    HW218288   2.485   3.407   8.439  2.3456  0.2746 -1.1070
 2276SOL     OW18289   1.187   4.657   4.537 -0.6143  0.5714 -0.2340
 2276SOL    HW118290   1.144   4.670   4.452  1.0931 -1.1629 -1.3632
 2276SOL    HW218291   1.214   4.566   4.530 -0.1839  0.4949  2.4303
 2277SOL     OW18292   0.045   2.358   5.601 -0.1410 -0.0006  0.2608
 2277SOL    HW118293   0.009   2.443   5.577  2.2000  0.9179 -0.0305
 2277SOL    HW218294   0.130   2.390   5.633 -0.6487  1.3581  0.2360
 2278SOL     OW18295   0.914   4.292  14.437  0.3674 -0.1497 -0.2932
 2278SOL    HW118296   1.003   4.320  14.416 -0.0204  0.8336 -0.6407
 2278SOL    HW218297   0.860   4.355  14.387 -0.0463  0.2434  0.6423
 2279SOL     OW18298   1.522   4.668   2.517 -0.6587 -0.0636 -0.1134
 2279SOL    HW118299   1.558   4.603   2.578  1.7875  0.7220 -0.7287
 2279SOL    HW218300   1.556   4.631   2.436  1.6746  0.2175  0.7163
 2280SOL     OW18301   2.810   0.139   2.893  0.0076 -0.1153 -0.3734
 2280SOL    HW118302   2.741   0.074   2.904  0.0367  0.3190  2.2517
 2280SOL    HW218303   2.796   0.151   2.799  1.0653 -2.0044 -0.7875
 2281SOL     OW18304   4.275   4.030   2.439  0.0640 -0.1905  0.3721
 2281SOL    HW118305   4.327   3.958   2.402 -1.1681 -0.1026 -1.5691
 2281SOL    HW218306   4.334   4.054   2.510  0.4263  0.6860 -0.2273
 2282SOL     OW18307   2.734   3.505   9.477 -0.2281  0.4952  0.6762
 2282SOL    HW118308   2.757   3.598   9.487  0.3260  0.5223 -0.9435
 2282SOL    HW218309   2.715   3.508   9.383 -0.0669 -0.2012  0.6273
 2283SOL     OW18310   3.953   1.663  12.382  0.5416  0.1004 -0.5387
 2283SOL    HW118311   4.036   1.619  12.363  0.9589 -0.9321  3.4641
 2283SOL    HW218312   3.910   1.675  12.298  1.0342  0.8166 -0.6835
 2284SOL     OW18313   1.496   0.582   7.461  0.1176 -0.2769 -0.3580
 2284SOL    HW118314   1.572   0.523   7.465  1.9239  2.1471  1.3013
 2284SOL    HW218315   1.500   0.625   7.546  0.0689 -1.5583  0.2991
 2285SOL     OW18316   2.491   2.060   9.987  0.1225 -0.7280 -0.8614
 2285SOL    HW118317   2.427   2.015   9.932 -0.0353  0.8713 -1.9811
 2285SOL    HW218318   2.569   2.013   9.957 -0.2587 -0.8441 -1.6661
 2286SOL     OW18319   2.356   3.024   3.996  0.1228  0.1491 -0.9716
 2286SOL    HW118320   2.417   3.092   3.970 -0.1067  0.6164 -0.2918
 2286SOL    HW218321   2.393   2.994   4.080 -0.1931 -1.3582 -1.3595
 2287SOL     OW18322   2.025   1.081  15.648  0.2833  0.0805  0.1841
 2287SOL    HW118323   1.964   1.009  15.666 -0.1455  0.2904 -0.4179
 2287SOL    HW218324   1.963   1.153  15.655  0.5508  0.2605  0.6421
 2288SOL     OW18325   2.788   0.893   4.548  0.1736 -0.2593 -0.6284
 2288SOL    HW118326   2.710   0.928   4.590  0.7916 -0.6186  0.8274
 2288SOL    HW218327   2.851   0.886   4.620  0.3239  1.1904 -0.6317
 2289SOL     OW18328   2.562   1.928   4.253  0.0976 -0.9120 -0.2555
 2289SOL    HW118329   2.598   1.841   4.269  2.4826  0.2895  0.9118
 2289SOL    HW218330   2.510   1.917   4.173 -0.5429 -0.5424  0.1137
 2290SOL     OW18331   1.911   3.914   7.315  1.1037  0.3496 -0.0578
 2290SOL    HW118332   1.937   3.848   7.379 -2.5689  0.7415  1.8342
 2290SOL    HW218333   1.922   3.871   7.230  1.8129  1.5005 -0.5586
 2291SOL     OW18334   1.315   0.819   3.087  0.0988  0.6824 -0.6630
 2291SOL    HW118335   1.368   0.741   3.069  1.8698  1.8644 -0.6056
 2291SOL    HW218336   1.335   0.835   3.180 -0.5904 -0.9972 -0.2285
 2292SOL     OW18337   2.513   0.605  16.444 -0.4821  0.7641  0.3994
 2292SOL    HW118338   2.519   0.696  16.415  2.1122  1.2377  2.4916
 2292SOL    HW218339   2.516   0.565  16.357  1.4676  0.8065  0.4448
 2293SOL     OW18340   1.942   4.159   3.696 -0.3364  0.3903 -0.5394
 2293SOL    HW118341   1.921   4.191   3.784 -2.0342 -0.6328 -0.5764
 2293SOL    HW218342   1.984   4.075   3.717  0.4519  1.1783  1.0344
 2294SOL     OW18343   4.709   1.607   3.627  0.0300  0.8066  0.3053
 2294SOL    HW118344   4.700   1.702   3.636 -1.4549  0.4114  2.9268
 2294SOL    HW218345   0.048   1.593   3.696  0.1234 -0.9923 -0.1460
 2295SOL     OW18346   0.953   4.476   7.528  0.3606 -0.3670  0.3893
 2295SOL    HW118347   1.032   4.500   7.480  0.2210  0.5609  0.6385
 2295SOL    HW218348   0.958   4.533   7.604  0.1893  1.3777 -0.8990
 2296SOL     OW18349   3.406   1.673   3.130 -0.2040 -0.3806 -0.0878
 2296SOL    HW118350   3.339   1.665   3.061  0.2291 -3.2616 -0.2037
 2296SOL    HW218351   3.361   1.622   3.197 -1.7960  0.3605 -0.5837
 2297SOL     OW18352   2.157   3.535   7.763  0.3635 -0.0627  0.2649
 2297SOL    HW118353   2.105   3.474   7.711  0.7991 -0.4051  0.2289
 2297SOL    HW218354   2.248   3.534   7.735  0.5018 -1.9624  0.8153
 2298SOL     OW18355   4.286   2.498   5.623 -0.2125 -0.5730  0.1072
 2298SOL    HW118356   4.276   2.482   5.529  0.8601  1.2046 -0.2961
 2298SOL    HW218357   4.198   2.473   5.653 -0.7289  0.8719 -0.2170
 2299SOL     OW18358   2.945   2.041  16.164  0.1780 -0.2753 -0.8873
 2299SOL    HW118359   3.024   1.987  16.164  2.3199  2.8606 -1.7367
 2299SOL    HW218360   2.970   2.126  16.127  0.9314  1.4210  3.5007
 2300SOL     OW18361   2.831   3.694   8.262 -0.1434 -0.1591  0.4404
 2300SOL    HW118362   2.907   3.685   8.320 -0.6043 -0.1551  1.0460
 2300SOL    HW218363   2.807   3.602   8.250 -0.3711 -0.0916  0.3853
 2301SOL     OW18364   0.714   3.158  16.942  0.4855  0.6685  0.1820
 2301SOL    HW118365   0.721   3.073  16.987 -1.1066  0.2740 -0.3275
 2301SOL    HW218366   0.806   3.183  16.949  0.9033 -0.7031 -0.4136
 2302SOL     OW18367   4.193   2.800   8.120 -0.4031  0.0760 -0.3178
 2302SOL    HW118368   4.116   2.853   8.141 -0.4480  0.7535 -2.1193
 2302SOL    HW218369   4.148   2.732   8.069  1.0682 -0.8168 -0.4075
 2303SOL     OW18370   1.078   3.894   0.413  0.2642  0.2171 -0.0952
 2303SOL    HW118371   1.147   3.929   0.357 -0.8040 -2.3583 -2.9984
 2303SOL    HW218372   1.084   3.803   0.383 -0.4257 -0.3377  1.4557
 2304SOL     OW18373   1.144   3.515   3.037  0.0368  0.2418  0.7310
 2304SOL    HW118374   1.075   3.451   3.053  0.5435 -0.4947 -0.0600
 2304SOL    HW218375   1.219   3.466   3.005  0.9302  3.8214 -2.6400
 2305SOL     OW18376   0.163   2.387   4.930  0.4236  0.1162  0.1779
 2305SOL    HW118377   0.146   2.435   4.850  1.2214  0.1524  0.0296
 2305SOL    HW218378   0.258   2.383   4.919  0.4496 -1.0012  0.8172
 2306SOL     OW18379   1.691   2.674  10.675 -0.5021  0.9481  0.0021
 2306SOL    HW118380   1.762   2.694  10.736  1.0101 -0.7186 -1.2236
 2306SOL    HW218381   1.624   2.638  10.734 -0.2204 -0.3476 -0.4741
 2307SOL     OW18382   3.206   2.466   4.573 -0.0901 -0.1704  0.3019
 2307SOL    HW118383   3.189   2.547   4.621 -1.9391  0.2749 -1.1179
 2307SOL    HW218384   3.122   2.423   4.588 -0.3110  0.3120  0.4424
 2308SOL     OW18385   2.557   4.212   2.595  0.0238  0.3012  0.0705
 2308SOL    HW118386   2.583   4.263   2.518  2.7058 -0.8893  0.1823
 2308SOL    HW218387   2.467   4.243   2.604 -0.0507 -0.0721  0.6737
 2309SOL     OW18388   1.973   2.296  15.425 -0.2943 -0.1299  0.3610
 2309SOL    HW118389   1.923   2.325  15.349 -1.8699  0.6477  1.6904
 2309SOL    HW218390   2.058   2.285  15.382  0.9354  1.9120  2.2796
 2310SOL     OW18391   4.541   0.452   2.308 -0.1867  0.0177 -0.3515
 2310SOL    HW118392   4.545   0.444   2.403 -0.7876  0.7514 -0.2601
 2310SOL    HW218393   4.449   0.473   2.295 -0.3307 -0.5984 -0.3295
 2311SOL     OW18394   3.553   0.404  10.055 -0.2217 -0.4268 -0.5475
 2311SOL    HW118395   3.622   0.471  10.058  0.6702 -1.4836  2.9167
 2311SOL    HW218396   3.585   0.345   9.987  0.6784  1.5123 -1.7985
 2312SOL     OW18397   4.141   0.866   3.949  0.7132 -0.1748  0.0020
 2312SOL    HW118398   4.132   0.864   3.853 -0.0013 -1.7313  0.1000
 2312SOL    HW218399   4.050   0.871   3.979  1.2794  0.8409  1.5451
 2313SOL     OW18400   2.398   3.314   5.986  0.2873 -0.1335  0.3050
 2313SOL    HW118401   2.400   3.218   5.979  1.1161 -0.1917  1.4005
 2313SOL    HW218402   2.351   3.338   5.906  1.1854 -0.2676 -0.2579
 2314SOL     OW18403   3.890   4.064   6.413 -0.5580 -0.0399  0.1429
 2314SOL    HW118404   3.974   4.028   6.440 -1.5611 -0.1009  3.2061
 2314SOL    HW218405   3.834   3.990   6.437  0.4378 -1.0430 -0.6748
 2315SOL     OW18406   1.676   1.894   7.975  0.2717  0.0670  0.5667
 2315SOL    HW118407   1.740   1.960   7.947  1.0464 -1.4938 -1.3597
 2315SOL    HW218408   1.591   1.938   7.973  0.0609 -0.3942 -0.7532
 2316SOL     OW18409   1.214   0.290   5.546  0.6544  0.4697  0.4136
 2316SOL    HW118410   1.290   0.327   5.502 -0.4111 -0.6689 -2.3597
 2316SOL    HW218411   1.239   0.200   5.566 -0.3157  0.1367  0.1529
 2317SOL     OW18412   1.400   4.658   5.832 -0.5583  0.1458 -0.3288
 2317SOL    HW118413   1.426   4.590   5.769 -1.0063 -1.6235  1.4156
 2317SOL    HW218414   1.486   4.672   5.872 -0.0974  1.1455 -1.6566
 2318SOL     OW18415   0.583   4.368   4.447  0.1196  0.4894 -1.0755
 2318SOL    HW118416   0.525   4.295   4.470 -0.6082  1.9351  1.8094
 2318SOL    HW218417   0.663   4.319   4.430  1.7242  3.2808 -1.7032
 2319SOL     OW18418   0.519   3.951  10.770 -0.2615  0.2516 -0.8241
 2319SOL    HW118419   0.434   3.982  10.737 -0.0660  2.0125  0.2730
 2319SOL    HW218420   0.570   4.025  10.737  1.2154 -0.1314  0.5900
 2320SOL     OW18421   4.572   1.584  17.517 -0.2359 -0.1962 -0.9229
 2320SOL    HW118422   4.659   1.622  17.530  0.1167 -1.7811  1.2664
 2320SOL    HW218423   4.522   1.617  17.591 -0.3200 -0.9448 -0.6378
 2321SOL     OW18424   1.976   1.786   4.512  0.2406  0.4595 -0.4179
 2321SOL    HW118425   2.018   1.794   4.427 -1.2746 -0.3849 -1.2506
 2321SOL    HW218426   1.984   1.874   4.548 -1.0702  0.5160 -0.2339
 2322SOL     OW18427   2.306   4.333   0.044 -0.0138  0.5569  0.3069
 2322SOL    HW118428   2.226   4.378   0.020 -0.2390 -0.7629 -1.3884
 2322SOL    HW218429   2.311   4.337   0.140  0.9971  0.8994  0.2437
 2323SOL     OW18430   1.463   4.055   5.441 -0.3933  0.0114 -0.1569
 2323SOL    HW118431   1.419   4.047   5.525  1.2869 -0.9686  0.6367
 2323SOL    HW218432   1.407   4.000   5.388 -0.3382  0.3174 -0.5341
 2324SOL     OW18433   3.605   0.145  17.360  0.3418  0.3181 -0.7522
 2324SOL    HW118434   3.582   0.220  17.414  1.6564 -0.1507  0.4623
 2324SOL    HW218435   3.524   0.109  17.323  1.6256 -1.0544 -2.2181
 2325SOL     OW18436   0.250   2.985   7.740  0.5457 -0.4314  0.6985
 2325SOL    HW118437   0.295   3.049   7.795  4.8120 -1.9483 -1.0127
 2325SOL    HW218438   0.177   2.947   7.790 -0.2432  0.6218  0.3336
 2326SOL     OW18439   0.961   3.770  12.170 -0.0362  0.2757  0.1794
 2326SOL    HW118440   1.051   3.797  12.187  0.5745 -1.9730  0.4648
 2326SOL    HW218441   0.912   3.812  12.241  0.9580 -0.7837  1.4974
 2327SOL     OW18442   3.153   0.248   9.664  0.1372 -0.1022  0.7930
 2327SOL    HW118443   3.059   0.262   9.676  0.7728  2.7463  2.5324
 2327SOL    HW218444   3.151   0.152   9.655  1.5700 -0.2836  2.3438
 2328SOL     OW18445   0.783   0.443   2.208 -0.7450 -0.6856  0.0008
 2328SOL    HW118446   0.728   0.517   2.181 -0.0284 -0.9787 -2.2529
 2328SOL    HW218447   0.815   0.481   2.289 -0.3782  0.2974 -0.6058
 2329SOL     OW18448   0.635   0.451   0.889 -0.1315  0.2965 -0.1568
 2329SOL    HW118449   0.704   0.419   0.830  0.5836  2.3795 -0.4675
 2329SOL    HW218450   0.573   0.483   0.823 -1.2188 -1.9592 -0.2199
 2330SOL     OW18451   3.403   4.296  12.898 -0.1610 -0.4090  0.3351
 2330SOL    HW118452   3.317   4.283  12.860 -1.2879  1.9647  2.0978
 2330SOL    HW218453   3.420   4.388  12.877  0.9081 -0.6644  0.0585
 2331SOL     OW18454   0.906   0.236   5.269 -0.2300  0.0587  0.0943
 2331SOL    HW118455   0.924   0.305   5.332  0.8624  1.0650 -1.3136
 2331SOL    HW218456   0.943   0.167   5.324 -0.0361  0.6516  0.7055
 2332SOL     OW18457   4.371   2.596   6.159 -0.0151 -0.0827 -0.4135
 2332SOL    HW118458   4.415   2.558   6.082  0.0733 -1.2965  0.2345
 2332SOL    HW218459   4.423   2.672   6.185 -0.7606  0.0300  0.7513
 2333SOL     OW18460   2.366   2.809   4.664  0.0555 -0.2168 -0.0408
 2333SOL    HW118461   2.333   2.806   4.574  1.6018 -3.1119 -0.5163
 2333SOL    HW218462   2.283   2.793   4.711  0.4829 -0.4459  0.6378
 2334SOL     OW18463   2.210   2.317   3.759 -0.3402 -0.1012  0.4035
 2334SOL    HW118464   2.286   2.326   3.817  1.1868  0.1389 -1.6293
 2334SOL    HW218465   2.226   2.388   3.697  2.2120 -2.3182 -1.4611
 2335SOL     OW18466   3.074   4.649   8.732 -0.4268 -0.3965 -0.1543
 2335SOL    HW118467   3.030   4.705   8.795  1.7913  1.6709 -0.4296
 2335SOL    HW218468   3.148   4.706   8.711 -0.1903 -0.3670  0.7932
 2336SOL     OW18469   3.926   1.159   5.420  0.1719 -0.2018  0.5283
 2336SOL    HW118470   3.919   1.064   5.435 -0.7103 -0.3257 -0.7056
 2336SOL    HW218471   3.910   1.152   5.326 -1.7776  2.0291  0.6968
 2337SOL     OW18472   3.561   1.376   9.340 -0.0670 -0.1986 -0.1665
 2337SOL    HW118473   3.494   1.348   9.402 -0.9791  0.9729 -0.6332
 2337SOL    HW218474   3.613   1.421   9.407 -1.4749 -1.4596  1.7590
 2338SOL     OW18475   0.796   2.799  10.204 -0.1196  0.5809  0.2047
 2338SOL    HW118476   0.888   2.821  10.186 -0.2232 -0.7086 -1.9547
 2338SOL    HW218477   0.807   2.757  10.289  0.2098  0.2342 -0.0120
 2339SOL     OW18478   4.322   2.967   7.249 -0.7727 -0.1149  0.4907
 2339SOL    HW118479   4.250   3.008   7.202 -0.5283 -3.0211 -2.4034
 2339SOL    HW218480   4.300   2.874   7.255 -1.4403  0.0449  0.5209
 2340SOL     OW18481   0.955   2.346   0.499  0.2636  0.2291  0.1186
 2340SOL    HW118482   0.960   2.286   0.425 -3.2008 -1.0151  0.8834
 2340SOL    HW218483   1.017   2.417   0.488 -0.1145  0.4889 -0.3146
 2341SOL     OW18484   0.530   2.226   8.784  0.1654  0.4290 -0.1528
 2341SOL    HW118485   0.520   2.176   8.702  0.6956 -0.9185  0.5985
 2341SOL    HW218486   0.624   2.245   8.779 -0.0355  1.5133  0.3080
 2342SOL     OW18487   3.905   2.495   3.349 -0.1723  0.3974 -0.7562
 2342SOL    HW118488   3.930   2.587   3.350  2.0848 -0.2185 -0.2211
 2342SOL    HW218489   3.984   2.460   3.307  2.1127  0.2519  3.7271
 2343SOL     OW18490   4.130   3.913   3.641 -0.2989  0.0397 -0.0507
 2343SOL    HW118491   4.211   3.905   3.591 -0.3097 -0.8016  0.0648
 2343SOL    HW218492   4.090   3.988   3.597  0.2492  0.7767  0.7044
 2344SOL     OW18493   4.155   0.879   7.460 -0.2537 -0.4601  0.6229
 2344SOL    HW118494   4.216   0.812   7.491 -0.5227  0.2773  2.7691
 2344SOL    HW218495   4.092   0.821   7.417 -2.0774  1.1688  1.1014
 2345SOL     OW18496   0.345   3.489   7.622 -0.0999 -0.1860  0.2394
 2345SOL    HW118497   0.364   3.431   7.696  1.2866 -0.2123 -0.1448
 2345SOL    HW218498   0.313   3.423   7.560  1.2675  0.9076 -1.6181
 2346SOL     OW18499   4.111   2.029   9.999  0.2222 -0.1585 -0.1129
 2346SOL    HW118500   4.039   2.078   9.959 -1.1064 -1.1187  1.0745
 2346SOL    HW218501   4.084   1.940   9.978  0.4261 -0.8309  2.3848
 2347SOL     OW18502   3.946   3.410   9.899  0.0169  0.1228 -0.0675
 2347SOL    HW118503   3.909   3.408   9.988  0.7937 -2.3866  0.1785
 2347SOL    HW218504   3.900   3.487   9.865 -1.9903 -0.8096  0.5148
 2348SOL     OW18505   4.400   1.517   7.439  0.2645 -0.2566 -0.6181
 2348SOL    HW118506   4.318   1.486   7.476  1.6401 -2.0338  0.8783
 2348SOL    HW218507   4.383   1.600   7.393 -0.2852  0.2980  0.5993
 2349SOL     OW18508   4.386   0.563   1.626  0.2982  0.2826  0.1830
 2349SOL    HW118509   4.380   0.533   1.535  0.6566  0.6440  0.0468
 2349SOL    HW218510   4.398   0.482   1.676  0.5263  1.6725  2.3702
 2350SOL     OW18511   3.645   3.914   5.961  0.0345 -0.1627 -0.4950
 2350SOL    HW118512   3.726   3.928   5.912 -0.5814 -0.2956 -1.5645
 2350SOL    HW218513   3.671   3.861   6.036 -1.4381 -0.3949 -0.1554
 2351SOL     OW18514   1.653   0.265  16.862 -0.1218  0.2634 -0.3840
 2351SOL    HW118515   1.693   0.252  16.948  0.2410  1.1972 -0.4135
 2351SOL    HW218516   1.718   0.299  16.801  0.6305 -0.8162 -0.1993
 2352SOL     OW18517   3.050   1.968   5.209  0.4549 -0.0511  0.0156
 2352SOL    HW118518   3.021   2.019   5.284  2.0677 -1.1552  1.4043
 2352SOL    HW218519   2.964   1.971   5.167  0.5648 -1.3381 -0.3054
 2353SOL     OW18520   2.410   1.072  15.206 -0.4845 -0.2271 -0.1540
 2353SOL    HW118521   2.387   1.138  15.272  2.3592  0.5426  0.0635
 2353SOL    HW218522   2.325   1.058  15.164 -0.5177 -0.8773  0.1342
 2354SOL     OW18523   0.920   0.744   6.605  0.4122 -0.0709  0.0448
 2354SOL    HW118524   1.006   0.783   6.620 -0.1495  1.8643 -1.7327
 2354SOL    HW218525   0.881   0.802   6.539  1.3255  2.2085  1.4961
 2355SOL     OW18526   1.070   3.444   9.341 -0.2041 -0.2814  0.2322
 2355SOL    HW118527   0.991   3.396   9.365 -0.0442 -0.6846 -0.0454
 2355SOL    HW218528   1.090   3.387   9.267 -0.2864 -0.4101  0.3081
 2356SOL     OW18529   3.313   1.925   4.638 -0.1580  0.1543  0.7428
 2356SOL    HW118530   3.402   1.943   4.668 -0.8529  2.8312  1.2214
 2356SOL    HW218531   3.273   2.009   4.662 -1.5146 -0.2377 -0.2101
 2357SOL     OW18532   0.535   0.352  10.440 -0.1818  0.3349 -0.0002
 2357SOL    HW118533   0.543   0.268  10.394 -1.5049  0.1301  0.1336
 2357SOL    HW218534   0.558   0.320  10.527  0.8511  1.3020  0.0741
 2358SOL     OW18535   3.606   4.016   3.422  0.2731 -0.4712 -0.3446
 2358SOL    HW118536   3.607   4.108   3.397  1.4995 -0.4374 -0.1630
 2358SOL    HW218537   3.588   3.973   3.338  0.1506 -2.7630  0.8503
 2359SOL     OW18538   4.252   1.753  12.514  0.3933 -0.6041  0.1983
 2359SOL    HW118539   4.278   1.704  12.591  1.5459  1.0715  0.8860
 2359SOL    HW218540   4.208   1.682  12.468  1.1217 -0.4116 -0.7951
 2360SOL     OW18541   2.664   3.427   7.591  0.2866  0.1602  0.6796
 2360SOL    HW118542   2.628   3.510   7.560  1.7866  1.1357  1.5250
 2360SOL    HW218543   2.685   3.390   7.505  1.2789  1.2257  0.4572
 2361SOL     OW18544   4.068   2.753   7.171  0.9760 -0.0314  0.2278
 2361SOL    HW118545   4.090   2.671   7.127 -1.1238  0.8074 -2.3670
 2361SOL    HW218546   4.144   2.759   7.229  1.1347 -0.4901  0.0640
 2362SOL     OW18547   1.163   4.067   7.258 -0.3029  0.3065  0.5006
 2362SOL    HW118548   1.196   3.978   7.250 -0.5823  0.3959 -1.7454
 2362SOL    HW218549   1.081   4.060   7.209  0.9422  0.0041 -1.5305
 2363SOL     OW18550   2.868   0.758   0.160 -0.1513 -0.0819 -0.6494
 2363SOL    HW118551   2.784   0.711   0.152  0.1030 -1.0573  2.4652
 2363SOL    HW218552   2.933   0.688   0.154  1.3336  1.2314  0.0306
 2364SOL     OW18553   2.359   2.516  12.999 -0.5163  0.2380  0.2187
 2364SOL    HW118554   2.351   2.574  13.075  0.8507  0.2122  0.3830
 2364SOL    HW218555   2.274   2.524  12.955  1.1400 -0.4096 -3.0922
 2365SOL     OW18556   2.074   1.173   7.747 -0.3617 -0.1137 -0.2345
 2365SOL    HW118557   2.062   1.102   7.685 -0.5482  0.9343 -1.4091
 2365SOL    HW218558   2.061   1.250   7.691  2.9438 -0.2098 -1.1798
 2366SOL     OW18559   2.358   1.235   8.144 -0.1771  0.6030  0.2170
 2366SOL    HW118560   2.335   1.312   8.197 -2.2908 -0.8074  1.3661
 2366SOL    HW218561   2.280   1.214   8.092 -0.7895  2.8899  0.2106
 2367SOL     OW18562   1.607   1.440   3.439 -0.5599 -0.5802 -0.2775
 2367SOL    HW118563   1.532   1.451   3.380  0.8544  0.9647 -1.8007
 2367SOL    HW218564   1.654   1.521   3.419  0.4696 -1.1982 -0.3582
 2368SOL     OW18565   2.564   3.916   3.801 -0.2605  0.3556  0.3196
 2368SOL    HW118566   2.595   3.826   3.799 -1.1110  0.1356 -2.8645
 2368SOL    HW218567   2.621   3.960   3.864  0.6382  1.0114 -0.9470
 2369SOL     OW18568   0.115   2.957   5.527 -0.5388  0.3485 -0.6559
 2369SOL    HW118569   0.199   3.000   5.545  0.5526 -1.1066 -2.3916
 2369SOL    HW218570   0.110   2.975   5.433  1.3681 -0.5271 -0.9034
 2370SOL     OW18571   3.119   3.737   2.971  0.6115  0.1884 -0.4448
 2370SOL    HW118572   3.196   3.682   2.985  1.4053  1.5898  0.7300
 2370SOL    HW218573   3.154   3.796   2.904  1.1458  0.0885 -0.2577
 2371SOL     OW18574   4.253   2.075  14.532  0.1513  0.3495 -0.3875
 2371SOL    HW118575   4.166   2.073  14.571  1.0012  2.2232  1.5378
 2371SOL    HW218576   4.226   2.043  14.446  1.2389  0.7317 -0.8698
 2372SOL     OW18577   3.694   1.599   4.569 -0.0020  0.0374 -0.0267
 2372SOL    HW118578   3.697   1.652   4.649  2.8690  1.5288 -1.0887
 2372SOL    HW218579   3.756   1.533   4.599  1.2087  0.6326 -1.2167
 2373SOL     OW18580   3.184   0.464  10.090  0.4653  0.2039  0.0412
 2373SOL    HW118581   3.109   0.491  10.039  0.6926  2.0403  0.6855
 2373SOL    HW218582   3.253   0.526  10.067  1.1142 -0.2883  0.6111
 2374SOL     OW18583   4.344   3.803   2.093  0.1201 -0.4647  0.2263
 2374SOL    HW118584   4.361   3.769   2.181 -1.6991 -0.8884  0.4303
 2374SOL    HW218585   4.433   3.807   2.058 -0.1055  1.9393 -0.0873
 2375SOL     OW18586   3.143   1.668   7.677  0.5191 -0.0084  0.3082
 2375SOL    HW118587   3.128   1.760   7.696 -1.8662 -0.3459  0.0460
 2375SOL    HW218588   3.082   1.625   7.737 -0.6935  1.0627 -0.1634
 2376SOL     OW18589   0.948   2.953   7.450  0.0691  0.7877 -0.0341
 2376SOL    HW118590   0.917   3.040   7.425 -0.4095  0.6643  0.1247
 2376SOL    HW218591   0.906   2.896   7.387  0.6502  3.4531 -2.8212
 2377SOL     OW18592   0.895   0.115   3.020  0.0290  0.4968  0.1848
 2377SOL    HW118593   0.815   0.080   2.982 -0.4368  1.9194 -0.1614
 2377SOL    HW218594   0.853   0.173   3.083 -0.1527 -1.7149  2.1093
 2378SOL     OW18595   1.010   4.189   3.854 -0.0497 -0.0111 -0.3241
 2378SOL    HW118596   1.019   4.260   3.790 -0.6470  1.2492  0.9713
 2378SOL    HW218597   1.039   4.120   3.795 -0.2376  2.1532 -2.9526
 2379SOL     OW18598   3.916   1.441  14.882 -0.6128 -0.2334  0.4442
 2379SOL    HW118599   3.849   1.483  14.936 -0.5056  2.9694 -1.9538
 2379SOL    HW218600   3.909   1.486  14.798  0.3294  1.1495  1.1098
 2380SOL     OW18601   0.536   1.592   0.057  1.1756  0.4681 -0.2477
 2380SOL    HW118602   0.485   1.672   0.057  2.5341  1.3287 -0.3752
 2380SOL    HW218603   0.539   1.572  17.667 -0.1879  3.2814 -0.8837
 2381SOL     OW18604   3.816   1.168   9.347  0.0047 -0.3299  0.5661
 2381SOL    HW118605   3.731   1.130   9.371 -0.9885  1.8079  0.5327
 2381SOL    HW218606   3.809   1.172   9.251 -1.3477  1.8418  0.7413
 2382SOL     OW18607   2.968   3.567  16.617  0.4147 -0.1800 -0.2789
 2382SOL    HW118608   2.911   3.559  16.540 -1.4925 -0.4593  1.1859
 2382SOL    HW218609   2.907   3.561  16.690  0.8105 -2.5901 -0.1299
 2383SOL     OW18610   2.335   3.840   8.046 -0.4464 -0.3024  0.1281
 2383SOL    HW118611   2.412   3.883   8.083 -0.8581 -0.3774  1.0672
 2383SOL    HW218612   2.358   3.748   8.055  0.4228  0.0262  1.2526
 2384SOL     OW18613   2.935   0.503   7.232 -0.3863  0.1972 -0.0637
 2384SOL    HW118614   2.995   0.578   7.232  0.4343 -0.4629 -0.1683
 2384SOL    HW218615   2.982   0.449   7.294 -1.6639 -0.8178  0.0229
 2385SOL     OW18616   1.844   3.120   6.269  0.5491 -0.5576  0.9221
 2385SOL    HW118617   1.842   3.110   6.174  1.6040  0.3598  0.8065
 2385SOL    HW218618   1.767   3.178   6.273 -0.0417 -1.2318 -0.5015
 2386SOL     OW18619   2.226   1.103   4.464  0.8820 -0.3312  0.8586
 2386SOL    HW118620   2.182   1.068   4.542 -1.0731  0.1711 -0.0162
 2386SOL    HW218621   2.190   1.190   4.480 -2.2390 -1.4557 -0.0399
 2387SOL     OW18622   3.472   0.914   3.168 -0.1816 -0.5055 -0.4793
 2387SOL    HW118623   3.530   0.987   3.193  0.7703 -1.1738 -0.7315
 2387SOL    HW218624   3.389   0.959   3.181 -1.4128 -2.6014 -1.1368
 2388SOL     OW18625   1.166   3.410   2.655 -0.8035 -0.8223 -0.0421
 2388SOL    HW118626   1.138   3.331   2.610 -0.3078 -0.8309 -0.3441
 2388SOL    HW218627   1.208   3.364   2.728  0.0580 -1.6630 -1.0835
 2389SOL     OW18628   1.422   4.500   4.166  0.6678  0.1577 -0.2846
 2389SOL    HW118629   1.481   4.426   4.176  1.0818  0.8738  2.7579
 2389SOL    HW218630   1.364   4.456   4.104  1.4768 -1.6214  0.2359
 2390SOL     OW18631   3.731   0.600   3.144  0.2474 -0.1396  0.7182
 2390SOL    HW118632   3.791   0.527   3.129 -1.2665 -0.6028 -3.1352
 2390SOL    HW218633   3.790   0.670   3.119  0.4779 -0.1737  1.1759
 2391SOL     OW18634   3.258   1.626  10.753 -0.0857 -0.6299  0.2857
 2391SOL    HW118635   3.201   1.549  10.751 -0.1329 -0.5719 -0.8148
 2391SOL    HW218636   3.347   1.596  10.773  0.3901  1.7174  1.6690
 2392SOL     OW18637   2.205   4.568   6.245 -0.4754 -0.4884  0.2123
 2392SOL    HW118638   2.173   4.534   6.162 -0.3468  1.3773 -0.5978
 2392SOL    HW218639   2.179   4.497   6.302  0.0441 -1.4199 -0.7178
 2393SOL     OW18640   3.666   2.795   1.868 -0.5165 -0.0736 -0.0976
 2393SOL    HW118641   3.615   2.855   1.815  0.2220  0.0517 -0.6561
 2393SOL    HW218642   3.701   2.856   1.933  0.1462  0.5678 -1.0689
 2394SOL     OW18643   2.126   2.686  16.468 -0.3435 -0.1857  1.1187
 2394SOL    HW118644   2.087   2.761  16.425  1.3135 -0.8255 -1.5087
 2394SOL    HW218645   2.214   2.720  16.484 -1.3790  2.5025  1.0120
 2395SOL     OW18646   2.025   1.497  17.267 -0.1328 -0.3866 -0.2187
 2395SOL    HW118647   2.045   1.589  17.285  0.9865 -0.7359  0.2743
 2395SOL    HW218648   2.088   1.456  17.325  0.6236 -0.3331 -1.0091
 2396SOL     OW18649   3.308   2.471   4.331  0.5364 -0.5022  0.0670
 2396SOL    HW118650   3.265   2.460   4.416 -2.9374  1.3258 -1.4919
 2396SOL    HW218651   3.330   2.560   4.359  0.5240 -0.6239  0.4707
 2397SOL     OW18652   0.355   3.096   5.577  0.2124 -0.1324  1.0231
 2397SOL    HW118653   0.445   3.078   5.550 -0.7538 -0.0330 -2.2484
 2397SOL    HW218654   0.372   3.128   5.666 -1.1626 -0.0857  1.2692
 2398SOL     OW18655   4.575   0.834   5.684 -0.1022 -0.2880  0.0552
 2398SOL    HW118656   4.579   0.928   5.669 -1.9240 -0.7473 -3.3515
 2398SOL    HW218657   4.597   0.798   5.598  1.7165 -2.0552  1.2474
 2399SOL     OW18658   1.031   4.049   5.411 -0.2420 -0.4144 -0.2265
 2399SOL    HW118659   1.008   4.103   5.335 -0.2174 -1.4188 -0.9394
 2399SOL    HW218660   1.112   4.015   5.373 -1.0099 -2.4753  0.0209
 2400SOL     OW18661   4.313   0.887   8.895  0.0149 -0.5589  0.0043
 2400SOL    HW118662   4.403   0.917   8.881 -0.9771  2.7875  0.7985
 2400SOL    HW218663   4.324   0.851   8.983 -1.8729  0.7242  0.7759
 2401SOL     OW18664   0.265   2.430  17.527  0.2843  0.3085 -0.2608
 2401SOL    HW118665   0.302   2.368  17.589 -1.4839  0.4371  0.9264
 2401SOL    HW218666   0.171   2.420  17.541  0.3027  0.0543 -0.3223
 2402SOL     OW18667   3.728   1.932   1.010 -0.1568 -0.0922  0.0558
 2402SOL    HW118668   3.692   1.887   0.934 -1.1050 -0.1738  0.5510
 2402SOL    HW218669   3.805   1.878   1.030 -1.5535 -1.5674  1.3988
 2403SOL     OW18670   1.822   2.507   2.689  0.0271 -0.1426  0.2366
 2403SOL    HW118671   1.859   2.579   2.639  1.1216 -0.3611  0.7243
 2403SOL    HW218672   1.786   2.455   2.617  0.1014  0.2114 -0.0572
 2404SOL     OW18673   1.177   0.476   8.157 -0.1443  0.5459  0.0702
 2404SOL    HW118674   1.238   0.405   8.178  0.0743  0.0978 -2.0503
 2404SOL    HW218675   1.156   0.452   8.067 -1.2590  0.6250  0.3103
 2405SOL     OW18676   4.238   4.643   1.954  0.2031 -0.0876 -0.3611
 2405SOL    HW118677   4.228   4.566   1.898  0.9636  0.4346 -1.2278
 2405SOL    HW218678   4.208   4.612   2.039 -0.1256 -0.0299 -0.4530
 2406SOL     OW18679   2.085   0.127  11.308  0.0692  0.1061 -0.3127
 2406SOL    HW118680   2.030   0.204  11.294 -1.1749 -0.8530 -0.6386
 2406SOL    HW218681   2.028   0.051  11.296 -0.3719  0.1749  1.2721
 2407SOL     OW18682   3.990   3.339   0.328 -0.0183  0.0321  0.3140
 2407SOL    HW118683   3.992   3.428   0.364  0.1541 -0.1502  0.7608
 2407SOL    HW218684   3.938   3.305   0.401 -1.7764 -2.4685 -2.1137
 2408SOL     OW18685   2.823   1.223   2.201  0.6797  0.7012 -0.2447
 2408SOL    HW118686   2.890   1.253   2.139  1.9803 -2.1680 -0.2329
 2408SOL    HW218687   2.854   1.132   2.205  1.1423  0.8735  0.1824
 2409SOL     OW18688   3.389   4.706  11.240  0.0910 -0.0231  0.3784
 2409SOL    HW118689   3.360   0.069  11.221 -0.3961 -0.4256 -0.7470
 2409SOL    HW218690   3.357   4.659  11.163  0.1071  0.4949  0.0600
 2410SOL     OW18691   1.844   2.380  11.321  0.3155 -0.8117 -0.1897
 2410SOL    HW118692   1.766   2.366  11.268  0.3492  3.4603 -1.3471
 2410SOL    HW218693   1.890   2.447  11.270 -1.0035  0.1704 -0.0788
 2411SOL     OW18694   4.306   3.970   8.754  0.5086  0.5291 -0.8865
 2411SOL    HW118695   4.230   3.980   8.812 -0.0473  1.3512 -1.7509
 2411SOL    HW218696   4.297   4.052   8.704 -3.0723  1.8618  1.9526
 2412SOL     OW18697   2.250   3.956   5.353  0.3515 -1.2841 -0.6105
 2412SOL    HW118698   2.202   4.009   5.290  2.4077  1.0429 -0.2425
 2412SOL    HW218699   2.208   3.986   5.434 -0.2706 -2.7399 -0.3808
 2413SOL     OW18700   3.904   0.523   9.896  0.4139  0.1403  0.1948
 2413SOL    HW118701   3.943   0.602   9.859  1.4338  0.2659  1.5545
 2413SOL    HW218702   3.813   0.544   9.920 -0.0004 -0.5070 -0.7938
 2414SOL     OW18703   4.003   2.067   5.728  0.1726  0.8048 -0.1123
 2414SOL    HW118704   3.915   2.036   5.749  0.4694 -0.1783 -0.2931
 2414SOL    HW218705   4.053   1.990   5.756 -2.4548 -0.7857  0.2416
 2415SOL     OW18706   0.048   1.136  17.640  0.0364 -0.2701  0.6249
 2415SOL    HW118707   0.110   1.087  17.588 -0.3033  0.1285 -0.1547
 2415SOL    HW218708   0.111   1.199  17.675 -1.0068  0.0690  1.9219
 2416SOL     OW18709   1.771   1.969  14.895 -0.2123 -0.4284  0.1228
 2416SOL    HW118710   1.798   1.890  14.848  0.1855  0.4075 -1.0306
 2416SOL    HW218711   1.852   2.011  14.924 -0.7954  0.8628 -0.1014
 2417SOL     OW18712   0.969   1.321   9.183  0.4421  0.2320  0.3722
 2417SOL    HW118713   0.886   1.281   9.155  0.7706 -0.8194  0.9381
 2417SOL    HW218714   0.937   1.401   9.224  0.0342 -0.5887  1.6407
 2418SOL     OW18715   1.327   3.937  12.499  0.5156 -0.2490 -0.6025
 2418SOL    HW118716   1.234   3.913  12.492  0.7594 -0.5611 -2.9732
 2418SOL    HW218717   1.347   3.946  12.592 -0.1963 -1.8735 -0.2868
 2419SOL     OW18718   3.643   3.407   6.160 -1.0031 -0.3153  0.1719
 2419SOL    HW118719   3.603   3.475   6.106  0.4743 -0.0003 -0.5081
 2419SOL    HW218720   3.570   3.375   6.213  0.6355 -1.9673  1.4355
 2420SOL     OW18721   4.613   1.026  12.785  0.8828 -0.0641  0.2808
 2420SOL    HW118722   4.528   1.069  12.772  0.6474 -1.1438 -1.9055
 2420SOL    HW218723   4.615   0.968  12.708  1.7075 -1.3368  1.2680
 2421SOL     OW18724   2.950   4.084   3.106  0.0428  0.6823  0.5814
 2421SOL    HW118725   2.941   4.048   3.017  3.2270  0.5853  0.3088
 2421SOL    HW218726   3.036   4.046   3.122 -0.0795 -1.0248 -2.7446
 2422SOL     OW18727   1.934   0.863   6.596 -0.3480 -0.5566 -0.4178
 2422SOL    HW118728   1.873   0.918   6.546 -0.4624 -2.9340 -2.8661
 2422SOL    HW218729   2.014   0.915   6.593 -0.5474 -0.2889 -1.0400
 2423SOL     OW18730   3.992   4.114   4.936 -0.3758 -0.2806 -0.5124
 2423SOL    HW118731   4.085   4.105   4.955 -0.5772  0.2644  0.7075
 2423SOL    HW218732   4.002   4.183   4.869 -1.4840  0.9480  0.5953
 2424SOL     OW18733   2.950   0.782   8.965  0.0473  0.2481  0.1436
 2424SOL    HW118734   2.981   0.767   9.054  4.9219  0.6213 -1.4985
 2424SOL    HW218735   2.948   0.878   8.963 -1.8222  0.2071  0.0710
 2425SOL     OW18736   2.331   1.584   7.643 -0.3382  0.1273  0.5433
 2425SOL    HW118737   2.391   1.619   7.710  0.1103 -1.6453  1.0571
 2425SOL    HW218738   2.329   1.657   7.581  2.3988 -0.8802 -0.7528
 2426SOL     OW18739   4.445   4.072   5.164 -0.0817  0.5371 -0.1895
 2426SOL    HW118740   4.482   4.157   5.187  0.5826  0.7330 -1.9748
 2426SOL    HW218741   4.520   4.015   5.144 -0.9075 -1.1418  1.5442
 2427SOL     OW18742   3.068   0.992   3.473 -0.2676 -0.2327  0.2321
 2427SOL    HW118743   3.083   0.904   3.438 -0.8471 -1.0663  2.0895
 2427SOL    HW218744   2.979   1.014   3.445 -0.2826  0.9306  1.2139
 2428SOL     OW18745   3.495   2.144  11.478  0.0115  0.2535 -0.4398
 2428SOL    HW118746   3.453   2.061  11.501 -0.6496  1.3528  2.3448
 2428SOL    HW218747   3.473   2.205  11.549 -1.0195 -0.1681 -0.3936
 2429SOL     OW18748   4.446   1.033  15.061 -0.3324 -0.3210  0.1737
 2429SOL    HW118749   4.506   1.068  14.996 -0.6715  3.4034  1.8303
 2429SOL    HW218750   4.505   1.001  15.130  1.7632  0.5085 -1.2322
 2430SOL     OW18751   1.352   3.499  14.032  0.7012  0.3742 -0.2692
 2430SOL    HW118752   1.411   3.430  14.063  1.8928  1.6162  0.1932
 2430SOL    HW218753   1.268   3.455  14.022  1.7503 -1.8855  0.9101
 2431SOL     OW18754   1.557   0.708   6.534 -0.6228  0.8669  0.4334
 2431SOL    HW118755   1.510   0.637   6.577 -0.3462  1.4795  1.7749
 2431SOL    HW218756   1.563   0.674   6.445  0.8870  1.9718  0.1040
 2432SOL     OW18757   2.454   1.169   8.391 -0.2749 -0.2051 -0.0159
 2432SOL    HW118758   2.415   1.193   8.306 -0.5757 -1.0083 -0.1027
 2432SOL    HW218759   2.426   1.227   8.461  0.5720 -0.9487  0.9401
 2433SOL     OW18760   1.639   0.966  15.540  0.5409  0.0475  0.4032
 2433SOL    HW118761   1.719   0.939  15.586  0.9146 -0.6543 -0.6631
 2433SOL    HW218762   1.606   1.044  15.585 -0.0456 -0.0142  0.0757
 2434SOL     OW18763   3.251   4.699   2.920 -0.1297  0.4205  0.2844
 2434SOL    HW118764   3.347   4.697   2.919 -0.2163 -3.1129 -0.2796
 2434SOL    HW218765   3.236   4.617   2.968 -2.5139 -0.2056 -1.5226
 2435SOL     OW18766   1.780   1.571   4.332 -0.4420 -0.0629 -0.2536
 2435SOL    HW118767   1.860   1.527   4.303  0.1704 -0.2395  1.7637
 2435SOL    HW218768   1.731   1.503   4.378 -0.8932 -0.0523 -0.7179
 2436SOL     OW18769   0.671   4.390   6.961  0.0185 -0.0058 -0.0291
 2436SOL    HW118770   0.698   4.359   6.875  1.0518 -1.1118  0.6999
 2436SOL    HW218771   0.729   4.467   6.959  1.0829 -0.7709  1.9554
 2437SOL     OW18772   2.465   3.020   5.052 -0.0544  0.6491  0.5693
 2437SOL    HW118773   2.492   2.994   5.140 -0.7529  0.5564  0.7533
 2437SOL    HW218774   2.545   3.016   4.999 -1.1710 -2.3413 -0.9349
 2438SOL     OW18775   0.280   0.919   5.933  0.0708 -0.2668  0.0426
 2438SOL    HW118776   0.210   0.953   5.878 -0.8076  0.9243  1.9059
 2438SOL    HW218777   0.357   0.935   5.879 -0.6703  4.0972  0.2995
 2439SOL     OW18778   1.398   0.146   4.579  0.3121  0.1859  0.0195
 2439SOL    HW118779   1.365   0.233   4.559  0.8207  0.4279  0.2223
 2439SOL    HW218780   1.325   0.089   4.556 -0.2037  1.1677 -0.7471
 2440SOL     OW18781   4.346   2.683   3.395  0.3466 -0.4736  0.0007
 2440SOL    HW118782   4.366   2.765   3.349  1.6759 -0.9775 -0.3255
 2440SOL    HW218783   4.405   2.634   3.337 -0.4902  0.6701 -1.8149
 2441SOL     OW18784   1.409   4.438   8.864  0.1604 -0.6539 -0.2654
 2441SOL    HW118785   1.422   4.487   8.946 -0.3837 -1.3602  0.2425
 2441SOL    HW218786   1.343   4.383   8.906  0.2582 -2.4216 -2.4331
 2442SOL     OW18787   0.786   0.245  15.639  0.6965  0.0622 -0.4246
 2442SOL    HW118788   0.840   0.287  15.706  0.1393  2.7010 -1.6484
 2442SOL    HW218789   0.849   0.251  15.567  1.1235  1.8980  0.1089
 2443SOL     OW18790   0.015   0.587   3.018  0.0259 -0.2242 -0.3491
 2443SOL    HW118791   4.673   0.640   2.976  2.1638  0.9676 -2.2664
 2443SOL    HW218792   0.087   0.648   3.006  0.5818 -0.8971 -0.4315
 2444SOL     OW18793   4.623   1.344  17.331 -0.1897 -0.3655 -0.3804
 2444SOL    HW118794   4.715   1.320  17.341 -0.4524 -0.1395  2.6333
 2444SOL    HW218795   4.617   1.420  17.388 -1.0173 -0.5808 -0.1907
 2445SOL     OW18796   4.661   1.574   0.239  0.5455  0.3978  0.9466
 2445SOL    HW118797   4.671   1.530   0.323  0.5940 -1.5486 -0.0798
 2445SOL    HW218798   0.017   1.562   0.192 -1.7849 -2.6061 -2.3187
 2446SOL     OW18799   3.209   3.828   7.926 -0.1488  0.5758 -0.3232
 2446SOL    HW118800   3.204   3.923   7.913 -0.0256  0.7605  0.9731
 2446SOL    HW218801   3.295   3.813   7.966  0.3663 -1.9086 -2.4010
 2447SOL     OW18802   0.011   1.968  10.283  0.5131  0.1367  0.0879
 2447SOL    HW118803   0.064   1.927  10.352  1.2431  1.9674  0.6081
 2447SOL    HW218804   0.064   2.040  10.248  0.6002  0.1141  0.1731
 2448SOL     OW18805   4.586   1.647  15.417  0.0699  0.5445  0.2081
 2448SOL    HW118806   4.497   1.679  15.429 -0.1519  0.4859 -1.2789
 2448SOL    HW218807   4.577   1.606  15.331 -0.1667  1.6655 -0.2950
 2449SOL     OW18808   2.421   0.340  17.665 -0.0885  0.7457  0.0584
 2449SOL    HW118809   2.494   0.369   0.016  1.1271 -0.3569 -0.9856
 2449SOL    HW218810   2.366   0.418  17.676 -0.3228  0.2945  2.0569
 2450SOL     OW18811   0.811   3.382   5.121  0.3734 -0.0910  0.0091
 2450SOL    HW118812   0.811   3.475   5.145  1.1499 -0.1259  0.1532
 2450SOL    HW218813   0.839   3.351   5.207  1.9448  0.7036 -0.2026
 2451SOL     OW18814   4.088   4.442   3.759  0.0415 -0.4297 -0.2058
 2451SOL    HW118815   4.098   4.358   3.803  3.3492  1.1865  2.1368
 2451SOL    HW218816   4.182   4.457   3.766 -0.3431  0.9667  1.9716
 2452SOL     OW18817   0.362   2.803   6.646 -0.2100 -0.4997 -0.2747
 2452SOL    HW118818   0.404   2.794   6.732 -3.2011  1.6395  1.4064
 2452SOL    HW218819   0.354   2.710   6.623 -1.2544 -0.3576 -0.4608
 2453SOL     OW18820   2.257   3.305  11.305 -0.5057  0.3640  0.2734
 2453SOL    HW118821   2.236   3.308  11.212  1.8945  0.4616 -0.2425
 2453SOL    HW218822   2.326   3.239  11.308 -1.9562 -1.2506 -1.5241
 2454SOL     OW18823   4.396   2.740   9.707 -0.1905  0.0701 -0.6781
 2454SOL    HW118824   4.444   2.770   9.784  0.3837  0.5331 -1.2140
 2454SOL    HW218825   4.430   2.799   9.640 -0.0587  1.3039  0.4839
 2455SOL     OW18826   3.563   2.510   4.706 -0.0475  0.2378  0.3408
 2455SOL    HW118827   3.590   2.426   4.743 -1.9880 -0.5598 -0.0894
 2455SOL    HW218828   3.493   2.532   4.768  0.5863  0.3721  1.0209
 2456SOL     OW18829   3.454   3.977   4.048 -0.1738 -0.6123  0.4754
 2456SOL    HW118830   3.536   4.023   4.033 -0.1731 -1.1599 -1.3023
 2456SOL    HW218831   3.461   3.947   4.138  0.2065  1.8064  1.2187
 2457SOL     OW18832   0.868   1.867  16.497 -0.4326  0.4929 -0.0857
 2457SOL    HW118833   0.772   1.862  16.501 -0.3161 -1.1874  0.6024
 2457SOL    HW218834   0.891   1.849  16.588  0.6343 -2.5167 -0.9247
 2458SOL     OW18835   0.336   4.061  10.620 -0.1067  0.4348 -0.2720
 2458SOL    HW118836   0.300   4.125  10.559  2.9247  2.0530 -0.3676
 2458SOL    HW218837   0.256   4.012  10.639  0.4377 -0.0305  0.7951
 2459SOL     OW18838   0.960   0.357   8.329 -0.5076 -0.4034 -0.1577
 2459SOL    HW118839   0.999   0.339   8.244  0.2358 -1.5984  0.4280
 2459SOL    HW218840   0.912   0.440   8.321 -1.4219 -1.1121 -2.0608
 2460SOL     OW18841   4.158   2.694   2.932  0.3543 -0.0713  0.6289
 2460SOL    HW118842   4.174   2.608   2.894  3.2518  1.1387 -0.8543
 2460SOL    HW218843   4.153   2.674   3.025  0.3071 -2.3418  0.1395
 2461SOL     OW18844   0.295   0.206   5.733 -0.2909  0.8859  0.0121
 2461SOL    HW118845   0.287   0.214   5.828 -2.6299  2.7254 -0.3476
 2461SOL    HW218846   0.388   0.183   5.723 -0.0302  1.1897  1.6844
 2462SOL     OW18847   2.928   1.595   1.051  0.2549 -0.0836 -0.1471
 2462SOL    HW118848   2.960   1.666   1.106 -2.0345  0.8774 -0.0458
 2462SOL    HW218849   2.937   1.632   0.963  0.0112 -0.5021 -0.3488
 2463SOL     OW18850   0.237   0.033   7.004 -0.1416  0.2262  0.1346
 2463SOL    HW118851   0.211   0.050   6.914 -2.2966 -0.3472  0.6512
 2463SOL    HW218852   0.169   0.082   7.051  1.7405  1.4301  1.5756
 2464SOL     OW18853   2.047   1.732   6.182  0.2739 -0.0672 -0.2179
 2464SOL    HW118854   2.118   1.684   6.225  0.2164  0.5519  0.5662
 2464SOL    HW218855   1.984   1.659   6.187  1.5044 -1.1316 -0.2533
 2465SOL     OW18856   0.343   1.307   4.265 -0.2675 -0.2463  0.0639
 2465SOL    HW118857   0.393   1.328   4.187 -1.6927  1.3277 -0.4309
 2465SOL    HW218858   0.391   1.230   4.295  0.0442 -0.5885 -1.3030
 2466SOL     OW18859   3.944   3.115   5.208  0.5796  0.7482  0.0299
 2466SOL    HW118860   3.981   3.028   5.223 -2.4191 -0.3603  0.8686
 2466SOL    HW218861   4.018   3.164   5.171 -0.9818  1.4964 -2.1201
 2467SOL     OW18862   4.117   0.448   8.538 -0.0700 -0.6542 -0.0448
 2467SOL    HW118863   4.064   0.434   8.616  0.3643 -1.5163  0.0899
 2467SOL    HW218864   4.174   0.520   8.566  0.5741 -1.5297  0.9247
 2468SOL     OW18865   0.697   0.203   5.120  0.5179 -0.3896  0.0272
 2468SOL    HW118866   0.780   0.206   5.167  0.1762 -1.5746  0.6873
 2468SOL    HW218867   0.661   0.139   5.181 -0.2827 -0.7002 -0.7557
 2469SOL     OW18868   1.888   2.862   6.306 -0.8005  0.1004 -0.0140
 2469SOL    HW118869   1.859   2.951   6.328  1.2479 -0.0347  3.1789
 2469SOL    HW218870   1.907   2.875   6.213 -2.0361 -0.2404 -0.3221
 2470SOL     OW18871   3.811   4.261   1.221 -0.4660  0.8109  0.2592
 2470SOL    HW118872   3.817   4.308   1.304 -0.8888  1.3942 -0.0442
 2470SOL    HW218873   3.822   4.328   1.153 -0.3770 -0.1327 -0.6576
 2471SOL     OW18874   4.480   2.671   3.123  0.8965  0.4625  0.1934
 2471SOL    HW118875   4.415   2.730   3.084  0.8358 -0.4008 -1.0116
 2471SOL    HW218876   4.568   2.702   3.101  0.5748  1.0133 -0.3387
 2472SOL     OW18877   0.539   1.011  14.210  0.2018  0.1855  0.8625
 2472SOL    HW118878   0.546   1.095  14.254  3.1963  0.4138 -0.0585
 2472SOL    HW218879   0.507   0.953  14.279  0.0378 -1.0305 -0.2097
 2473SOL     OW18880   0.451   3.065  11.532 -0.3104 -0.2676  0.2434
 2473SOL    HW118881   0.377   3.070  11.593 -1.4048  1.1424 -1.1905
 2473SOL    HW218882   0.430   3.143  11.480  0.3800  0.1591  0.5929
 2474SOL     OW18883   2.566   3.385   8.173 -0.3401 -0.2177 -0.1013
 2474SOL    HW118884   2.636   3.448   8.156 -0.5035 -0.0807 -0.2663
 2474SOL    HW218885   2.600   3.304   8.135  2.4968  0.9906 -0.1363
 2475SOL     OW18886   4.336   4.329   0.963 -0.2710 -0.1939 -0.1830
 2475SOL    HW118887   4.291   4.272   1.025 -1.5913  0.2852 -0.6911
 2475SOL    HW218888   4.428   4.334   0.988  0.1969 -0.1718 -1.8819
 2476SOL     OW18889   1.627   1.544  13.251 -0.1002  0.2406  0.1513
 2476SOL    HW118890   1.558   1.478  13.252 -1.2832  1.4410 -1.8951
 2476SOL    HW218891   1.697   1.491  13.288  0.3135 -0.3522 -1.4607
 2477SOL     OW18892   4.254   3.958  16.293 -0.6037  0.1470 -0.4294
 2477SOL    HW118893   4.198   4.014  16.347  0.0776  0.8546 -0.4354
 2477SOL    HW218894   4.290   3.894  16.354  2.5840 -0.3680 -2.8081
 2478SOL     OW18895   3.666   1.153   3.181  0.2785 -0.1535 -0.1864
 2478SOL    HW118896   3.745   1.206   3.173 -0.1557  0.5005 -0.0996
 2478SOL    HW218897   3.599   1.213   3.149  0.1461 -0.7586 -1.0306
 2479SOL     OW18898   2.959   4.261  16.744  0.2192 -0.0782 -0.2639
 2479SOL    HW118899   3.031   4.214  16.785  0.0956  0.2004  0.2767
 2479SOL    HW218900   2.933   4.212  16.666  3.1254 -1.1786 -0.5640
 2480SOL     OW18901   3.939   2.416   5.317 -0.6035  0.3885  0.1268
 2480SOL    HW118902   3.984   2.416   5.402 -1.2903 -2.1135  0.4915
 2480SOL    HW218903   3.949   2.501   5.275  0.0177  0.4889  0.4674
 2481SOL     OW18904   0.903   0.818  11.536 -0.2176 -0.1169  0.3099
 2481SOL    HW118905   0.840   0.810  11.608 -0.9837 -1.0136 -0.4493
 2481SOL    HW218906   0.972   0.875  11.570  0.3389  0.2342 -1.3763
 2482SOL     OW18907   0.024   0.015  17.106  0.5708  0.7964 -0.7710
 2482SOL    HW118908   4.719   0.017  17.196  0.1493 -0.5494 -0.8823
 2482SOL    HW218909   0.099   0.074  17.112  0.8050  0.6461 -2.0865
 2483SOL     OW18910   4.592   1.297  11.039  0.1562 -0.6263  0.7543
 2483SOL    HW118911   4.500   1.280  11.056 -0.0233  0.5293  0.8931
 2483SOL    HW218912   4.634   1.211  11.048  2.6132  0.6878  1.8130
 2484SOL     OW18913   1.075   2.932   5.907 -0.3141  0.0878 -0.2625
 2484SOL    HW118914   1.136   2.862   5.932  0.4885  0.5237 -1.0030
 2484SOL    HW218915   1.107   2.940   5.817 -3.2203 -2.6929 -1.5524
 2485SOL     OW18916   4.420   3.521   7.025 -0.0616  0.7134  0.7396
 2485SOL    HW118917   4.406   3.470   7.105  1.7988 -0.8650  0.0512
 2485SOL    HW218918   4.439   3.611   7.053 -0.2196  0.2176  2.4763
 2486SOL     OW18919   3.232   2.815   4.545 -0.3403 -0.1303 -0.9035
 2486SOL    HW118920   3.284   2.840   4.621  0.7596 -1.2631 -1.2983
 2486SOL    HW218921   3.288   2.844   4.472 -1.5399  1.0768 -1.3603
 2487SOL     OW18922   2.424   3.082  11.293 -0.1353  0.1140  0.0536
 2487SOL    HW118923   2.429   3.010  11.357  0.1705  0.4726  0.4328
 2487SOL    HW218924   2.501   3.136  11.314 -0.8962  1.4117 -0.5098
 2488SOL     OW18925   3.262   2.379  16.438  0.5092  0.2496 -0.2322
 2488SOL    HW118926   3.296   2.439  16.504 -0.6834  0.3794  0.2568
 2488SOL    HW218927   3.185   2.423  16.402 -2.4409 -1.0084  4.5421
 2489SOL     OW18928   2.536   3.224   3.940 -0.0021  0.5419  0.6230
 2489SOL    HW118929   2.539   3.299   3.999 -0.7813 -0.1830  1.5852
 2489SOL    HW218930   2.549   3.266   3.855 -1.7742 -0.6749 -0.2388
 2490SOL     OW18931   0.268   3.449  13.749 -0.2759 -0.3849  0.6398
 2490SOL    HW118932   0.329   3.406  13.690 -0.5227  2.2817 -1.5533
 2490SOL    HW218933   0.197   3.457  13.685  0.7064 -0.0911 -0.4085
 2491SOL     OW18934   1.810   2.985   4.457  0.3706 -0.7333  0.2966
 2491SOL    HW118935   1.762   3.037   4.521 -3.0763 -0.8772 -2.1732
 2491SOL    HW218936   1.740   2.934   4.416 -0.3526  0.2183  0.3520
 2492SOL     OW18937   3.392   0.560   7.812 -0.0804 -0.2901  0.2512
 2492SOL    HW118938   3.440   0.641   7.827  0.4821 -0.8544  1.4319
 2492SOL    HW218939   3.433   0.553   7.725 -1.0464 -1.9411 -0.0796
 2493SOL     OW18940   2.754   0.346   0.319  0.0904  0.0488 -0.1156
 2493SOL    HW118941   2.775   0.359   0.411  2.8745 -3.2563 -0.2908
 2493SOL    HW218942   2.812   0.277   0.288 -1.6548 -0.4807 -2.2238
 2494SOL     OW18943   3.806   1.639   4.212 -0.0465  0.1830 -0.6076
 2494SOL    HW118944   3.738   1.576   4.188  1.0112 -0.9181 -0.7162
 2494SOL    HW218945   3.755   1.694   4.272  1.9255  0.0022  1.2500
 2495SOL     OW18946   1.785   0.529   3.378  0.2939  0.2381  0.4902
 2495SOL    HW118947   1.692   0.514   3.363  0.6166  0.3195 -1.6016
 2495SOL    HW218948   1.823   0.525   3.290  1.0927 -3.4310  0.9950
 2496SOL     OW18949   0.623   1.413   1.390  0.4132 -0.4738  0.2112
 2496SOL    HW118950   0.648   1.489   1.442  1.4863  0.7331 -2.0621
 2496SOL    HW218951   0.647   1.449   1.304  1.1333 -0.7036  0.3185
 2497SOL     OW18952   0.482   1.263  15.075  0.0217  0.0139 -0.1656
 2497SOL    HW118953   0.523   1.206  15.010 -0.3356 -1.2124  0.6772
 2497SOL    HW218954   0.536   1.256  15.154  0.8340 -0.9188 -0.8055
 2498SOL     OW18955   0.689   1.551   8.810 -0.5278 -0.1297 -0.4580
 2498SOL    HW118956   0.736   1.628   8.840  0.1289 -0.4469 -0.6723
 2498SOL    HW218957   0.608   1.591   8.779 -1.3406 -0.9210  0.5992
 2499SOL     OW18958   0.258   2.565   9.889 -0.4129  0.7006  0.1878
 2499SOL    HW118959   0.196   2.503   9.927  1.3540 -2.2694 -1.8659
 2499SOL    HW218960   0.301   2.510   9.824 -1.7714  0.6444 -0.6687
 2500SOL     OW18961   0.158   2.180   5.958 -0.0148  0.1604  0.2410
 2500SOL    HW118962   0.103   2.252   5.925 -0.5854 -0.8208 -0.9450
 2500SOL    HW218963   0.173   2.195   6.052 -0.6120  0.1980  0.3350
 2501SOL     OW18964   0.352   1.446   3.827  0.0662  0.0526 -0.0756
 2501SOL    HW118965   0.285   1.379   3.823 -0.8612  1.0288 -0.9754
 2501SOL    HW218966   0.306   1.530   3.822  0.7529  0.4981  0.9393
 2502SOL     OW18967   3.322   2.253   1.496  0.4044  0.5682 -0.2441
 2502SOL    HW118968   3.407   2.289   1.523 -0.7369  2.3228  1.0657
 2502SOL    HW218969   3.307   2.185   1.562  1.3763 -0.5054 -1.1381
 2503SOL     OW18970   1.871   2.052   7.866 -0.1227  0.0500  0.4502
 2503SOL    HW118971   1.846   2.142   7.887 -0.2300  0.0970  0.1238
 2503SOL    HW218972   1.966   2.060   7.859  0.0334 -0.1792  2.3479
 2504SOL     OW18973   3.035   4.135   4.544  0.3254 -0.3167  0.4604
 2504SOL    HW118974   3.076   4.104   4.624 -0.8982 -0.7322  0.9278
 2504SOL    HW218975   2.960   4.076   4.540 -0.2796  0.4471  0.4622
 2505SOL     OW18976   2.035   2.378  16.360 -0.6755 -0.1036 -0.4863
 2505SOL    HW118977   1.958   2.341  16.403 -0.3190  1.7788  1.7713
 2505SOL    HW218978   2.006   2.461  16.321  0.0161  1.0799  1.5455
 2506SOL     OW18979   2.457   1.848  15.928 -0.1858 -0.4224 -0.3117
 2506SOL    HW118980   2.466   1.753  15.926 -1.9411 -0.5995 -0.1716
 2506SOL    HW218981   2.544   1.884  15.946  0.0139 -0.8674 -0.4072
 2507SOL     OW18982   4.348   1.959   5.568 -0.8402  0.4491 -0.1571
 2507SOL    HW118983   4.382   1.959   5.479 -0.7466 -2.9235 -0.1277
 2507SOL    HW218984   4.279   1.893   5.558 -1.1543  0.3798  2.2640
 2508SOL     OW18985   0.542   2.756   6.848  0.1709 -0.0750 -0.2625
 2508SOL    HW118986   0.542   2.667   6.885  0.3234  0.9186  2.1340
 2508SOL    HW218987   0.611   2.744   6.783  0.4861 -0.0789  0.0740
 2509SOL     OW18988   0.346   3.528   5.224  0.1122  0.0185  0.1214
 2509SOL    HW118989   0.354   3.445   5.270  3.3308 -0.3650 -1.1308
 2509SOL    HW218990   0.275   3.522   5.160 -1.2680  0.7305  1.5986
 2510SOL     OW18991   0.421   1.928  17.461  0.2374 -0.5034 -0.3758
 2510SOL    HW118992   0.489   1.887  17.407  1.5638  1.8499 -0.4859
 2510SOL    HW218993   0.375   1.975  17.391 -0.3306  0.5069  0.6751
 2511SOL     OW18994   2.058   4.526   1.361 -0.0135  0.3961  0.3702
 2511SOL    HW118995   2.008   4.510   1.281  1.4861  0.1079 -0.5068
 2511SOL    HW218996   2.007   4.473   1.422 -1.4463  0.8869 -0.3940
 2512SOL     OW18997   3.373   3.680   7.599  0.7151  0.5978  0.1475
 2512SOL    HW118998   3.463   3.697   7.627  0.7392  1.4989 -0.4870
 2512SOL    HW218999   3.344   3.770   7.585  1.9097  1.3794  2.6774
 2513SOL     OW19000   0.089   4.694   8.775  0.0303  0.3238 -0.2395
 2513SOL    HW119001   0.170   4.676   8.727  2.0247  3.4676  1.9252
 2513SOL    HW219002   0.067   4.612   8.820 -1.4163  0.1037 -1.3757
 2514SOL     OW19003   1.327   2.807  12.745 -0.3560  0.6240 -0.4515
 2514SOL    HW119004   1.278   2.760  12.813  0.6686 -1.2965 -1.0175
 2514SOL    HW219005   1.327   2.898  12.775  2.0002 -0.5948  3.3758
 2515SOL     OW19006   0.621   3.444  11.338 -0.0568 -0.3203  0.3265
 2515SOL    HW119007   0.711   3.413  11.350  0.0958 -0.1170 -0.2839
 2515SOL    HW219008   0.639   3.498  11.261 -2.0426  1.4456  1.1124
 2516SOL     OW19009   2.896   1.307   7.880 -0.0795  0.3562  0.3963
 2516SOL    HW119010   2.864   1.234   7.934 -0.3408  0.1800  0.0032
 2516SOL    HW219011   2.905   1.374   7.948  0.3950  3.6796 -2.9617
 2517SOL     OW19012   1.189   1.079   3.769  0.2240  0.0311 -0.2851
 2517SOL    HW119013   1.163   1.046   3.855  1.4507 -1.4087 -0.4623
 2517SOL    HW219014   1.126   1.043   3.707  1.3350 -1.5786 -0.4928
 2518SOL     OW19015   0.676   3.307   5.468  0.6249 -0.9140 -0.1935
 2518SOL    HW119016   0.657   3.400   5.454  0.3615 -0.9098  0.1801
 2518SOL    HW219017   0.646   3.305   5.559 -0.2640  1.5687 -0.4356
 2519SOL     OW19018   2.129   1.840   7.601 -0.7381  0.1210 -0.5016
 2519SOL    HW119019   2.143   1.788   7.680  2.0137  2.8762  0.8002
 2519SOL    HW219020   2.158   1.925   7.634 -0.9895 -1.2629  3.2529
 2520SOL     OW19021   2.810   1.468   2.738 -0.2726  0.4288 -0.3888
 2520SOL    HW119022   2.769   1.551   2.766 -2.7994 -1.4520  1.4895
 2520SOL    HW219023   2.859   1.487   2.658  0.0723 -0.4555 -0.3815
 2521SOL     OW19024   4.675   1.506  10.878 -0.2538 -0.2470 -0.8909
 2521SOL    HW119025   4.644   1.452  10.951  0.6777 -0.2832 -0.5202
 2521SOL    HW219026   4.719   1.575  10.928  1.0063  0.2115 -2.6349
 2522SOL     OW19027   1.692   0.280  15.099  0.6873 -0.1225  0.8194
 2522SOL    HW119028   1.744   0.200  15.096  1.7711  0.5969  0.5849
 2522SOL    HW219029   1.677   0.295  15.192 -0.0920  1.2414  0.4783
 2523SOL     OW19030   0.254   4.650  11.564  0.1070 -0.3215 -0.6208
 2523SOL    HW119031   0.262   4.569  11.614  2.0994 -1.3281 -2.5522
 2523SOL    HW219032   0.284   4.715  11.627 -1.8342 -0.1526  0.1183
 2524SOL     OW19033   0.590   4.072   1.774 -0.1510  0.6691  0.2868
 2524SOL    HW119034   0.535   4.081   1.852 -0.2697  0.9242  0.1722
 2524SOL    HW219035   0.671   4.080   1.824  0.0707  1.8179 -0.2702
 2525SOL     OW19036   0.358   3.771   6.982  0.5488 -0.5783  0.0132
 2525SOL    HW119037   0.395   3.811   7.061  0.0263  0.2323 -0.1550
 2525SOL    HW219038   0.277   3.820   6.969 -0.1782 -2.2748 -1.8302
 2526SOL     OW19039   2.486   3.177  17.666  0.0846 -0.5943  0.1381
 2526SOL    HW119040   2.482   3.159  17.572 -1.2198 -0.6212  0.2050
 2526SOL    HW219041   2.505   3.271  17.662 -1.3687 -0.4050 -2.6000
 2527SOL     OW19042   1.359   1.339  13.601  0.1024 -0.0085 -0.0206
 2527SOL    HW119043   1.412   1.259  13.602  0.0925 -0.0011  1.1043
 2527SOL    HW219044   1.366   1.373  13.690  2.2201 -1.1210  0.2415
 2528SOL     OW19045   3.585   2.736   8.079 -0.1806  0.2104  0.1580
 2528SOL    HW119046   3.550   2.738   8.168  0.1254 -0.2732  0.2865
 2528SOL    HW219047   3.634   2.655   8.082  1.2255  1.0176 -1.2708
 2529SOL     OW19048   3.780   4.481   9.958  0.5759  0.0356 -0.1554
 2529SOL    HW119049   3.810   4.504  10.045  2.7959 -0.2744 -0.8598
 2529SOL    HW219050   3.756   4.389   9.969  0.9378  0.0455  0.6653
 2530SOL     OW19051   2.957   0.415   1.111 -0.4458  0.3788 -0.0045
 2530SOL    HW119052   2.968   0.341   1.169 -2.3196 -1.2997 -1.7922
 2530SOL    HW219053   2.861   0.408   1.115 -0.3073 -1.2064  0.2883
 2531SOL     OW19054   3.004   2.402   9.385 -0.7857 -0.3762 -0.6272
 2531SOL    HW119055   2.986   2.312   9.356 -0.1889 -0.4324 -0.8166
 2531SOL    HW219056   2.982   2.393   9.478  1.4601  1.2922  0.0631
 2532SOL     OW19057   3.255   2.551  16.718  0.1167  0.5414  0.4676
 2532SOL    HW119058   3.205   2.520  16.794  0.0457  1.2866  0.7285
 2532SOL    HW219059   3.279   2.639  16.747 -1.4246  1.5321 -1.3125
 2533SOL     OW19060   0.778   0.057   1.505  0.2865 -0.5731 -0.4392
 2533SOL    HW119061   0.822   0.003   1.570  0.5049 -0.3356 -0.3904
 2533SOL    HW219062   0.783   0.140   1.552  0.8908 -0.7556 -0.1807
 2534SOL     OW19063   3.019   1.746  13.131 -0.1244  0.3533 -0.1127
 2534SOL    HW119064   3.064   1.782  13.054 -0.0790  0.1729 -0.1701
 2534SOL    HW219065   2.963   1.689  13.080 -2.0109 -0.3006  2.6616
 2535SOL     OW19066   4.427   2.898  17.595 -0.1756 -0.2824 -0.5246
 2535SOL    HW119067   4.358   2.925  17.656 -1.9750  1.3691 -3.2726
 2535SOL    HW219068   4.448   2.983  17.556  4.6258 -1.8383 -1.2870
 2536SOL     OW19069   1.675   3.668   0.905 -0.5214  0.4992 -0.4038
 2536SOL    HW119070   1.704   3.609   0.836 -1.3858 -0.0315 -0.3175
 2536SOL    HW219071   1.645   3.738   0.847  2.3793  0.5102 -1.8637
 2537SOL     OW19072   0.588   4.640   2.078  0.4093 -0.3415  0.5583
 2537SOL    HW119073   0.540   4.681   2.006  1.5203  2.1241  1.2397
 2537SOL    HW219074   0.541   4.561   2.104  0.8316 -0.6697  0.3306
 2538SOL     OW19075   4.385   3.011   6.183 -0.0061  0.2489  0.7336
 2538SOL    HW119076   4.323   2.992   6.113  1.0519  1.6875 -0.5923
 2538SOL    HW219077   4.329   2.972   6.250  2.1016 -0.4552  2.0968
 2539SOL     OW19078   3.503   3.786   4.758 -0.1255 -0.0782  0.1322
 2539SOL    HW119079   3.426   3.803   4.703  0.2063 -0.2581 -0.3893
 2539SOL    HW219080   3.575   3.830   4.714  1.3022 -3.6684 -1.1608
 2540SOL     OW19081   3.426   0.852   2.080  0.4440  0.1417  0.4074
 2540SOL    HW119082   3.443   0.759   2.061  0.5296  0.5754 -1.5972
 2540SOL    HW219083   3.496   0.896   2.032  1.7265 -1.0242  1.1960
 2541SOL     OW19084   1.761   2.184  12.326 -0.0493  0.1463 -0.4579
 2541SOL    HW119085   1.839   2.199  12.380 -0.7132 -1.3197  0.9273
 2541SOL    HW219086   1.758   2.270  12.284 -0.6299  0.0181 -0.6758
 2542SOL     OW19087   4.263   1.848  16.738 -0.8010  0.1578 -0.5665
 2542SOL    HW119088   4.226   1.789  16.671  1.1642 -0.1245 -1.3985
 2542SOL    HW219089   4.263   1.788  16.813 -0.6930 -1.3066 -1.7271
 2543SOL     OW19090   2.010   4.299  14.926  0.0710 -0.0339  0.0618
 2543SOL    HW119091   2.092   4.257  14.954 -0.3096 -1.1897 -0.5402
 2543SOL    HW219092   1.954   4.222  14.939  1.6720 -1.2684 -0.2191
 2544SOL     OW19093   1.708   3.245   9.205 -0.5061  0.5128 -0.4909
 2544SOL    HW119094   1.631   3.295   9.179 -0.8709  0.3983  0.3873
 2544SOL    HW219095   1.684   3.219   9.293 -0.4375  0.2053 -0.5640
 2545SOL     OW19096   3.071   3.606   4.640 -0.1025  0.5328 -0.6153
 2545SOL    HW119097   3.057   3.673   4.707  1.1457 -0.8442  1.0100
 2545SOL    HW219098   3.146   3.560   4.678  0.8138  1.4216 -1.3259
 2546SOL     OW19099   0.710   3.248   1.690  0.3375 -0.0053 -0.2522
 2546SOL    HW119100   0.779   3.312   1.670  1.3518 -1.3614 -1.0846
 2546SOL    HW219101   0.767   3.172   1.692 -0.1911 -0.3411  2.0420
 2547SOL     OW19102   3.123   1.869  12.917 -0.4341 -0.0617  0.9944
 2547SOL    HW119103   3.184   1.942  12.929 -1.2255  0.9653 -1.2548
 2547SOL    HW219104   3.081   1.881  12.832  1.8195  1.9545  0.1525
 2548SOL     OW19105   2.067   2.420   6.727 -0.4574  0.0590 -0.1790
 2548SOL    HW119106   2.052   2.328   6.705  0.6475 -0.0273 -0.5547
 2548SOL    HW219107   1.977   2.442   6.750  0.1122  1.9390  0.2068
 2549SOL     OW19108   0.431   2.505   6.668 -0.0025  0.0512 -0.0562
 2549SOL    HW119109   0.416   2.411   6.677 -0.6023  0.0830 -0.7467
 2549SOL    HW219110   0.444   2.523   6.761 -1.4954 -1.4407  0.4291
 2550SOL     OW19111   4.259   4.398  12.799  0.4569 -0.5045 -0.1503
 2550SOL    HW119112   4.316   4.334  12.755 -0.9054 -1.3566 -0.6985
 2550SOL    HW219113   4.183   4.346  12.825 -1.4439  2.0678 -0.5628
 2551SOL     OW19114   4.343   3.138   6.654 -0.1022 -0.2274  0.0703
 2551SOL    HW119115   4.336   3.222   6.699 -0.2904 -0.2039 -0.0011
 2551SOL    HW219116   4.400   3.094   6.717  0.7765 -0.0714 -0.6070
 2552SOL     OW19117   3.518   4.311   6.809 -0.3872  0.0764 -0.7536
 2552SOL    HW119118   3.519   4.395   6.855 -2.8553 -0.2471 -0.1064
 2552SOL    HW219119   3.527   4.336   6.717  0.8289 -1.4190 -1.0424
 2553SOL     OW19120   4.067   0.790   8.483  0.5557  0.4814 -0.1383
 2553SOL    HW119121   4.107   0.803   8.397  0.3411  4.2254  0.3335
 2553SOL    HW219122   4.127   0.730   8.526 -0.0803  1.3062  1.9323
 2554SOL     OW19123   3.667   4.046  11.838 -0.3690  0.6132 -0.1872
 2554SOL    HW119124   3.642   4.012  11.752  1.7865 -0.4606 -0.4029
 2554SOL    HW219125   3.601   4.114  11.853 -3.0485 -1.1808 -3.8914
 2555SOL     OW19126   4.530   0.827   9.452 -0.3140 -0.5043 -0.6732
 2555SOL    HW119127   4.499   0.918   9.450 -0.3233 -0.4408  2.6585
 2555SOL    HW219128   4.619   0.842   9.484 -0.4825 -0.5226 -0.1994
 2556SOL     OW19129   4.193   2.037   1.602  0.3894  0.3617  0.1003
 2556SOL    HW119130   4.211   2.074   1.688 -0.3743  1.9109 -0.4177
 2556SOL    HW219131   4.102   2.066   1.593 -0.0764 -2.0412 -3.0698
 2557SOL     OW19132   2.313   2.982   6.502  0.2826  0.2954 -0.1000
 2557SOL    HW119133   2.356   3.067   6.502 -0.3862  0.6415  2.4175
 2557SOL    HW219134   2.308   2.953   6.594 -0.1307 -0.1925 -0.2775
 2558SOL     OW19135   3.797   4.677   4.107  0.1712 -0.6825  0.3152
 2558SOL    HW119136   3.705   4.697   4.089  0.3304 -0.8488 -0.6704
 2558SOL    HW219137   3.836   4.662   4.021  0.0717  0.0827  0.1307
 2559SOL     OW19138   0.589   1.854   6.185  0.0365 -0.0215  0.2835
 2559SOL    HW119139   0.525   1.924   6.178 -0.3902 -0.4023  0.3225
 2559SOL    HW219140   0.608   1.852   6.278 -5.5182  0.7901  1.3957
 2560SOL     OW19141   0.946   2.772   5.022 -0.0649  0.4658 -0.4046
 2560SOL    HW119142   0.946   2.757   4.928  1.0676  0.4607 -0.3983
 2560SOL    HW219143   0.869   2.826   5.041  1.4952  2.3003  0.7157
 2561SOL     OW19144   1.898   2.621   7.256  0.3943 -0.0895  0.4458
 2561SOL    HW119145   1.821   2.610   7.312  0.6727 -0.7367  0.7101
 2561SOL    HW219146   1.972   2.592   7.309  1.7916  0.1340 -1.3694
 2562SOL     OW19147   1.581   1.050   7.936  0.4766 -0.8072 -0.5847
 2562SOL    HW119148   1.613   1.078   7.851 -0.9524  0.7679 -0.5902
 2562SOL    HW219149   1.662   1.051   7.987 -0.2406 -0.4522  0.5608
 2563SOL     OW19150   3.493   1.826   4.162  0.1323 -0.1635 -0.5133
 2563SOL    HW119151   3.427   1.886   4.194  2.5626  0.2276  3.8433
 2563SOL    HW219152   3.557   1.811   4.232  0.9945 -0.6439 -1.3925
 2564SOL     OW19153   1.222   1.806  16.815 -0.0151  0.0360  0.1225
 2564SOL    HW119154   1.258   1.811  16.726  4.0722 -2.3458  1.6443
 2564SOL    HW219155   1.218   1.712  16.833 -0.6916 -0.1912 -1.2164
 2565SOL     OW19156   3.048   0.419  11.060  0.0623  0.8343 -0.0636
 2565SOL    HW119157   2.985   0.464  11.116 -1.5407 -1.3002 -0.1136
 2565SOL    HW219158   3.008   0.344  11.015 -1.1414  3.1327 -2.7499
 2566SOL     OW19159   0.791   0.298   9.646  0.4247 -0.0685  0.4186
 2566SOL    HW119160   0.737   0.219   9.644  0.0623  0.2291 -1.4909
 2566SOL    HW219161   0.851   0.273   9.575  0.4657  1.0421  0.0692
 2567SOL     OW19162   3.376   3.383   9.199  0.3365  0.6148  0.2689
 2567SOL    HW119163   3.377   3.291   9.226 -1.0319  0.7586  0.8016
 2567SOL    HW219164   3.454   3.422   9.237 -0.2674  0.7914  1.3430
 2568SOL     OW19165   3.993   0.620  14.263  0.2109 -0.0723  0.4736
 2568SOL    HW119166   4.060   0.572  14.216  0.2796 -0.0983  0.5986
 2568SOL    HW219167   4.020   0.602  14.353  1.7577 -0.1432 -0.0072
 2569SOL     OW19168   3.530   0.272   4.356 -0.1451  0.5536 -0.5774
 2569SOL    HW119169   3.598   0.213   4.389 -0.2616  0.0534 -1.2188
 2569SOL    HW219170   3.593   0.324   4.305 -0.9864  1.9398 -0.1866
 2570SOL     OW19171   1.466   0.310   6.836 -0.0762  0.9102 -0.0642
 2570SOL    HW119172   1.497   0.342   6.752  1.2031 -0.4732 -0.1329
 2570SOL    HW219173   1.371   0.303   6.826 -0.2201 -0.8347  2.3626
 2571SOL     OW19174   2.609   4.708   4.725 -0.2712  0.2221 -0.2340
 2571SOL    HW119175   2.546   4.645   4.690  1.6911 -1.0844 -1.4225
 2571SOL    HW219176   2.594   4.706   4.819  0.2792 -2.2828 -0.1932
 2572SOL     OW19177   0.407   1.777   4.586  0.4036 -0.2043  0.3299
 2572SOL    HW119178   0.326   1.726   4.581 -0.6616  1.3738  1.1170
 2572SOL    HW219179   0.378   1.862   4.553  2.7801  0.7282  0.6719
 2573SOL     OW19180   0.548   4.370   7.222  0.0032 -0.9358  0.3777
 2573SOL    HW119181   0.474   4.426   7.201  0.9656  0.5775  1.0127
 2573SOL    HW219182   0.602   4.383   7.144 -0.4041 -1.9585 -0.0746
 2574SOL     OW19183   0.548   3.544   4.310  0.4830  0.2697  0.5900
 2574SOL    HW119184   0.642   3.560   4.305  0.4368  0.2995 -0.2188
 2574SOL    HW219185   0.553   3.461   4.261  0.6690  0.0671  0.9522
 2575SOL     OW19186   3.208   3.885  12.519 -0.3671 -0.2805  0.1606
 2575SOL    HW119187   3.242   3.860  12.433  1.1537  2.0840  0.0784
 2575SOL    HW219188   3.152   3.958  12.493 -0.7415  0.0856  2.0062
 2576SOL     OW19189   1.714   0.182   7.064  0.2034 -0.8863 -0.2258
 2576SOL    HW119190   1.757   0.243   7.004 -0.3742 -0.2506  0.0159
 2576SOL    HW219191   1.661   0.136   7.000 -0.5129  0.2738 -0.4624
 2577SOL     OW19192   3.260   1.562   7.478  0.2048 -0.1203  0.0828
 2577SOL    HW119193   3.356   1.565   7.484  0.2762 -1.7546 -0.2028
 2577SOL    HW219194   3.244   1.607   7.561  2.5025 -2.2572  1.6796
 2578SOL     OW19195   3.400   2.850  17.702  0.2078  0.1422  0.3918
 2578SOL    HW119196   3.461   2.901   0.051 -2.2954  4.1928 -0.6119
 2578SOL    HW219197   3.335   2.919  17.690 -0.6563 -0.3664  2.1906
 2579SOL     OW19198   1.758   0.409   6.219 -0.8644  0.6351 -0.3980
 2579SOL    HW119199   1.814   0.413   6.296 -0.5129 -0.6321 -0.5894
 2579SOL    HW219200   1.759   0.314   6.206  0.2686  0.2631  2.4857
 2580SOL     OW19201   1.840   4.373   1.554 -0.2880 -0.3753  0.2826
 2580SOL    HW119202   1.902   4.315   1.509 -0.6219  0.0868 -0.7820
 2580SOL    HW219203   1.762   4.354   1.503  0.3109  0.7785 -1.0872
 2581SOL     OW19204   3.741   3.766   6.200  0.3778 -0.2182 -0.4027
 2581SOL    HW119205   3.704   3.689   6.157 -0.6528 -1.6915  3.1186
 2581SOL    HW219206   3.828   3.776   6.162  0.5111 -1.0535 -0.3094
 2582SOL     OW19207   2.019   1.796   4.254 -0.3032 -0.1952 -0.3036
 2582SOL    HW119208   2.006   1.730   4.186  1.6379  0.0151 -0.8785
 2582SOL    HW219209   2.052   1.866   4.199 -1.8248  1.1755  0.5293
 2583SOL     OW19210   2.069   1.919   1.200  1.0134  0.4623 -0.1465
 2583SOL    HW119211   2.069   1.938   1.294  0.1862 -2.7110  0.5120
 2583SOL    HW219212   1.982   1.948   1.172  0.4690 -3.4011 -2.5416
 2584SOL     OW19213   3.527   2.121   4.104  0.3660 -0.2357  0.1128
 2584SOL    HW119214   3.537   2.048   4.044  2.3599 -1.6624  2.1773
 2584SOL    HW219215   3.604   2.113   4.161  0.6634  0.5392 -0.1760
 2585SOL     OW19216   2.075   1.245  15.327  1.2017  0.0512 -0.2990
 2585SOL    HW119217   2.130   1.242  15.405 -0.9339 -0.1903  1.1929
 2585SOL    HW219218   1.990   1.209  15.354  0.7206  0.5834 -1.1087
 2586SOL     OW19219   2.753   4.125  10.479  0.5176  0.1548  0.0081
 2586SOL    HW119220   2.727   4.046  10.431 -0.3897 -0.5445  1.6478
 2586SOL    HW219221   2.666   4.165  10.475  0.3980  0.0023  1.0958
 2587SOL     OW19222   0.372   4.091   7.173 -0.0587 -0.7572  0.3224
 2587SOL    HW119223   0.408   4.002   7.176 -1.8093 -1.4466  0.5962
 2587SOL    HW219224   0.396   4.125   7.260  2.3596  1.9297 -1.3924
 2588SOL     OW19225   0.618   2.214   5.437 -0.5159 -0.1347  0.0160
 2588SOL    HW119226   0.553   2.219   5.367 -0.5335 -0.9858 -0.0295
 2588SOL    HW219227   0.698   2.193   5.388  0.7015  0.4690  1.7366
 2589SOL     OW19228   0.043   2.670   6.261 -0.6049  0.1676  0.0088
 2589SOL    HW119229   0.090   2.749   6.235  1.9212 -1.2845  0.1579
 2589SOL    HW219230   4.681   2.704   6.279 -0.7782 -1.1876  1.7679
 2590SOL     OW19231   4.570   2.925   8.685 -0.1038  0.1020 -0.8012
 2590SOL    HW119232   4.482   2.930   8.723 -0.2631 -0.4116 -1.1079
 2590SOL    HW219233   4.616   2.997   8.728  1.4739  0.4210 -2.9961
 2591SOL     OW19234   3.686   1.377   7.361 -0.3673 -0.5040  0.6047
 2591SOL    HW119235   3.685   1.464   7.321 -1.3718 -1.1921 -0.8998
 2591SOL    HW219236   3.636   1.399   7.440  0.1945  0.6745  0.6238
 2592SOL     OW19237   1.490   4.583   4.868 -0.2745  0.5266 -0.3323
 2592SOL    HW119238   1.476   4.676   4.890  0.7048  0.6328 -0.1586
 2592SOL    HW219239   1.552   4.557   4.936 -0.0201  0.8811 -0.4293
 2593SOL     OW19240   4.139   2.206   6.781  0.9321 -0.2962 -0.0594
 2593SOL    HW119241   4.074   2.191   6.713  1.2595  2.2426 -0.8985
 2593SOL    HW219242   4.106   2.149   6.851 -2.6147  0.1629 -1.3684
 2594SOL     OW19243   4.412   4.150  14.197  0.2143 -0.0148  0.2756
 2594SOL    HW119244   4.449   4.222  14.248  0.5372 -0.7395  1.0763
 2594SOL    HW219245   4.322   4.149  14.230  0.4213 -0.7295  0.8310
 2595SOL     OW19246   2.020   3.683   4.129  0.3206  0.0971 -0.4836
 2595SOL    HW119247   2.064   3.622   4.070 -0.2718 -1.1549  0.3637
 2595SOL    HW219248   2.003   3.629   4.207 -1.6715 -0.9505 -1.6323
 2596SOL     OW19249   2.758   0.899   9.449  0.5810 -0.1009 -0.1207
 2596SOL    HW119250   2.802   0.962   9.507 -2.0185 -0.0408  1.8209
 2596SOL    HW219251   2.690   0.865   9.508 -0.2414  1.4448 -0.1653
 2597SOL     OW19252   0.100   2.548   7.018 -0.0975 -0.5336 -0.3145
 2597SOL    HW119253   0.154   2.620   6.986  0.2547 -0.3421  0.7220
 2597SOL    HW219254   0.013   2.589   7.023  0.0287 -0.3345  0.2929
 2598SOL     OW19255   2.422   3.386   2.717 -0.3338 -0.0824  0.1637
 2598SOL    HW119256   2.411   3.427   2.631  1.4599  1.4989  0.6818
 2598SOL    HW219257   2.349   3.430   2.762 -0.5560 -3.3855  3.0283
 2599SOL     OW19258   4.249   1.057  16.643 -0.3671  0.2863  0.8366
 2599SOL    HW119259   4.189   1.011  16.584  0.2712  1.2107 -0.5241
 2599SOL    HW219260   4.336   1.021  16.623 -0.2039 -0.0337  2.0985
 2600SOL     OW19261   2.483   1.583  14.522 -0.4155  0.3121 -0.0147
 2600SOL    HW119262   2.506   1.568  14.430 -1.1777  2.1086 -0.5035
 2600SOL    HW219263   2.568   1.561  14.560 -1.0863  1.6446  2.2657
 2601SOL     OW19264   0.009   0.933   8.612  0.0011  0.2699 -0.0442
 2601SOL    HW119265   0.027   1.013   8.562  1.6022 -0.4377 -0.5889
 2601SOL    HW219266   0.097   0.901   8.633  0.1351 -1.0962 -2.8439
 2602SOL     OW19267   3.190   2.206   6.073 -0.4534 -0.0681  0.1531
 2602SOL    HW119268   3.285   2.208   6.090  0.0924  3.4827 -3.1222
 2602SOL    HW219269   3.179   2.230   5.981 -0.2815 -1.2265 -0.1695
 2603SOL     OW19270   1.017   1.445  17.005  0.0972  0.7169 -0.1735
 2603SOL    HW119271   1.018   1.537  16.980  0.3430  0.9784  0.8309
 2603SOL    HW219272   0.976   1.445  17.092  0.3343 -3.5998 -0.0408
 2604SOL     OW19273   0.578   4.664  15.743 -0.2531 -0.2472 -0.2928
 2604SOL    HW119274   0.483   4.652  15.743 -0.2023 -0.6119  0.7061
 2604SOL    HW219275   0.612   4.583  15.780  0.6676  0.4849  0.4396
 2605SOL     OW19276   3.867   3.385   8.855  0.4721  0.5136  0.0662
 2605SOL    HW119277   3.866   3.369   8.949 -0.5682  0.6065  0.0762
 2605SOL    HW219278   3.910   3.470   8.852 -0.0787  0.7427 -1.2378
 2606SOL     OW19279   4.309   1.049   5.716 -0.2570 -0.2897 -0.0454
 2606SOL    HW119280   4.251   1.062   5.641 -1.8879  0.4853  1.3215
 2606SOL    HW219281   4.299   0.957   5.739  1.6961 -0.1515  1.3391
 2607SOL     OW19282   0.196   3.570  13.959 -0.3736  0.5395  0.3270
 2607SOL    HW119283   0.226   3.657  13.931  0.4615 -0.3764 -1.5893
 2607SOL    HW219284   0.220   3.514  13.885 -1.1804 -1.5843  1.6815
 2608SOL     OW19285   3.966   2.398  15.439  0.3305  0.7138 -0.2353
 2608SOL    HW119286   3.908   2.350  15.498  0.0104  1.0188 -0.3061
 2608SOL    HW219287   4.015   2.319  15.416  0.9417  1.0993 -0.2534
 2609SOL     OW19288   4.460   0.232   0.494 -0.2140 -0.1111 -0.2109
 2609SOL    HW119289   4.472   0.138   0.482  1.0414  0.1286 -0.8993
 2609SOL    HW219290   4.368   0.244   0.518  0.0542  1.9222 -0.2098
 2610SOL     OW19291   2.681   3.956   6.085  0.3843  0.1791  0.1328
 2610SOL    HW119292   2.775   3.966   6.096 -0.0553  2.2278  1.9648
 2610SOL    HW219293   2.659   3.866   6.112 -0.9484  0.5650  0.3296
 2611SOL     OW19294   1.085   1.120   6.655  0.3650  0.1148  0.2678
 2611SOL    HW119295   1.083   1.195   6.714 -2.9574  0.4592 -0.2625
 2611SOL    HW219296   0.995   1.123   6.622  0.5188 -0.6576 -0.2007
 2612SOL     OW19297   3.039   1.680   7.387  0.2188  0.3332 -0.5138
 2612SOL    HW119298   2.984   1.669   7.464 -1.9373 -1.8303 -2.3728
 2612SOL    HW219299   3.115   1.624   7.399  1.3028  2.3806  2.0804
 2613SOL     OW19300   4.544   2.826   2.712  0.1568  0.1086 -0.3019
 2613SOL    HW119301   4.518   2.757   2.773 -1.1725  1.0459  0.2045
 2613SOL    HW219302   4.500   2.809   2.629 -1.2601  0.7537  0.3150
 2614SOL     OW19303   1.479   1.911   1.307  0.2319  0.5160 -0.3172
 2614SOL    HW119304   1.409   1.930   1.245 -0.8470  2.1361  1.3963
 2614SOL    HW219305   1.465   1.818   1.323  0.4989  0.3262 -1.1864
 2615SOL     OW19306   4.289   4.132   4.955  0.0427 -0.3055  0.0548
 2615SOL    HW119307   4.353   4.085   5.008  0.9215 -1.8896 -2.4284
 2615SOL    HW219308   4.267   4.204   5.014 -2.2446 -0.7255 -0.3122
 2616SOL     OW19309   0.052   0.930   9.519 -0.1869 -0.7384 -0.3922
 2616SOL    HW119310   0.055   0.934   9.614 -4.8347 -0.3720 -0.2789
 2616SOL    HW219311   0.102   1.009   9.500 -1.3163  0.3582  1.2233
 2617SOL     OW19312   3.613   3.199  11.799  0.6050  0.2077 -0.0431
 2617SOL    HW119313   3.569   3.276  11.763  0.3191  0.0974  0.0642
 2617SOL    HW219314   3.619   3.215  11.893 -1.7792 -0.5902  0.2503
 2618SOL     OW19315   0.273   0.579   8.065  0.4332 -0.3502 -0.2759
 2618SOL    HW119316   0.198   0.573   8.006 -1.1923  0.6205  1.6909
 2618SOL    HW219317   0.316   0.649   8.016 -0.1509 -0.0567 -0.3719
 2619SOL     OW19318   0.929   2.570  13.798 -0.3137 -0.3715  0.2426
 2619SOL    HW119319   0.852   2.521  13.768  1.0431 -1.6209 -1.2181
 2619SOL    HW219320   0.883   2.646  13.834  0.5700 -1.1530  3.0450
 2620SOL     OW19321   3.914   3.419   1.181  0.5169  0.2676 -0.1567
 2620SOL    HW119322   3.894   3.510   1.200  0.4967  0.6659 -2.0785
 2620SOL    HW219323   4.004   3.420   1.214  0.2903 -2.1279  0.5285
 2621SOL     OW19324   2.335   2.250   4.221  0.3687 -0.3012  0.2185
 2621SOL    HW119325   2.422   2.289   4.218  0.2423  0.0868  1.7666
 2621SOL    HW219326   2.355   2.156   4.216  0.6374 -0.1960 -0.7246
 2622SOL     OW19327   4.628   1.457  16.542  0.2779  0.3141 -0.0055
 2622SOL    HW119328   4.533   1.468  16.541  0.6702  3.4615 -1.4095
 2622SOL    HW219329   4.638   1.406  16.461  0.1467 -0.2164  0.3173
 2623SOL     OW19330   3.113   4.245   4.860  0.1178 -0.6599  0.2672
 2623SOL    HW119331   3.147   4.295   4.934 -0.8779 -2.1350  1.7146
 2623SOL    HW219332   3.069   4.315   4.810  0.6749 -0.5875 -0.1179
 2624SOL     OW19333   0.512   1.909   8.825 -0.5123 -0.2374  0.3520
 2624SOL    HW119334   0.439   1.951   8.869 -0.9829 -1.7904  1.0821
 2624SOL    HW219335   0.574   1.912   8.898  0.0196 -0.4446 -0.0893
 2625SOL     OW19336   2.019   2.022  11.089  0.1808 -0.5272 -0.1968
 2625SOL    HW119337   2.039   1.934  11.122  1.2504  0.2706  1.2483
 2625SOL    HW219338   2.056   2.071  11.162 -0.3319  0.7714 -0.8149
 2626SOL     OW19339   2.684   3.144   8.086 -0.3676  0.3195 -0.1748
 2626SOL    HW119340   2.689   3.073   8.021  1.6116  0.7665 -0.5053
 2626SOL    HW219341   2.777   3.162   8.098 -0.4283  1.3996 -1.3949
 2627SOL     OW19342   2.657   1.983   7.842 -0.5042  0.3276  0.2317
 2627SOL    HW119343   2.647   2.030   7.924  0.2278 -2.4481  1.9126
 2627SOL    HW219344   2.636   1.893   7.868 -1.0412  0.5344  0.5088
 2628SOL     OW19345   3.046   3.525   7.140  0.7430 -0.3322  0.0914
 2628SOL    HW119346   3.127   3.571   7.117  0.8030 -1.2171 -1.4337
 2628SOL    HW219347   3.063   3.435   7.169  0.8558  0.2691  1.8857
 2629SOL     OW19348   2.722   0.569   1.724 -0.0611  0.2115 -0.1024
 2629SOL    HW119349   2.675   0.633   1.671 -0.9105  1.7780  2.5947
 2629SOL    HW219350   2.701   0.485   1.682  0.9740 -0.1905  0.1957
 2630SOL     OW19351   1.815   1.515  14.959  0.3259 -0.0732 -0.2267
 2630SOL    HW119352   1.787   1.597  15.000  2.3193 -0.1262  1.2370
 2630SOL    HW219353   1.854   1.474  15.036  0.0070  0.1001  0.0222
 2631SOL     OW19354   0.603   0.685   0.353  0.5700 -0.2561  0.1317
 2631SOL    HW119355   0.607   0.751   0.285 -0.6636 -1.5922 -1.2591
 2631SOL    HW219356   0.531   0.713   0.409 -0.2904  1.0985 -1.6576
 2632SOL     OW19357   1.585   1.391   8.348  0.6050 -0.4674  0.0437
 2632SOL    HW119358   1.507   1.428   8.389  1.0133  1.5876 -1.0571
 2632SOL    HW219359   1.607   1.314   8.400 -1.6198 -1.0121  0.1565
 2633SOL     OW19360   1.753   3.224   7.142  0.3248 -0.4711 -0.1162
 2633SOL    HW119361   1.717   3.244   7.228 -1.2563 -2.2102 -0.3957
 2633SOL    HW219362   1.698   3.287   7.095 -0.2767  0.9236  2.4482
 2634SOL     OW19363   3.715   1.593   6.144  0.5207  0.3239 -0.0092
 2634SOL    HW119364   3.775   1.520   6.132 -0.4727 -0.3340 -1.0049
 2634SOL    HW219365   3.778   1.661   6.122 -0.6986  1.5374  0.2174
 2635SOL     OW19366   1.487   3.048  17.147  0.2279 -0.2548  0.0394
 2635SOL    HW119367   1.456   3.094  17.069  1.1205  0.4644  0.1146
 2635SOL    HW219368   1.484   3.117  17.213 -0.9578 -0.1348 -0.1354
 2636SOL     OW19369   2.110   0.195   4.489  0.4877  0.5779 -0.1381
 2636SOL    HW119370   2.062   0.216   4.409  0.5368  4.9543  1.0082
 2636SOL    HW219371   2.174   0.131   4.457  0.6580 -0.2088  1.7517
 2637SOL     OW19372   2.586   2.119  11.861  1.0995  0.3775 -0.2718
 2637SOL    HW119373   2.656   2.160  11.810  1.7751 -1.9770 -1.2713
 2637SOL    HW219374   2.591   2.174  11.938  1.0938 -2.3125  1.6422
 2638SOL     OW19375   4.411   1.560   1.711 -1.0141 -0.0368 -0.1946
 2638SOL    HW119376   4.424   1.631   1.774  1.2705 -1.5664  1.0249
 2638SOL    HW219377   4.380   1.597   1.628 -0.1913 -0.0271 -0.4905
 2639SOL     OW19378   2.894   1.735   0.755  0.1284  0.1168  0.2547
 2639SOL    HW119379   2.881   1.785   0.674  1.0281 -1.8481 -1.1018
 2639SOL    HW219380   2.890   1.805   0.820  1.1102 -0.4298  0.8974
 2640SOL     OW19381   2.207   2.920   7.172  0.3810 -0.0782 -0.0060
 2640SOL    HW119382   2.131   2.904   7.116  0.5787  0.6192 -0.4732
 2640SOL    HW219383   2.265   2.856   7.132  0.7202  0.4966 -0.4319
 2641SOL     OW19384   4.449   2.906   9.935  0.4915 -0.5633 -0.2288
 2641SOL    HW119385   4.424   2.974   9.873  2.2288  0.1614 -0.1258
 2641SOL    HW219386   4.540   2.924   9.959  0.4683 -0.8589  0.0775
 2642SOL     OW19387   4.596   3.902  11.216  0.3932 -0.6552  0.4386
 2642SOL    HW119388   4.596   3.926  11.308 -1.1473 -2.8560  1.0164
 2642SOL    HW219389   4.655   3.967  11.178 -1.4206 -0.4679 -2.0982
 2643SOL     OW19390   2.270   4.324   7.995  0.4683  0.2367 -0.4354
 2643SOL    HW119391   2.355   4.308   7.955  0.5933 -1.1085  0.3602
 2643SOL    HW219392   2.289   4.375   8.074  0.3821 -0.5390  0.0903
 2644SOL     OW19393   0.386   3.187   5.833 -0.7945 -0.7695 -0.5685
 2644SOL    HW119394   0.302   3.225   5.806 -1.0955 -0.6429  0.5383
 2644SOL    HW219395   0.360   3.150   5.918  0.6423 -1.8780 -0.6101
 2645SOL     OW19396   3.561   0.562  12.300  0.5711  0.1935  0.4978
 2645SOL    HW119397   3.491   0.614  12.258 -0.7826 -0.6808  1.6702
 2645SOL    HW219398   3.508   0.544  12.378 -3.7804 -1.0611 -2.7425
 2646SOL     OW19399   2.705   0.515   9.296  0.1250 -0.3110 -0.5204
 2646SOL    HW119400   2.702   0.517   9.200 -2.0416  0.1357 -0.4547
 2646SOL    HW219401   2.795   0.488   9.311 -0.4762 -1.5975  0.8354
 2647SOL     OW19402   1.408   1.459   4.486 -0.3283  0.5828 -0.0425
 2647SOL    HW119403   1.323   1.465   4.442 -0.8905  2.4101  1.3175
 2647SOL    HW219404   1.410   1.538   4.540  1.5229  0.3584  0.2185
 2648SOL     OW19405   3.606   3.820  12.437  0.0821  0.5449 -0.0655
 2648SOL    HW119406   3.538   3.850  12.497  1.2241  3.0855 -0.0323
 2648SOL    HW219407   3.657   3.901  12.428  0.5239  0.3733  0.8875
 2649SOL     OW19408   0.921   4.604   5.039  0.3076 -0.4658 -0.3873
 2649SOL    HW119409   0.996   4.559   5.078  0.1363 -1.7139 -1.5040
 2649SOL    HW219410   0.842   4.588   5.089  0.7002 -0.5856  0.1926
 2650SOL     OW19411   2.887   3.366   7.775  0.0252 -0.1589 -0.1587
 2650SOL    HW119412   2.807   3.390   7.729  0.1462  0.7635  0.1228
 2650SOL    HW219413   2.944   3.440   7.757  0.3167 -0.5352 -0.7917
 2651SOL     OW19414   4.228   0.051   9.322  0.1450 -0.0166 -0.5371
 2651SOL    HW119415   4.211   0.046   9.416 -0.2779 -0.3545 -0.6273
 2651SOL    HW219416   4.320   0.074   9.320  0.0872  0.2850  0.2891
 2652SOL     OW19417   0.141   4.586   3.656 -0.1328 -0.4672 -0.0125
 2652SOL    HW119418   0.194   4.653   3.700  1.2257 -0.8613 -1.0347
 2652SOL    HW219419   0.049   4.610   3.668  0.1040  0.6305 -0.4929
 2653SOL     OW19420   4.568   1.641   4.282 -0.6786 -0.1504  1.0162
 2653SOL    HW119421   4.477   1.663   4.260 -1.3019 -1.4600  2.2752
 2653SOL    HW219422   4.594   1.722   4.326 -0.9127 -0.2131  1.2701
 2654SOL     OW19423   3.477   0.762   7.350 -0.0431 -0.0970  0.0641
 2654SOL    HW119424   3.398   0.779   7.298 -0.6242  0.0743  1.0052
 2654SOL    HW219425   3.520   0.848   7.356 -1.6412  0.6159  1.3973
 2655SOL     OW19426   2.826   0.397   2.467  0.8824  0.0564 -0.5185
 2655SOL    HW119427   2.801   0.440   2.549 -1.0138 -0.8345 -0.6166
 2655SOL    HW219428   2.828   0.307   2.502  1.4929  1.1310  2.1882
 2656SOL     OW19429   3.170   2.939   3.312  0.0821  0.9714 -0.2959
 2656SOL    HW119430   3.197   2.859   3.267  3.8513  0.7264  2.4136
 2656SOL    HW219431   3.108   2.970   3.246 -1.2424  0.9134  0.9336
 2657SOL     OW19432   4.176   4.719   0.897  0.5066 -0.2455 -0.4440
 2657SOL    HW119433   4.235   4.715   0.822  1.2285 -1.1947  0.1652
 2657SOL    HW219434   4.227   4.672   0.963  0.0051  1.3175  1.0602
 2658SOL     OW19435   1.084   4.109   8.039 -0.4047 -0.3891  0.1733
 2658SOL    HW119436   0.997   4.104   8.079 -0.0577  0.2454  1.0016
 2658SOL    HW219437   1.135   4.061   8.103  0.0081 -1.7388 -1.1747
 2659SOL     OW19438   0.020   4.713   5.934 -0.6071 -0.4574  0.4765
 2659SOL    HW119439   4.701   4.650   5.878 -0.5210 -0.0027 -0.1097
 2659SOL    HW219440   0.107   4.701   5.895 -0.1085 -1.6210  1.9687
 2660SOL     OW19441   1.321   1.073   0.592  0.2446  0.2080  0.7378
 2660SOL    HW119442   1.329   1.167   0.609 -2.3942  0.1998  2.0378
 2660SOL    HW219443   1.401   1.061   0.542 -0.9558 -0.9547 -0.9194
 2661SOL     OW19444   3.573   2.137  13.012  0.3771 -0.8884 -0.2968
 2661SOL    HW119445   3.536   2.225  13.005  0.8364 -0.9218 -3.2013
 2661SOL    HW219446   3.660   2.158  12.978 -0.6030 -0.1953 -2.4128
 2662SOL     OW19447   4.519   2.442  10.899 -0.0970 -0.4597 -0.0848
 2662SOL    HW119448   4.592   2.491  10.935 -1.2408  0.2236  1.2955
 2662SOL    HW219449   4.477   2.405  10.977  0.5341 -1.6459 -0.2947
 2663SOL     OW19450   3.666   1.080   1.064 -0.4259  0.1400 -0.0394
 2663SOL    HW119451   3.580   1.039   1.061 -1.3431  1.9210  1.8391
 2663SOL    HW219452   3.711   1.033   1.134 -0.3613 -2.3190 -1.7169
 2664SOL     OW19453   0.239   1.945   8.086 -0.4294  0.0065  0.0904
 2664SOL    HW119454   0.149   1.973   8.104 -0.0729  0.8796  0.5216
 2664SOL    HW219455   0.248   1.872   8.147  2.2909  1.1053  1.0213
 2665SOL     OW19456   3.771   3.820   6.452 -0.2580 -0.1170 -0.3856
 2665SOL    HW119457   3.683   3.795   6.482 -0.3778 -0.3507 -0.9308
 2665SOL    HW219458   3.756   3.803   6.359  1.5753 -2.3838 -0.2585
 2666SOL     OW19459   2.539   3.131   2.679  0.3600  0.2061 -0.3929
 2666SOL    HW119460   2.500   3.215   2.701  0.4829  0.2487 -0.3339
 2666SOL    HW219461   2.631   3.156   2.685  0.5585 -0.6391  0.0788
 2667SOL     OW19462   0.667   4.107   7.070  0.5636  0.6803  0.2976
 2667SOL    HW119463   0.606   4.156   7.125  0.0917  0.6732 -0.2304
 2667SOL    HW219464   0.638   4.110   6.979  0.3261 -0.0162  0.3466
 2668SOL     OW19465   4.624   3.597  11.510  0.4009  0.4722  0.4913
 2668SOL    HW119466   4.557   3.535  11.540 -0.2047  1.0912  0.4161
 2668SOL    HW219467   4.683   3.532  11.472 -2.1068 -2.1892  1.0688
 2669SOL     OW19468   4.464   3.735  16.742 -0.2102 -0.0858 -0.1267
 2669SOL    HW119469   4.419   3.807  16.787  0.7768  1.0977 -1.0424
 2669SOL    HW219470   4.551   3.772  16.731  0.2128 -1.6549 -1.9522
 2670SOL     OW19471   4.555   2.621   8.843 -0.7569  0.3775 -0.1661
 2670SOL    HW119472   4.626   2.652   8.899 -1.4218 -1.4850  1.7161
 2670SOL    HW219473   4.500   2.579   8.909  0.8350 -3.5727 -1.3630
 2671SOL     OW19474   3.163   0.284  16.292  0.5288 -0.1801 -0.1812
 2671SOL    HW119475   3.107   0.350  16.249 -0.2627 -0.0386  1.0730
 2671SOL    HW219476   3.226   0.280  16.220 -0.2067  2.6141 -0.9952
 2672SOL     OW19477   4.701   4.725  15.669 -0.2595 -0.0445  0.9467
 2672SOL    HW119478   4.674   0.085  15.637 -0.4096 -1.1597 -1.8527
 2672SOL    HW219479   4.704   4.677  15.587 -1.6323  2.1263 -0.3566
 2673SOL     OW19480   2.976   2.317   7.595  0.0310  0.0349  0.0704
 2673SOL    HW119481   3.023   2.298   7.513  0.0829 -0.3800  0.1943
 2673SOL    HW219482   2.888   2.329   7.559  0.1995  0.3704 -0.2313
 2674SOL     OW19483   2.178   4.533   3.518 -0.1806  0.5296  0.0771
 2674SOL    HW119484   2.179   4.437   3.517  0.0553  0.5564 -1.8649
 2674SOL    HW219485   2.087   4.549   3.494 -0.1160  0.2877 -0.3285
 2675SOL     OW19486   4.271   2.540   4.330 -0.2920  0.3669  0.0216
 2675SOL    HW119487   4.293   2.577   4.244  0.4652 -2.3008 -0.9385
 2675SOL    HW219488   4.356   2.510   4.362 -0.7207  0.2988  1.0780
 2676SOL     OW19489   2.174   2.063   3.284  0.2420  0.1678  0.0494
 2676SOL    HW119490   2.236   2.136   3.280  0.8851 -0.3627  0.3813
 2676SOL    HW219491   2.119   2.089   3.210 -1.6062 -0.9655  1.0465
 2677SOL     OW19492   2.536   2.243  16.939 -0.4076 -0.5582 -0.0138
 2677SOL    HW119493   2.503   2.305  16.874  0.2042  0.7072  0.8796
 2677SOL    HW219494   2.533   2.290  17.022 -2.6726 -2.7274  1.1190
 2678SOL     OW19495   0.968   1.220  17.677  0.0194 -0.7649  0.1210
 2678SOL    HW119496   1.050   1.182   0.002  0.0739  0.5207  1.6661
 2678SOL    HW219497   0.995   1.309  17.702 -0.9551 -0.2597 -0.6045
 2679SOL     OW19498   2.101   1.314   0.690  0.0974 -0.1503  0.3251
 2679SOL    HW119499   2.195   1.299   0.680 -0.1774 -1.9968  0.5128
 2679SOL    HW219500   2.088   1.408   0.684 -0.6157 -0.4219 -2.3384
 2680SOL     OW19501   0.975   4.154   1.177 -1.0396 -0.1897 -0.1966
 2680SOL    HW119502   0.907   4.182   1.117  0.6644  1.8288 -1.1859
 2680SOL    HW219503   0.983   4.062   1.152  2.4218 -0.0912  0.5638
 2681SOL     OW19504   4.216   2.891   8.532  0.1070  0.0587  0.0392
 2681SOL    HW119505   4.270   2.884   8.611  1.0237  0.9592 -0.5085
 2681SOL    HW219506   4.130   2.889   8.574  0.3609 -1.4004  0.4969
 2682SOL     OW19507   0.030   2.536  13.835  0.2335  0.6987  0.1322
 2682SOL    HW119508   0.022   2.614  13.780 -0.2181 -0.1567 -1.0273
 2682SOL    HW219509   4.663   2.510  13.833  0.5978 -0.4879 -1.9961
 2683SOL     OW19510   2.624   2.954   6.234  0.1835 -0.4389 -0.2196
 2683SOL    HW119511   2.630   3.043   6.199  2.1509 -0.2967  0.5012
 2683SOL    HW219512   2.537   2.926   6.206  0.4978 -0.2912 -1.3599
 2684SOL     OW19513   2.617   1.027   9.160 -0.3017  0.0780 -0.4949
 2684SOL    HW119514   2.642   0.954   9.215  0.0157  1.2665  0.9237
 2684SOL    HW219515   2.598   1.095   9.224  0.8596  0.8210 -0.9369
 2685SOL     OW19516   1.562   0.548  17.098 -0.5749  0.2784 -0.2224
 2685SOL    HW119517   1.506   0.626  17.102 -0.4952  0.3423 -0.3599
 2685SOL    HW219518   1.639   0.577  17.147 -0.1586  1.4996 -1.5835
 2686SOL     OW19519   4.684   1.796   1.420 -0.2319  0.3913 -0.2516
 2686SOL    HW119520   4.631   1.720   1.442  1.8780 -1.9010 -3.1700
 2686SOL    HW219521   4.661   1.853   1.493 -0.6172  0.7378 -0.6421
 2687SOL     OW19522   4.523   3.995   6.809  0.0435 -0.1167 -1.0933
 2687SOL    HW119523   4.467   4.036   6.876  0.0455 -0.0765 -1.1166
 2687SOL    HW219524   4.516   4.052   6.733 -0.7383 -0.8808 -1.6017
 2688SOL     OW19525   1.865   0.039   9.458  0.3431  0.6908  0.1123
 2688SOL    HW119526   1.835   0.080   9.539 -2.2101 -1.2739  0.1739
 2688SOL    HW219527   1.954   0.073   9.449 -0.1399  2.2014  1.0654
 2689SOL     OW19528   4.254   3.963   5.545  0.9039 -0.1442 -0.5733
 2689SOL    HW119529   4.258   3.929   5.456  0.1681 -0.8934 -0.3105
 2689SOL    HW219530   4.175   4.016   5.537  0.6724 -0.5755 -1.1300
 2690SOL     OW19531   4.579   3.522  10.664  0.2189 -0.0384 -0.2098
 2690SOL    HW119532   4.599   3.433  10.692 -0.6721 -0.3397 -0.5125
 2690SOL    HW219533   4.526   3.543  10.741 -1.6099 -1.1342 -1.1688
 2691SOL     OW19534   1.620   1.849  10.799  0.0679 -0.0517  0.0923
 2691SOL    HW119535   1.709   1.860  10.766 -0.3326  1.0910 -0.6204
 2691SOL    HW219536   1.576   1.806  10.726 -0.2605  1.1660 -0.4319
 2692SOL     OW19537   2.780   1.561   8.979 -0.3860  0.5932  0.0841
 2692SOL    HW119538   2.731   1.583   9.059 -0.1628  2.2449 -0.2244
 2692SOL    HW219539   2.829   1.643   8.968  0.0859  0.5105  1.5215
 2693SOL     OW19540   2.152   0.088   4.197  0.1065  0.1905  0.0127
 2693SOL    HW119541   2.171   0.085   4.103  2.9496  0.8737  0.5686
 2693SOL    HW219542   2.182   0.177   4.216 -0.7129  0.8780 -1.9069
 2694SOL     OW19543   4.168   3.401   4.568  0.6132 -0.1448  1.1536
 2694SOL    HW119544   4.232   3.468   4.594  1.2210 -0.0410 -0.5806
 2694SOL    HW219545   4.191   3.322   4.617 -1.6437 -2.0129 -0.8192
 2695SOL     OW19546   1.086   2.834   7.834  0.2425 -0.7645 -0.4324
 2695SOL    HW119547   1.172   2.867   7.858 -0.7789  0.7280  1.1766
 2695SOL    HW219548   1.032   2.849   7.912 -0.6749 -2.1241 -0.7893
 2696SOL     OW19549   4.228   3.886  14.630 -0.1809 -0.3138 -0.3063
 2696SOL    HW119550   4.210   3.851  14.543  0.9815 -1.6970  0.0052
 2696SOL    HW219551   4.239   3.979  14.610 -4.6068  0.3364  0.4574
 2697SOL     OW19552   4.246   3.480  12.992 -0.2642  0.2352  0.2990
 2697SOL    HW119553   4.195   3.562  12.993  0.1565  0.5343 -3.5853
 2697SOL    HW219554   4.175   3.416  12.992  2.5789 -2.8516 -1.7167
 2698SOL     OW19555   3.927   1.600   7.281  0.3212  0.5605  0.3567
 2698SOL    HW119556   3.986   1.649   7.224  2.2872 -0.2921  1.6648
 2698SOL    HW219557   3.849   1.616   7.228  0.4022  0.1925  0.1263
 2699SOL     OW19558   3.502   0.184   9.072 -0.1712 -0.4294 -0.0752
 2699SOL    HW119559   3.529   0.144   9.155  1.0216 -0.0207 -0.2687
 2699SOL    HW219560   3.409   0.166   9.064  0.1275 -2.4610  0.8582
 2700SOL     OW19561   3.465   3.668   9.598  0.4053 -0.1384  0.1437
 2700SOL    HW119562   3.423   3.609   9.660 -0.1987 -1.0352 -1.1237
 2700SOL    HW219563   3.446   3.758   9.627 -3.2485 -0.9421  0.2295
 2701SOL     OW19564   0.611   0.826   8.349  0.0724 -0.0937  0.0685
 2701SOL    HW119565   0.596   0.764   8.420  1.4687  1.4895  1.7521
 2701SOL    HW219566   0.566   0.778   8.280 -0.4128  0.5840 -0.0839
 2702SOL     OW19567   1.245   3.655   5.878 -0.4803  0.2063 -0.0550
 2702SOL    HW119568   1.196   3.737   5.890 -0.4468  0.1257  0.6205
 2702SOL    HW219569   1.303   3.659   5.953 -0.2690  1.1986 -0.2693
 2703SOL     OW19570   0.836   3.675   4.265 -0.2838  0.0254 -0.2284
 2703SOL    HW119571   0.818   3.756   4.218 -1.2844 -0.1695 -0.1802
 2703SOL    HW219572   0.850   3.608   4.198 -2.0347 -0.7936  0.2098
 2704SOL     OW19573   1.782   1.127   7.754  0.0372 -0.4054  0.0323
 2704SOL    HW119574   1.788   1.221   7.738 -0.8039 -0.6122 -1.5055
 2704SOL    HW219575   1.819   1.111   7.841  1.0489 -1.5141 -0.5925
 2705SOL     OW19576   2.756   3.229   4.442 -0.2591 -0.3022 -0.4104
 2705SOL    HW119577   2.740   3.168   4.514  2.8708 -1.6749 -0.8943
 2705SOL    HW219578   2.833   3.200   4.393  0.8020  1.9304 -0.0407
 2706SOL     OW19579   1.162   1.215   8.960 -0.0424 -0.2120  0.4402
 2706SOL    HW119580   1.191   1.151   9.024  0.5478  1.5840  1.9720
 2706SOL    HW219581   1.106   1.263   9.021  2.5531  2.0396  1.0630
 2707SOL     OW19582   2.289   4.118  12.466  0.0703  0.7600  0.0177
 2707SOL    HW119583   2.247   4.145  12.548  0.9951  2.9527 -0.2372
 2707SOL    HW219584   2.213   4.122  12.408  0.1901 -0.8378 -0.2444
 2708SOL     OW19585   3.405   3.103   9.317 -0.1416 -0.2985  0.5157
 2708SOL    HW119586   3.395   3.159   9.394 -0.9446 -1.4200  1.2296
 2708SOL    HW219587   3.393   3.014   9.352 -0.9551 -0.4258 -0.1022
 2709SOL     OW19588   3.664   3.614   2.196 -0.5030 -0.5915 -0.0014
 2709SOL    HW119589   3.708   3.637   2.115 -0.8447 -0.4106 -0.1366
 2709SOL    HW219590   3.581   3.659   2.175 -1.1557 -0.9136  1.8779
 2710SOL     OW19591   1.117   4.148   8.748 -0.1150  0.5517  0.1287
 2710SOL    HW119592   1.071   4.225   8.713  0.3411  0.6763 -0.1936
 2710SOL    HW219593   1.130   4.083   8.679 -1.5256 -0.0141  0.3976
 2711SOL     OW19594   3.177   3.616   5.620  0.1955  0.2286  0.0656
 2711SOL    HW119595   3.120   3.549   5.583 -0.8471  1.1428  0.0297
 2711SOL    HW219596   3.201   3.662   5.540 -0.1652  1.0177  0.4131
 2712SOL     OW19597   0.725   1.171   5.054  0.4215  0.0146  0.0631
 2712SOL    HW119598   0.667   1.116   5.001  0.1226  0.9228 -0.5445
 2712SOL    HW219599   0.663   1.242   5.070  0.1266  0.0271 -1.1642
 2713SOL     OW19600   2.968   3.302   2.453  0.6691  0.1002  0.2500
 2713SOL    HW119601   2.969   3.216   2.411 -1.2630 -0.0607  0.5181
 2713SOL    HW219602   2.904   3.348   2.399 -2.7931 -1.2676  3.1990
 2714SOL     OW19603   1.108   3.234  12.133  0.0500 -0.0761 -0.2918
 2714SOL    HW119604   1.162   3.268  12.205 -0.0180 -2.3143  0.8068
 2714SOL    HW219605   1.043   3.303  12.121 -0.6537 -0.5603  0.7233
 2715SOL     OW19606   3.979   0.489   3.524  0.1256 -0.1792 -0.6765
 2715SOL    HW119607   3.976   0.572   3.476  1.2442  1.1121  1.5239
 2715SOL    HW219608   3.962   0.428   3.452  2.1932 -2.2400  0.5780
 2716SOL     OW19609   0.000   4.008   1.599 -0.3452 -0.6522 -0.2481
 2716SOL    HW119610   4.723   4.080   1.662  1.0096 -0.8119  0.0081
 2716SOL    HW219611   4.683   4.051   1.525  0.3469  1.4359  0.5575
 2717SOL     OW19612   3.303   4.104   9.304 -0.5069 -0.6339  0.0029
 2717SOL    HW119613   3.374   4.051   9.339 -0.3229 -1.2309 -1.2684
 2717SOL    HW219614   3.225   4.054   9.327 -1.3489  0.9428  0.5945
 2718SOL     OW19615   0.355   0.241   4.185 -0.6595  0.1116 -0.4468
 2718SOL    HW119616   0.427   0.181   4.164 -2.3042 -1.1472 -2.4398
 2718SOL    HW219617   0.380   0.323   4.142  3.9019 -0.0689  1.9189
 2719SOL     OW19618   0.916   1.330   5.689 -0.0458 -0.5000 -0.0925
 2719SOL    HW119619   0.871   1.259   5.643 -1.3809  0.4539 -0.2823
 2719SOL    HW219620   0.944   1.287   5.769  0.8660  0.9918  0.3808
 2720SOL     OW19621   2.258   2.272  13.099 -0.8483 -0.6734 -0.0111
 2720SOL    HW119622   2.313   2.195  13.112  0.6453  0.5963  1.2825
 2720SOL    HW219623   2.299   2.326  13.032  0.2563 -1.4566  0.0362
 2721SOL     OW19624   2.774   0.285   3.132 -0.5228 -0.2559  0.0050
 2721SOL    HW119625   2.786   0.218   3.199 -0.2340 -0.2514 -0.0424
 2721SOL    HW219626   2.734   0.243   3.056  0.2388 -5.0853  2.2636
 2722SOL     OW19627   3.438   0.143   6.357  0.2866 -0.1406  0.1426
 2722SOL    HW119628   3.367   0.079   6.351  1.3492 -1.1038 -2.2436
 2722SOL    HW219629   3.470   0.161   6.269  5.0113 -0.3837  1.7623
 2723SOL     OW19630   3.108   1.954   4.116  0.3338 -0.4013 -0.5525
 2723SOL    HW119631   3.168   1.953   4.191  1.1790 -0.2114 -1.2333
 2723SOL    HW219632   3.167   1.951   4.041  0.9159  0.3244 -0.1313
 2724SOL     OW19633   0.316   2.053   8.960 -0.4011 -0.2442  0.0569
 2724SOL    HW119634   0.336   2.121   9.025  0.1096 -0.7715  0.4591
 2724SOL    HW219635   0.299   2.106   8.882  0.2714 -2.9293 -1.9262
 2725SOL     OW19636   4.065   4.110   9.423 -0.6731 -0.0614 -0.7418
 2725SOL    HW119637   4.027   4.134   9.338  0.6085  2.4924 -0.5884
 2725SOL    HW219638   3.990   4.129   9.481  0.5550  1.0092  0.4968
 2726SOL     OW19639   0.491   2.811   8.236 -0.3722 -0.2488 -0.1826
 2726SOL    HW119640   0.506   2.754   8.160  1.1308 -0.4550  0.2617
 2726SOL    HW219641   0.401   2.786   8.255 -0.7399  0.9998 -0.3158
 2727SOL     OW19642   1.479   3.232  14.958  0.1358 -0.3744  0.7444
 2727SOL    HW119643   1.515   3.174  14.891  1.4005  0.0815  1.0134
 2727SOL    HW219644   1.465   3.172  15.031  0.7495  0.9217  1.9401
 2728SOL     OW19645   0.277   4.028   0.673 -0.5256  0.2164 -0.3642
 2728SOL    HW119646   0.333   3.987   0.607  1.9837  1.2515  1.1376
 2728SOL    HW219647   0.190   3.993   0.650  0.5619 -3.4994  1.3040
 2729SOL     OW19648   3.258   2.034  16.811  1.3284  0.0900 -0.0558
 2729SOL    HW119649   3.181   2.045  16.867 -0.3460  0.0899 -2.3257
 2729SOL    HW219650   3.228   2.076  16.730 -1.3113  0.9960  1.3948
 2730SOL     OW19651   2.723   2.473   4.129 -0.4393 -0.4244 -0.2857
 2730SOL    HW119652   2.671   2.514   4.060 -0.5865 -1.8693 -1.0390
 2730SOL    HW219653   2.812   2.485   4.097  0.2110 -0.0779  1.7099
 2731SOL     OW19654   0.328   3.925   5.007  0.4391  0.3072 -0.5209
 2731SOL    HW119655   0.340   3.987   4.935 -2.7686 -1.1204 -2.2770
 2731SOL    HW219656   0.413   3.932   5.050 -1.0185 -1.3952  2.6222
 2732SOL     OW19657   2.101   3.036   8.979 -0.0438  0.2007  0.1325
 2732SOL    HW119658   2.024   3.054   9.033  0.0154 -4.0197  1.5371
 2732SOL    HW219659   2.165   3.085   9.030 -0.4622  0.4950  0.3770
 2733SOL     OW19660   3.904   2.774  11.195  0.1091 -0.0431  0.1273
 2733SOL    HW119661   3.812   2.750  11.182 -0.2764  0.6204  1.6414
 2733SOL    HW219662   3.909   2.846  11.258 -1.4042 -0.2434  0.4803
 2734SOL     OW19663   0.277   2.918   3.597  0.5756  0.7603 -0.0126
 2734SOL    HW119664   0.372   2.933   3.596  0.4292  1.8559  1.4752
 2734SOL    HW219665   0.247   2.956   3.515 -0.2777 -1.5215 -0.7567
 2735SOL     OW19666   2.119   0.728  10.117  0.5252 -0.6879  0.3259
 2735SOL    HW119667   2.080   0.714  10.203 -1.7775  2.2911 -0.2539
 2735SOL    HW219668   2.093   0.650  10.067 -1.6196 -0.2006  0.7058
 2736SOL     OW19669   1.988   1.329   2.432 -0.1865 -0.6775 -0.6877
 2736SOL    HW119670   2.081   1.351   2.426 -0.9383  3.0451  1.4506
 2736SOL    HW219671   1.952   1.413   2.401 -1.2100 -0.2121  1.7910
 2737SOL     OW19672   2.557   2.019   8.571 -0.1801  0.5311 -0.3370
 2737SOL    HW119673   2.590   2.098   8.527  0.2588  0.7152  0.3233
 2737SOL    HW219674   2.621   2.010   8.642  0.5478 -1.0544 -1.2024
 2738SOL     OW19675   3.770   3.459  10.385  0.2321  0.4633  0.2427
 2738SOL    HW119676   3.782   3.423  10.297 -0.7370  0.3202  0.1721
 2738SOL    HW219677   3.855   3.448  10.427 -0.3048 -0.1325  1.1516
 2739SOL     OW19678   2.310   2.274   5.234 -0.0239  0.0738 -0.3930
 2739SOL    HW119679   2.218   2.263   5.211 -0.0213 -2.1770  0.6817
 2739SOL    HW219680   2.332   2.352   5.183  1.1805  0.7395  1.1483
 2740SOL     OW19681   1.232   2.134   8.288 -0.2095 -0.0385 -0.4239
 2740SOL    HW119682   1.324   2.142   8.261  0.2484  0.6286  1.3221
 2740SOL    HW219683   1.176   2.180   8.227 -1.7527 -0.0105  1.0215
 2741SOL     OW19684   1.092   4.385   2.283  0.2982  0.0387  0.0588
 2741SOL    HW119685   1.091   4.295   2.252  0.3421  0.6778 -1.8024
 2741SOL    HW219686   1.152   4.430   2.223 -1.0298  0.8040 -0.7034
 2742SOL     OW19687   0.836   0.989   4.713 -0.4804 -0.0532  0.2636
 2742SOL    HW119688   0.760   1.027   4.757 -0.5385  1.9795 -1.6061
 2742SOL    HW219689   0.908   1.051   4.724 -0.5343  0.0835 -0.1452
 2743SOL     OW19690   3.603   3.393   2.359 -0.7426 -0.0878  0.0048
 2743SOL    HW119691   3.636   3.350   2.280 -0.2427 -1.3814  0.9396
 2743SOL    HW219692   3.615   3.481   2.321  1.8972  0.9843  3.2567
 2744SOL     OW19693   3.929   3.690   9.120  0.1549  0.2109 -0.2466
 2744SOL    HW119694   3.850   3.744   9.124 -0.4401 -0.6638 -0.3085
 2744SOL    HW219695   3.997   3.733   9.172  2.4381 -1.8467 -1.5082
 2745SOL     OW19696   4.690   3.799   7.314 -0.0691  0.2179  0.2740
 2745SOL    HW119697   4.648   3.873   7.358 -1.5170 -2.7856  3.9492
 2745SOL    HW219698   0.011   3.853   7.250  1.6005  1.0127  2.1778
 2746SOL     OW19699   0.860   3.306   9.441 -0.0801 -0.0697 -0.4426
 2746SOL    HW119700   0.785   3.353   9.407  0.0049  0.2243 -0.2174
 2746SOL    HW219701   0.827   3.220   9.414 -1.2768  0.8597 -1.9247
 2747SOL     OW19702   2.546   2.323   9.393  0.0224  0.0936  0.1416
 2747SOL    HW119703   2.469   2.327   9.450 -0.9985  2.6794 -1.3831
 2747SOL    HW219704   2.531   2.239   9.349 -1.9141  0.7477 -0.4289
 2748SOL     OW19705   0.451   0.479  14.827 -0.8016 -0.5528  0.9496
 2748SOL    HW119706   0.509   0.498  14.901  0.0049  0.1724  0.1292
 2748SOL    HW219707   0.374   0.529  14.853 -1.9063 -2.1331  0.7155
 2749SOL     OW19708   2.344   4.564   5.543  0.0150 -0.4159  0.5209
 2749SOL    HW119709   2.267   4.585   5.595 -1.5688  2.4187 -2.8958
 2749SOL    HW219710   2.407   4.592   5.609 -1.1595 -0.0775  1.5037
 2750SOL     OW19711   1.243   0.132  12.859 -0.0428  0.1247 -0.1362
 2750SOL    HW119712   1.234   0.227  12.862  4.0867  0.5306 -0.2603
 2750SOL    HW219713   1.303   0.110  12.931 -1.1142  0.2461  0.7883
 2751SOL     OW19714   2.509   1.711   7.841 -0.3027 -0.5140 -0.6187
 2751SOL    HW119715   2.588   1.699   7.893 -1.6598 -1.1310  1.3077
 2751SOL    HW219716   2.440   1.695   7.905  0.8480 -1.7531  0.3243
 2752SOL     OW19717   1.251   4.042   6.092 -0.0106 -0.3458 -0.1176
 2752SOL    HW119718   1.271   4.135   6.081 -0.0867 -0.5442 -1.8954
 2752SOL    HW219719   1.213   4.046   6.180 -0.5474 -4.2438 -0.1602
 2753SOL     OW19720   3.739   1.373   2.760  0.5091 -0.3700  0.6679
 2753SOL    HW119721   3.724   1.400   2.669 -0.9325 -1.8237  0.4846
 2753SOL    HW219722   3.650   1.368   2.796  0.0088  0.3162 -0.4557
 2754SOL     OW19723   4.413   3.640  15.393  0.2772 -0.5052  0.4321
 2754SOL    HW119724   4.330   3.630  15.347 -0.5605  0.5387  1.7021
 2754SOL    HW219725   4.438   3.728  15.367  0.8841 -1.1522 -1.1312
 2755SOL     OW19726   2.162   2.307   2.534 -0.1773 -0.1410  0.3897
 2755SOL    HW119727   2.084   2.339   2.489  0.9116  0.6614 -0.9049
 2755SOL    HW219728   2.217   2.265   2.468  1.2700 -2.4919  3.0743
 2756SOL     OW19729   2.794   0.114   7.477  0.3542 -0.5927 -0.1902
 2756SOL    HW119730   2.788   0.049   7.407 -1.5236  0.1470 -0.7316
 2756SOL    HW219731   2.742   0.074   7.547 -0.6314  1.3174  0.2014
 2757SOL     OW19732   1.833   1.109   8.031  0.2500 -0.9856 -0.4629
 2757SOL    HW119733   1.817   1.201   8.052  0.9124 -0.5656 -1.8075
 2757SOL    HW219734   1.883   1.083   8.108 -1.7453 -1.1836  0.7695
 2758SOL     OW19735   0.978   1.994   2.195  0.2440  0.4514 -0.1142
 2758SOL    HW119736   1.033   1.917   2.207 -0.1727  0.0193 -0.9785
 2758SOL    HW219737   0.961   2.029   2.283 -0.0682  0.8414 -0.3306
 2759SOL     OW19738   4.663   0.725   8.367  0.4940  0.6841  0.1299
 2759SOL    HW119739   4.607   0.724   8.445  0.3721  0.8799  0.0453
 2759SOL    HW219740   4.672   0.634   8.341  1.7236  0.3458  1.7622
 2760SOL     OW19741   2.508   2.837   8.913  0.1053 -0.3891  0.6354
 2760SOL    HW119742   2.570   2.777   8.873  0.9341  0.6717  0.3293
 2760SOL    HW219743   2.467   2.773   8.972 -0.2928 -0.4686  0.2753
 2761SOL     OW19744   0.044   1.291   3.089 -0.2265  0.4759  0.1051
 2761SOL    HW119745   0.058   1.243   3.007 -1.3311  0.2156  0.0714
 2761SOL    HW219746   0.024   1.223   3.153 -1.6496  1.3364  0.5817
 2762SOL     OW19747   0.901   0.624   3.742 -0.2004  0.1642 -0.0158
 2762SOL    HW119748   0.915   0.679   3.819 -1.3988 -1.8539  1.6474
 2762SOL    HW219749   0.876   0.689   3.676  0.1846 -0.4572 -0.7693
 2763SOL     OW19750   0.713   3.493   8.844 -0.3867 -0.0309 -0.0641
 2763SOL    HW119751   0.781   3.427   8.827  0.0274 -0.1850  2.2341
 2763SOL    HW219752   0.752   3.570   8.804  1.7367 -2.1737 -2.1665
 2764SOL     OW19753   4.058   2.635   6.059 -0.1037 -0.6518 -0.5641
 2764SOL    HW119754   4.009   2.647   5.977 -1.9146  2.9303  1.0535
 2764SOL    HW219755   4.071   2.540   6.051  0.5910 -0.6335  0.3358
 2765SOL     OW19756   3.353   0.717   3.388  0.1793 -0.7794 -0.3038
 2765SOL    HW119757   3.443   0.686   3.378  0.1919 -1.5246  2.0321
 2765SOL    HW219758   3.312   0.742   3.305 -0.4340  0.3056  0.3303
 2766SOL     OW19759   4.654   1.749   5.344  0.3607 -0.0724  0.4345
 2766SOL    HW119760   4.667   1.721   5.253  0.4173  1.7353 -0.1008
 2766SOL    HW219761   4.616   1.671   5.383  1.7173 -0.3505  1.2212
 2767SOL     OW19762   1.713   3.562   8.833 -0.3647 -0.0356 -0.0962
 2767SOL    HW119763   1.645   3.498   8.851 -0.1027 -1.1225 -2.9337
 2767SOL    HW219764   1.741   3.578   8.923  0.8223  0.9491 -0.6336
 2768SOL     OW19765   3.234   0.372   2.412 -0.2962 -0.6110  0.1151
 2768SOL    HW119766   3.263   0.461   2.432 -0.3995 -0.4181 -0.6010
 2768SOL    HW219767   3.189   0.348   2.493 -0.5774 -1.3176 -0.2477
 2769SOL     OW19768   4.232   0.273   9.544  0.1025  0.1140  0.2722
 2769SOL    HW119769   4.311   0.220   9.538  0.7753  1.1370  0.1754
 2769SOL    HW219770   4.235   0.289   9.450  0.2336  0.4325  0.3319
 2770SOL     OW19771   0.838   0.214  14.386 -0.1084 -0.7493 -0.0496
 2770SOL    HW119772   0.915   0.261  14.417  0.1994 -1.2871  0.0139
 2770SOL    HW219773   0.831   0.263  14.304 -1.8072 -1.6574 -0.4683
 2771SOL     OW19774   0.998   1.971   9.444 -0.2115 -0.2841  0.0213
 2771SOL    HW119775   0.978   1.981   9.351 -0.4663 -0.6334  0.0386
 2771SOL    HW219776   0.926   2.017   9.486  0.4240 -0.4170  1.2527
 2772SOL     OW19777   4.448   1.151  14.149 -0.1616 -0.0823 -0.2152
 2772SOL    HW119778   4.442   1.136  14.054  2.0850  0.4979 -0.4507
 2772SOL    HW219779   4.529   1.198  14.164  1.1096 -2.0368 -0.9332
 2773SOL     OW19780   0.127   0.925   5.551 -0.0077  0.2838 -0.7411
 2773SOL    HW119781   0.186   0.850   5.562 -1.3536 -1.0279 -2.3108
 2773SOL    HW219782   0.121   0.958   5.640 -0.1596  2.0717 -1.4226
 2774SOL     OW19783   2.749   4.437   7.722 -0.2523  0.3868 -0.0932
 2774SOL    HW119784   2.845   4.442   7.731  0.1278 -0.3442 -3.6637
 2774SOL    HW219785   2.735   4.407   7.632  1.1278  2.0816 -0.8858
 2775SOL     OW19786   2.496   0.849   4.152  0.0015  0.6207 -0.6876
 2775SOL    HW119787   2.566   0.824   4.212  0.0836  0.6767 -0.7594
 2775SOL    HW219788   2.489   0.944   4.166  0.5467  0.2670  1.9027
 2776SOL     OW19789   0.758   4.173  16.606 -0.3295  0.5918 -0.6167
 2776SOL    HW119790   0.785   4.171  16.697 -2.0993  0.9826 -0.0829
 2776SOL    HW219791   0.665   4.189  16.621 -0.6322 -0.3322 -1.4810
 2777SOL     OW19792   1.507   3.666  15.981  0.6273 -0.5572 -0.5947
 2777SOL    HW119793   1.484   3.758  15.997 -0.0590 -0.9869  0.8408
 2777SOL    HW219794   1.467   3.656  15.894  0.3731  0.0899 -0.5519
 2778SOL     OW19795   0.798   1.352   8.286  0.2011  0.6394  0.0351
 2778SOL    HW119796   0.876   1.300   8.309  1.3398  3.4593  2.5456
 2778SOL    HW219797   0.792   1.401   8.369  1.5844 -2.0350  1.7245
 2779SOL     OW19798   2.766   0.564   9.018  0.4153 -0.4891 -0.7856
 2779SOL    HW119799   2.820   0.639   8.993 -1.6006  0.6979 -1.5538
 2779SOL    HW219800   2.835   0.498   9.013 -1.7642 -2.6120 -2.0670
 2780SOL     OW19801   1.663   1.632   2.127 -0.4663  0.6358  0.1074
 2780SOL    HW119802   1.718   1.709   2.108 -0.9311  1.1268  0.7570
 2780SOL    HW219803   1.578   1.662   2.158  0.9012  2.1966  2.3701
 2781SOL     OW19804   1.855   2.125   4.324  0.5938 -0.0059 -0.0544
 2781SOL    HW119805   1.855   2.047   4.269 -0.3016  0.3805 -0.5995
 2781SOL    HW219806   1.930   2.172   4.288  1.3400 -0.8237  0.4209
 2782SOL     OW19807   4.130   0.224   1.672  0.0134 -0.4784 -0.5239
 2782SOL    HW119808   4.209   0.243   1.721 -0.1838 -1.3708  0.1442
 2782SOL    HW219809   4.135   0.278   1.593  2.4542  1.7495  1.1646
 2783SOL     OW19810   2.637   4.098   8.387  0.1633  0.5231  0.5657
 2783SOL    HW119811   2.643   4.002   8.383  0.3495  0.5611 -0.0176
 2783SOL    HW219812   2.714   4.118   8.441  0.8013  1.4306 -0.6945
 2784SOL     OW19813   2.101   1.158   8.889  0.1848  0.3268  0.1552
 2784SOL    HW119814   2.066   1.138   8.976 -2.6897 -1.1182 -1.3338
 2784SOL    HW219815   2.132   1.247   8.902  0.2422  0.4546 -0.8421
 2785SOL     OW19816   1.788   4.048   7.851  0.0538 -0.4151  0.6497
 2785SOL    HW119817   1.856   4.021   7.913  0.8464  2.6381  1.1129
 2785SOL    HW219818   1.830   4.096   7.779  1.1014 -1.1866  0.7530
 2786SOL     OW19819   0.868   3.700  15.011 -0.0010 -0.3024  0.0652
 2786SOL    HW119820   0.917   3.782  15.000  0.5137 -0.3173  2.1200
 2786SOL    HW219821   0.932   3.632  14.988  0.9645  0.4915  0.4011
 2787SOL     OW19822   2.243   4.529  14.034 -0.6263 -0.5031  0.2422
 2787SOL    HW119823   2.299   4.457  14.062  0.5298 -1.2580 -4.1191
 2787SOL    HW219824   2.303   4.602  14.049  0.6875 -1.3596 -0.9616
 2788SOL     OW19825   0.950   0.622  13.288  0.1715  0.2050  0.4511
 2788SOL    HW119826   1.007   0.693  13.320  0.6622 -0.0526  0.1491
 2788SOL    HW219827   1.030   0.578  13.259  1.1530  0.0406  3.4011
 2789SOL     OW19828   3.444   1.559  10.271  0.3805 -0.2123  0.1348
 2789SOL    HW119829   3.538   1.574  10.274  0.2611  0.8056 -1.4151
 2789SOL    HW219830   3.412   1.623  10.335  0.0718  0.7283 -0.9668
 2790SOL     OW19831   1.636   2.928   5.579 -0.2731  0.3945 -0.2790
 2790SOL    HW119832   1.684   2.888   5.507 -0.6054 -2.8650  1.3097
 2790SOL    HW219833   1.682   2.879   5.647 -0.2638 -1.4082 -1.6085
 2791SOL     OW19834   4.040   3.261   7.336  0.0971  0.2601 -0.2386
 2791SOL    HW119835   4.025   3.173   7.370  0.3496 -0.1063 -1.0933
 2791SOL    HW219836   4.088   3.307   7.405  1.8962 -1.2554 -0.4890
 2792SOL     OW19837   4.143   2.813   2.278  0.4951 -0.4263  0.2180
 2792SOL    HW119838   4.158   2.788   2.186  0.6038  2.3143 -0.4992
 2792SOL    HW219839   4.061   2.861   2.268 -0.3377 -1.4360  2.2264
 2793SOL     OW19840   4.722   2.388  12.925  0.1107  0.4578  0.0395
 2793SOL    HW119841   4.646   2.341  12.889  0.6899 -0.6229  0.2181
 2793SOL    HW219842   0.051   2.311  12.941  2.7298  2.6028  1.2668
 2794SOL     OW19843   3.046   0.748   5.550 -0.2979  0.2944 -0.1112
 2794SOL    HW119844   3.060   0.812   5.480 -0.6577  0.0707 -0.3895
 2794SOL    HW219845   2.955   0.728   5.531  0.2788 -1.6518 -0.8737
 2795SOL     OW19846   0.272   3.951   1.855  0.0156  0.0888  0.2970
 2795SOL    HW119847   0.327   3.891   1.905  1.1272 -0.4833 -1.5882
 2795SOL    HW219848   0.204   3.889   1.828 -0.1963  1.1495 -1.6328
 2796SOL     OW19849   4.614   4.182   0.976  0.4499 -0.2755  0.0186
 2796SOL    HW119850   4.590   4.162   1.066  0.5778  2.0096  0.5787
 2796SOL    HW219851   4.708   4.195   0.978  0.5364 -1.3048  2.0935
 2797SOL     OW19852   1.948   2.245  12.806  0.0753  0.2801  0.4842
 2797SOL    HW119853   1.969   2.218  12.895  0.1940 -1.5937 -0.1117
 2797SOL    HW219854   1.862   2.286  12.811  0.4366  0.9326  1.3500
 2798SOL     OW19855   1.795   2.326   5.213  0.1782  0.0967 -0.0357
 2798SOL    HW119856   1.839   2.358   5.134 -0.2629 -0.5762 -0.5454
 2798SOL    HW219857   1.796   2.409   5.261  2.2573  0.9438 -1.4965
 2799SOL     OW19858   0.187   2.363   0.974  0.5419 -0.4003  0.2759
 2799SOL    HW119859   0.131   2.439   0.959  1.4840  0.3865  0.7566
 2799SOL    HW219860   0.194   2.340   0.881 -1.3799 -0.5987  0.1936
 2800SOL     OW19861   0.699   1.844   3.973 -1.1409 -0.0058  0.2261
 2800SOL    HW119862   0.657   1.914   3.923 -0.6083 -1.4374 -2.1726
 2800SOL    HW219863   0.710   1.777   3.906  2.1126 -1.8303  2.5900
 2801SOL     OW19864   3.271   1.256   3.492  0.3843 -0.1780  0.4355
 2801SOL    HW119865   3.201   1.283   3.551  2.8507  1.2375  2.7604
 2801SOL    HW219866   3.343   1.250   3.555  1.5001  0.7224 -0.7360
 2802SOL     OW19867   0.035   0.038  13.079  0.1588 -0.2151  0.0753
 2802SOL    HW119868   0.125   0.045  13.047  0.4719 -1.1807  0.7166
 2802SOL    HW219869   0.007   0.129  13.082  0.8739  0.0907 -2.2767
 2803SOL     OW19870   2.710   0.884  11.113  0.3992  0.3061 -0.4993
 2803SOL    HW119871   2.759   0.961  11.144 -0.7722  2.3049 -3.6058
 2803SOL    HW219872   2.632   0.913  11.160  0.7712 -2.4491  1.8343
 2804SOL     OW19873   1.359   3.991  17.027  0.0260 -0.1085  0.3480
 2804SOL    HW119874   1.314   4.075  17.032 -2.1287 -1.1487 -1.7070
 2804SOL    HW219875   1.314   3.938  17.093 -0.0145 -1.7936 -1.0504
 2805SOL     OW19876   3.455   1.484   4.442 -0.0991  0.3422  0.2799
 2805SOL    HW119877   3.381   1.544   4.453 -1.6032 -1.3079 -0.8541
 2805SOL    HW219878   3.534   1.532   4.466 -0.9958  0.5883  2.8475
 2806SOL     OW19879   0.735   4.707  17.478 -0.6759 -0.3776 -0.1383
 2806SOL    HW119880   0.785   0.045  17.427  0.5603 -1.8259 -0.7416
 2806SOL    HW219881   0.681   0.050  17.517 -0.5185 -1.0776  1.3162
 2807SOL     OW19882   1.495   3.981   5.988  0.2252 -0.4168  0.5378
 2807SOL    HW119883   1.453   3.904   6.027 -0.7950 -0.5607 -0.8217
 2807SOL    HW219884   1.463   3.973   5.898  0.8942 -0.8700  0.3390
 2808SOL     OW19885   4.362   3.529  10.161  0.6284  0.2216  0.5188
 2808SOL    HW119886   4.416   3.606  10.180 -1.1631  1.8497 -1.0444
 2808SOL    HW219887   4.328   3.542  10.073  1.3028 -2.0224 -0.0495
 2809SOL     OW19888   3.686   2.035   5.727  0.1610  0.3093  0.4706
 2809SOL    HW119889   3.685   2.020   5.632 -0.3757 -1.2879  0.7358
 2809SOL    HW219890   3.653   1.952   5.762 -0.5736  0.6274  0.5351
 2810SOL     OW19891   3.234   2.593   9.053 -0.2965 -0.3395  0.0372
 2810SOL    HW119892   3.161   2.580   9.114 -2.5549  1.2923 -2.2609
 2810SOL    HW219893   3.244   2.688   9.062  1.7524 -0.4948 -0.5980
 2811SOL     OW19894   0.730   3.632  13.848  0.0677  0.9863 -0.4084
 2811SOL    HW119895   0.755   3.617  13.757 -0.1333 -1.7786 -0.0145
 2811SOL    HW219896   0.813   3.658  13.889  0.6926  0.4917 -1.3519
 2812SOL     OW19897   0.750   1.880   1.726 -0.1381  0.0865  0.5832
 2812SOL    HW119898   0.809   1.870   1.800 -1.8333 -1.6431  1.6991
 2812SOL    HW219899   0.670   1.924   1.755  0.4640  0.1309  2.1268
 2813SOL     OW19900   0.635   4.003   6.039  0.2862  0.0579 -0.1206
 2813SOL    HW119901   0.591   4.027   6.121  0.5452  1.6791 -0.4609
 2813SOL    HW219902   0.574   4.033   5.972  1.9423 -1.8815 -2.4917
 2814SOL     OW19903   2.135   0.226   6.880  0.6266  0.4348 -0.5139
 2814SOL    HW119904   2.135   0.311   6.925  0.9181  0.3031 -0.2615
 2814SOL    HW219905   2.226   0.218   6.852  0.4938  0.1796 -0.8650
 2815SOL     OW19906   4.636   1.337   9.111  0.1426  0.2699  0.0152
 2815SOL    HW119907   0.005   1.326   9.121  0.2952  0.9553 -0.6711
 2815SOL    HW219908   4.611   1.256   9.067  0.7858  0.6193 -1.0022
 2816SOL     OW19909   4.266   2.120   1.918 -0.0802 -0.0688  0.0431
 2816SOL    HW119910   4.305   2.182   1.856 -2.4567  0.6794 -0.6769
 2816SOL    HW219911   4.322   2.043   1.910 -0.1031  0.0058 -0.7936
 2817SOL     OW19912   3.088   2.227   4.021 -0.0613 -0.0923 -0.5551
 2817SOL    HW119913   3.175   2.256   3.996  0.1300 -0.1690  0.0284
 2817SOL    HW219914   3.111   2.147   4.068 -2.1588 -0.2419  0.2459
 2818SOL     OW19915   1.939   2.949   3.617 -0.0919 -0.2573 -0.1394
 2818SOL    HW119916   1.863   2.977   3.669  0.7292  0.7897  0.4916
 2818SOL    HW219917   2.002   2.989   3.677 -1.0642 -0.3424  0.9518
 2819SOL     OW19918   2.434   0.421   9.364 -0.2737 -0.3337  0.3015
 2819SOL    HW119919   2.417   0.418   9.270 -0.1490 -2.3323  0.3269
 2819SOL    HW219920   2.524   0.453   9.355 -0.6968  0.3710 -1.3837
 2820SOL     OW19921   1.981   1.117   0.837  0.5737  0.0494 -0.4630
 2820SOL    HW119922   2.050   1.165   0.792 -0.0600  2.4580  1.0635
 2820SOL    HW219923   2.015   1.034   0.868  1.6693  0.9453  0.7476
 2821SOL     OW19924   2.208   4.136   4.875 -0.3789  0.0689  0.4843
 2821SOL    HW119925   2.178   4.160   4.787 -2.2519 -0.7782  0.8787
 2821SOL    HW219926   2.296   4.107   4.852  0.1273 -0.0307  2.5027
 2822SOL     OW19927   1.629   4.302  14.667  0.0662 -0.4417  0.3694
 2822SOL    HW119928   1.673   4.228  14.709  1.5664  0.6389  0.6517
 2822SOL    HW219929   1.695   4.369  14.679 -0.4361  0.0802  0.2333
 2823SOL     OW19930   1.630   3.149   9.456 -0.2035  0.0826  0.2030
 2823SOL    HW119931   1.575   3.079   9.489  0.3962 -0.6392 -0.3262
 2823SOL    HW219932   1.640   3.205   9.533 -1.9276 -2.3994  2.2152
 2824SOL     OW19933   3.518   3.716   8.242  0.3932  0.5017 -0.3496
 2824SOL    HW119934   3.454   3.657   8.202 -0.4415  2.1337 -1.4349
 2824SOL    HW219935   3.597   3.671   8.211 -0.1020 -0.2492 -0.5283
 2825SOL     OW19936   4.264   2.440   2.992 -0.2338  0.3307 -0.1812
 2825SOL    HW119937   4.244   2.403   2.907 -1.6192  1.7780 -0.4891
 2825SOL    HW219938   4.343   2.493   2.982 -1.0916  1.6933  0.2667
 2826SOL     OW19939   3.417   3.936   5.586 -0.7916  0.0729  0.2036
 2826SOL    HW119940   3.412   3.871   5.516  0.3537 -0.8108  0.9572
 2826SOL    HW219941   3.425   4.012   5.528 -2.6241  0.8763  0.9969
 2827SOL     OW19942   1.139   3.469  13.483 -0.4294  0.2856 -0.3167
 2827SOL    HW119943   1.156   3.552  13.438  2.3371  1.3782  2.6935
 2827SOL    HW219944   1.189   3.481  13.564 -1.0620  1.1876 -0.0492
 2828SOL     OW19945   4.054   1.583   5.948 -0.3611  0.1595 -0.1333
 2828SOL    HW119946   4.098   1.543   5.873 -2.8471 -2.0714 -0.3850
 2828SOL    HW219947   3.986   1.524   5.981  0.1417 -1.1761 -1.4742
 2829SOL     OW19948   2.454   1.252   1.459 -0.3931 -0.3049  0.0101
 2829SOL    HW119949   2.457   1.212   1.546 -0.0953  1.7307  0.9485
 2829SOL    HW219950   2.429   1.178   1.403  1.7034 -1.0826  0.1120
 2830SOL     OW19951   4.029   0.109   9.566  0.5197  0.6630 -0.6668
 2830SOL    HW119952   4.083   0.188   9.562  0.1379  0.9020 -1.1405
 2830SOL    HW219953   4.049   0.079   9.654 -2.7582 -1.1604 -0.5324
 2831SOL     OW19954   2.857   1.219  15.802 -0.0517 -0.0374 -0.2328
 2831SOL    HW119955   2.927   1.207  15.866  1.7454  0.9240 -1.9994
 2831SOL    HW219956   2.912   1.234  15.724 -1.7407  1.8673 -1.0453
 2832SOL     OW19957   2.746   3.686  11.313 -0.4886  0.0546 -0.3883
 2832SOL    HW119958   2.761   3.682  11.407 -1.4454  0.5241 -0.2218
 2832SOL    HW219959   2.734   3.593  11.293 -1.8331  0.2625 -0.5493
 2833SOL     OW19960   3.076   2.833  10.889 -0.3230 -0.6441 -0.2446
 2833SOL    HW119961   2.989   2.840  10.928 -0.2995 -1.4835 -0.0292
 2833SOL    HW219962   3.106   2.742  10.898  3.4533  0.9512  3.4226
 2834SOL     OW19963   3.672   2.139   7.419 -0.1385  0.1647 -0.8568
 2834SOL    HW119964   3.614   2.213   7.398  2.7538  2.0740 -2.1035
 2834SOL    HW219965   3.652   2.069   7.357  0.3187  0.2337 -1.0772
 2835SOL     OW19966   2.025   1.976   8.486  0.5132  0.6027  0.1660
 2835SOL    HW119967   1.969   1.898   8.492  0.4415  0.6385 -0.0378
 2835SOL    HW219968   1.961   2.035   8.524 -0.0327 -2.3320  3.8936
 2836SOL     OW19969   2.019   0.609  17.584 -0.1233 -0.4029 -0.0635
 2836SOL    HW119970   1.924   0.598  17.586 -0.2437  1.0956  2.4037
 2836SOL    HW219971   2.026   0.700  17.557  0.1299 -1.2640 -2.8914
 2837SOL     OW19972   2.310   3.916   4.583  0.0174 -0.3764  0.2653
 2837SOL    HW119973   2.391   3.896   4.536  0.2471  0.3453  0.3689
 2837SOL    HW219974   2.339   3.978   4.650 -2.0470 -2.4003  3.0602
 2838SOL     OW19975   2.361   2.505   0.040 -0.0201 -0.1754 -0.2291
 2838SOL    HW119976   2.385   2.531   0.129  1.3375  0.8995 -0.9060
 2838SOL    HW219977   2.398   2.578  17.695  0.0091 -0.4456 -0.6116
 2839SOL     OW19978   4.083   1.642   0.604  0.4267  0.1972 -0.1005
 2839SOL    HW119979   4.121   1.563   0.644  0.6745 -0.0775 -0.8802
 2839SOL    HW219980   4.051   1.695   0.677 -0.5297 -0.2517 -0.1953
 2840SOL     OW19981   3.857   3.967   1.320 -0.2574  0.8762  0.4215
 2840SOL    HW119982   3.918   3.972   1.394  1.8261  1.1355 -1.2843
 2840SOL    HW219983   3.883   4.049   1.277 -0.5979  0.5336 -0.4356
 2841SOL     OW19984   2.112   3.024   6.082 -0.4793  0.5635 -0.2673
 2841SOL    HW119985   2.037   3.081   6.103  1.7690  3.4496 -0.0661
 2841SOL    HW219986   2.085   2.971   6.007 -1.9590  0.7936  0.0934
 2842SOL     OW19987   0.180   0.319   8.104 -0.1803  0.0197 -0.5244
 2842SOL    HW119988   0.192   0.313   8.199 -0.1099 -2.7118 -0.6797
 2842SOL    HW219989   0.212   0.408   8.093 -3.0094  0.9745 -1.1784
 2843SOL     OW19990   2.463   0.808   8.596  0.0814 -0.0650 -0.1618
 2843SOL    HW119991   2.480   0.725   8.639  1.0077 -0.5840 -1.5142
 2843SOL    HW219992   2.416   0.857   8.664 -0.5780  0.7858 -1.2174
 2844SOL     OW19993   0.077   1.298   6.678  0.6346  0.0476  0.0881
 2844SOL    HW119994   0.150   1.236   6.684  0.4781 -0.0754  0.7713
 2844SOL    HW219995   0.035   1.285   6.763 -1.7351  3.1277 -0.6156
 2845SOL     OW19996   1.818   1.049   3.671 -0.5791  0.3987  0.2020
 2845SOL    HW119997   1.899   1.060   3.622 -0.5990 -1.5401 -0.3024
 2845SOL    HW219998   1.753   1.021   3.607  0.7879 -0.6494 -0.7245
 2846SOL     OW19999   0.849   3.910  12.380 -0.8073 -0.3524 -0.2768
 2846SOL    HW120000   0.856   4.005  12.373 -0.3707 -0.4345 -0.9960
 2846SOL    HW220001   0.762   3.911  12.420 -1.3828 -0.7243 -1.5255
 2847SOL     OW20002   4.022   3.271   3.598  0.2767 -0.1017  0.1379
 2847SOL    HW120003   4.097   3.321   3.631  1.3587 -2.4166  1.1783
 2847SOL    HW220004   3.954   3.337   3.608  2.8650  2.3664  1.7918
 2848SOL     OW20005   1.073   4.392   3.648 -0.5561  0.1301  0.1651
 2848SOL    HW120006   1.028   4.473   3.672 -1.6388  0.1294 -1.8189
 2848SOL    HW220007   1.051   4.383   3.555 -2.1456  0.2225  0.5256
 2849SOL     OW20008   2.714   1.861  16.865  0.1476 -0.2549 -0.3615
 2849SOL    HW120009   2.679   1.942  16.828 -0.8727 -0.8581 -0.7221
 2849SOL    HW220010   2.655   1.793  16.831 -0.4358 -0.7528  1.6683
 2850SOL     OW20011   4.084   2.454   7.732 -0.4676  0.3633 -0.3834
 2850SOL    HW120012   4.074   2.418   7.821 -2.7112 -0.3568 -0.9195
 2850SOL    HW220013   4.007   2.511   7.731  0.5325  1.6665 -2.1682
 2851SOL     OW20014   4.580   3.899   2.045 -0.5156  0.2485  0.2055
 2851SOL    HW120015   4.654   3.851   2.082 -0.5320 -0.2970 -0.4843
 2851SOL    HW220016   4.616   3.985   2.023  0.3768  0.0638  0.9251
 2852SOL     OW20017   0.709   2.918   5.010  0.6187 -0.3678  0.3014
 2852SOL    HW120018   0.699   2.898   4.917 -1.0000  1.8898 -0.0051
 2852SOL    HW220019   0.694   3.012   5.014 -1.9714 -0.7443 -0.7151
 2853SOL     OW20020   0.338   1.135   8.579  0.0091  0.2127  0.3395
 2853SOL    HW120021   0.314   1.042   8.576 -0.8139  0.4782 -1.2548
 2853SOL    HW220022   0.387   1.135   8.662 -0.2562  0.5599  0.4972
 2854SOL     OW20023   4.415   1.286   6.846 -0.3980 -0.2873 -0.2056
 2854SOL    HW120024   4.380   1.295   6.757  0.0292 -1.3881 -0.4888
 2854SOL    HW220025   4.339   1.270   6.902 -1.2465  1.3039 -0.9100
 2855SOL     OW20026   0.606   3.492   4.936  0.5989  0.2172  0.0302
 2855SOL    HW120027   0.697   3.467   4.953  0.2975 -0.2573  0.9786
 2855SOL    HW220028   0.601   3.577   4.980  0.2854 -0.1987  0.8066
 2856SOL     OW20029   2.967   1.586  12.916 -0.2630 -0.2909 -0.2565
 2856SOL    HW120030   3.043   1.532  12.894  0.6468  0.1524  1.7859
 2856SOL    HW220031   2.898   1.537  12.872 -0.1890 -1.8993  1.3954
 2857SOL     OW20032   1.874   3.914  13.437 -0.0999 -0.1172 -0.6264
 2857SOL    HW120033   1.859   3.833  13.388  1.6351 -1.3217  0.8167
 2857SOL    HW220034   1.823   3.974  13.384  1.5593  1.6053 -0.2671
 2858SOL     OW20035   1.192   2.591  16.460  0.0062  0.5741  0.0657
 2858SOL    HW120036   1.212   2.611  16.368  1.8848 -0.6569  0.2155
 2858SOL    HW220037   1.274   2.591  16.508  0.0978  0.0389 -0.0949
 2859SOL     OW20038   3.330   4.251   8.643  0.0669 -0.2665  0.3871
 2859SOL    HW120039   3.267   4.279   8.710  1.7886  1.1728  1.3992
 2859SOL    HW220040   3.341   4.339   8.607  0.8198  0.2987  1.9973
 2860SOL     OW20041   1.896   2.874   8.067 -0.8594  0.0599  0.4651
 2860SOL    HW120042   1.971   2.827   8.106 -0.2243  0.6480 -0.0514
 2860SOL    HW220043   1.883   2.809   7.998  2.9977 -1.3873  1.0633
 2861SOL     OW20044   4.232   2.534   7.036  0.2414 -1.0792  0.3882
 2861SOL    HW120045   4.282   2.584   6.971  1.4613 -1.9280  0.6858
 2861SOL    HW220046   4.284   2.530   7.116 -0.7384  0.8188  1.1404
 2862SOL     OW20047   4.072   2.566  15.236  0.2705  0.4046 -0.1371
 2862SOL    HW120048   4.008   2.597  15.172 -0.0553 -1.0264 -0.5065
 2862SOL    HW220049   4.019   2.497  15.276  1.9192  0.0358  1.3989
 2863SOL     OW20050   2.645   0.904  10.647 -0.5478  0.1687  0.2077
 2863SOL    HW120051   2.605   0.840  10.588 -1.1547  0.9466 -0.2258
 2863SOL    HW220052   2.739   0.890  10.635 -0.4264 -0.8243  2.2921
 2864SOL     OW20053   3.842   4.720   3.432  0.2073 -0.1144 -0.2821
 2864SOL    HW120054   3.774   4.691   3.372 -0.9436 -0.2075  1.0742
 2864SOL    HW220055   3.868   4.647   3.489 -1.7811  0.8481  1.8585
 2865SOL     OW20056   0.699   0.737  15.263  0.1597  0.3012  0.1094
 2865SOL    HW120057   0.773   0.792  15.235  0.3128  1.2252  2.3950
 2865SOL    HW220058   0.649   0.805  15.308 -2.5014 -0.7918 -1.2066
 2866SOL     OW20059   4.558   2.035   2.064 -0.5288 -0.0386 -0.0074
 2866SOL    HW120060   4.606   2.050   1.983 -0.4623  1.9105  0.3786
 2866SOL    HW220061   4.625   2.034   2.132 -0.2375  3.1520 -0.2376
 2867SOL     OW20062   0.645   3.440   7.576 -0.4756 -0.1918  0.4537
 2867SOL    HW120063   0.592   3.510   7.538  0.5114 -0.3540 -1.2234
 2867SOL    HW220064   0.621   3.370   7.515  1.2419  1.2542 -1.8767
 2868SOL     OW20065   4.528   4.314  14.408 -0.4969 -0.2969 -0.4105
 2868SOL    HW120066   4.582   4.283  14.481 -2.0065 -0.4808  0.6278
 2868SOL    HW220067   4.447   4.326  14.458  1.0215 -1.3190  2.3238
 2869SOL     OW20068   2.715   1.349   2.417  0.6753 -0.8712  0.2285
 2869SOL    HW120069   2.791   1.328   2.472  0.7640 -1.4961 -0.1347
 2869SOL    HW220070   2.758   1.330   2.334 -0.0175  0.4937 -0.4482
 2870SOL     OW20071   4.323   3.495   8.335  0.3154 -0.3682  0.3411
 2870SOL    HW120072   4.317   3.477   8.429 -1.6811 -1.4996 -0.0094
 2870SOL    HW220073   4.235   3.499   8.298  0.6757 -1.2003 -0.5853
 2871SOL     OW20074   0.052   1.439   7.021  0.3369  0.2081 -0.4647
 2871SOL    HW120075   4.719   1.455   7.095 -1.7176  1.9193 -2.4442
 2871SOL    HW220076   0.128   1.406   7.069  0.2512  2.8872  1.4936
 2872SOL     OW20077   4.269   2.961   9.220  0.9649  0.1452 -0.4633
 2872SOL    HW120078   4.186   2.924   9.250  0.8416 -1.0275 -2.2124
 2872SOL    HW220079   4.321   2.887   9.251  0.3448 -0.1895 -0.2080
 2873SOL     OW20080   3.692   4.591   2.881  0.1104  0.3895 -0.6053
 2873SOL    HW120081   3.621   4.551   2.831  0.2685 -1.0535  0.3390
 2873SOL    HW220082   3.727   4.515   2.927  3.5003  1.9433 -0.5712
 2874SOL     OW20083   1.873   0.305   5.809  0.2062  0.6447 -0.5124
 2874SOL    HW120084   1.859   0.266   5.896  4.1716  2.9788  1.1623
 2874SOL    HW220085   1.860   0.227   5.755 -0.1127  0.5009 -0.2299
 2875SOL     OW20086   3.657   4.704  11.279 -0.3452  0.6971  0.0534
 2875SOL    HW120087   3.674   4.664  11.194 -0.7674 -0.7462  0.6397
 2875SOL    HW220088   3.563   4.713  11.262 -0.5633 -1.9515 -0.0865
 2876SOL     OW20089   2.352   3.173   7.591  0.0415  0.2701 -0.1527
 2876SOL    HW120090   2.377   3.090   7.549 -0.6304  0.4656 -0.9292
 2876SOL    HW220091   2.329   3.145   7.679  0.3609 -0.9234 -0.4514
 2877SOL     OW20092   3.585   4.493   8.244 -0.0307 -0.3797 -0.0565
 2877SOL    HW120093   3.677   4.496   8.272 -0.0655 -2.2317  0.2860
 2877SOL    HW220094   3.568   4.402   8.270 -0.1155  0.5950  3.2962
 2878SOL     OW20095   0.563   0.163  14.409  0.0427  0.1673  0.5341
 2878SOL    HW120096   0.472   0.172  14.379  0.0714 -0.0722  0.3706
 2878SOL    HW220097   0.601   0.248  14.387 -1.2908  0.1400 -1.9656
 2879SOL     OW20098   3.928   2.059   7.915 -0.0840 -0.1566 -0.5121
 2879SOL    HW120099   3.894   2.021   7.835  1.7519  2.1754 -2.4058
 2879SOL    HW220100   3.882   2.004   7.979 -0.6979 -0.1095 -0.9181
 2880SOL     OW20101   2.775   1.494   9.978  0.0378  0.1597 -0.0530
 2880SOL    HW120102   2.812   1.406   9.983  0.5594  0.4477  1.2611
 2880SOL    HW220103   2.765   1.512  10.072 -1.9174 -0.6185 -0.1081
 2881SOL     OW20104   2.363   1.359   5.566  0.6204 -0.3802 -0.1969
 2881SOL    HW120105   2.449   1.320   5.582  0.5489 -1.2881 -1.9690
 2881SOL    HW220106   2.344   1.317   5.482 -0.5612 -0.8449  0.3083
 2882SOL     OW20107   4.553   3.768   2.668  0.6542 -0.8372  0.1321
 2882SOL    HW120108   4.514   3.702   2.725 -0.6823  0.5086  0.7953
 2882SOL    HW220109   4.579   3.831   2.736  0.2639 -2.4387  1.7702
 2883SOL     OW20110   2.830   4.406  16.926 -0.0750  0.3029  0.6830
 2883SOL    HW120111   2.805   4.480  16.871 -0.1236 -2.3026 -2.8305
 2883SOL    HW220112   2.887   4.359  16.865  0.2198  1.8897 -0.2636
 2884SOL     OW20113   3.909   1.210  10.622  0.3607  0.8840 -0.5674
 2884SOL    HW120114   3.819   1.186  10.644  1.0303 -1.1221 -0.0077
 2884SOL    HW220115   3.944   1.128  10.588  0.1488 -0.2667  2.0333
 2885SOL     OW20116   0.928   2.638  16.557 -0.1413  0.4284 -0.0208
 2885SOL    HW120117   0.861   2.679  16.501 -0.2032 -1.6234 -1.4293
 2885SOL    HW220118   1.013   2.645  16.513  0.6276 -2.4950  1.0295
 2886SOL     OW20119   4.062   1.168   0.192 -0.1750 -0.1406 -0.6283
 2886SOL    HW120120   4.060   1.168   0.287 -2.7010  0.4668 -0.6944
 2886SOL    HW220121   3.972   1.151   0.165 -0.1978 -0.0390 -0.6136
 2887SOL     OW20122   1.623   0.988   4.423  0.2862 -0.0263  0.4352
 2887SOL    HW120123   1.605   1.035   4.504  0.7831 -0.0697  0.5696
 2887SOL    HW220124   1.701   1.037   4.397  0.8546 -1.0417  0.2248
 2888SOL     OW20125   3.098   1.065   2.373 -0.5476 -0.2786  0.6733
 2888SOL    HW120126   3.156   1.022   2.311 -1.5094 -1.5650  0.6720
 2888SOL    HW220127   3.092   0.997   2.440  1.7956  0.0431  1.1785
 2889SOL     OW20128   4.196   3.932   7.201  0.0868  0.2944 -0.0641
 2889SOL    HW120129   4.255   3.882   7.258 -0.3806 -0.6552 -0.3992
 2889SOL    HW220130   4.131   3.956   7.268  0.0214  0.7741 -0.3004
 2890SOL     OW20131   0.632   3.599   5.674  0.6785  0.4562  0.4331
 2890SOL    HW120132   0.631   3.615   5.579  1.1196  0.6541  0.4603
 2890SOL    HW220133   0.634   3.503   5.675 -0.4802  0.4257 -0.4765
 2891SOL     OW20134   3.406   0.161  16.370 -0.2712 -0.0219 -0.0216
 2891SOL    HW120135   3.462   0.188  16.297  0.2392 -0.5985  0.1559
 2891SOL    HW220136   3.329   0.142  16.316  1.9814 -1.6552 -2.7030
 2892SOL     OW20137   4.308   3.436   7.316 -0.1676 -0.5102 -0.7377
 2892SOL    HW120138   4.251   3.429   7.240 -2.8969 -1.5392  1.4064
 2892SOL    HW220139   4.257   3.489   7.378  0.1097  1.6272 -2.3337
 2893SOL     OW20140   2.084   4.495   8.649  0.1148 -0.1324 -0.1033
 2893SOL    HW120141   2.113   4.415   8.606 -0.4123  0.5274 -1.6740
 2893SOL    HW220142   2.057   4.453   8.731  0.0665 -0.3184 -0.2143
 2894SOL     OW20143   1.332   2.942   4.838  0.5539 -0.4326  0.4551
 2894SOL    HW120144   1.293   2.856   4.848 -0.5774  0.0749  0.3254
 2894SOL    HW220145   1.378   2.935   4.754 -0.4232  0.6474 -0.1652
 2895SOL     OW20146   3.215   3.345   5.012 -0.4475 -0.3848 -0.5663
 2895SOL    HW120147   3.269   3.289   5.069  1.5151  1.2327 -0.8411
 2895SOL    HW220148   3.127   3.311   5.030 -0.9778  1.9929  1.2858
 2896SOL     OW20149   0.003   3.268   7.629 -0.4337  0.4377  0.2164
 2896SOL    HW120150   0.035   3.358   7.639  2.0043 -0.5775  1.6398
 2896SOL    HW220151   4.634   3.277   7.617 -0.7688 -0.3091  2.3758
 2897SOL     OW20152   2.493   0.825  15.086  0.1192 -0.5033  0.1908
 2897SOL    HW120153   2.472   0.908  15.129  0.9118  0.2936 -0.9670
 2897SOL    HW220154   2.480   0.769  15.163  2.9576 -1.7038 -0.1980
 2898SOL     OW20155   0.299   0.697   0.909 -0.1727  0.1484 -0.2482
 2898SOL    HW120156   0.273   0.767   0.970 -1.1281 -2.0178  1.8252
 2898SOL    HW220157   0.390   0.723   0.893  0.2923 -0.7569  0.8937
 2899SOL     OW20158   2.400   3.496   6.845  0.4003  0.2655  0.2922
 2899SOL    HW120159   2.449   3.563   6.797 -1.4466  0.6667 -1.0721
 2899SOL    HW220160   2.434   3.418   6.803 -1.7692 -0.3984 -0.2264
 2900SOL     OW20161   1.607   2.965   3.651  0.3336  0.6957  0.2548
 2900SOL    HW120162   1.590   2.964   3.557  1.6152  0.2235  0.0360
 2900SOL    HW220163   1.553   3.044   3.664 -2.1674 -0.7338 -1.4725
 2901SOL     OW20164   3.246   4.523   9.374  0.1918  0.6008  0.2356
 2901SOL    HW120165   3.216   4.478   9.296 -0.7174 -2.1496  2.1618
 2901SOL    HW220166   3.164   4.532   9.423  1.4179 -1.6051  2.6480
 2902SOL     OW20167   2.390   1.733  11.987  0.1430  0.6930  0.0401
 2902SOL    HW120168   2.353   1.731  12.075  1.3248 -1.1417  0.4748
 2902SOL    HW220169   2.478   1.761  12.012  0.0658  1.5562 -0.6218
 2903SOL     OW20170   2.653   1.169   7.162  0.0840 -0.3690  0.3798
 2903SOL    HW120171   2.737   1.123   7.162  0.5365  0.4832  2.6586
 2903SOL    HW220172   2.605   1.131   7.088  0.7103  3.9234 -2.2557
 2904SOL     OW20173   1.325   4.120   5.048  0.0466  0.0934  0.8867
 2904SOL    HW120174   1.418   4.139   5.061  0.0483  0.1328  0.8131
 2904SOL    HW220175   1.320   4.088   4.958  1.4918  2.7319 -0.1241
 2905SOL     OW20176   1.241   3.779   3.055  0.4825 -0.0548  0.1104
 2905SOL    HW120177   1.236   3.692   3.094 -0.5266  0.5348  1.2807
 2905SOL    HW220178   1.174   3.770   2.988 -0.9192  0.7995  1.4083
 2906SOL     OW20179   1.600   0.996   2.451  0.0619  0.1687 -0.3007
 2906SOL    HW120180   1.627   0.907   2.471 -2.8720 -0.7316 -0.3620
 2906SOL    HW220181   1.629   1.009   2.361 -2.9281 -2.0321 -1.5850
 2907SOL     OW20182   4.712   3.201   5.197  0.5175  0.3761  0.0294
 2907SOL    HW120183   4.725   3.204   5.102 -0.6498 -0.6925 -0.1689
 2907SOL    HW220184   0.047   3.130   5.217 -1.1044 -1.2412 -0.6811
 2908SOL     OW20185   2.605   4.255   0.519  0.7521  0.2755  0.1659
 2908SOL    HW120186   2.700   4.242   0.509  0.7643  0.7059 -0.2526
 2908SOL    HW220187   2.611   4.350   0.514 -0.3152  0.3310 -0.0477
 2909SOL     OW20188   0.176   1.438   8.995 -0.9658  0.0040  0.7980
 2909SOL    HW120189   0.134   1.435   8.909 -0.8691 -1.9809  0.8231
 2909SOL    HW220190   0.126   1.502   9.045 -0.7947  0.1811  0.7409
 2910SOL     OW20191   2.930   0.182   2.018 -0.2401  0.3329 -0.4349
 2910SOL    HW120192   2.968   0.223   2.095  0.0708 -0.1328 -0.3390
 2910SOL    HW220193   2.859   0.246   2.010 -1.0593 -0.6095 -0.7134
 2911SOL     OW20194   3.160   2.466   7.793  0.2638 -0.0935  0.4387
 2911SOL    HW120195   3.222   2.404   7.830 -0.8263 -1.3715  0.1213
 2911SOL    HW220196   3.122   2.408   7.728 -1.4138  0.0664  1.2733
 2912SOL     OW20197   4.340   0.555   3.448  0.1912  0.4651 -0.5295
 2912SOL    HW120198   4.413   0.543   3.388  0.5568  0.5041 -0.0956
 2912SOL    HW220199   4.292   0.472   3.451  0.7774  0.1889  1.4519
 2913SOL     OW20200   3.399   2.769   5.025  0.4551 -0.7164  0.3018
 2913SOL    HW120201   3.425   2.691   4.976 -1.6646 -0.3243 -1.4186
 2913SOL    HW220202   3.388   2.830   4.953 -0.5578  1.3302  2.2042
 2914SOL     OW20203   0.079   1.252   5.348  0.1777  0.9019 -0.2037
 2914SOL    HW120204   0.108   1.297   5.268  0.5075  2.0991  0.5943
 2914SOL    HW220205   0.149   1.258   5.413 -0.4237 -1.5753  0.6675
 2915SOL     OW20206   2.843   2.511   1.367  0.0368 -0.2986 -0.0261
 2915SOL    HW120207   2.935   2.494   1.389  0.3792  0.5386 -0.8314
 2915SOL    HW220208   2.847   2.589   1.313  0.0869 -0.7613 -0.6887
 2916SOL     OW20209   2.858   4.206   1.819 -0.1100 -0.3606  0.5195
 2916SOL    HW120210   2.892   4.291   1.791  2.5377 -1.9206 -0.9980
 2916SOL    HW220211   2.919   4.147   1.774 -1.4291 -1.5962  0.3357
 2917SOL     OW20212   4.356   4.487   3.733  0.2783 -0.2330 -0.3275
 2917SOL    HW120213   4.412   4.511   3.659  0.0619 -2.1318 -1.1046
 2917SOL    HW220214   4.398   4.410   3.772  0.1845 -0.7763 -1.2757
 2918SOL     OW20215   1.522   4.707  17.080 -0.3877 -0.7050 -0.4157
 2918SOL    HW120216   1.489   4.694  16.991 -0.4877  0.3197 -0.5190
 2918SOL    HW220217   1.527   4.616  17.109 -0.8040 -1.0788 -1.5285
 2919SOL     OW20218   1.879   1.756   8.123 -0.3700  0.0317  0.8112
 2919SOL    HW120219   1.833   1.813   8.060  0.9959  0.4993  0.2399
 2919SOL    HW220220   1.821   1.685   8.147 -2.0602  1.1418  0.0487
 2920SOL     OW20221   0.652   2.487  13.628  0.1289 -0.7592 -0.0533
 2920SOL    HW120222   0.607   2.403  13.624 -0.1208 -0.5680 -1.3386
 2920SOL    HW220223   0.587   2.536  13.577  0.6649  0.3359  0.2994
 2921SOL     OW20224   4.170   1.375   7.531 -0.3242  0.3962  0.2730
 2921SOL    HW120225   4.226   1.377   7.608 -0.2641  0.3660  0.2301
 2921SOL    HW220226   4.142   1.283   7.534  0.5893  0.1298  0.6017
 2922SOL     OW20227   2.794   4.521   5.198 -0.4880 -0.0930  0.3485
 2922SOL    HW120228   2.795   4.429   5.170 -0.4612 -0.5075  1.7016
 2922SOL    HW220229   2.710   4.524   5.244  0.2317 -2.6915  1.8590
 2923SOL     OW20230   3.482   0.107   8.045  0.5140  0.5405 -0.9306
 2923SOL    HW120231   3.468   0.153   8.127  1.2034  0.5750 -0.8340
 2923SOL    HW220232   3.463   0.171   7.976  0.1923 -1.4075 -2.6545
 2924SOL     OW20233   0.430   2.547  15.635 -0.3379 -0.0595  0.2344
 2924SOL    HW120234   0.402   2.493  15.561  2.1701 -1.8475  0.5950
 2924SOL    HW220235   0.365   2.518  15.699 -0.2246 -2.3769 -0.7039
 2925SOL     OW20236   0.184   1.685   3.813  0.2875  0.5787 -0.4277
 2925SOL    HW120237   0.178   1.704   3.907  0.2833  0.0704 -0.3225
 2925SOL    HW220238   0.235   1.760   3.786  1.0670  0.3162  0.3090
 2926SOL     OW20239   2.472   4.450   3.218  0.2873 -0.8228 -0.4994
 2926SOL    HW120240   2.561   4.460   3.183  0.9160 -0.4839  1.1994
 2926SOL    HW220241   2.487   4.401   3.299 -1.6785 -1.7494 -0.6991
 2927SOL     OW20242   4.444   2.710   1.075  0.4324  0.1860  0.1818
 2927SOL    HW120243   4.492   2.633   1.106  0.4170  0.9435  2.1090
 2927SOL    HW220244   4.482   2.783   1.124  2.4551  0.6079 -2.0797
 2928SOL     OW20245   3.218   2.873   9.016  0.2109  0.6114 -0.5117
 2928SOL    HW120246   3.154   2.903   9.080  0.5483 -1.4069  0.7675
 2928SOL    HW220247   3.159   2.871   8.940 -0.2285  0.5692 -0.1693
 2929SOL     OW20248   2.030   4.078   6.996  0.5484 -0.3593  0.5273
 2929SOL    HW120249   1.950   4.039   6.961  0.1003  1.4347 -0.4411
 2929SOL    HW220250   2.093   4.082   6.924 -1.8450 -3.6110 -1.7804
 2930SOL     OW20251   0.824   4.492   2.084 -0.0926  0.5934  0.1362
 2930SOL    HW120252   0.743   4.536   2.057 -0.8696 -2.3129 -2.3066
 2930SOL    HW220253   0.879   4.566   2.057 -0.0219  0.6529  0.4326
 2931SOL     OW20254   0.049   3.081   6.891 -0.1911 -1.0220  0.1009
 2931SOL    HW120255   4.689   3.059   6.929  0.6124 -1.7186  1.5047
 2931SOL    HW220256   0.097   3.001   6.912  1.6496  0.5233  1.8035
 2932SOL     OW20257   2.589   1.130   2.411  0.0889 -0.0779 -0.1516
 2932SOL    HW120258   2.587   1.119   2.506 -1.8871 -2.2488 -0.4221
 2932SOL    HW220259   2.647   1.206   2.407 -0.6231  0.3866 -1.4653
 2933SOL     OW20260   2.717   1.158   4.280  0.3835 -0.2216 -0.1179
 2933SOL    HW120261   2.626   1.137   4.262 -0.0443  0.6279  1.0482
 2933SOL    HW220262   2.762   1.076   4.298  0.2245 -0.1092  0.7551
 2934SOL     OW20263   1.327   3.168   8.823 -0.2123 -0.3080 -0.5208
 2934SOL    HW120264   1.258   3.103   8.818  1.0657 -1.5013 -2.6528
 2934SOL    HW220265   1.355   3.164   8.732  0.2948 -1.2459 -0.3260
 2935SOL     OW20266   1.550   4.583  15.161 -0.1562  0.2477 -0.2757
 2935SOL    HW120267   1.515   4.630  15.085  0.7691  2.3566  0.6007
 2935SOL    HW220268   1.575   4.504  15.114 -2.9500 -0.0769 -1.2304
 2936SOL     OW20269   1.931   0.024   5.669  0.2341  0.1597  0.4876
 2936SOL    HW120270   1.973   4.664   5.662 -1.9233 -0.7891 -0.9288
 2936SOL    HW220271   1.956   0.062   5.585 -1.2765  0.1755  0.0395
 2937SOL     OW20272   3.885   0.881   5.394  0.0696 -0.0376 -0.3818
 2937SOL    HW120273   3.806   0.852   5.348 -0.1704 -2.1228  1.3789
 2937SOL    HW220274   3.952   0.880   5.325  0.5633  0.2553  0.0879
 2938SOL     OW20275   3.790   4.649   4.832 -0.1574 -0.2852  0.1789
 2938SOL    HW120276   3.741   4.656   4.749 -0.3684 -0.2523  0.3054
 2938SOL    HW220277   3.878   4.632   4.798  0.0806 -1.5451  1.4229
 2939SOL     OW20278   2.214   0.410   7.999 -0.9723 -0.3075 -0.4775
 2939SOL    HW120279   2.245   0.471   7.933 -0.2361  0.6685  0.7873
 2939SOL    HW220280   2.251   0.335   7.953 -0.4735 -0.2234 -0.2041
 2940SOL     OW20281   1.037   1.388  14.488 -0.2916 -0.9730 -0.3518
 2940SOL    HW120282   1.021   1.479  14.512 -0.3548 -1.1472  0.2656
 2940SOL    HW220283   1.099   1.362  14.556 -1.2362 -2.8478 -0.1984
 2941SOL     OW20284   3.997   0.989   5.155  0.3019  0.2911  0.2527
 2941SOL    HW120285   3.919   1.005   5.101  1.0089  1.0470 -0.5334
 2941SOL    HW220286   4.057   0.972   5.083  0.7577 -0.5344  0.8249
 2942SOL     OW20287   4.718   2.528   8.426 -0.4542  0.1764 -0.2235
 2942SOL    HW120288   0.063   2.591   8.409  0.8635 -1.1880  0.2064
 2942SOL    HW220289   4.705   2.496   8.337 -0.1156  0.9464 -0.5546
 2943SOL     OW20290   2.092   0.331   5.190 -0.6580  0.5971  0.1953
 2943SOL    HW120291   2.009   0.283   5.180  0.2558 -0.8826 -0.3237
 2943SOL    HW220292   2.138   0.266   5.243 -2.5342  0.8434  2.1514
 2944SOL     OW20293   0.238   1.995   4.960 -0.3904 -0.1266  0.1767
 2944SOL    HW120294   0.283   2.046   4.893 -0.8503 -1.3467 -1.0665
 2944SOL    HW220295   0.289   1.916   4.941 -0.5958 -0.3535  0.5645
 2945SOL     OW20296   1.420   2.427   5.010 -0.0128  0.2716  0.0524
 2945SOL    HW120297   1.435   2.360   4.942 -1.3727  1.4819 -1.4361
 2945SOL    HW220298   1.339   2.385   5.039 -0.7205  1.6529  0.0475
 2946SOL     OW20299   1.494   2.070   7.113 -0.4883 -0.1067 -0.0194
 2946SOL    HW120300   1.433   2.005   7.079 -1.1341  0.8341 -0.6697
 2946SOL    HW220301   1.531   2.030   7.191  0.0643  1.9495  0.7741
 2947SOL     OW20302   3.091   4.558   7.372  0.3228 -0.3373  0.3709
 2947SOL    HW120303   2.999   4.578   7.352  0.3126 -0.1094  0.6549
 2947SOL    HW220304   3.128   4.627   7.427  1.0943 -0.9478  0.6143
 2948SOL     OW20305   3.120   2.386   8.237  0.5989  0.1508  0.2220
 2948SOL    HW120306   3.055   2.453   8.215  2.0817  0.8894 -1.8505
 2948SOL    HW220307   3.088   2.311   8.186  1.9853 -0.6943  0.5790
 2949SOL     OW20308   2.612   0.781  12.508 -0.0779 -0.0499 -0.2206
 2949SOL    HW120309   2.610   0.689  12.536  1.4801 -0.1444 -0.4148
 2949SOL    HW220310   2.671   0.779  12.433 -0.6915  1.1412 -0.7347
 2950SOL     OW20311   1.896   3.359   2.750 -0.0732  0.2256 -0.1178
 2950SOL    HW120312   1.933   3.366   2.662 -1.0265 -0.5874 -0.5791
 2950SOL    HW220313   1.907   3.266   2.768  1.0410  0.0084 -2.0151
 2951SOL     OW20314   0.186   1.285   2.310  0.5399  0.6635 -0.5720
 2951SOL    HW120315   0.226   1.244   2.387  0.6680 -0.7462 -1.3827
 2951SOL    HW220316   0.104   1.236   2.308  0.2710  1.2446 -3.7777
 2952SOL     OW20317   4.302   1.711   4.283  0.9314  0.3600 -0.1917
 2952SOL    HW120318   4.278   1.804   4.288  2.4008  0.6960  0.5418
 2952SOL    HW220319   4.295   1.688   4.376 -1.3727 -1.2287 -0.7424
 2953SOL     OW20320   2.496   4.388   1.643 -0.6810 -0.1424 -0.3208
 2953SOL    HW120321   2.548   4.389   1.723 -0.9896 -1.6731 -0.1087
 2953SOL    HW220322   2.424   4.451   1.649 -0.2657  0.5170 -2.0031
 2954SOL     OW20323   0.037   2.736   2.302  0.1230  0.0482  0.0326
 2954SOL    HW120324   0.075   2.710   2.218  1.5878 -1.2470  1.0862
 2954SOL    HW220325   4.683   2.683   2.298 -1.1238  1.9557 -0.0859
 2955SOL     OW20326   2.918   4.249  10.236 -0.0223 -0.1533  0.2655
 2955SOL    HW120327   2.955   4.305  10.168 -0.5819  1.8780  1.6401
 2955SOL    HW220328   2.839   4.229  10.186  0.0466 -2.1250  0.9596
 2956SOL     OW20329   0.481   0.614  14.590  0.1210  0.3079 -0.5438
 2956SOL    HW120330   0.572   0.584  14.589  0.6687  1.8797  1.9385
 2956SOL    HW220331   0.436   0.589  14.670 -1.3905  1.0815 -1.1611
 2957SOL     OW20332   4.143   1.976  12.545 -0.2463 -0.1435  0.2610
 2957SOL    HW120333   4.195   1.900  12.520  1.5903  1.2379 -0.1387
 2957SOL    HW220334   4.174   1.982  12.636  0.6506  0.9420 -0.1128
 2958SOL     OW20335   1.198   3.766   9.793 -0.2204  0.6110 -0.3691
 2958SOL    HW120336   1.183   3.684   9.840  2.0570 -0.7288 -2.0008
 2958SOL    HW220337   1.123   3.769   9.733 -0.8396 -2.1067  0.2603
 2959SOL     OW20338   4.495   0.554   7.657  0.1727  0.0396  0.3958
 2959SOL    HW120339   4.566   0.616   7.638  0.0526  0.2921  0.7729
 2959SOL    HW220340   4.520   0.527   7.745 -1.1994 -1.0275  0.4645
 2960SOL     OW20341   1.982   4.561   7.534  0.9458  0.3713  0.9344
 2960SOL    HW120342   1.950   4.490   7.478  1.5311 -0.2879  1.4539
 2960SOL    HW220343   2.076   4.565   7.517  0.5516 -0.5468 -1.3919
 2961SOL     OW20344   3.296   4.026   5.027 -0.0537  0.3652  0.8231
 2961SOL    HW120345   3.269   3.937   5.006  0.5251  0.0015  1.6408
 2961SOL    HW220346   3.334   4.045   4.941 -1.3638 -0.0646  0.1470
 2962SOL     OW20347   0.205   3.589   1.853 -0.8336  0.4218  0.2582
 2962SOL    HW120348   0.120   3.613   1.817 -0.2081 -1.3445 -2.4167
 2962SOL    HW220349   0.188   3.595   1.947 -2.6311 -0.0126 -0.0284
 2963SOL     OW20350   2.404   0.405  12.845  0.0718 -0.0512  0.2449
 2963SOL    HW120351   2.355   0.397  12.763  2.8733 -0.4762 -1.3969
 2963SOL    HW220352   2.470   0.470  12.820 -2.0367  2.4597  1.2134
 2964SOL     OW20353   1.798   3.382   5.036  0.1529  0.3752  0.0131
 2964SOL    HW120354   1.808   3.474   5.011  3.2968  0.8591  3.2568
 2964SOL    HW220355   1.878   3.345   4.999  0.8108 -1.2049  3.0539
 2965SOL     OW20356   3.845   3.106   4.388  0.7462 -0.7135 -0.4075
 2965SOL    HW120357   3.842   3.029   4.332 -0.1878 -0.4294 -0.7413
 2965SOL    HW220358   3.865   3.063   4.471  1.9150 -0.7845 -0.7231
 2966SOL     OW20359   0.122   1.387   7.295  0.0838 -0.4867  0.1053
 2966SOL    HW120360   0.031   1.389   7.322  0.6641  1.0616  1.8869
 2966SOL    HW220361   0.161   1.407   7.380 -0.0165 -1.4502  0.3780
 2967SOL     OW20362   0.300   1.290   1.069 -0.5328 -0.0097  0.1059
 2967SOL    HW120363   0.294   1.233   0.993 -0.1770  0.2620 -0.1247
 2967SOL    HW220364   0.365   1.250   1.127  1.1078  2.5293 -0.0125
 2968SOL     OW20365   1.699   3.675   9.534  0.3073  0.2337 -0.1418
 2968SOL    HW120366   1.750   3.703   9.609 -2.9750  3.1289  1.0071
 2968SOL    HW220367   1.607   3.690   9.554  0.1882  1.6243 -1.6521
 2969SOL     OW20368   1.928   4.548   7.087 -0.1783  0.9187  0.0751
 2969SOL    HW120369   1.854   4.608   7.077 -1.6361 -0.9965 -0.7286
 2969SOL    HW220370   1.964   4.545   6.998  2.2210 -1.2663  1.1225
 2970SOL     OW20371   3.987   1.797   0.806  0.7078 -0.1525 -0.3231
 2970SOL    HW120372   3.903   1.755   0.786  2.1538 -2.2698 -2.0539
 2970SOL    HW220373   3.953   1.887   0.806 -0.7981 -0.7323  1.0643
 2971SOL     OW20374   2.700   4.326  11.176 -0.3598  0.2025  0.1083
 2971SOL    HW120375   2.756   4.250  11.192 -1.1276 -0.3948 -0.0101
 2971SOL    HW220376   2.710   4.329  11.081 -1.7264  1.9643  0.0054
 2972SOL     OW20377   1.595   4.539   5.524 -1.0486  0.0333 -0.2942
 2972SOL    HW120378   1.554   4.560   5.441 -1.6872  0.5194  0.1530
 2972SOL    HW220379   1.527   4.487   5.566 -0.2786 -3.3377 -3.2487
 2973SOL     OW20380   2.909   0.425  17.084 -0.1545 -0.5217 -0.0901
 2973SOL    HW120381   2.822   0.466  17.084 -1.6676 -3.6922 -0.1831
 2973SOL    HW220382   2.934   0.463  17.168 -2.6064 -1.1395  0.9259
 2974SOL     OW20383   0.964   0.304   0.982 -0.1641  0.4597 -0.2469
 2974SOL    HW120384   0.912   0.224   0.975 -0.1740  0.4931 -0.5258
 2974SOL    HW220385   0.945   0.337   0.895  1.1684 -1.7132 -1.3595
 2975SOL     OW20386   4.557   3.132   4.879  0.6747 -0.0441 -0.4479
 2975SOL    HW120387   4.507   3.080   4.815 -0.8332 -0.0803  0.7489
 2975SOL    HW220388   4.573   3.062   4.942 -1.4689 -1.5817 -1.5938
 2976SOL     OW20389   3.512   1.919   7.278  0.1358  0.3120  0.2619
 2976SOL    HW120390   3.462   1.843   7.248  1.4332 -0.0206 -1.0514
 2976SOL    HW220391   3.464   1.919   7.361 -0.7652  0.4282 -0.2693
 2977SOL     OW20392   4.163   1.481   5.710 -0.0097 -0.4022  0.6066
 2977SOL    HW120393   4.126   1.424   5.642  2.6370 -0.7882 -0.5426
 2977SOL    HW220394   4.248   1.437   5.716  0.9769  1.5340  0.9306
 2978SOL     OW20395   3.911   2.652   5.840 -0.5109  0.3822 -0.1964
 2978SOL    HW120396   3.816   2.654   5.851 -0.2566 -1.5269  2.4284
 2978SOL    HW220397   3.917   2.710   5.764 -2.0076 -0.3116 -0.8455
 2979SOL     OW20398   1.897   0.861  10.744 -0.3132 -0.0500 -0.2341
 2979SOL    HW120399   1.922   0.776  10.780 -2.1022 -0.7765 -0.7243
 2979SOL    HW220400   1.861   0.839  10.658  1.0401  2.1720 -1.3972
 2980SOL     OW20401   3.934   4.418   9.615 -0.1313 -0.1530 -0.1849
 2980SOL    HW120402   3.958   4.481   9.548 -0.1326 -0.6013 -0.6021
 2980SOL    HW220403   3.854   4.460   9.645 -0.0447 -0.4806  0.5314
 2981SOL     OW20404   0.149   1.043   7.721 -0.4614  0.3810  0.4084
 2981SOL    HW120405   0.163   1.000   7.806  1.2990 -0.4481 -0.2829
 2981SOL    HW220406   0.227   1.098   7.711  0.5116 -0.9804  0.4039
 2982SOL     OW20407   4.607   2.360   5.031 -0.8002  0.0597  0.4441
 2982SOL    HW120408   4.673   2.325   4.971 -0.1293  0.1105  1.1483
 2982SOL    HW220409   4.566   2.277   5.051 -1.3609  0.4956  1.1098
 2983SOL     OW20410   3.314   3.687   6.034 -0.2941  0.3610  0.6526
 2983SOL    HW120411   3.309   3.714   5.943  2.3162  0.7672  0.6248
 2983SOL    HW220412   3.242   3.738   6.070 -1.5821 -0.5032 -0.7197
 2984SOL     OW20413   2.982   0.826   6.243 -0.6242 -0.0183  0.1350
 2984SOL    HW120414   2.934   0.905   6.220  2.0223  1.7241  0.6121
 2984SOL    HW220415   3.068   0.844   6.204 -1.3470 -1.1336 -1.9626
 2985SOL     OW20416   0.527   4.232   9.739 -0.0051  0.1844 -0.7217
 2985SOL    HW120417   0.511   4.148   9.696 -1.8274  0.6568 -0.9912
 2985SOL    HW220418   0.484   4.205   9.821  1.5077  0.8062  0.2696
 2986SOL     OW20419   4.149   1.334   0.433 -0.2169 -0.5569 -0.1674
 2986SOL    HW120420   4.085   1.339   0.504  0.0603 -0.6275  0.0883
 2986SOL    HW220421   4.215   1.396   0.464 -0.1333 -1.3801  1.3231
 2987SOL     OW20422   4.244   1.270   8.409  0.3452 -0.0400 -0.1646
 2987SOL    HW120423   4.227   1.322   8.487 -2.5860 -0.1809 -0.7115
 2987SOL    HW220424   4.198   1.319   8.341  1.0421  0.1130 -0.5233
 2988SOL     OW20425   3.499   3.193  14.405 -0.5189  0.4244  0.3441
 2988SOL    HW120426   3.415   3.211  14.446 -0.1166  0.8861  0.9737
 2988SOL    HW220427   3.472   3.129  14.340  2.1535  0.2554 -0.6341
 2989SOL     OW20428   3.631   3.930   8.378 -0.1802  0.0214 -0.5066
 2989SOL    HW120429   3.577   3.988   8.431 -1.4346 -1.6529  0.0659
 2989SOL    HW220430   3.572   3.883   8.320  1.3247 -1.4184 -0.8819
 2990SOL     OW20431   3.041   0.142   3.382  0.4601 -0.2329 -0.2153
 2990SOL    HW120432   3.072   0.064   3.428  0.4282 -1.2869 -1.9927
 2990SOL    HW220433   2.952   0.112   3.365  1.4242 -2.2935 -1.6200
 2991SOL     OW20434   0.988   0.975   2.334 -0.0822  0.0741 -0.4599
 2991SOL    HW120435   0.964   1.049   2.390 -1.4017 -1.7783  1.3820
 2991SOL    HW220436   0.942   0.999   2.253 -0.5524  0.9413  0.0642
 2992SOL     OW20437   2.467   2.368  17.183  0.4482  0.3156 -0.0539
 2992SOL    HW120438   2.455   2.317  17.264 -1.8085 -0.0195 -0.6043
 2992SOL    HW220439   2.407   2.437  17.211  1.8721  0.3716  2.8705
 2993SOL     OW20440   4.001   4.604   9.427  0.6414  0.7905  0.6642
 2993SOL    HW120441   4.060   4.609   9.352 -0.2927 -0.5375 -0.1675
 2993SOL    HW220442   3.994   4.695   9.455  1.6898  1.6285 -1.7580
 2994SOL     OW20443   1.573   2.246   6.055 -0.4835  0.1356 -0.6174
 2994SOL    HW120444   1.572   2.181   5.985 -0.1013  0.6593 -1.1110
 2994SOL    HW220445   1.552   2.195   6.134  3.5672  0.3291  0.6245
 2995SOL     OW20446   2.392   0.512   1.750 -0.4708 -0.1607  0.1088
 2995SOL    HW120447   2.433   0.440   1.701  0.1404  1.1785 -1.3446
 2995SOL    HW220448   2.398   0.582   1.685  0.4315  0.0601  0.4143
 2996SOL     OW20449   4.382   1.978  11.671 -0.0098 -0.5308  0.1247
 2996SOL    HW120450   4.433   2.031  11.610 -0.2761  0.7615  1.0119
 2996SOL    HW220451   4.402   2.029  11.750  1.6137 -1.0386  0.0478
 2997SOL     OW20452   2.169   4.606   7.973  0.0518  0.7659  0.2561
 2997SOL    HW120453   2.098   4.542   7.966 -0.5382  1.3836  0.6083
 2997SOL    HW220454   2.118   4.663   8.031  0.5625  2.4975 -1.0224
 2998SOL     OW20455   1.705   1.187   3.885  0.6183  0.9270  0.1571
 2998SOL    HW120456   1.746   1.126   3.824 -2.7171 -1.0110 -0.1188
 2998SOL    HW220457   1.645   1.234   3.827  1.0876  2.5925  1.0174
 2999SOL     OW20458   0.329   1.221   2.540 -0.1572 -0.2092  0.2592
 2999SOL    HW120459   0.378   1.299   2.564  1.0544 -0.3437 -1.7889
 2999SOL    HW220460   0.302   1.181   2.622  0.6427 -0.2299  0.5062
 3000SOL     OW20461   0.918   0.447   4.623 -0.0410 -0.2061  0.0602
 3000SOL    HW120462   0.903   0.522   4.680 -0.8656  1.3444 -2.2053
 3000SOL    HW220463   0.893   0.381   4.688  0.7721 -1.5780 -1.0277
 3001SOL     OW20464   4.356   2.593  15.177  0.1032  0.2363  0.1644
 3001SOL    HW120465   4.266   2.586  15.208 -0.3936 -1.5220 -1.7056
 3001SOL    HW220466   4.394   2.512  15.211 -1.1641 -0.0149  0.9990
 3002SOL     OW20467   1.020   2.966  15.474 -0.4025  0.0026  0.1435
 3002SOL    HW120468   1.073   2.899  15.517  0.8871  0.1269 -1.2526
 3002SOL    HW220469   0.967   2.998  15.547  0.5180  2.0665 -0.1000
 3003SOL     OW20470   1.440   2.059  17.587 -0.0438 -0.0426  0.0268
 3003SOL    HW120471   1.524   2.099  17.609 -1.0876  1.6107  0.9828
 3003SOL    HW220472   1.386   2.134  17.612 -1.8584 -1.2593 -0.2181
 3004SOL     OW20473   0.336   2.455   8.908  0.5318 -0.1724 -0.6182
 3004SOL    HW120474   0.337   2.373   8.958 -1.6033  1.4664  2.1078
 3004SOL    HW220475   0.248   2.482   8.935  0.2255 -1.7917  0.0044
 3005SOL     OW20476   3.999   3.825  10.094  0.0504 -0.1711 -0.0568
 3005SOL    HW120477   4.078   3.860  10.134 -0.8797 -0.1543  1.7856
 3005SOL    HW220478   3.994   3.738  10.132  0.1769 -0.0241  0.2918
 3006SOL     OW20479   3.474   2.244   6.888 -0.4284  0.0462  0.4094
 3006SOL    HW120480   3.399   2.197   6.851  0.1191 -1.7374  1.5445
 3006SOL    HW220481   3.518   2.165   6.921 -1.1075  0.5639  2.5195
 3007SOL     OW20482   1.867   0.974   1.835 -0.3346  0.0986  0.1872
 3007SOL    HW120483   1.772   0.975   1.839 -0.3178 -0.1084  0.6275
 3007SOL    HW220484   1.884   0.887   1.799  0.5990 -0.3020  1.5881
 3008SOL     OW20485   4.102   0.336  11.269 -0.1582  0.6426  0.3336
 3008SOL    HW120486   4.063   0.423  11.265 -0.3001  0.5097 -1.2464
 3008SOL    HW220487   4.165   0.349  11.340  0.6320  1.2730 -0.4830
 3009SOL     OW20488   0.269   0.748  13.885 -0.3832 -0.5596  0.6131
 3009SOL    HW120489   0.191   0.802  13.870 -0.0211 -0.4505 -0.9133
 3009SOL    HW220490   0.234   0.659  13.881  2.7057 -1.8186  1.5843
 3010SOL     OW20491   4.243   1.015   3.052 -0.5657  0.0555 -0.3266
 3010SOL    HW120492   4.195   0.961   2.989 -2.1355  0.1952  0.7615
 3010SOL    HW220493   4.191   1.095   3.045  1.9125  1.7697  0.5026
 3011SOL     OW20494   3.315   4.325  10.873  0.0279 -0.5185  0.4055
 3011SOL    HW120495   3.371   4.248  10.881  1.1155  0.4275  1.9055
 3011SOL    HW220496   3.250   4.284  10.816  0.9545 -0.6182 -0.5736
 3012SOL     OW20497   0.505   4.554   1.094  0.2697 -0.5043 -0.4941
 3012SOL    HW120498   0.416   4.539   1.127  1.3440 -0.1789  2.5905
 3012SOL    HW220499   0.563   4.510   1.157  0.2235  0.8555  0.4815
 3013SOL     OW20500   0.033   0.145   2.266 -0.6412 -0.1221  0.4302
 3013SOL    HW120501   0.087   0.068   2.245 -1.1531 -0.8797  1.8640
 3013SOL    HW220502   4.690   0.097   2.314 -1.1027  0.4740  0.3635
 3014SOL     OW20503   1.986   3.482   8.773 -0.1336  0.1429 -0.0898
 3014SOL    HW120504   1.895   3.504   8.754 -0.8438 -0.7172  2.3402
 3014SOL    HW220505   1.983   3.490   8.868  0.5175 -0.1797 -0.0386
 3015SOL     OW20506   0.407   1.854   0.020 -0.0395  0.8366  0.3644
 3015SOL    HW120507   0.396   1.879  17.631 -0.1232 -1.5760 -0.2752
 3015SOL    HW220508   0.456   1.931   0.046  0.9747  0.2929  0.0743
 3016SOL     OW20509   0.780   2.109   9.552  0.1021 -0.6475 -0.7437
 3016SOL    HW120510   0.735   2.161   9.484 -3.4284 -0.3937  1.7859
 3016SOL    HW220511   0.705   2.053   9.571 -0.9484  0.4035 -1.7412
 3017SOL     OW20512   3.746   4.214   1.919  0.0211  0.4138 -0.0366
 3017SOL    HW120513   3.741   4.238   1.826 -1.2762 -0.5389 -0.2155
 3017SOL    HW220514   3.831   4.170   1.920 -1.0740 -1.6661  1.7673
 3018SOL     OW20515   4.155   2.942   9.542 -0.4978  0.6039  0.3249
 3018SOL    HW120516   4.244   2.916   9.520  0.3719  2.2899  1.8830
 3018SOL    HW220517   4.166   3.005   9.613  0.3269 -0.4482  1.1287
 3019SOL     OW20518   1.263   4.251  17.073 -0.1177  0.3709 -0.2266
 3019SOL    HW120519   1.214   4.248  17.155 -0.1622 -0.8945 -0.2983
 3019SOL    HW220520   1.201   4.291  17.013  0.3303 -0.9622 -1.5737
 3020SOL     OW20521   2.609   2.372   5.947  0.3278  0.4036 -0.0134
 3020SOL    HW120522   2.673   2.434   5.982  0.4905  0.3373 -0.1878
 3020SOL    HW220523   2.586   2.324   6.027 -1.2880  1.2943  0.0418
 3021SOL     OW20524   4.363   4.643   6.324 -0.0040  0.4091 -0.1978
 3021SOL    HW120525   4.411   4.606   6.398 -2.5818 -0.2429  1.1605
 3021SOL    HW220526   4.331   4.562   6.284  0.9687  0.0787 -0.3216
 3022SOL     OW20527   2.542   1.846  14.372 -0.0897  0.6047 -0.7933
 3022SOL    HW120528   2.532   1.827  14.465 -1.0089  1.6224 -0.6947
 3022SOL    HW220529   2.600   1.776  14.340 -1.3146 -0.4783 -0.6254
 3023SOL     OW20530   1.610   3.117   5.161  0.5742  0.1393 -0.0687
 3023SOL    HW120531   1.528   3.073   5.182  0.9887 -0.6713 -0.1352
 3023SOL    HW220532   1.655   3.042   5.121 -0.4160  0.4076 -1.6650
 3024SOL     OW20533   1.102   2.983   3.603  0.3002  0.3898  0.0742
 3024SOL    HW120534   1.026   3.011   3.551  0.4361 -1.7828 -1.2860
 3024SOL    HW220535   1.129   2.909   3.550  0.4680  0.6108 -0.1503
 3025SOL     OW20536   3.056   0.498   4.010 -0.0915 -0.0081  0.1346
 3025SOL    HW120537   3.063   0.586   3.973 -2.1083  0.4317  0.7726
 3025SOL    HW220538   2.970   0.469   3.979 -0.3830  0.5960  0.3669
 3026SOL     OW20539   1.092   0.326  14.432 -0.2363  0.1969  0.3124
 3026SOL    HW120540   1.144   0.396  14.473  0.0718  0.0425  0.1848
 3026SOL    HW220541   1.113   0.335  14.338  1.0210 -1.8033  0.3909
 3027SOL     OW20542   1.700   3.954   5.397 -0.0126  0.1688  0.3168
 3027SOL    HW120543   1.621   4.006   5.413 -0.3474  0.3249 -1.7561
 3027SOL    HW220544   1.757   4.022   5.362 -1.5845  1.1716 -0.3379
 3028SOL     OW20545   3.863   0.560   6.372 -0.2655  0.0569  0.3483
 3028SOL    HW120546   3.834   0.651   6.379  4.0657  1.3708  1.2754
 3028SOL    HW220547   3.868   0.532   6.464  3.0080 -3.0800 -0.8015
 3029SOL     OW20548   3.103   2.717  13.481 -0.1632  0.0340 -0.3111
 3029SOL    HW120549   3.118   2.716  13.576  2.4067  0.1103 -0.7240
 3029SOL    HW220550   3.023   2.770  13.477  0.7551  1.2136 -3.1287
 3030SOL     OW20551   3.183   2.461   1.041  0.0780  0.1881  0.1626
 3030SOL    HW120552   3.167   2.532   1.104 -1.4778  2.5496 -2.9075
 3030SOL    HW220553   3.250   2.405   1.080  1.0000  1.2716  0.1659
 3031SOL     OW20554   3.182   0.834   4.760  0.0731 -0.2927  0.1543
 3031SOL    HW120555   3.238   0.822   4.683  1.1467 -0.8600  1.0158
 3031SOL    HW220556   3.243   0.846   4.833 -1.4115 -0.1771  1.3733
 3032SOL     OW20557   4.462   2.826   9.027 -0.3850 -0.2188 -0.0519
 3032SOL    HW120558   4.549   2.787   9.018 -1.1044 -1.9282  0.3696
 3032SOL    HW220559   4.406   2.751   9.046 -1.3558  1.2644  2.9080
 3033SOL     OW20560   2.723   0.584   6.040 -0.3463 -0.2648  0.1357
 3033SOL    HW120561   2.744   0.605   5.949 -0.7482 -1.0356 -0.1244
 3033SOL    HW220562   2.807   0.545   6.065  0.2105  0.9108  0.1197
 3034SOL     OW20563   0.689   0.871  15.792 -0.2015 -0.2779 -0.1716
 3034SOL    HW120564   0.698   0.802  15.726  0.8284 -0.9527  0.6947
 3034SOL    HW220565   0.705   0.823  15.873  0.5787 -1.6909 -1.1631
 3035SOL     OW20566   0.440   1.828   7.927 -0.2282 -0.1783  0.0692
 3035SOL    HW120567   0.368   1.845   7.987 -0.4614 -1.0988  0.0513
 3035SOL    HW220568   0.453   1.733   7.929  0.3265 -0.0361  2.6194
 3036SOL     OW20569   0.560   3.911   3.457 -0.1853 -0.1727  0.0861
 3036SOL    HW120570   0.486   3.853   3.477 -1.1118  1.1872  0.5953
 3036SOL    HW220571   0.614   3.834   3.440  2.0907  1.4447  0.0452
 3037SOL     OW20572   3.737   3.625   8.662  0.0716  0.2585  0.1585
 3037SOL    HW120573   3.669   3.569   8.624  1.0630 -1.0613  0.3276
 3037SOL    HW220574   3.799   3.562   8.697 -1.8064 -0.4711  2.1508
 3038SOL     OW20575   3.195   2.253  17.330  0.1512 -0.3055 -0.5325
 3038SOL    HW120576   3.109   2.293  17.313 -0.9793 -1.9508  1.4042
 3038SOL    HW220577   3.211   2.182  17.268  1.5231  0.7822 -1.4166
 3039SOL     OW20578   1.031   1.618   6.900  0.1279  0.2508 -0.0198
 3039SOL    HW120579   1.075   1.613   6.985 -0.6513  0.6291  0.4106
 3039SOL    HW220580   1.057   1.706   6.874 -3.7532  1.6598  0.8437
 3040SOL     OW20581   4.360   1.965   6.099  0.1451  0.7402  0.1326
 3040SOL    HW120582   4.441   1.944   6.145 -0.7250  2.0740  2.2906
 3040SOL    HW220583   4.377   1.953   6.006 -0.2523  2.7892 -0.2064
 3041SOL     OW20584   0.285   4.720  12.526  0.1213 -0.2125  0.3574
 3041SOL    HW120585   0.369   0.033  12.551  1.2837 -1.7242 -1.2171
 3041SOL    HW220586   0.245   0.073  12.490  0.5470 -0.3664 -0.4675
 3042SOL     OW20587   1.664   1.776  15.047 -0.3467 -0.2261  0.2105
 3042SOL    HW120588   1.705   1.845  14.994 -0.5051 -0.3514 -0.0728
 3042SOL    HW220589   1.598   1.752  14.983 -0.8557 -1.4261  1.1874
 3043SOL     OW20590   1.156   0.409   3.960  0.4885  0.1124  0.0001
 3043SOL    HW120591   1.213   0.385   4.033  1.9774 -1.2605 -1.6159
 3043SOL    HW220592   1.083   0.369   4.007  1.0386 -1.3791 -0.4250
 3044SOL     OW20593   2.648   3.053   7.169  0.5669 -0.0734 -0.1651
 3044SOL    HW120594   2.558   3.031   7.148  0.4666 -0.0795  0.2860
 3044SOL    HW220595   2.677   2.962   7.177  0.1987 -0.2228 -0.5468
 3045SOL     OW20596   0.974   0.302  14.038 -0.4165  0.2119 -0.1468
 3045SOL    HW120597   0.895   0.309  14.090 -0.6244  0.9209 -0.5567
 3045SOL    HW220598   0.943   0.348  13.960  1.9061  1.7022 -0.2160
 3046SOL     OW20599   2.289   0.735   9.519 -0.1235 -0.9279 -0.3636
 3046SOL    HW120600   2.325   0.794   9.586 -0.1010  0.2664 -1.4370
 3046SOL    HW220601   2.323   0.777   9.440 -0.6044  1.8978  0.9158
 3047SOL     OW20602   4.688   0.659   5.867 -0.1498 -0.1748  0.9582
 3047SOL    HW120603   4.627   0.719   5.823  1.5658 -0.7937 -2.2770
 3047SOL    HW220604   4.627   0.589   5.887  2.4918 -2.6395  0.3637
 3048SOL     OW20605   2.310   2.737   9.871  0.3445  0.3222 -0.3517
 3048SOL    HW120606   2.400   2.749   9.903 -0.5449  1.0407  1.8875
 3048SOL    HW220607   2.294   2.661   9.927 -2.9710 -0.0081 -1.7460
 3049SOL     OW20608   0.693   3.176   4.987 -0.1479  0.3589 -0.3990
 3049SOL    HW120609   0.598   3.184   4.981  0.1351  0.8327 -4.6000
 3049SOL    HW220610   0.724   3.254   5.033  2.3949  1.2247 -3.5741
 3050SOL     OW20611   2.639   1.165   9.640  0.8305 -0.3317 -0.1918
 3050SOL    HW120612   2.729   1.133   9.636 -0.0562 -2.9421  0.6171
 3050SOL    HW220613   2.645   1.225   9.714  3.0458 -1.5178  0.5858
 3051SOL     OW20614   2.274   1.665   2.615  0.6957  0.0970 -0.2365
 3051SOL    HW120615   2.226   1.711   2.546 -1.4226  0.6313  1.6014
 3051SOL    HW220616   2.322   1.736   2.658  2.3693 -1.7028  0.8191
 3052SOL     OW20617   1.421   4.684  16.818 -0.5618  0.0566  0.1373
 3052SOL    HW120618   1.515   4.690  16.804 -0.2392 -1.5728  1.6461
 3052SOL    HW220619   1.391   0.032  16.765  0.1276 -0.0417 -0.3952
 3053SOL     OW20620   0.283   0.535  14.067 -0.3234  0.5277 -0.3234
 3053SOL    HW120621   0.327   0.585  14.136  1.0854 -0.8754 -0.1855
 3053SOL    HW220622   0.191   0.557  14.079 -0.3111  0.0793  0.5920
 3054SOL     OW20623   3.304   3.350   7.071  0.1086  0.2118 -0.2412
 3054SOL    HW120624   3.362   3.418   7.038  1.4158 -0.1167  1.3555
 3054SOL    HW220625   3.349   3.320   7.151 -1.1317 -2.7923 -0.6613
 3055SOL     OW20626   3.293   3.220  14.075 -0.2220 -0.2010 -0.0587
 3055SOL    HW120627   3.352   3.159  14.121 -3.8891 -4.2413 -0.7496
 3055SOL    HW220628   3.239   3.236  14.153 -0.4353 -1.1315 -0.0163
 3056SOL     OW20629   3.845   0.134   6.888 -0.2928 -0.1923 -0.1734
 3056SOL    HW120630   3.904   0.137   6.964 -1.5260 -0.5403  0.7991
 3056SOL    HW220631   3.882   0.217   6.857 -0.8872  0.5429  1.1146
 3057SOL     OW20632   3.843   0.858   2.281 -0.1175  0.2081  0.4291
 3057SOL    HW120633   3.879   0.922   2.219  1.4525 -0.2360  0.8806
 3057SOL    HW220634   3.826   0.787   2.219 -3.4464  0.3819  1.1369
 3058SOL     OW20635   2.705   4.371   4.659 -0.6883  0.1331 -0.3986
 3058SOL    HW120636   2.717   4.277   4.671 -1.1892  0.3444  1.7293
 3058SOL    HW220637   2.637   4.379   4.592  1.0328 -0.0770 -2.1761
 3059SOL     OW20638   4.488   3.813   6.103  0.1505  0.4372 -0.4231
 3059SOL    HW120639   4.479   3.907   6.116  1.7139  0.6244 -0.5841
 3059SOL    HW220640   4.571   3.795   6.147  1.3003  1.4318 -2.1694
 3060SOL     OW20641   4.385   1.906   5.834 -0.3105 -0.2784 -0.3297
 3060SOL    HW120642   4.375   1.915   5.739  0.4471  0.4394 -0.3446
 3060SOL    HW220643   4.464   1.854   5.849  1.4214  2.1327 -0.9507
 3061SOL     OW20644   4.199   1.417   8.634 -0.1112 -0.2943 -0.3696
 3061SOL    HW120645   4.270   1.384   8.690  0.0377  0.8304  0.1064
 3061SOL    HW220646   4.231   1.505   8.613  2.9216 -1.4837 -0.6840
 3062SOL     OW20647   4.351   2.368   6.763 -0.5617  0.4634  0.1555
 3062SOL    HW120648   4.332   2.460   6.781 -2.4236  0.1719 -0.2931
 3062SOL    HW220649   4.272   2.325   6.797  0.8038  0.3696  3.1709
 3063SOL     OW20650   2.465   2.247   3.898  0.4570  0.3195 -0.3402
 3063SOL    HW120651   2.508   2.332   3.885 -0.8554  0.8629 -1.2068
 3063SOL    HW220652   2.512   2.191   3.837 -0.3014 -1.3535  0.6276
 3064SOL     OW20653   0.515   0.222   6.226 -0.3255 -0.4406  0.1775
 3064SOL    HW120654   0.598   0.230   6.180  0.0925  1.3191  1.2488
 3064SOL    HW220655   0.524   0.289   6.294 -0.0295 -0.1169 -0.1881
 3065SOL     OW20656   2.534   1.359   4.104  0.3557 -0.5582  0.0654
 3065SOL    HW120657   2.495   1.413   4.172 -1.5869 -3.0723  0.9409
 3065SOL    HW220658   2.533   1.272   4.142  0.4713  1.3162  4.2934
 3066SOL     OW20659   0.015   0.118  10.216  0.6896  0.1063 -0.3063
 3066SOL    HW120660   0.060   0.103  10.133  0.1824  1.9418 -0.9172
 3066SOL    HW220661   4.653   0.119  10.177  0.6946 -1.8426 -0.3850
 3067SOL     OW20662   2.100   4.424   4.813  1.1435  0.4395  0.7373
 3067SOL    HW120663   2.030   4.456   4.757  2.9972  0.5682 -1.4966
 3067SOL    HW220664   2.101   4.331   4.788  1.8356  0.4783  0.5956
 3068SOL     OW20665   3.914   4.679  12.263  0.4540 -0.6487  0.0216
 3068SOL    HW120666   3.983   4.719  12.210  1.4296 -0.7318  1.2213
 3068SOL    HW220667   3.946   4.698  12.351  3.3105  0.2445 -1.1856
 3069SOL     OW20668   0.070   0.947   3.584 -0.0930 -0.6071 -0.9009
 3069SOL    HW120669   0.133   0.912   3.521 -0.4231 -1.2368 -0.8835
 3069SOL    HW220670   0.032   0.868   3.622 -0.7222 -0.8823 -2.0820
 3070SOL     OW20671   1.371   1.441   8.557 -0.2020 -0.4458  0.4333
 3070SOL    HW120672   1.343   1.522   8.513  0.6549 -0.8492 -0.8653
 3070SOL    HW220673   1.384   1.471   8.646 -0.6231 -0.9310  0.6581
 3071SOL     OW20674   2.140   2.478   9.447 -0.3598  0.4293  0.6076
 3071SOL    HW120675   2.213   2.418   9.463  0.7328  1.4526 -0.5541
 3071SOL    HW220676   2.131   2.525   9.530 -3.1522  0.6884  0.1564
 3072SOL     OW20677   1.684   4.637   8.119 -0.0465  0.4282 -0.4000
 3072SOL    HW120678   1.750   4.650   8.051 -0.8195  2.5707 -0.7256
 3072SOL    HW220679   1.602   4.625   8.071  1.7893 -0.7873 -3.1998
 3073SOL     OW20680   3.019   4.227   7.378  0.6515 -0.5777 -0.0532
 3073SOL    HW120681   3.054   4.146   7.415 -1.3066 -0.2358  2.5124
 3073SOL    HW220682   2.959   4.179   7.321 -1.4575  0.9644  0.8903
 3074SOL     OW20683   0.299   0.737  10.563  0.0091 -1.0918 -0.1950
 3074SOL    HW120684   0.352   0.800  10.514 -0.0558  0.0551  1.2185
 3074SOL    HW220685   0.216   0.768  10.527 -0.3083 -2.2006 -0.4225
 3075SOL     OW20686   1.643   4.417  10.349  0.6914 -0.2535  0.2164
 3075SOL    HW120687   1.690   4.483  10.298  0.0751 -0.8045 -1.0764
 3075SOL    HW220688   1.611   4.452  10.432  0.6248  1.6026 -0.5820
 3076SOL     OW20689   3.940   3.191  14.625  0.3282 -0.0725  0.0441
 3076SOL    HW120690   3.902   3.126  14.684 -1.1127  0.5955 -0.1573
 3076SOL    HW220691   3.863   3.241  14.598  1.1930  0.4463 -1.4630
 3077SOL     OW20692   4.335   3.100   9.768 -0.0675  0.1455 -0.1689
 3077SOL    HW120693   4.331   3.185   9.724  0.4855 -0.4908 -1.4419
 3077SOL    HW220694   4.305   3.116   9.857 -2.3036  3.1131 -1.4468
 3078SOL     OW20695   1.013   1.258   8.439  0.1502  0.2535 -0.2740
 3078SOL    HW120696   1.106   1.242   8.452  0.2285  1.1021  0.1504
 3078SOL    HW220697   1.008   1.314   8.516  1.6018 -0.4171  0.3009
 3079SOL     OW20698   2.707   4.386   5.978  0.5716 -0.4689 -0.2291
 3079SOL    HW120699   2.721   4.305   5.929  0.3797 -1.0038  0.5985
 3079SOL    HW220700   2.789   4.384   6.027 -1.2210  0.0529  2.7925
 3080SOL     OW20701   2.203   2.993  14.774 -0.3485 -0.5747  0.4475
 3080SOL    HW120702   2.137   2.928  14.799  1.1054 -2.1739  0.0930
 3080SOL    HW220703   2.192   3.055  14.847 -3.2973 -1.3584  0.6791
 3081SOL     OW20704   3.384   2.973  11.229  0.6886 -0.2284  0.1763
 3081SOL    HW120705   3.408   2.888  11.267 -1.3466 -1.1738 -0.6329
 3081SOL    HW220706   3.458   3.029  11.247  2.7731 -2.9358  0.0894
 3082SOL     OW20707   3.693   0.561  10.369 -0.1641 -0.3994 -0.0138
 3082SOL    HW120708   3.744   0.484  10.343 -0.5197 -0.0971 -1.6246
 3082SOL    HW220709   3.655   0.531  10.451 -3.3488 -1.6405 -1.9589
 3083SOL     OW20710   2.398   0.011   6.317  0.3391  0.5209  0.4481
 3083SOL    HW120711   2.359   0.077   6.373 -2.2401  0.7028 -1.5465
 3083SOL    HW220712   2.320   4.700   6.274 -0.0523 -1.0915  2.5612
 3084SOL     OW20713   3.405   0.258   7.849  0.2926 -0.2595 -0.3420
 3084SOL    HW120714   3.414   0.348   7.818  0.0331  0.0294  0.3969
 3084SOL    HW220715   3.366   0.209   7.777 -1.3994  2.4256 -1.2681
 3085SOL     OW20716   3.196   3.994   4.744  0.6447  0.0541  0.0963
 3085SOL    HW120717   3.150   3.915   4.773 -0.3399  0.0600 -1.4181
 3085SOL    HW220718   3.147   4.061   4.791 -3.3693 -1.8859 -1.2791
 3086SOL     OW20719   2.545   0.121   8.703  1.0381 -0.4773 -0.1553
 3086SOL    HW120720   2.498   0.073   8.636 -0.6815 -0.2344  0.8872
 3086SOL    HW220721   2.553   0.206   8.660  2.9249 -0.7351 -0.3417
 3087SOL     OW20722   4.710   0.254   1.690  0.5736  0.2164 -0.2888
 3087SOL    HW120723   4.690   0.244   1.783  0.5725 -0.2643 -0.3405
 3087SOL    HW220724   0.065   0.305   1.693 -0.5005  1.9295 -0.8099
 3088SOL     OW20725   4.185   2.557  13.281  0.2710  0.0052 -0.2869
 3088SOL    HW120726   4.186   2.525  13.371 -3.2365  0.0580 -0.2429
 3088SOL    HW220727   4.141   2.482  13.243  0.8858 -0.6732  0.3198
 3089SOL     OW20728   2.772   1.029   6.829 -0.9193  0.2493  0.3329
 3089SOL    HW120729   2.774   1.046   6.735  1.5315  1.2625  0.5751
 3089SOL    HW220730   2.862   1.032   6.863 -0.9740 -1.9962  0.7141
 3090SOL     OW20731   1.663   1.309   9.245 -0.0876 -0.2207 -0.1077
 3090SOL    HW120732   1.606   1.239   9.278  0.1292 -0.5218 -0.3749
 3090SOL    HW220733   1.634   1.319   9.155 -0.6283 -0.1532  0.0712
 3091SOL     OW20734   4.222   3.433   9.932 -0.1808 -0.5614  0.4809
 3091SOL    HW120735   4.246   3.406   9.844 -2.1774  2.2771 -0.9677
 3091SOL    HW220736   4.136   3.392   9.942 -0.3193 -0.5830 -0.7970
 3092SOL     OW20737   2.021   4.199   1.451 -0.1210  0.0132 -0.1509
 3092SOL    HW120738   2.053   4.115   1.419 -3.5124 -2.0201  1.6692
 3092SOL    HW220739   2.066   4.194   1.536 -1.0016  0.9745  0.3829
 3093SOL     OW20740   0.402   2.880  14.666 -0.0183  0.1582 -0.1289
 3093SOL    HW120741   0.338   2.810  14.651  0.1658 -0.1349  0.4400
 3093SOL    HW220742   0.366   2.926  14.743 -0.4023 -0.5138  0.0913
 3094SOL     OW20743   2.333   3.947   8.536  0.0519  0.5449  0.2162
 3094SOL    HW120744   2.351   4.034   8.571 -1.1496  0.4758  0.9729
 3094SOL    HW220745   2.257   3.915   8.585  0.5782 -2.4544 -0.8906
 3095SOL     OW20746   3.933   1.205   1.943 -0.1539 -0.5706 -0.4115
 3095SOL    HW120747   4.008   1.258   1.968  1.7341 -2.0680 -2.9161
 3095SOL    HW220748   3.947   1.137   2.008 -0.6154 -0.2673  0.0033
 3096SOL     OW20749   2.189   3.364   5.780  0.1696  0.7668  0.3992
 3096SOL    HW120750   2.135   3.421   5.725 -1.5032 -0.8576  0.3468
 3096SOL    HW220751   2.144   3.381   5.863 -1.8749 -2.0359 -0.1505
 3097SOL     OW20752   3.137   0.760   9.592  0.5851 -0.4993 -0.2760
 3097SOL    HW120753   3.073   0.824   9.561  3.2223  2.9058  1.3641
 3097SOL    HW220754   3.083   0.686   9.620 -0.6174  0.4062 -0.2488
 3098SOL     OW20755   1.638   3.626   5.665 -0.0766 -1.0472  0.1523
 3098SOL    HW120756   1.641   3.613   5.759 -2.2201 -2.9384 -0.0393
 3098SOL    HW220757   1.628   3.534   5.642 -1.8581 -1.0090  0.8465
 3099SOL     OW20758   4.605   4.241   7.297 -0.5843 -1.1713 -0.3574
 3099SOL    HW120759   4.616   4.293   7.217 -1.6809  0.3928  0.4854
 3099SOL    HW220760   4.529   4.186   7.280 -2.0540  0.3273  1.2932
 3100SOL     OW20761   3.937   4.310   7.368  0.3099  0.5637  0.1455
 3100SOL    HW120762   3.961   4.290   7.458  0.5277 -1.5689 -0.3858
 3100SOL    HW220763   3.847   4.342   7.374 -0.0094 -0.5644  1.2999
 3101SOL     OW20764   4.044   3.001  17.309  0.2077 -0.6721  0.1031
 3101SOL    HW120765   4.043   2.944  17.386  1.4938 -1.7315 -0.6736
 3101SOL    HW220766   3.969   3.057  17.329 -0.2166 -0.6589 -1.5276
 3102SOL     OW20767   2.902   0.968   2.137  0.2391  0.3140  0.5069
 3102SOL    HW120768   2.851   0.892   2.110 -1.7095  2.5724 -2.0883
 3102SOL    HW220769   2.984   0.958   2.089  1.4631  2.2178  2.2200
 3103SOL     OW20770   1.220   3.206   5.169  0.2594 -0.3759  0.1772
 3103SOL    HW120771   1.298   3.261   5.159 -0.6645  1.1130  1.0701
 3103SOL    HW220772   1.219   3.180   5.261 -0.9732  0.2185  0.3398
 3104SOL     OW20773   0.503   2.385   8.188 -0.1130  0.2411 -0.2295
 3104SOL    HW120774   0.551   2.468   8.193  1.2506 -0.5693  0.2030
 3104SOL    HW220775   0.444   2.401   8.261 -0.7004 -1.2372 -0.3994
 3105SOL     OW20776   1.144   3.672   3.650 -0.3431  0.5605 -0.2250
 3105SOL    HW120777   1.108   3.592   3.612  1.6752 -0.6522  0.3989
 3105SOL    HW220778   1.104   3.740   3.595 -0.9857 -2.1418 -3.0938
 3106SOL     OW20779   3.559   4.195   3.781  0.5917 -0.1582 -0.1011
 3106SOL    HW120780   3.562   4.102   3.761 -0.6495 -0.3961  0.8584
 3106SOL    HW220781   3.483   4.213   3.725 -0.3938  0.3295  1.3951
 3107SOL     OW20782   1.642   1.299   7.076 -0.2533  0.4197 -0.2565
 3107SOL    HW120783   1.610   1.317   6.988 -2.2452 -0.5916  0.2656
 3107SOL    HW220784   1.639   1.381   7.126 -0.2397 -0.1413  0.6761
 3108SOL     OW20785   1.012   4.461   5.325  0.2834 -0.8540 -0.2839
 3108SOL    HW120786   0.918   4.446   5.334  0.1730 -0.1986 -0.3020
 3108SOL    HW220787   1.039   4.403   5.254  0.6693 -0.2469 -0.6323
 3109SOL     OW20788   1.665   0.826   3.304 -0.1378 -0.0377 -0.3751
 3109SOL    HW120789   1.645   0.876   3.226 -0.3016 -0.5016 -0.6303
 3109SOL    HW220790   1.666   0.740   3.262 -0.3729 -0.2296  0.0099
 3110SOL     OW20791   4.655   0.533   1.781  0.3627  0.0993  0.0591
 3110SOL    HW120792   4.589   0.557   1.716  0.9593  1.0225 -0.2124
 3110SOL    HW220793   4.723   0.488   1.731  0.0270 -0.0800 -0.2328
 3111SOL     OW20794   3.474   3.889   0.551  0.0333  0.1041  0.5242
 3111SOL    HW120795   3.549   3.944   0.528  0.1786 -0.4366 -0.2836
 3111SOL    HW220796   3.405   3.926   0.496  1.0954 -0.2589 -1.0558
 3112SOL     OW20797   1.123   3.002   8.861 -0.6563  0.0167  0.2064
 3112SOL    HW120798   1.088   2.954   8.936 -0.0698  0.6325  0.8659
 3112SOL    HW220799   1.049   3.048   8.820 -0.3057 -0.3117 -0.7989
 3113SOL     OW20800   3.600   0.694   0.473 -0.2436 -0.1737 -0.3803
 3113SOL    HW120801   3.518   0.737   0.497 -0.0301 -1.3466  2.4640
 3113SOL    HW220802   3.636   0.757   0.411 -1.3860  3.7042  2.9115
 3114SOL     OW20803   4.086   1.118   8.952 -0.1819  0.3121 -0.0876
 3114SOL    HW120804   4.063   1.191   8.895 -0.9475  0.8571  0.9069
 3114SOL    HW220805   4.056   1.041   8.903  0.2015  0.5036 -0.6192
 3115SOL     OW20806   4.296   1.284   3.587 -0.1416  0.0460  0.8028
 3115SOL    HW120807   4.319   1.208   3.534 -0.7692  1.9141 -2.1972
 3115SOL    HW220808   4.373   1.340   3.572 -0.9085  0.6652 -0.9009
 3116SOL     OW20809   2.779   4.327   2.834 -0.3906  0.0636 -0.2604
 3116SOL    HW120810   2.684   4.311   2.836 -0.2064 -0.8028  2.0075
 3116SOL    HW220811   2.812   4.239   2.854  0.7873  0.6948  0.5387
 3117SOL     OW20812   4.639   1.677   5.106  0.1323  0.2802  0.4023
 3117SOL    HW120813   4.617   1.590   5.073 -0.9040  0.7041 -0.0217
 3117SOL    HW220814   4.674   1.719   5.027  0.1829 -0.6134 -0.0404
 3118SOL     OW20815   0.124   2.872   6.078  0.1317  0.0927  0.5218
 3118SOL    HW120816   0.030   2.879   6.097  0.1529  1.8215 -0.0483
 3118SOL    HW220817   0.118   2.846   5.986 -0.3864 -0.7888  0.7922
 3119SOL     OW20818   1.700   2.223  15.881  0.7771 -0.4529 -0.4325
 3119SOL    HW120819   1.744   2.239  15.798  1.8617 -1.4538 -0.0598
 3119SOL    HW220820   1.780   2.210  15.933 -1.4553 -0.9484  2.8899
 3120SOL     OW20821   2.476   1.442   2.371 -0.0122 -0.0492  0.3453
 3120SOL    HW120822   2.508   1.446   2.281  1.4062  0.0405  0.8574
 3120SOL    HW220823   2.555   1.407   2.412 -0.7406 -0.2450  1.5698
 3121SOL     OW20824   3.527   2.284  12.228 -0.0106 -0.0423 -0.2505
 3121SOL    HW120825   3.613   2.322  12.244 -0.0588  0.1035 -0.3346
 3121SOL    HW220826   3.489   2.288  12.316 -0.4313 -1.9427 -0.3587
 3122SOL     OW20827   0.065   3.507   6.776 -0.0876 -0.0733 -0.4074
 3122SOL    HW120828   0.034   3.597   6.777  1.5288  0.4766  1.5147
 3122SOL    HW220829   0.006   3.457   6.720  1.0541  0.3049 -1.9422
 3123SOL     OW20830   3.819   1.687   7.527  0.4547 -0.6240  0.2834
 3123SOL    HW120831   3.912   1.693   7.550  0.3009  0.1668  0.6702
 3123SOL    HW220832   3.831   1.647   7.441  0.4526 -0.3130  0.1397
 3124SOL     OW20833   3.265   0.023   4.240  0.5630 -0.4936  0.0575
 3124SOL    HW120834   3.312   4.666   4.227 -0.6030 -1.4971  2.1614
 3124SOL    HW220835   3.252   0.052   4.150 -0.0293  0.6567  0.5119
 3125SOL     OW20836   3.468   4.346  14.708  0.0109  0.1290  0.4507
 3125SOL    HW120837   3.508   4.260  14.703 -0.3033  0.0584 -0.7924
 3125SOL    HW220838   3.431   4.349  14.620  1.1881 -2.9666 -0.1375
 3126SOL     OW20839   1.166   1.448   4.362  0.2111 -0.1764  0.2943
 3126SOL    HW120840   1.219   1.417   4.288  0.0101 -0.4198  0.2526
 3126SOL    HW220841   1.089   1.480   4.314 -0.6989 -0.5479  1.5248
 3127SOL     OW20842   0.900   0.942  17.218  0.2279 -0.1026  0.1347
 3127SOL    HW120843   0.968   0.945  17.151  0.7155  1.8396  0.6999
 3127SOL    HW220844   0.933   1.010  17.278 -1.5598  0.5296  0.4067
 3128SOL     OW20845   1.226   0.288   6.687  0.1451 -0.3669  0.1907
 3128SOL    HW120846   1.155   0.242   6.731  0.5712  0.3668  1.6388
 3128SOL    HW220847   1.197   0.276   6.597  1.7237  0.9791 -0.4993
 3129SOL     OW20848   2.895   4.664  12.213 -0.4933  0.1980 -0.0763
 3129SOL    HW120849   2.943   0.008  12.167 -0.8490 -0.8808 -2.0800
 3129SOL    HW220850   2.814   4.666  12.161 -0.2893 -0.9284 -0.4203
 3130SOL     OW20851   1.625   0.928  10.011  0.0733 -0.4100  0.2064
 3130SOL    HW120852   1.657   1.014  10.038 -0.4503 -0.0504 -0.3064
 3130SOL    HW220853   1.681   0.901   9.939  0.3516 -0.2099  0.3486
 3131SOL     OW20854   3.924   1.777   8.119  0.2078 -0.8056 -0.8404
 3131SOL    HW120855   3.936   1.829   8.199  0.7697  0.0095 -1.4513
 3131SOL    HW220856   3.874   1.706   8.160  1.9551 -0.5723  1.7114
 3132SOL     OW20857   0.400   1.550  14.010  0.5348 -0.0466 -0.0176
 3132SOL    HW120858   0.494   1.534  14.006  0.3119 -1.2633 -0.4538
 3132SOL    HW220859   0.402   1.608  14.086  2.5339 -0.1994  0.0406
 3133SOL     OW20860   2.782   4.603   7.257 -0.1999 -0.6367 -0.4977
 3133SOL    HW120861   2.743   4.580   7.172 -2.0286 -2.5885  0.8738
 3133SOL    HW220862   2.818   4.687   7.228 -0.9351  0.1333  0.8104
 3134SOL     OW20863   1.211   1.050  17.680  0.5864  0.1794  0.3339
 3134SOL    HW120864   1.202   1.057   0.072 -0.8912  0.0965  0.1963
 3134SOL    HW220865   1.186   0.959  17.667  0.5995 -0.0251  1.6936
 3135SOL     OW20866   1.493   4.261   6.123 -0.2006 -0.0524 -0.4773
 3135SOL    HW120867   1.455   4.198   6.062  0.7116 -0.9873 -0.0837
 3135SOL    HW220868   1.553   4.308   6.065 -2.0011 -0.2477 -2.4960
 3136SOL     OW20869   0.405   4.624   7.192  0.1606 -0.1863  0.0045
 3136SOL    HW120870   0.362   4.670   7.120  1.7425 -2.0384 -2.0786
 3136SOL    HW220871   0.484   4.678   7.197 -0.6366  1.1054 -1.3001
 3137SOL     OW20872   0.220   1.198   7.138  0.3324  0.2272 -0.2658
 3137SOL    HW120873   0.180   1.245   7.211 -1.0038 -0.8962 -0.2802
 3137SOL    HW220874   0.308   1.237   7.132 -0.3021  1.5006 -1.3273
 3138SOL     OW20875   0.246   1.018   6.199 -0.1200  0.4191  0.1214
 3138SOL    HW120876   0.293   1.099   6.181  1.2252 -0.6149 -0.9473
 3138SOL    HW220877   0.272   0.969   6.121 -0.2006  0.3155  0.1597
 3139SOL     OW20878   1.129   3.304   3.861 -0.2505  0.1190 -0.2890
 3139SOL    HW120879   1.214   3.335   3.830  0.0697 -1.2002 -0.7392
 3139SOL    HW220880   1.062   3.356   3.816  0.0684 -0.2117 -1.1403
 3140SOL     OW20881   4.383   1.614   6.502 -0.0187 -0.3879 -0.2801
 3140SOL    HW120882   4.321   1.572   6.443  1.1848 -2.8479  0.2339
 3140SOL    HW220883   4.463   1.580   6.462  0.8119  0.6260  0.5130
 3141SOL     OW20884   0.186   0.630   7.170  0.0438  0.1745 -0.3103
 3141SOL    HW120885   0.279   0.613   7.186 -0.0239  0.2045  0.1057
 3141SOL    HW220886   0.198   0.720   7.138 -0.7372  1.4274  2.9210
 3142SOL     OW20887   3.409   2.420   3.725  0.2734  0.4599  0.2522
 3142SOL    HW120888   3.334   2.478   3.733 -1.5644 -1.9923  0.9022
 3142SOL    HW220889   3.463   2.467   3.661  0.7348  1.3199  1.2796
 3143SOL     OW20890   1.846   2.875   5.415  0.1072 -0.3874  0.4637
 3143SOL    HW120891   1.929   2.863   5.461 -0.8065 -1.8046  1.6953
 3143SOL    HW220892   1.847   2.965   5.382 -0.7111 -0.8889 -0.9415
 3144SOL     OW20893   2.263   4.527   7.542 -0.2320 -0.1668 -0.3682
 3144SOL    HW120894   2.284   4.465   7.472  2.3770  1.6188 -1.1550
 3144SOL    HW220895   2.248   4.476   7.622 -1.0990  0.1095 -0.3575
 3145SOL     OW20896   2.739   3.074   0.287 -0.4386 -0.4269  0.2621
 3145SOL    HW120897   2.654   3.117   0.297  0.0573  0.5671  0.0901
 3145SOL    HW220898   2.799   3.143   0.262 -2.2589  0.7753 -0.8295
 3146SOL     OW20899   3.065   0.576   2.654  0.2771  0.4493  0.6105
 3146SOL    HW120900   3.148   0.621   2.665 -0.7366  2.4752 -0.0472
 3146SOL    HW220901   3.088   0.484   2.642 -1.3371 -0.1612  2.0538
 3147SOL     OW20902   0.260   3.717   4.098  0.0137  0.0384  0.0153
 3147SOL    HW120903   0.286   3.626   4.115  1.6802  0.2769 -1.3657
 3147SOL    HW220904   0.314   3.727   4.020 -1.5207  0.2015 -1.0439
 3148SOL     OW20905   0.402   0.800  16.669  0.2452 -0.1605  0.0770
 3148SOL    HW120906   0.491   0.829  16.688 -0.4174  0.8856  1.5879
 3148SOL    HW220907   0.382   0.750  16.748  1.3739  3.4590  2.6673
 3149SOL     OW20908   4.431   4.198  12.694 -0.3189  0.8100  0.2496
 3149SOL    HW120909   4.427   4.158  12.608  1.1889  2.1113 -0.4285
 3149SOL    HW220910   4.523   4.179  12.715 -0.8372 -1.2866  0.6902
 3150SOL     OW20911   1.917   2.358   2.107 -0.5607 -0.2414 -0.6584
 3150SOL    HW120912   1.990   2.327   2.053  0.7989 -1.5579  1.9355
 3150SOL    HW220913   1.859   2.392   2.039  0.4039  1.1988 -0.7482
 3151SOL     OW20914   2.345   2.703  16.933 -0.0430  0.0231 -0.6977
 3151SOL    HW120915   2.410   2.700  17.003  0.3993 -1.7250 -1.1818
 3151SOL    HW220916   2.264   2.689  16.981  0.9070  0.8593  1.1311
 3152SOL     OW20917   1.932   2.975   0.436 -0.2036  0.2461 -0.2841
 3152SOL    HW120918   1.927   2.966   0.341 -0.6527 -0.6021 -0.1800
 3152SOL    HW220919   1.851   2.937   0.470  0.8159 -3.2494 -1.7563
 3153SOL     OW20920   4.254   1.752   5.125  0.7249 -0.5902  0.3200
 3153SOL    HW120921   4.246   1.658   5.142  3.5652 -1.2861 -2.0086
 3153SOL    HW220922   4.193   1.786   5.190 -1.9176 -0.5581 -2.1620
 3154SOL     OW20923   0.803   4.390   3.431  0.1584  0.2745 -0.1550
 3154SOL    HW120924   0.762   4.308   3.459 -0.5398 -0.1987 -2.5925
 3154SOL    HW220925   0.754   4.457   3.479  2.4321  1.2247  0.8733
 3155SOL     OW20926   2.625   1.421   3.654 -0.1092  0.2851  0.3902
 3155SOL    HW120927   2.683   1.361   3.608 -0.7934 -0.4555  0.4733
 3155SOL    HW220928   2.662   1.417   3.742 -1.1669 -2.3834  0.7227
 3156SOL     OW20929   4.481   4.039   2.620 -0.1378  0.1456  0.0439
 3156SOL    HW120930   4.501   3.948   2.598 -2.0610  0.0534 -1.3440
 3156SOL    HW220931   4.572   4.064   2.632 -0.6392  0.5400  3.0807
 3157SOL     OW20932   1.700   1.782   4.527  0.6436  0.0337 -0.7685
 3157SOL    HW120933   1.794   1.792   4.514  0.6408  0.8062 -0.1901
 3157SOL    HW220934   1.669   1.743   4.445  1.5804 -0.8716 -0.6892
 3158SOL     OW20935   2.461   0.406   2.505  0.9470 -0.0867  0.1626
 3158SOL    HW120936   2.465   0.501   2.491 -1.4146  0.1264  0.8214
 3158SOL    HW220937   2.458   0.363   2.420  1.0897 -1.7798  1.0096
 3159SOL     OW20938   0.205   1.004   1.795  0.6137  0.1948  0.5023
 3159SOL    HW120939   0.189   1.062   1.721  1.4016 -2.6726 -1.9180
 3159SOL    HW220940   0.190   1.061   1.870  0.4793  1.1006 -0.2098
 3160SOL     OW20941   3.075   2.700   6.308 -0.0366 -0.6361 -0.3503
 3160SOL    HW120942   2.991   2.670   6.344 -1.1465  1.0582 -1.5350
 3160SOL    HW220943   3.039   2.720   6.222  0.1661 -0.9742 -0.5150
 3161SOL     OW20944   2.548   2.284  10.394  0.4365  0.1799  0.1842
 3161SOL    HW120945   2.576   2.210  10.341 -1.5544  0.1550 -0.8555
 3161SOL    HW220946   2.480   2.241  10.447 -0.1101  1.0871  0.2307
 3162SOL     OW20947   3.977   3.005   3.680 -0.0283 -0.3382  0.3608
 3162SOL    HW120948   3.996   3.099   3.684 -0.3328 -0.4002  3.4331
 3162SOL    HW220949   4.059   2.989   3.633 -1.5790 -1.0542 -2.1072
 3163SOL     OW20950   1.452   3.303   5.070 -0.1256 -0.1908 -0.2589
 3163SOL    HW120951   1.482   3.297   4.979  0.4974 -2.5491  0.1006
 3163SOL    HW220952   1.507   3.232   5.103 -2.5071 -0.5005  2.9460
 3164SOL     OW20953   2.386   1.019   5.940 -0.1058  0.1652 -0.5946
 3164SOL    HW120954   2.473   1.057   5.931  0.0754  0.2401  1.4146
 3164SOL    HW220955   2.335   1.085   5.892  0.0402 -0.7426 -1.9751
 3165SOL     OW20956   1.780   3.157   3.260  0.5286 -0.1325  0.2676
 3165SOL    HW120957   1.852   3.114   3.213  0.3090 -0.3831  0.1553
 3165SOL    HW220958   1.812   3.247   3.260  0.1229  0.0088  1.8987
 3166SOL     OW20959   4.057   1.657   9.731  0.1817 -0.3363  0.4578
 3166SOL    HW120960   3.973   1.675   9.689  0.1087  0.7696  1.0777
 3166SOL    HW220961   4.039   1.702   9.814 -0.7866 -0.9052  0.5488
 3167SOL     OW20962   1.509   3.359   8.912 -0.3574 -0.2299  0.9733
 3167SOL    HW120963   1.543   3.328   8.996  2.8071 -1.5544 -0.8109
 3167SOL    HW220964   1.445   3.288   8.902  1.4660 -1.9617  1.6396
 3168SOL     OW20965   3.897   3.161  13.237  1.0567  0.6803  0.5848
 3168SOL    HW120966   3.887   3.224  13.308  2.7492  1.3249  0.2529
 3168SOL    HW220967   3.849   3.084  13.268  1.3952  0.3214  0.2138
 3169SOL     OW20968   0.240   0.220   5.027 -0.3807 -0.1136 -0.1668
 3169SOL    HW120969   0.195   0.217   5.112 -0.6231 -2.8964 -0.3996
 3169SOL    HW220970   0.174   0.197   4.962 -0.7750  3.5699 -1.0395
 3170SOL     OW20971   2.797   1.092   0.904 -0.1967  0.1155 -0.7609
 3170SOL    HW120972   2.859   1.020   0.894 -0.1134 -0.1023  1.3370
 3170SOL    HW220973   2.855   1.166   0.922  0.2282 -0.0444 -1.4774
 3171SOL     OW20974   1.062   1.089   4.842 -0.1262  0.1137  0.3377
 3171SOL    HW120975   1.151   1.069   4.813  0.5583  1.0472  1.8096
 3171SOL    HW220976   1.072   1.184   4.840  2.0624 -0.1081  1.7554
 3172SOL     OW20977   3.928   3.234   9.702 -0.2283  0.0532 -0.2266
 3172SOL    HW120978   3.903   3.267   9.788 -2.0371 -1.2360 -0.2760
 3172SOL    HW220979   3.900   3.311   9.651  1.3394  0.4703 -0.4697
 3173SOL     OW20980   3.454   0.228   5.163 -0.5928 -0.0847  0.0409
 3173SOL    HW120981   3.494   0.185   5.239  0.2362  0.1311 -0.2797
 3173SOL    HW220982   3.517   0.208   5.094 -1.4451 -0.4409 -0.6278
 3174SOL     OW20983   4.412   1.899   5.288  1.0432 -0.2654  0.2883
 3174SOL    HW120984   4.495   1.861   5.318  0.9763 -0.7300 -0.1132
 3174SOL    HW220985   4.384   1.834   5.223  2.0694 -1.0809  0.6572
 3175SOL     OW20986   2.432   1.559   4.305 -0.0370  0.4256  0.0028
 3175SOL    HW120987   2.373   1.607   4.247 -0.2697 -0.3092 -0.3639
 3175SOL    HW220988   2.380   1.554   4.385  1.0997  0.2017  0.7274
 3176SOL     OW20989   4.012   0.227  15.082  0.2693  0.5524 -0.4302
 3176SOL    HW120990   3.929   0.203  15.124  0.4152 -1.7846 -1.5089
 3176SOL    HW220991   4.049   0.282  15.151 -0.2243  1.0564 -0.5652
 3177SOL     OW20992   1.911   1.867  13.563 -0.1641 -0.0942 -0.2648
 3177SOL    HW120993   1.845   1.903  13.622  0.7004 -1.1394  1.3452
 3177SOL    HW220994   1.882   1.882  13.474 -1.5515  0.2680  0.2509
 3178SOL     OW20995   4.371   2.999  11.351 -0.0192 -0.4507 -0.3536
 3178SOL    HW120996   4.310   2.990  11.424 -0.4110  2.1468 -0.3627
 3178SOL    HW220997   4.400   2.909  11.334 -0.7550 -0.5016 -1.3311
 3179SOL     OW20998   0.958   3.717   7.250 -0.2538 -0.2499  0.3908
 3179SOL    HW120999   0.920   3.767   7.178 -0.2200 -0.0827  0.4878
 3179SOL    HW221000   0.893   3.722   7.319 -0.1209  0.8816  0.4338
 3180SOL     OW21001   1.250   3.111   7.825 -0.7657  0.1415  0.3579
 3180SOL    HW121002   1.165   3.106   7.781 -1.2193 -0.5263  1.3102
 3180SOL    HW221003   1.234   3.196   7.865 -0.6657  0.2622  0.1418
 3181SOL     OW21004   0.831   1.954  10.841 -0.2993  0.2354  0.1463
 3181SOL    HW121005   0.744   1.985  10.815 -1.8780 -2.8253  1.9026
 3181SOL    HW221006   0.877   1.956  10.757 -1.3884 -0.0976 -0.4604
 3182SOL     OW21007   3.666   2.767   6.787 -0.2365  0.4663  0.2732
 3182SOL    HW121008   3.752   2.764   6.747  0.1034 -0.6806  1.0817
 3182SOL    HW221009   3.673   2.710   6.864  2.0721 -0.0667 -0.3509
 3183SOL     OW21010   3.094   2.405   1.455  0.5666 -0.3458  0.4089
 3183SOL    HW121011   3.185   2.378   1.463  0.6872  0.3518  1.4422
 3183SOL    HW221012   3.051   2.320   1.463  0.4964 -0.1414  2.1688
 3184SOL     OW21013   1.260   3.645   6.564  0.4238 -0.1924 -0.2398
 3184SOL    HW121014   1.243   3.685   6.649  1.6809 -0.6014  0.1945
 3184SOL    HW221015   1.186   3.584   6.559  0.1911 -0.0023  0.8978
 3185SOL     OW21016   4.139   3.413   1.339  0.0932 -0.4614 -0.5341
 3185SOL    HW121017   4.165   3.503   1.358 -0.4397 -0.1009 -1.5046
 3185SOL    HW221018   4.135   3.377   1.428 -0.8039  2.4901  0.6081
 3186SOL     OW21019   1.191   3.885   9.412  0.0710  0.2167  0.0663
 3186SOL    HW121020   1.202   3.797   9.449 -0.9217 -0.8635 -2.1524
 3186SOL    HW221021   1.279   3.920   9.402  0.2756  0.0143  1.2548
 3187SOL     OW21022   3.306   3.556  12.596 -0.8754 -0.3342 -0.3341
 3187SOL    HW121023   3.334   3.544  12.505 -1.1554  0.1776 -0.4831
 3187SOL    HW221024   3.292   3.650  12.592 -1.8838 -0.5747 -2.4220
 3188SOL     OW21025   0.265   3.406   4.161 -0.1036 -0.4234 -0.1499
 3188SOL    HW121026   0.258   3.365   4.247  1.4964 -2.4120 -0.9445
 3188SOL    HW221027   0.308   3.338   4.110  0.2131 -0.8646  0.7106
 3189SOL     OW21028   0.282   2.755  14.112  0.1766 -0.1868 -0.1532
 3189SOL    HW121029   0.282   2.671  14.067  0.5712  0.6727 -1.7573
 3189SOL    HW221030   0.192   2.785  14.120 -0.4917 -2.4953  0.9475
 3190SOL     OW21031   3.348   1.636   6.130 -0.0864  0.0854 -0.0522
 3190SOL    HW121032   3.360   1.542   6.138 -1.8233 -0.1641 -0.4005
 3190SOL    HW221033   3.412   1.674   6.190  1.8802  0.1934 -2.2020
 3191SOL     OW21034   2.472   0.378   7.005  0.0219 -0.5068 -0.1389
 3191SOL    HW121035   2.534   0.451   6.995 -3.0413  2.5173  3.0936
 3191SOL    HW221036   2.428   0.413   7.082 -0.4330  0.7998 -0.9941
 3192SOL     OW21037   0.345   3.024   4.660  0.6986 -0.2676  0.3592
 3192SOL    HW121038   0.420   2.989   4.612 -0.4021 -1.3002 -0.6084
 3192SOL    HW221039   0.277   2.974   4.616  1.8488 -1.7564  0.2670
 3193SOL     OW21040   1.880   1.602   6.946 -0.4515  0.4440  0.0475
 3193SOL    HW121041   1.815   1.638   7.006 -2.3896 -2.0583 -0.5351
 3193SOL    HW221042   1.919   1.532   6.999  1.8788  2.6918  1.2695
 3194SOL     OW21043   3.574   1.003   1.914 -0.0229 -0.1758 -0.0632
 3194SOL    HW121044   3.580   1.089   1.956 -1.8924 -0.3026  0.4591
 3194SOL    HW221045   3.636   1.015   1.842  0.7061 -2.7679  0.1291
 3195SOL     OW21046   3.340   0.446   6.234  0.3038  0.1357 -0.3615
 3195SOL    HW121047   3.375   0.369   6.191  1.8122  0.6513 -0.0544
 3195SOL    HW221048   3.247   0.441   6.211  0.1509  1.4919 -0.0512
 3196SOL     OW21049   1.509   1.047   5.466  0.9151 -0.3178 -0.2632
 3196SOL    HW121050   1.417   1.027   5.481  1.5424 -1.6259  1.9079
 3196SOL    HW221051   1.498   1.122   5.408 -0.0844  0.0411  0.3757
 3197SOL     OW21052   1.597   0.555   9.651 -0.2543 -0.2857  0.8870
 3197SOL    HW121053   1.511   0.514   9.647 -0.2359 -0.2601  0.1787
 3197SOL    HW221054   1.577   0.637   9.696  2.5336  0.9628 -0.1367
 3198SOL     OW21055   0.369   1.817   5.931  0.2840  0.3119  0.6764
 3198SOL    HW121056   0.383   1.878   6.003 -3.4299 -0.0264  1.6894
 3198SOL    HW221057   0.447   1.763   5.944 -0.1199 -0.3801  0.2910
 3199SOL     OW21058   3.275   1.855  15.283 -0.0882  0.4359  0.2775
 3199SOL    HW121059   3.319   1.810  15.355 -0.0724  1.4853  0.9389
 3199SOL    HW221060   3.213   1.791  15.249 -0.5594  1.0600 -0.0318
 3200SOL     OW21061   1.548   0.430   6.579 -0.2138 -0.7171 -0.0423
 3200SOL    HW121062   1.614   0.362   6.564 -0.2297 -0.4488 -1.3191
 3200SOL    HW221063   1.530   0.456   6.488 -1.2857  0.1596  0.4277
 3201SOL     OW21064   0.603   4.046   6.819  0.1316 -0.2223  0.1070
 3201SOL    HW121065   0.551   4.061   6.740  1.2651  0.7936 -0.4286
 3201SOL    HW221066   0.588   3.952   6.831  0.8131 -0.3155  0.2307
 3202SOL     OW21067   2.053   4.306   5.712  0.0656 -0.2293 -0.7326
 3202SOL    HW121068   2.046   4.266   5.799  2.1720  1.9299  0.4155
 3202SOL    HW221069   2.117   4.249   5.670  0.1801  1.3799 -2.7484
 3203SOL     OW21070   4.345   0.760   6.644 -0.3516  0.2004  0.4027
 3203SOL    HW121071   4.331   0.852   6.622 -0.2304 -0.0195 -0.5955
 3203SOL    HW221072   4.387   0.764   6.730  0.2427  1.2350  0.0583
 3204SOL     OW21073   4.689   4.656   2.707  0.4644  0.3306  0.0195
 3204SOL    HW121074   0.033   4.603   2.747  0.6064  0.7984  0.3874
 3204SOL    HW221075   4.616   4.619   2.757  0.6419 -1.0780 -0.7476
 3205SOL     OW21076   0.366   3.740   3.487 -0.4642  0.0738 -0.0334
 3205SOL    HW121077   0.277   3.716   3.462 -0.7614  1.1471 -0.0179
 3205SOL    HW221078   0.377   3.653   3.526  0.3575  0.6142  0.9403
 3206SOL     OW21079   4.674   0.996   7.526  0.2066 -0.0100 -0.2893
 3206SOL    HW121080   0.023   1.009   7.585 -0.6892  0.2244  0.7923
 3206SOL    HW221081   4.692   0.908   7.495 -3.8371 -0.6326 -0.8594
 3207SOL     OW21082   0.571   0.058   5.912 -0.1010  0.2885  0.4177
 3207SOL    HW121083   0.488   0.032   5.952 -0.6407  0.4877 -0.5509
 3207SOL    HW221084   0.605   0.120   5.977  1.2716  1.7782 -1.6922
 3208SOL     OW21085   4.153   1.871   3.109  0.0064 -0.1571 -0.6373
 3208SOL    HW121086   4.205   1.935   3.061 -1.6843  2.0193  0.4416
 3208SOL    HW221087   4.162   1.900   3.199  0.3494 -0.9614 -0.4075
 3209SOL     OW21088   0.853   0.755   8.507 -0.2115 -0.6009  0.1071
 3209SOL    HW121089   0.857   0.787   8.597 -0.1906  1.9137 -0.8050
 3209SOL    HW221090   0.776   0.699   8.499 -0.6424  0.3236 -2.0563
 3210SOL     OW21091   3.111   3.362   5.469  0.3934  0.4522  0.3280
 3210SOL    HW121092   3.034   3.370   5.524 -0.5029  0.9525 -0.9890
 3210SOL    HW221093   3.145   3.284   5.511 -0.7373 -0.2445 -0.0560
 3211SOL     OW21094   1.440   3.117   6.957  0.5552 -0.3830 -0.2498
 3211SOL    HW121095   1.431   3.185   6.890 -1.2538  2.1909  2.6200
 3211SOL    HW221096   1.536   3.120   6.951  0.5630  1.9950  1.1151
 3212SOL     OW21097   0.437   3.409   9.056 -0.0924  0.0965  0.2068
 3212SOL    HW121098   0.495   3.427   8.982 -1.9319  1.1721 -0.9810
 3212SOL    HW221099   0.365   3.471   9.047  0.6549  1.1917  1.7664
 3213SOL     OW21100   3.816   0.095   6.434 -0.0170 -0.3369 -0.0665
 3213SOL    HW121101   3.905   0.116   6.406  0.6686 -2.0985  0.7686
 3213SOL    HW221102   3.838   0.034   6.504 -0.3040 -0.3085  0.0480
 3214SOL     OW21103   1.582   3.943  14.612 -0.2220 -0.2968 -0.2126
 3214SOL    HW121104   1.544   4.013  14.559 -0.3066  0.7304  1.2361
 3214SOL    HW221105   1.632   3.995  14.674 -0.5739 -0.3718  0.1302
 3215SOL     OW21106   2.755   4.504   0.218 -0.6349  0.0681  0.1604
 3215SOL    HW121107   2.796   4.564   0.280  0.0494 -0.5797  0.3249
 3215SOL    HW221108   2.686   4.555   0.174 -1.7754 -0.8199  0.9093
 3216SOL     OW21109   4.155   0.392   4.293 -0.2971 -0.4345 -0.2817
 3216SOL    HW121110   4.182   0.436   4.212  2.3319 -0.0946  0.7872
 3216SOL    HW221111   4.174   0.304   4.261  0.9141  0.1939 -1.2544
 3217SOL     OW21112   3.045   0.657  17.593  0.1420  0.3248 -0.5309
 3217SOL    HW121113   2.951   0.656  17.572  0.0899 -2.2095 -0.2310
 3217SOL    HW221114   3.047   0.650  17.688  0.0359  3.3089 -0.3259
 3218SOL     OW21115   1.211   2.137  12.729  0.0642  0.4500 -0.2319
 3218SOL    HW121116   1.301   2.103  12.729  0.0185  0.3477  1.4284
 3218SOL    HW221117   1.208   2.161  12.821 -1.6871 -0.4434 -0.0575
 3219SOL     OW21118   4.488   4.032   9.705 -0.3608  0.1606  0.7681
 3219SOL    HW121119   4.526   4.099   9.648 -3.0359 -0.1740 -1.4034
 3219SOL    HW221120   4.534   4.036   9.789 -0.8921 -1.1524  1.1167
 3220SOL     OW21121   0.739   4.180   5.019  0.9189 -0.0312  0.0239
 3220SOL    HW121122   0.666   4.242   5.021  1.5376  0.6756  0.2391
 3220SOL    HW221123   0.747   4.163   4.925 -1.1305  0.2611 -0.2156
 3221SOL     OW21124   0.796   1.829   5.244 -0.6165  0.6117 -0.7915
 3221SOL    HW121125   0.853   1.874   5.306 -0.6528  1.0022 -1.0439
 3221SOL    HW221126   0.806   1.887   5.169  0.7922  1.3635 -0.0166
 3222SOL     OW21127   2.781   4.394   4.925  0.5627 -0.0761  0.3233
 3222SOL    HW121128   2.759   4.402   4.833  0.9014  0.1107  0.2566
 3222SOL    HW221129   2.812   4.485   4.933  1.5608 -0.3940  0.0689
 3223SOL     OW21130   4.102   2.165   5.064 -0.2121 -0.2085 -1.1239
 3223SOL    HW121131   4.039   2.101   5.031 -2.2129  0.5035  1.3086
 3223SOL    HW221132   4.094   2.150   5.158  0.3434 -0.1955 -1.0780
 3224SOL     OW21133   0.792   3.916   0.237  0.5250 -0.8120  0.3488
 3224SOL    HW121134   0.755   3.828   0.244 -0.3513 -0.5499 -0.8943
 3224SOL    HW221135   0.729   3.960   0.180  1.3022 -0.9936 -0.6494
 3225SOL     OW21136   0.950   1.743   3.544 -0.3282  0.0495 -0.2510
 3225SOL    HW121137   0.875   1.789   3.507 -2.4013 -2.0164  1.4349
 3225SOL    HW221138   1.001   1.719   3.467  2.0687  2.0420  0.6904
 3226SOL     OW21139   3.866   2.578   7.406 -0.1978 -0.5254 -0.0254
 3226SOL    HW121140   3.901   2.489   7.405  1.7558  0.2348  1.0850
 3226SOL    HW221141   3.873   2.591   7.501  1.7669  1.2011 -0.4183
 3227SOL     OW21142   1.567   0.241   5.843  0.1789  0.0772  0.5598
 3227SOL    HW121143   1.608   0.192   5.771  0.6204  2.3376 -0.7122
 3227SOL    HW221144   1.594   0.186   5.917 -0.1575 -1.2811 -0.3156
 3228SOL     OW21145   3.403   2.917  13.806  0.3082 -0.3609 -0.3255
 3228SOL    HW121146   3.320   2.870  13.800 -0.0507 -0.0185  1.9983
 3228SOL    HW221147   3.452   2.848  13.851  1.3911  0.7343  0.1754
 3229SOL     OW21148   1.329   2.913   3.288 -0.8270 -0.9049 -0.3418
 3229SOL    HW121149   1.283   2.866   3.357 -0.3287 -0.0135  0.5849
 3229SOL    HW221150   1.262   2.905   3.220 -0.5831  1.6636 -0.8570
 3230SOL     OW21151   2.055   4.664  16.111  0.1366  0.7500  0.1168
 3230SOL    HW121152   2.147   4.683  16.131  1.2012 -3.2581 -0.9633
 3230SOL    HW221153   2.011   0.022  16.129  1.6180  1.7599 -0.9480
 3231SOL     OW21154   0.210   4.284   4.711 -0.6281  0.4328 -0.0903
 3231SOL    HW121155   0.200   4.368   4.756  1.7196  0.4873  0.3271
 3231SOL    HW221156   0.204   4.318   4.622 -0.5330 -0.3716 -0.4014
 3232SOL     OW21157   4.107   1.622   8.385  0.0113 -0.0241  0.1576
 3232SOL    HW121158   4.181   1.625   8.446 -0.5896 -0.1691  0.8864
 3232SOL    HW221159   4.101   1.718   8.379  2.8555  0.1784  0.3146
 3233SOL     OW21160   0.363   0.035   3.799  0.2800  0.3311 -0.7242
 3233SOL    HW121161   0.358   4.707   3.878 -0.4489  1.9201  0.3069
 3233SOL    HW221162   0.456   0.053   3.787  0.0684  2.0539  0.2422
 3234SOL     OW21163   3.883   1.094   4.739 -0.0081 -0.1211  0.2295
 3234SOL    HW121164   3.830   1.131   4.668 -0.3198  0.3981  0.7324
 3234SOL    HW221165   3.972   1.092   4.704 -0.2143 -0.7191 -0.2510
 3235SOL     OW21166   0.428   1.496   2.672  0.2201 -0.2094  0.3700
 3235SOL    HW121167   0.458   1.573   2.622  1.3803 -0.9239 -0.0289
 3235SOL    HW221168   0.333   1.506   2.671  0.4000  1.7493  2.3432
 3236SOL     OW21169   0.743   0.260   9.026 -0.0304  0.3019 -0.4227
 3236SOL    HW121170   0.662   0.251   8.975  0.3651  1.7054 -1.2852
 3236SOL    HW221171   0.816   0.253   8.964  1.2502 -0.1102  1.1280
 3237SOL     OW21172   4.448   2.643   3.813 -0.0277 -0.3815 -0.2708
 3237SOL    HW121173   4.410   2.584   3.878  0.0306 -0.5050 -0.3497
 3237SOL    HW221174   4.373   2.668   3.758  1.2105 -0.2289 -1.8948
 3238SOL     OW21175   2.275   3.010  11.068  0.5945  0.5768  0.1435
 3238SOL    HW121176   2.313   3.020  11.156 -0.1947  2.2340  0.2839
 3238SOL    HW221177   2.351   3.047  11.024  0.7041 -1.1591 -1.1345
 3239SOL     OW21178   0.164   3.440   7.241  0.0248  0.0793  0.2845
 3239SOL    HW121179   0.208   3.374   7.295 -2.4311 -1.7157  0.1134
 3239SOL    HW221180   0.077   3.461   7.275 -0.2756  2.3659 -1.8750
 3240SOL     OW21181   1.584   4.722   8.374  0.5675  0.2753  0.3764
 3240SOL    HW121182   1.492   0.000   8.347  0.3375 -0.2620  1.0759
 3240SOL    HW221183   1.624   4.679   8.298 -2.1185 -3.2582  0.9548
 3241SOL     OW21184   2.538   3.896   4.392 -0.7380 -0.5407  0.2270
 3241SOL    HW121185   2.491   3.868   4.314 -1.2057  0.1884  0.2518
 3241SOL    HW221186   2.579   3.814   4.422  0.3214  0.9548  2.8578
 3242SOL     OW21187   1.565   2.635   9.902 -0.2738  0.3788  1.2168
 3242SOL    HW121188   1.646   2.662   9.859 -0.6075  0.5625  0.7009
 3242SOL    HW221189   1.533   2.556   9.859  1.1008  1.2483 -1.3597
 3243SOL     OW21190   2.937   1.291   9.557 -0.5339  0.2524 -0.1040
 3243SOL    HW121191   2.993   1.347   9.504 -0.6426 -0.9317 -1.4920
 3243SOL    HW221192   2.912   1.344   9.633 -0.1568 -1.0121  0.9056
 3244SOL     OW21193   0.085   0.713  12.571  0.1278 -0.5200 -0.5239
 3244SOL    HW121194   0.045   0.799  12.557  0.1503 -0.1512  1.7093
 3244SOL    HW221195   0.054   0.653  12.503  3.5179 -1.0165 -1.5954
 3245SOL     OW21196   4.593   1.114   5.513 -0.3206  0.4274  0.1942
 3245SOL    HW121197   4.622   1.189   5.461  2.2431 -0.4888  0.2880
 3245SOL    HW221198   4.669   1.055   5.514 -0.1714  0.6359  1.5059
 3246SOL     OW21199   2.794   0.980   7.794 -0.0466 -0.2233  0.2455
 3246SOL    HW121200   2.750   1.022   7.868 -1.4858 -2.2592  0.5424
 3246SOL    HW221201   2.870   0.951   7.844 -0.0977  2.8748  2.1029
 3247SOL     OW21202   1.520   0.489   4.444  0.7403 -0.8497  0.0043
 3247SOL    HW121203   1.440   0.502   4.394 -0.0622 -1.2046  1.1968
 3247SOL    HW221204   1.551   0.410   4.399  0.2309  0.4446 -2.6013
 3248SOL     OW21205   2.719   1.971  15.986  0.4041  0.3003  0.5448
 3248SOL    HW121206   2.795   1.979  16.043  0.6911  2.1182 -0.0923
 3248SOL    HW221207   2.743   2.021  15.908 -1.3144  0.1977 -0.0634
 3249SOL     OW21208   1.305   1.702  11.227 -0.3393 -0.1971  0.0061
 3249SOL    HW121209   1.303   1.776  11.289 -0.1992  0.8330 -1.2171
 3249SOL    HW221210   1.240   1.648  11.272  0.4675  0.4568  1.9720
 3250SOL     OW21211   3.788   0.990  10.863 -0.6931  0.2317  0.6739
 3250SOL    HW121212   3.880   0.996  10.889 -0.2247  2.0653 -1.3971
 3250SOL    HW221213   3.795   0.939  10.783  0.2379  0.5655  0.5403
 3251SOL     OW21214   3.761   4.365   4.901 -0.2100  0.6832  0.4360
 3251SOL    HW121215   3.830   4.360   4.835  0.1353  0.7006  0.7962
 3251SOL    HW221216   3.692   4.416   4.859  0.5196  0.1877 -1.3544
 3252SOL     OW21217   2.682   2.625   8.865  0.0605 -0.0286  0.2031
 3252SOL    HW121218   2.712   2.578   8.942  1.0193  3.3186  1.8850
 3252SOL    HW221219   2.698   2.558   8.798  1.6669  0.8543 -0.3005
 3253SOL     OW21220   2.433   2.892  16.138  0.2917  0.1202  0.9766
 3253SOL    HW121221   2.400   2.805  16.117  0.4993 -0.0169  1.2285
 3253SOL    HW221222   2.478   2.873  16.220 -0.8712  1.7947  2.0108
 3254SOL     OW21223   1.712   3.012   8.232 -0.4865  0.1600 -0.3373
 3254SOL    HW121224   1.770   3.061   8.291 -0.8415  0.3538 -0.1478
 3254SOL    HW221225   1.774   2.957   8.184  0.6737  0.6379  0.5844
 3255SOL     OW21226   4.038   1.424   8.215  0.5693 -0.1992  0.0223
 3255SOL    HW121227   4.066   1.496   8.271  0.6248 -0.4051  0.2588
 3255SOL    HW221228   3.945   1.448   8.216  0.3547 -1.0189 -0.4648
 3256SOL     OW21229   1.063   0.036   9.796  0.2511 -0.5203 -0.0732
 3256SOL    HW121230   1.087   4.699   9.865 -0.8142  0.8231  1.5305
 3256SOL    HW221231   1.034   4.701   9.728  1.4481  0.0354 -1.0627
 3257SOL     OW21232   3.580   0.515   8.301  0.0514 -0.1630 -0.3901
 3257SOL    HW121233   3.556   0.561   8.220 -0.7904  2.4207  1.3187
 3257SOL    HW221234   3.675   0.514   8.294  0.2317  0.2286  2.1690
 3258SOL     OW21235   0.688   1.505   4.239  0.8937  0.1762  0.0796
 3258SOL    HW121236   0.626   1.512   4.166  0.8719 -1.9599 -0.1151
 3258SOL    HW221237   0.631   1.473   4.308  0.3824 -1.4451 -1.0719
 3259SOL     OW21238   2.621   2.342  13.400  0.2856  0.2745 -0.4081
 3259SOL    HW121239   2.626   2.402  13.326 -0.1462 -1.4410 -1.8400
 3259SOL    HW221240   2.671   2.378  13.473  1.5239 -0.3127 -0.9666
 3260SOL     OW21241   4.724   3.949   4.425  0.2342 -0.0251  0.4280
 3260SOL    HW121242   0.019   3.864   4.462 -1.0766  0.0275  1.2662
 3260SOL    HW221243   4.662   3.916   4.360 -0.5390  2.4785 -0.1325
 3261SOL     OW21244   2.937   4.256  14.497  0.3891  0.0494 -0.4390
 3261SOL    HW121245   2.857   4.255  14.550 -0.1939  1.0025 -1.2943
 3261SOL    HW221246   3.006   4.302  14.545 -0.8061  0.4345  0.9291
 3262SOL     OW21247   2.843   4.348  14.800 -0.2617 -0.6954 -0.1409
 3262SOL    HW121248   2.837   4.443  14.792 -1.8325 -0.7263  0.7748
 3262SOL    HW221249   2.913   4.336  14.865 -1.6273  0.2680  1.4906
 3263SOL     OW21250   1.905   2.447   4.989 -0.3651 -0.1878  0.6248
 3263SOL    HW121251   1.957   2.522   4.959 -0.5761 -0.6498 -0.9018
 3263SOL    HW221252   1.860   2.420   4.909 -2.2679  2.0411  0.9473
 3264SOL     OW21253   1.642   1.859   6.641 -0.2875 -0.2230  0.0878
 3264SOL    HW121254   1.678   1.946   6.662 -0.6565 -0.9866  3.8835
 3264SOL    HW221255   1.557   1.869   6.683 -1.2618 -4.0037 -0.9807
 3265SOL     OW21256   0.318   1.467   4.709  0.0992  0.0007 -0.1959
 3265SOL    HW121257   0.341   1.475   4.617  0.2524  2.2921  0.0517
 3265SOL    HW221258   0.270   1.385   4.697 -1.3055  0.8399 -0.2569
 3266SOL     OW21259   0.732   2.401  16.767 -0.3420 -0.3023  0.0655
 3266SOL    HW121260   0.674   2.474  16.745 -0.3769  0.7205  3.4794
 3266SOL    HW221261   0.805   2.450  16.804 -1.7150  0.5732  1.6457
 3267SOL     OW21262   0.495   0.215   4.921 -0.1582 -0.0620  0.0337
 3267SOL    HW121263   0.413   0.206   4.971 -0.2774 -2.5255 -0.6326
 3267SOL    HW221264   0.556   0.213   4.995 -1.6394  0.7250  1.2942
 3268SOL     OW21265   0.003   0.987   2.486  0.2067  0.5566 -0.2481
 3268SOL    HW121266   4.722   1.046   2.411  1.0781  1.6464  0.5431
 3268SOL    HW221267   4.657   1.020   2.540 -1.0005  1.6249 -2.4981
 3269SOL     OW21268   3.931   4.479   8.285 -0.7865 -0.0908  0.0478
 3269SOL    HW121269   3.960   4.446   8.371 -2.9471 -0.2065  0.7355
 3269SOL    HW221270   3.978   4.436   8.214 -0.4179  3.0174 -1.5706
 3270SOL     OW21271   3.332   4.099   0.381  0.2364  0.0084 -0.2416
 3270SOL    HW121272   3.293   4.070   0.299  0.3088 -0.7864  0.0095
 3270SOL    HW221273   3.319   4.194   0.380 -0.0500 -0.0523 -1.6896
 3271SOL     OW21274   4.642   4.084   5.778 -0.0520 -0.1990 -0.1272
 3271SOL    HW121275   4.652   4.042   5.692  2.8701  2.2742 -1.0097
 3271SOL    HW221276   4.547   4.083   5.789  0.2199 -3.3052  1.9105
 3272SOL     OW21277   3.033   0.240  15.778  0.1189  0.1823 -0.2695
 3272SOL    HW121278   2.998   0.239  15.867  0.3280  2.5543 -0.1798
 3272SOL    HW221279   2.967   0.295  15.738 -0.8265  0.7032  2.0167
 3273SOL     OW21280   2.177   3.471  14.807  0.5058 -0.8813 -0.6429
 3273SOL    HW121281   2.252   3.514  14.846  0.2678 -0.5582 -0.5469
 3273SOL    HW221282   2.146   3.433  14.889 -0.0947 -0.7638 -0.8147
 3274SOL     OW21283   0.847   0.572   3.346  0.2305 -0.0386  0.0323
 3274SOL    HW121284   0.815   0.487   3.316 -0.6997  1.3870 -2.9939
 3274SOL    HW221285   0.915   0.550   3.410  0.2871 -0.5930 -0.2189
 3275SOL     OW21286   2.310   0.173   6.502  0.1464 -0.6725 -0.5862
 3275SOL    HW121287   2.239   0.223   6.541  0.4280 -0.1795 -0.7125
 3275SOL    HW221288   2.315   0.090   6.551 -0.0693  0.8185  1.9373
 3276SOL     OW21289   4.436   3.537   8.637 -0.6150  0.2594 -0.2971
 3276SOL    HW121290   4.520   3.582   8.625 -1.4032  1.4008 -1.4399
 3276SOL    HW221291   4.401   3.588   8.711  1.5715  0.1044  0.8499
 3277SOL     OW21292   0.462   3.828   0.792  0.0835  1.0534  0.5956
 3277SOL    HW121293   0.531   3.762   0.800 -1.5866 -0.5239  2.1351
 3277SOL    HW221294   0.467   3.859   0.702  0.8874  1.8944  0.9314
 3278SOL     OW21295   2.600   0.274   2.692  0.4925  0.8671  0.4539
 3278SOL    HW121296   2.542   0.309   2.624  2.0101  1.4264 -0.5710
 3278SOL    HW221297   2.660   0.349   2.699  0.6865  0.7892 -0.3056
 3279SOL     OW21298   2.148   2.358  16.008 -0.3218 -0.3914 -0.1349
 3279SOL    HW121299   2.176   2.355  16.100  0.1982  1.9381 -0.2147
 3279SOL    HW221300   2.203   2.419  15.959 -0.0549  0.1079  0.7738
 3280SOL     OW21301   3.759   2.984   9.533  0.5600 -0.0131 -0.3418
 3280SOL    HW121302   3.722   3.024   9.454 -0.4411 -0.8332 -0.2916
 3280SOL    HW221303   3.684   2.985   9.593 -0.0477  1.3298 -1.1074
 3281SOL     OW21304   1.898   0.676   1.764  0.1568 -0.2287  0.4456
 3281SOL    HW121305   1.917   0.608   1.829 -2.2492 -0.6251  0.7426
 3281SOL    HW221306   1.915   0.621   1.687 -0.3060  0.3328 -0.0598
 3282SOL     OW21307   2.436   3.303   9.277  0.2951  0.5121  0.6364
 3282SOL    HW121308   2.445   3.276   9.369 -4.0664 -3.6280 -0.1420
 3282SOL    HW221309   2.357   3.267   9.237 -0.2421  2.0928  0.2923
 3283SOL     OW21310   4.414   1.545  13.631  0.5615  0.1978 -0.0680
 3283SOL    HW121311   4.388   1.454  13.641  1.4684 -0.1789 -1.1678
 3283SOL    HW221312   4.415   1.582  13.720 -1.9041  2.4108 -0.9836
 3284SOL     OW21313   3.212   1.253   1.654 -0.3435 -0.2763  0.3183
 3284SOL    HW121314   3.150   1.273   1.725  0.8126  1.4573  0.8424
 3284SOL    HW221315   3.260   1.186   1.702  0.8300 -0.4594 -1.1578
 3285SOL     OW21316   2.968   0.370  13.850  0.0432  0.1726  0.6935
 3285SOL    HW121317   3.010   0.284  13.851 -0.7058 -0.2189 -0.5840
 3285SOL    HW221318   2.987   0.407  13.764 -2.8869  1.4973  0.6056
 3286SOL     OW21319   1.887   1.497   6.170  0.2312  0.0864 -0.1649
 3286SOL    HW121320   1.806   1.548   6.177  0.0513 -0.1075 -0.8125
 3286SOL    HW221321   1.854   1.407   6.178 -0.4238  0.3596  0.2064
 3287SOL     OW21322   4.310   3.619   1.417 -0.2950 -0.2568  0.4899
 3287SOL    HW121323   4.403   3.626   1.437 -0.1302  0.2440 -0.4589
 3287SOL    HW221324   4.258   3.652   1.491  0.0774  3.7783 -1.0588
 3288SOL     OW21325   0.580   2.921   5.669  0.9260 -0.4972 -0.8030
 3288SOL    HW121326   0.645   2.960   5.727  1.8080  0.6660 -2.5677
 3288SOL    HW221327   0.558   2.845   5.722  0.4882  0.9498  1.0773
 3289SOL     OW21328   3.299   3.695   0.289 -0.4700 -0.5001  0.0810
 3289SOL    HW121329   3.282   3.666   0.378 -0.1676  1.0051  0.6340
 3289SOL    HW221330   3.262   3.624   0.237  0.7165 -0.0119 -1.4605
 3290SOL     OW21331   3.671   2.062   5.041  0.3851 -0.0227  0.4467
 3290SOL    HW121332   3.608   2.123   5.003 -0.0735 -2.3762 -2.5838
 3290SOL    HW221333   3.681   2.099   5.129 -0.8169  0.0651  0.5434
 3291SOL     OW21334   4.617   3.261   8.839 -0.5163  0.0321 -0.0364
 3291SOL    HW121335   4.551   3.195   8.862  1.3483 -1.3332  1.3706
 3291SOL    HW221336   4.567   3.312   8.776 -0.8186  2.4576  2.1320
 3292SOL     OW21337   2.572   1.347  10.487  0.0135 -0.3235  0.9005
 3292SOL    HW121338   2.620   1.279  10.441 -1.9633 -1.6873  0.8452
 3292SOL    HW221339   2.485   1.335  10.449 -0.3770  3.2190  0.6438
 3293SOL     OW21340   3.085   2.590   4.841 -0.1467  0.0887 -0.3360
 3293SOL    HW121341   3.024   2.535   4.890  0.6407  0.2010  0.7608
 3293SOL    HW221342   3.025   2.637   4.782 -0.3357 -0.1011 -0.2941
 3294SOL     OW21343   4.437   1.079   7.083  0.1475  0.1755 -0.1572
 3294SOL    HW121344   4.384   1.017   7.132  0.8175  0.0284  0.3751
 3294SOL    HW221345   4.500   1.116   7.144 -0.9215 -1.6134  2.0304
 3295SOL     OW21346   2.591   3.593   2.902 -0.0726 -0.9989  0.1580
 3295SOL    HW121347   2.591   3.554   2.814  0.6014 -0.7866  0.0666
 3295SOL    HW221348   2.678   3.569   2.931 -0.9748 -2.5367  1.5867
 3296SOL     OW21349   1.862   4.407   7.327  0.4995 -0.2976  0.1320
 3296SOL    HW121350   1.898   4.322   7.302  0.9004  0.5621 -2.2433
 3296SOL    HW221351   1.890   4.465   7.256 -0.3388  0.8532  0.7376
 3297SOL     OW21352   0.804   1.002  10.706 -0.3211 -0.1653  0.0598
 3297SOL    HW121353   0.882   1.020  10.759  0.7923 -1.0274 -1.3017
 3297SOL    HW221354   0.840   0.962  10.627  0.5031  0.2040  0.2424
 3298SOL     OW21355   4.352   0.066  15.475  0.0164  0.6405 -0.1683
 3298SOL    HW121356   4.437   0.043  15.437  0.1626 -0.2509  0.7021
 3298SOL    HW221357   4.373   0.109  15.557  1.7028  1.1241 -0.8564
 3299SOL     OW21358   4.286   4.035  10.869 -0.1120  0.4130  0.1300
 3299SOL    HW121359   4.282   4.108  10.930 -1.1885 -0.2757  0.8766
 3299SOL    HW221360   4.205   3.990  10.894  1.0187 -3.1103 -2.5324
 3300SOL     OW21361   1.607   3.965   6.420  0.7205 -0.6792 -0.2028
 3300SOL    HW121362   1.561   4.049   6.422  0.3236 -0.8989 -0.0345
 3300SOL    HW221363   1.699   3.990   6.431 -0.0942  1.7092  1.1504
 3301SOL     OW21364   3.680   2.494   4.076  0.1526  0.4996 -0.3648
 3301SOL    HW121365   3.677   2.427   4.008 -1.5439 -0.1211  0.3189
 3301SOL    HW221366   3.758   2.544   4.051  1.1448  0.2547  2.1665
 3302SOL     OW21367   2.481   3.851  10.561 -0.0922  0.0902  0.1368
 3302SOL    HW121368   2.418   3.779  10.567 -2.1242  1.7067 -1.8722
 3302SOL    HW221369   2.469   3.856  10.466 -2.0086 -2.6510  0.2378
 3303SOL     OW21370   1.387   0.728  14.991  0.2173  0.1970 -0.0809
 3303SOL    HW121371   1.300   0.707  14.956  0.3165 -0.1235 -0.1324
 3303SOL    HW221372   1.391   0.822  14.973  1.9816  0.5539  2.2203
 3304SOL     OW21373   2.641   3.791   2.568 -0.0893  0.4950 -0.4037
 3304SOL    HW121374   2.646   3.700   2.595 -1.6162  0.1976 -1.1155
 3304SOL    HW221375   2.546   3.805   2.569 -0.0869  0.6100 -1.3238
 3305SOL     OW21376   3.477   2.674   7.231  0.4574 -0.1328 -0.1693
 3305SOL    HW121377   3.475   2.583   7.259  1.6783  0.0173  0.4075
 3305SOL    HW221378   3.434   2.669   7.145  0.2668  1.7870 -0.1991
 3306SOL     OW21379   2.733   4.521  11.610 -0.1629  0.9951  0.5650
 3306SOL    HW121380   2.744   4.577  11.533 -1.8596 -0.8975 -1.0494
 3306SOL    HW221381   2.642   4.498  11.593 -0.3749  3.3965 -1.5201
 3307SOL     OW21382   3.034   0.900   5.075 -0.1662  0.1719  0.9818
 3307SOL    HW121383   2.962   0.917   5.136  1.0302  0.6298  2.2981
 3307SOL    HW221384   3.044   0.805   5.083 -1.8561  0.0135  1.2127
 3308SOL     OW21385   2.153   2.272   9.128 -0.4255  0.0521  0.1073
 3308SOL    HW121386   2.173   2.365   9.114  1.8131 -0.3850  0.4776
 3308SOL    HW221387   2.084   2.260   9.063 -2.2701  1.9198  1.7152
 3309SOL     OW21388   3.733   3.658  15.073 -0.3720  0.6610 -0.3504
 3309SOL    HW121389   3.732   3.564  15.056 -1.7570  0.7176 -0.6189
 3309SOL    HW221390   3.649   3.654  15.119 -0.7952 -1.1454 -1.3051
 3310SOL     OW21391   1.339   1.990   2.956  0.0812  0.3705 -0.5273
 3310SOL    HW121392   1.406   2.050   2.987  2.3129 -1.8783 -1.0421
 3310SOL    HW221393   1.264   2.046   2.934 -0.1683 -0.3827 -1.6408
 3311SOL     OW21394   4.432   2.990  16.587  0.8387  0.5318  0.1191
 3311SOL    HW121395   4.468   3.049  16.520  0.5722  0.5167 -0.0342
 3311SOL    HW221396   4.375   3.050  16.635  0.7769  0.3011  0.3350
 3312SOL     OW21397   2.825   0.488  11.214 -0.2214  0.3311 -0.0182
 3312SOL    HW121398   2.825   0.434  11.293 -0.9025  1.4275  0.7289
 3312SOL    HW221399   2.841   0.576  11.249  2.4590 -0.1107 -0.1396
 3313SOL     OW21400   1.439   4.309  11.063  0.0303 -0.3868 -0.1459
 3313SOL    HW121401   1.366   4.326  11.123 -0.0216  3.0838 -1.1977
 3313SOL    HW221402   1.439   4.395  11.021  1.4568  0.1476  0.9465
 3314SOL     OW21403   0.967   4.404   3.211  0.4022 -0.6505  0.0607
 3314SOL    HW121404   1.044   4.379   3.261  1.1446  0.9740 -0.2724
 3314SOL    HW221405   0.902   4.388   3.279  0.2506 -3.7581 -0.8342
 3315SOL     OW21406   4.251   1.095   4.058 -0.2981  0.0464 -0.0540
 3315SOL    HW121407   4.285   1.120   3.972 -1.5291 -0.2907 -0.6340
 3315SOL    HW221408   4.212   1.009   4.046 -1.4439  0.6157 -0.4344
 3316SOL     OW21409   4.053   2.537   4.609  1.1080  0.1416 -1.2442
 3316SOL    HW121410   3.987   2.600   4.583 -1.3797 -2.2799 -0.8232
 3316SOL    HW221411   4.033   2.453   4.567  1.4710 -1.4729  1.7835
 3317SOL     OW21412   4.437   2.350   2.445 -0.0035 -0.2184  0.1518
 3317SOL    HW121413   4.344   2.369   2.452 -0.1634 -0.8729 -0.2325
 3317SOL    HW221414   4.421   2.298   2.366  3.0092 -1.7915  0.5834
 3318SOL     OW21415   3.522   2.933   5.789  0.7284  0.0389  0.1539
 3318SOL    HW121416   3.569   3.017   5.792 -0.0998  0.5164 -0.2649
 3318SOL    HW221417   3.513   2.918   5.883  0.3866 -0.7341 -0.0064
 3319SOL     OW21418   2.561   2.288  11.180  0.5336  0.2600 -0.3882
 3319SOL    HW121419   2.525   2.357  11.124  1.3592  0.1829 -1.0077
 3319SOL    HW221420   2.654   2.280  11.159  0.5938  0.8530 -0.3614
 3320SOL     OW21421   1.722   2.734   3.450  0.4959 -0.2694 -0.2486
 3320SOL    HW121422   1.660   2.807   3.451  1.8114  0.8759 -2.4315
 3320SOL    HW221423   1.810   2.773   3.454  0.2005  0.4809 -1.1357
 3321SOL     OW21424   2.680   1.954  15.408 -0.1888  1.0600  0.4323
 3321SOL    HW121425   2.637   1.897  15.472 -0.1300  1.4382  0.8029
 3321SOL    HW221426   2.772   1.934  15.428 -0.2563  0.3031  0.0321
 3322SOL     OW21427   0.822   0.114   2.179  0.1405  0.3090  0.2688
 3322SOL    HW121428   0.736   0.075   2.164 -0.7884  1.6088  2.2745
 3322SOL    HW221429   0.809   0.203   2.148  0.8847  0.4925  0.4819
 3323SOL     OW21430   1.219   0.207  13.905 -0.3978 -0.4588 -0.6044
 3323SOL    HW121431   1.236   0.299  13.927  3.1975 -1.1057 -0.7332
 3323SOL    HW221432   1.155   0.185  13.972  1.5611  0.7809  1.6903
 3324SOL     OW21433   3.299   3.995  13.142 -0.3465  0.0063  0.1721
 3324SOL    HW121434   3.372   3.969  13.086  0.7757 -0.8118  2.0016
 3324SOL    HW221435   3.311   3.930  13.211  0.3669 -2.3138 -2.1596
 3325SOL     OW21436   3.661   1.293   1.942  0.0178  0.2712  0.0286
 3325SOL    HW121437   3.684   1.353   2.012 -1.9505  1.5141 -0.3883
 3325SOL    HW221438   3.748   1.271   1.908 -0.0384  1.1643 -0.6979
 3326SOL     OW21439   3.500   1.436  13.725 -0.3654  0.5468  0.2591
 3326SOL    HW121440   3.533   1.366  13.782  0.5263 -0.3312 -1.3328
 3326SOL    HW221441   3.410   1.447  13.757 -0.8569 -1.5953 -0.3269
 3327SOL     OW21442   3.463   2.286   6.121  0.1031  0.1789  0.5964
 3327SOL    HW121443   3.483   2.283   6.028  2.5778 -1.0495  1.1593
 3327SOL    HW221444   3.530   2.226   6.154 -2.3806 -2.7417  0.2537
 3328SOL     OW21445   4.353   0.918   9.209  0.1951 -0.6403 -0.0870
 3328SOL    HW121446   4.307   0.980   9.266  2.0722  0.0952  0.6421
 3328SOL    HW221447   4.310   0.834   9.226 -0.7309 -0.0377  0.5939
 3329SOL     OW21448   1.079   1.424   6.247  0.0062 -0.1674  0.1553
 3329SOL    HW121449   1.056   1.453   6.159  0.4865  0.2239  0.1562
 3329SOL    HW221450   0.998   1.404   6.294 -0.5400  0.5607 -0.4948
 3330SOL     OW21451   4.640   4.152   8.729  0.3553 -0.2524 -0.7568
 3330SOL    HW121452   4.703   4.210   8.687  0.6699  0.3871  0.5846
 3330SOL    HW221453   4.598   4.219   8.783  1.1009  0.2005 -0.7447
 3331SOL     OW21454   4.242   1.529   5.369  0.5356  0.6402  0.2733
 3331SOL    HW121455   4.260   1.491   5.284 -1.3709 -2.0423  1.0911
 3331SOL    HW221456   4.224   1.443   5.406 -1.4748  0.9854  0.0940
 3332SOL     OW21457   4.359   0.872   9.709 -0.6108 -0.4727 -0.1151
 3332SOL    HW121458   4.402   0.957   9.700  0.1410 -0.7643  0.6850
 3332SOL    HW221459   4.436   0.820   9.731 -1.3784 -1.3288  0.5449
 3333SOL     OW21460   0.340   1.130   4.713  0.2084 -0.7532 -0.1165
 3333SOL    HW121461   0.322   1.104   4.804 -4.8375  0.2121 -0.8356
 3333SOL    HW221462   0.257   1.119   4.668 -0.6542 -0.3984  1.3949
 3334SOL     OW21463   0.926   0.854   5.445  0.1751 -0.2144  0.4913
 3334SOL    HW121464   0.910   0.871   5.352 -1.7299  0.5513  0.9491
 3334SOL    HW221465   0.867   0.778   5.443 -0.6113  0.4885 -2.7543
 3335SOL     OW21466   2.746   2.465   5.720  0.2156 -0.1531  0.0007
 3335SOL    HW121467   2.737   2.418   5.803 -0.3471  0.6857  0.4178
 3335SOL    HW221468   2.691   2.418   5.657  1.0960 -0.7889 -0.2988
 3336SOL     OW21469   3.897   3.777  12.613 -0.2717 -0.0608 -0.1847
 3336SOL    HW121470   3.901   3.853  12.555 -2.9579  1.4883  1.6894
 3336SOL    HW221471   3.861   3.711  12.553 -0.2830 -0.6583  0.4775
 3337SOL     OW21472   4.035   2.316   3.667 -0.2700  0.0684  1.0093
 3337SOL    HW121473   4.009   2.225   3.654  0.0883 -0.0795  1.3063
 3337SOL    HW221474   3.951   2.362   3.661 -0.1246  0.0049 -1.3174
 3338SOL     OW21475   0.748   4.456  17.512 -0.0216  0.3070 -0.1194
 3338SOL    HW121476   0.819   4.431  17.453  0.8131  0.4486  0.8221
 3338SOL    HW221477   0.750   4.551  17.504  0.1498  0.2484 -0.8411
 3339SOL     OW21478   1.969   0.855   6.873 -0.0678  0.0673  0.6476
 3339SOL    HW121479   1.964   0.844   6.778  1.0087 -0.6396  0.6709
 3339SOL    HW221480   1.877   0.836   6.893 -1.3233  4.0624 -1.3602
 3340SOL     OW21481   2.576   3.638   6.687  0.2062  0.1181  0.6538
 3340SOL    HW121482   2.659   3.589   6.690  0.1018 -0.2262 -1.7841
 3340SOL    HW221483   2.581   3.716   6.742  1.4303  1.0192 -0.7226
 3341SOL     OW21484   0.271   2.139   4.720  0.0006 -0.2447  0.0946
 3341SOL    HW121485   0.177   2.140   4.701  0.2311  0.4144 -0.9751
 3341SOL    HW221486   0.289   2.217   4.772  0.4276  0.0982 -0.5727
 3342SOL     OW21487   2.398   2.002   4.050  0.1077  0.5514 -0.0675
 3342SOL    HW121488   2.474   1.966   4.005 -0.6964  0.3117 -1.2415
 3342SOL    HW221489   2.393   2.088   4.008  1.3282  0.0270 -1.2727
 3343SOL     OW21490   1.986   1.568  13.766 -0.0357 -0.3287 -0.3312
 3343SOL    HW121491   2.000   1.502  13.835  1.0485  0.0444 -0.1837
 3343SOL    HW221492   1.904   1.607  13.796 -1.2754 -3.1544 -0.0081
 3344SOL     OW21493   4.164   0.945  10.145  0.4603 -0.3722  0.2139
 3344SOL    HW121494   4.069   0.957  10.137  0.3706  2.0541  4.6938
 3344SOL    HW221495   4.203   0.961  10.059 -0.5882 -0.0082 -0.2024
 3345SOL     OW21496   3.241   4.591  10.257  0.1080  0.2089  0.2824
 3345SOL    HW121497   3.182   4.661  10.285  1.6206  1.2560  0.8934
 3345SOL    HW221498   3.217   4.585  10.164 -2.3879  1.1123  0.8684
 3346SOL     OW21499   2.239   2.637   4.017  0.2661  0.0579 -0.2628
 3346SOL    HW121500   2.232   2.644   3.922 -0.6855 -1.6259 -0.3136
 3346SOL    HW221501   2.184   2.562   4.038 -0.5650  0.8673  0.4413
 3347SOL     OW21502   3.683   2.536   6.956  0.2106  0.0944  0.2146
 3347SOL    HW121503   3.644   2.494   7.032  1.8093  0.6203  1.3185
 3347SOL    HW221504   3.777   2.544   6.975 -0.3411  2.4588  1.8795
 3348SOL     OW21505   0.269   2.613   8.039 -0.3350  0.4583  0.2374
 3348SOL    HW121506   0.306   2.543   8.094 -0.6508 -0.7527 -1.1025
 3348SOL    HW221507   0.334   2.618   7.970  1.5212  0.7778  1.9975
 3349SOL     OW21508   3.357   2.628   2.946  0.2464 -0.3053 -0.0183
 3349SOL    HW121509   3.423   2.635   2.877 -0.3515  0.3098 -0.5391
 3349SOL    HW221510   3.399   2.564   3.003  0.9295 -0.1249 -0.3238
 3350SOL     OW21511   1.184   0.007   5.593 -0.2202 -0.0073 -0.2743
 3350SOL    HW121512   1.225   4.678   5.526 -0.2945  0.3608 -0.6186
 3350SOL    HW221513   1.117   4.675   5.628  0.9156 -0.4789  1.1092
 3351SOL     OW21514   3.951   1.961   2.199  0.1087  0.2570 -0.5021
 3351SOL    HW121515   3.981   2.025   2.134 -0.5198  0.8779 -0.1801
 3351SOL    HW221516   3.925   1.995   2.284 -0.7494  0.0872 -0.7010
 3352SOL     OW21517   4.015   4.328   8.080 -0.5752 -0.1215  0.0837
 3352SOL    HW121518   3.945   4.294   8.024  1.1218 -1.3193 -1.3140
 3352SOL    HW221519   4.056   4.243   8.096 -2.0797 -0.9966 -0.6775
 3353SOL     OW21520   4.693   2.120   6.816  0.4467 -0.4879  0.2480
 3353SOL    HW121521   0.034   2.051   6.816 -0.3022 -1.2125  1.3208
 3353SOL    HW221522   4.611   2.077   6.789 -1.6903  3.4023  0.5258
 3354SOL     OW21523   3.287   0.181  15.713  0.4588 -0.1110  0.0607
 3354SOL    HW121524   3.197   0.167  15.740  0.0851  1.5498 -0.3304
 3354SOL    HW221525   3.275   0.201  15.620 -1.5026  0.0419  0.3595
 3355SOL     OW21526   2.006   0.804  11.707 -0.5115 -0.5303 -0.8386
 3355SOL    HW121527   2.074   0.739  11.725 -1.0280 -0.9470 -0.3709
 3355SOL    HW221528   2.034   0.845  11.625 -2.1123  0.7183 -0.7628
 3356SOL     OW21529   0.920   1.160   6.988  0.0296  0.0140  0.3607
 3356SOL    HW121530   0.918   1.088   6.924 -1.5074  1.6977 -1.4890
 3356SOL    HW221531   0.995   1.130   7.039  1.4028  0.1922 -1.5438
 3357SOL     OW21532   0.024   4.306  17.247 -0.6761 -0.5105  0.9547
 3357SOL    HW121533   0.072   4.231  17.280 -0.6041 -0.7666  0.2618
 3357SOL    HW221534   4.672   4.256  17.221 -0.6880  0.2577 -0.5162
 3358SOL     OW21535   1.108   1.895   0.887  0.4205 -0.1582 -0.3104
 3358SOL    HW121536   1.022   1.859   0.867  0.5962 -0.6738 -0.1499
 3358SOL    HW221537   1.126   1.954   0.813 -1.7994 -0.9209 -1.4535
 3359SOL     OW21538   3.027   1.609  13.355  0.5233  0.3118  0.2508
 3359SOL    HW121539   3.032   1.654  13.271 -0.9571 -1.3736 -0.7440
 3359SOL    HW221540   3.110   1.562  13.356  1.4153  1.8901 -0.0987
 3360SOL     OW21541   0.917   2.508   3.127  0.1361  0.7618 -0.4606
 3360SOL    HW121542   0.901   2.414   3.139  2.0154  0.4937 -0.0625
 3360SOL    HW221543   0.836   2.533   3.081 -2.4902  0.3555  3.9405
 3361SOL     OW21544   4.247   2.490   5.350  0.5454  0.2039 -0.0234
 3361SOL    HW121545   4.202   2.430   5.291 -1.0328  1.3223  0.0443
 3361SOL    HW221546   4.330   2.499   5.303  0.7013 -1.5582 -0.0930
 3362SOL     OW21547   2.598   3.606   5.786 -0.1165 -0.2715 -0.3818
 3362SOL    HW121548   2.512   3.586   5.823  0.3578 -1.5142  0.0247
 3362SOL    HW221549   2.570   3.605   5.695  2.8827  0.4299 -1.2979
 3363SOL     OW21550   2.273   3.107  13.086 -0.3650  0.1824  0.4298
 3363SOL    HW121551   2.239   3.154  13.010  0.9502  0.1615 -0.1807
 3363SOL    HW221552   2.309   3.029  13.044  1.7067  1.1811  0.3361
 3364SOL     OW21553   1.925   2.930   9.626 -0.3981  0.1539  0.0843
 3364SOL    HW121554   1.867   3.006   9.614  1.0215  1.0194 -1.3991
 3364SOL    HW221555   1.972   2.956   9.705 -1.2909  0.7517  0.4200
 3365SOL     OW21556   2.989   0.015  15.570  0.1549  0.4851  0.3652
 3365SOL    HW121557   2.961   0.072  15.642 -0.4885  0.4076  0.1783
 3365SOL    HW221558   2.993   4.656  15.613  2.1525  0.1621 -0.4856
 3366SOL     OW21559   0.923   0.170   8.084  0.2300  0.3107 -0.0516
 3366SOL    HW121560   0.908   0.079   8.108  1.1780 -0.1312 -1.1345
 3366SOL    HW221561   0.963   0.163   7.997 -2.0266  1.5175 -1.2011
 3367SOL     OW21562   3.587   4.021   7.863  0.0759  0.0272 -0.4309
 3367SOL    HW121563   3.553   4.110   7.868 -1.0782 -0.6084  2.6209
 3367SOL    HW221564   3.544   3.966   7.927  0.2036  0.4569  0.0252
 3368SOL     OW21565   3.848   3.041   6.489 -0.2468 -0.4456  0.3104
 3368SOL    HW121566   3.768   2.993   6.510 -0.5553 -0.9212 -1.9444
 3368SOL    HW221567   3.915   2.973   6.482  0.2985  0.0646  0.6060
 3369SOL     OW21568   3.461   4.621   0.834  0.4935  0.4593  0.3187
 3369SOL    HW121569   3.484   4.669   0.913  2.5975  1.1601 -0.7346
 3369SOL    HW221570   3.539   4.589   0.789 -2.0733 -2.9745 -1.7267
 3370SOL     OW21571   2.939   2.605   7.057 -0.7369  0.1846  0.4911
 3370SOL    HW121572   2.951   2.627   6.964 -0.4444  0.0491  0.4960
 3370SOL    HW221573   3.008   2.642   7.112  1.0321  0.0601 -1.6234
 3371SOL     OW21574   4.206   2.285   2.780 -0.4734  0.0447  0.1438
 3371SOL    HW121575   4.206   2.358   2.719  1.1075 -1.8696 -2.1354
 3371SOL    HW221576   4.228   2.215   2.719  0.3896  0.7039 -0.3003
 3372SOL     OW21577   1.518   1.664  10.595  0.7656  0.4088 -0.4738
 3372SOL    HW121578   1.569   1.634  10.520  2.9968 -0.2765  1.3180
 3372SOL    HW221579   1.438   1.698  10.555  1.2987  0.9910 -1.0469
 3373SOL     OW21580   1.194   1.894   1.750  0.1291  0.2653 -0.1169
 3373SOL    HW121581   1.194   1.881   1.845  0.9423 -0.7455 -0.2534
 3373SOL    HW221582   1.287   1.910   1.733  0.8213 -4.5192 -0.9632
 3374SOL     OW21583   0.217   0.634   8.420 -0.5708 -0.0163 -0.3122
 3374SOL    HW121584   0.153   0.652   8.351 -1.1140 -1.2654 -0.1450
 3374SOL    HW221585   0.297   0.626   8.368  0.1336  0.0991  0.7527
 3375SOL     OW21586   2.716   4.027   5.143  0.2890  0.2555  0.2581
 3375SOL    HW121587   2.717   4.120   5.166  0.4918  0.5707 -1.0424
 3375SOL    HW221588   2.811   4.017   5.130  0.1123 -0.4850 -0.4505
 3376SOL     OW21589   0.463   1.200  17.493  0.6510  0.0358  0.2489
 3376SOL    HW121590   0.427   1.113  17.509  1.0927 -0.7046 -2.7521
 3376SOL    HW221591   0.503   1.188  17.407  1.4616  0.6630  0.5423
 3377SOL     OW21592   4.633   4.244   4.594  0.1964 -0.4383 -0.0714
 3377SOL    HW121593   4.669   4.326   4.562 -2.7421  2.0856  3.1896
 3377SOL    HW221594   4.577   4.271   4.666 -1.9172 -0.1779 -1.8088
 3378SOL     OW21595   4.620   0.662   6.796  0.3120 -0.3838 -0.0023
 3378SOL    HW121596   4.531   0.642   6.825  0.4161  0.6730  1.0606
 3378SOL    HW221597   4.656   0.648   6.883 -1.2000  0.8870  0.8255
 3379SOL     OW21598   3.990   0.275  17.457 -1.0280  0.4684  0.1681
 3379SOL    HW121599   3.941   0.195  17.439  2.5134 -1.7350  0.4561
 3379SOL    HW221600   4.064   0.267  17.396 -1.2985 -2.5210  0.2364
 3380SOL     OW21601   4.304   4.575   5.232 -0.3747 -0.3533 -0.7836
 3380SOL    HW121602   4.240   4.641   5.208 -0.6784 -0.7903 -1.1890
 3380SOL    HW221603   4.342   4.604   5.314 -1.7147  1.3545 -0.7851
 3381SOL     OW21604   1.541   0.376  12.844 -0.2742  0.7817 -0.2633
 3381SOL    HW121605   1.539   0.306  12.909 -3.0865  2.4855  1.4940
 3381SOL    HW221606   1.477   0.432  12.889 -1.4402  0.0020 -0.9609
 3382SOL     OW21607   0.959   1.968   3.989  0.0985  0.6589 -0.1931
 3382SOL    HW121608   0.886   1.906   3.991 -0.1611  0.9577 -0.3418
 3382SOL    HW221609   1.040   1.923   4.011  0.8593  1.4190 -1.4531
 3383SOL     OW21610   0.040   2.978   7.518  0.3945  0.1576  0.3158
 3383SOL    HW121611   4.702   3.029   7.568  3.1139  1.9778  1.9229
 3383SOL    HW221612   0.107   2.957   7.584  2.2931 -0.5286 -1.8319
 3384SOL     OW21613   2.499   2.898  13.897  0.1662  0.0601  0.1333
 3384SOL    HW121614   2.430   2.911  13.962 -1.6688  0.3371 -1.8801
 3384SOL    HW221615   2.481   2.980  13.850  1.5557  0.8831  1.0431
 3385SOL     OW21616   1.013   4.384   8.620 -0.4255 -0.4771  0.3691
 3385SOL    HW121617   0.949   4.434   8.671 -1.8220 -2.3717  0.4217
 3385SOL    HW221618   1.079   4.448   8.591 -1.6599  0.5950 -0.0555
 3386SOL     OW21619   0.410   0.007   3.055 -1.1233 -0.7344  0.0016
 3386SOL    HW121620   0.390   4.639   3.045  1.1272 -1.1982 -0.2274
 3386SOL    HW221621   0.326   0.048   3.076 -0.1681  1.3522 -0.2455
 3387SOL     OW21622   3.341   0.383  14.257  0.0201  0.3432 -0.2005
 3387SOL    HW121623   3.264   0.390  14.314 -0.3578  0.6812 -0.7515
 3387SOL    HW221624   3.303   0.424  14.179 -0.8916 -0.3080 -0.1073
 3388SOL     OW21625   3.387   0.775   9.470 -0.4715 -0.0020 -0.2492
 3388SOL    HW121626   3.299   0.765   9.506 -0.1691 -1.5490  0.0484
 3388SOL    HW221627   3.424   0.687   9.470  0.8633  0.5535 -1.0761
 3389SOL     OW21628   0.035   1.066   1.043  0.4451  0.1092 -0.4101
 3389SOL    HW121629   4.689   1.008   1.068 -0.8666  2.3577  1.0328
 3389SOL    HW221630   4.720   1.101   0.963  1.1302 -1.6367 -1.5165
 3390SOL     OW21631   3.454   1.631   6.882  0.2447  0.0616  0.5717
 3390SOL    HW121632   3.504   1.712   6.889  2.8002 -1.3432 -1.5075
 3390SOL    HW221633   3.364   1.661   6.897 -0.7289 -1.4111 -2.2768
 3391SOL     OW21634   0.746   2.011   5.064 -0.0884  0.0319 -0.0998
 3391SOL    HW121635   0.836   2.033   5.040  0.1848 -1.0323 -0.0618
 3391SOL    HW221636   0.714   2.098   5.088 -0.0623 -0.6034  2.2904
 3392SOL     OW21637   0.402   3.209  13.648 -0.2980 -0.0491 -0.6220
 3392SOL    HW121638   0.465   3.140  13.627  1.0234  0.2754  2.2204
 3392SOL    HW221639   0.335   3.200  13.580  1.4220 -2.9434 -1.9317
 3393SOL     OW21640   4.287   4.531  11.436 -0.3466  0.4809 -0.2135
 3393SOL    HW121641   4.378   4.544  11.410 -0.2301  1.5312  0.7210
 3393SOL    HW221642   4.286   4.439  11.462 -1.1443  0.0908 -1.6545
 3394SOL     OW21643   4.331   3.763   9.079  0.1646 -0.6682  0.1334
 3394SOL    HW121644   4.389   3.720   9.142  0.2234 -1.1246 -0.2290
 3394SOL    HW221645   4.252   3.780   9.130 -1.7723  0.3579 -3.2562
 3395SOL     OW21646   1.873   2.396   6.321 -0.6127 -0.0507 -0.8633
 3395SOL    HW121647   1.857   2.369   6.230 -1.4103 -0.9978 -0.4471
 3395SOL    HW221648   1.835   2.329   6.377 -1.6759  0.0706 -1.4334
 3396SOL     OW21649   1.834   1.646   2.776  0.3586 -0.7365 -0.1128
 3396SOL    HW121650   1.758   1.662   2.719 -0.3370  1.1183  1.3298
 3396SOL    HW221651   1.876   1.576   2.725 -1.4780 -1.0485 -1.2410
 3397SOL     OW21652   2.841   2.472   4.422 -0.1856 -0.3346 -0.0420
 3397SOL    HW121653   2.890   2.424   4.355  1.2613 -1.2921  1.7303
 3397SOL    HW221654   2.813   2.549   4.372 -0.0920 -1.2332 -1.4968
 3398SOL     OW21655   3.916   1.749  10.784 -0.1650  0.0292 -0.8433
 3398SOL    HW121656   3.891   1.699  10.861  1.4051 -1.2413 -1.1661
 3398SOL    HW221657   3.904   1.686  10.713  1.4721 -1.9672  0.6483
 3399SOL     OW21658   1.686   4.474   8.823  0.2228  0.5505  0.1842
 3399SOL    HW121659   1.596   4.454   8.847  0.6171 -1.7824 -0.2758
 3399SOL    HW221660   1.670   4.534   8.750 -0.4122  0.3087  0.1291
 3400SOL     OW21661   2.391   1.975   1.861 -0.0927  0.3257 -0.3827
 3400SOL    HW121662   2.375   1.928   1.943  1.0287 -0.0532 -0.3811
 3400SOL    HW221663   2.485   1.986   1.877 -0.2076 -1.3835  1.4112
 3401SOL     OW21664   1.075   0.966  17.026  0.8625  0.3743  0.0894
 3401SOL    HW121665   1.117   1.049  17.007  1.1822  0.1071 -0.3823
 3401SOL    HW221666   1.107   0.899  16.965  0.9931 -1.2281  1.8829
 3402SOL     OW21667   3.911   3.372   5.323 -0.7108  0.0699 -0.3203
 3402SOL    HW121668   3.920   3.281   5.296 -0.3977  0.6966 -2.3319
 3402SOL    HW221669   3.941   3.373   5.414  3.0348 -0.1429 -1.5361
 3403SOL     OW21670   2.612   4.459  17.078 -0.2204 -0.0161  0.1141
 3403SOL    HW121671   2.543   4.393  17.074 -0.8249  0.6654 -0.5231
 3403SOL    HW221672   2.684   4.431  17.021  0.5637  1.0042  0.6044
 3404SOL     OW21673   1.916   3.354   4.089  0.1745  0.1708 -0.0814
 3404SOL    HW121674   1.978   3.283   4.101  0.0169 -0.0527 -0.5710
 3404SOL    HW221675   1.944   3.393   4.006  2.0946  1.6594  1.2876
 3405SOL     OW21676   2.229   4.682   9.592  0.0147 -0.0583 -0.5218
 3405SOL    HW121677   2.268   0.041   9.573  1.1731 -0.6293 -0.6812
 3405SOL    HW221678   2.173   4.664   9.517 -0.9810 -0.6323  0.3532
 3406SOL     OW21679   0.403   1.650   1.699  0.1188 -0.2538  0.4774
 3406SOL    HW121680   0.358   1.726   1.663  0.6241  0.4260  1.2849
 3406SOL    HW221681   0.399   1.668   1.793  2.3105  2.9562 -0.0618
 3407SOL     OW21682   1.696   2.635   8.634 -0.0163  0.0207  0.2089
 3407SOL    HW121683   1.724   2.590   8.714  1.7948  2.9209  1.1958
 3407SOL    HW221684   1.602   2.644   8.650  0.3430 -0.9214  2.7782
 3408SOL     OW21685   4.321   2.712  11.093 -0.5781  0.1316 -0.1728
 3408SOL    HW121686   4.245   2.657  11.113 -0.8612 -0.0658 -1.8350
 3408SOL    HW221687   4.374   2.725  11.172  0.0152 -1.7586 -0.2716
 3409SOL     OW21688   3.929   2.456  16.340 -0.0285 -0.5227 -0.2825
 3409SOL    HW121689   3.948   2.370  16.304  0.0584  0.2897 -2.1592
 3409SOL    HW221690   4.014   2.499  16.333  0.1465 -0.9824 -0.9885
 3410SOL     OW21691   0.944   4.526   6.739 -0.1983 -0.4449 -0.0302
 3410SOL    HW121692   0.911   4.437   6.755  0.1157 -0.3135  1.3714
 3410SOL    HW221693   0.932   4.566   6.825  0.6267 -2.1636  0.8939
 3411SOL     OW21694   2.422   0.674   0.314 -0.1636  0.0071 -0.3172
 3411SOL    HW121695   2.357   0.655   0.247  0.5085  1.3002 -1.3554
 3411SOL    HW221696   2.440   0.595   0.365 -1.6880 -0.2318 -0.1591
 3412SOL     OW21697   2.029   3.731   8.573 -0.7852  0.1892  0.5109
 3412SOL    HW121698   1.993   3.760   8.657 -0.8330  1.0432  0.1940
 3412SOL    HW221699   1.951   3.716   8.519  1.7438 -2.3463 -2.4325
 3413SOL     OW21700   3.097   1.118   8.910  0.6435 -0.1971  0.0687
 3413SOL    HW121701   3.165   1.150   8.969 -0.0758 -0.9582  1.3315
 3413SOL    HW221702   3.146   1.042   8.880  0.7380  1.0700 -2.9238
 3414SOL     OW21703   2.458   3.417  13.739  0.3309  0.7408 -0.1296
 3414SOL    HW121704   2.406   3.469  13.678  1.5273  0.7805 -1.1119
 3414SOL    HW221705   2.543   3.456  13.719 -1.1897  3.3931 -1.4295
 3415SOL     OW21706   1.753   4.688   7.538  0.7438 -0.2835  0.4561
 3415SOL    HW121707   1.841   4.652   7.548  0.8140 -0.2661 -0.0855
 3415SOL    HW221708   1.755   4.708   7.444  1.2945  1.3059  0.8070
 3416SOL     OW21709   2.074   4.698   2.931  0.0608  0.0537  0.1178
 3416SOL    HW121710   2.052   4.635   2.862  2.4624 -0.7204  0.0971
 3416SOL    HW221711   1.997   0.030   2.933 -1.6657 -2.2595  0.2410
 3417SOL     OW21712   1.941   0.621   9.903  0.2075  0.0142  0.9283
 3417SOL    HW121713   1.901   0.692   9.854 -0.2980  0.4736  2.0042
 3417SOL    HW221714   1.949   0.564   9.827  0.6721  0.6842  0.4759
 3418SOL     OW21715   3.756   0.694   2.085  0.6312 -0.0438 -0.0790
 3418SOL    HW121716   3.761   0.599   2.094  0.3208  0.0070  0.5899
 3418SOL    HW221717   3.711   0.697   2.000  1.6017  0.0278 -0.5881
 3419SOL     OW21718   3.307   1.046   4.063 -0.0472  0.3536 -0.2490
 3419SOL    HW121719   3.223   1.021   4.024  0.8436  1.5498 -2.8696
 3419SOL    HW221720   3.295   1.132   4.104  1.3461  0.7143 -0.6018
 3420SOL     OW21721   0.217   0.585  16.217  0.1351 -0.0793  0.1640
 3420SOL    HW121722   0.312   0.596  16.217  0.3327 -1.7610  3.3481
 3420SOL    HW221723   0.212   0.490  16.209  0.8098  0.0108 -1.1805
 3421SOL     OW21724   0.887   2.935  15.237 -0.1159  1.1596 -0.1292
 3421SOL    HW121725   0.957   2.961  15.297  0.3620  0.4659 -0.3930
 3421SOL    HW221726   0.906   2.842  15.243  0.9664  1.4242  0.6785
 3422SOL     OW21727   4.179   3.923   1.407 -0.8037 -0.5820 -0.0635
 3422SOL    HW121728   4.183   3.867   1.330  0.4417  0.0174 -0.4394
 3422SOL    HW221729   4.262   3.970   1.400 -1.9998  1.5445  0.0429
 3423SOL     OW21730   3.554   2.899   2.998  0.3910 -0.4466  0.1683
 3423SOL    HW121731   3.599   2.857   2.925  1.5547  0.9302  0.0997
 3423SOL    HW221732   3.614   2.971   3.017 -0.7541  0.8449 -1.0474
 3424SOL     OW21733   1.197   4.504   1.850 -0.3915 -0.2570 -0.0508
 3424SOL    HW121734   1.245   4.476   1.772 -0.4479 -0.3661 -0.0460
 3424SOL    HW221735   1.270   4.517   1.911  0.0449 -0.5611 -0.5072
 3425SOL     OW21736   0.570   2.247   9.059 -0.2582  0.4288  0.3043
 3425SOL    HW121737   0.563   2.263   8.965  0.5921  0.3745  0.2264
 3425SOL    HW221738   0.477   2.254   9.079 -0.3359 -3.2413  1.1606
 3426SOL     OW21739   2.173   2.406  12.741  0.6847 -0.5624  0.1814
 3426SOL    HW121740   2.113   2.337  12.769  0.0391 -0.5112 -1.0749
 3426SOL    HW221741   2.122   2.476  12.783  0.7868  0.6750 -1.7667
 3427SOL     OW21742   3.010   0.373  16.818 -0.1407  0.0154  0.1023
 3427SOL    HW121743   2.967   0.289  16.805 -2.0522  0.6763  2.0594
 3427SOL    HW221744   2.989   0.387  16.911 -0.2034  0.1593  0.0667
 3428SOL     OW21745   2.672   1.807   3.943  0.2737  0.1023  0.5505
 3428SOL    HW121746   2.672   1.805   3.847  3.1311 -1.6707  0.5952
 3428SOL    HW221747   2.719   1.889   3.958 -2.5564  2.1307 -1.6598
 3429SOL     OW21748   3.086   2.822   9.617  0.1214 -0.6984 -0.4043
 3429SOL    HW121749   3.041   2.838   9.700  0.1620  2.1389 -0.9551
 3429SOL    HW221750   3.039   2.883   9.562 -0.8326 -0.8292  0.2568
 3430SOL     OW21751   3.301   0.740   0.992  0.3332 -0.1464  0.1805
 3430SOL    HW121752   3.326   0.655   0.954  0.3582 -0.5107  1.0267
 3430SOL    HW221753   3.211   0.711   1.005  0.5410 -0.2525  1.3878
 3431SOL     OW21754   0.557   0.812  17.294  0.0130  0.4194  0.5851
 3431SOL    HW121755   0.582   0.902  17.277 -1.8850  1.0534  1.1368
 3431SOL    HW221756   0.632   0.758  17.317  0.2539  0.3902 -0.2566
 3432SOL     OW21757   0.667   0.283  17.622  0.0681 -0.0482  0.4047
 3432SOL    HW121758   0.651   0.254   0.008  0.2943  0.2912  0.5541
 3432SOL    HW221759   0.636   0.373  17.609  0.0341  0.0561  1.2178
 3433SOL     OW21760   1.637   1.079   2.150 -0.1827  0.0394  0.3179
 3433SOL    HW121761   1.567   1.105   2.211 -1.1087  1.5424 -1.4021
 3433SOL    HW221762   1.678   1.165   2.143  1.2461 -0.6005  0.8339
 3434SOL     OW21763   4.675   2.417   9.257  0.3721 -0.1585  0.2640
 3434SOL    HW121764   4.592   2.369   9.264  0.0806  0.1522 -1.1934
 3434SOL    HW221765   0.004   2.353   9.213  0.4237 -0.5072  0.8337
 3435SOL     OW21766   3.571   0.450   8.958  0.0513  0.1406 -0.4649
 3435SOL    HW121767   3.568   0.365   9.001  2.6697 -0.0989 -0.7510
 3435SOL    HW221768   3.518   0.509   9.011  1.5131  1.4466 -0.4355
 3436SOL     OW21769   3.033   0.398   8.179  0.2529  0.0892 -0.0631
 3436SOL    HW121770   3.124   0.396   8.151  0.6258 -1.3023  1.2535
 3436SOL    HW221771   2.996   0.360   8.099 -1.2474  0.1080  0.6172
 3437SOL     OW21772   3.884   3.539   7.109  0.2316 -0.5136 -0.0778
 3437SOL    HW121773   3.836   3.528   7.027  0.2128 -0.5821 -0.0577
 3437SOL    HW221774   3.861   3.628   7.135  0.2435 -0.3003 -0.7810
 3438SOL     OW21775   1.701   4.646   2.991 -0.4371 -0.0367  0.0970
 3438SOL    HW121776   1.767   4.633   2.922 -0.5804  0.3964 -0.1193
 3438SOL    HW221777   1.663   4.558   2.996 -0.9018  0.0447 -1.8076
 3439SOL     OW21778   1.014   0.969   3.614 -0.8780 -0.6886  0.4218
 3439SOL    HW121779   0.950   1.038   3.600  1.2529  1.6577  2.2564
 3439SOL    HW221780   0.965   0.893   3.581  1.8949 -1.5395 -1.7919
 3440SOL     OW21781   2.504   2.841   2.233 -0.3847  0.3949 -0.4385
 3440SOL    HW121782   2.451   2.918   2.213 -0.2181  0.5063 -0.4491
 3440SOL    HW221783   2.486   2.783   2.160 -2.6932  1.8483 -1.0243
 3441SOL     OW21784   3.717   2.570   6.202  0.4870 -0.3670  0.2918
 3441SOL    HW121785   3.680   2.580   6.115  0.9468 -0.5438  0.0765
 3441SOL    HW221786   3.788   2.634   6.204 -0.9368  1.1843  0.6468
 3442SOL     OW21787   2.740   3.718  12.782 -0.2433 -0.5334 -1.0143
 3442SOL    HW121788   2.818   3.768  12.756 -0.9592  1.6380  0.9707
 3442SOL    HW221789   2.690   3.719  12.701 -1.3915  0.3183 -0.2978
 3443SOL     OW21790   3.926   2.846   8.978 -0.3523  0.5665 -0.4813
 3443SOL    HW121791   3.935   2.893   9.061  2.6414  0.7409 -0.9117
 3443SOL    HW221792   3.834   2.868   8.963  0.1639  3.4882  0.7480
 3444SOL     OW21793   4.557   1.720   0.607 -0.2591  0.0560  0.3382
 3444SOL    HW121794   4.574   1.795   0.664 -0.2005 -0.2235  0.6864
 3444SOL    HW221795   4.560   1.763   0.521 -1.2460  0.2432  0.3900
 3445SOL     OW21796   2.772   1.125  11.218  0.7342  0.4202  0.7873
 3445SOL    HW121797   2.839   1.178  11.176  0.4730  1.1336  1.2562
 3445SOL    HW221798   2.698   1.183  11.201  0.8532  0.1365 -0.6553
 3446SOL     OW21799   0.914   0.796   7.338 -0.5622  0.0578 -0.0933
 3446SOL    HW121800   0.930   0.887   7.311 -1.9386  0.1343 -0.6452
 3446SOL    HW221801   1.002   0.764   7.355 -0.4104  0.2411 -0.5299
 3447SOL     OW21802   2.339   4.219   6.602 -0.8610  0.2750 -0.3555
 3447SOL    HW121803   2.357   4.192   6.692  2.9927  2.1631 -0.5619
 3447SOL    HW221804   2.417   4.270   6.582  0.2767 -1.6021 -0.6458
 3448SOL     OW21805   0.196   3.929   8.487  0.1083 -0.2387  0.2816
 3448SOL    HW121806   0.182   3.968   8.573  0.1886  0.8708 -0.2014
 3448SOL    HW221807   0.103   3.914   8.472 -0.1945 -0.5289  2.5230
 3449SOL     OW21808   4.093   1.430   4.049 -0.3052 -0.3731 -0.0263
 3449SOL    HW121809   4.026   1.417   3.981  0.3404 -1.4277 -0.4601
 3449SOL    HW221810   4.134   1.344   4.057 -2.0609 -0.9427  2.6907
 3450SOL     OW21811   1.897   3.135  12.209  0.2270  0.2103 -0.3732
 3450SOL    HW121812   1.813   3.088  12.206  0.4940 -0.1927 -1.7462
 3450SOL    HW221813   1.947   3.090  12.276 -0.9586 -1.9027 -0.8992
 3451SOL     OW21814   0.633   3.059  10.511  0.5419  0.2903  0.1391
 3451SOL    HW121815   0.585   2.979  10.487 -0.5439  1.2211 -0.8284
 3451SOL    HW221816   0.557   3.117  10.508  0.6324  0.3476 -1.1921
 3452SOL     OW21817   4.498   1.074   2.984  0.2161 -0.1064  0.1716
 3452SOL    HW121818   4.416   1.058   3.031  2.0245 -0.6508  3.1889
 3452SOL    HW221819   4.480   1.040   2.896 -0.2774 -0.4119  0.3916
 3453SOL     OW21820   2.173   2.830   0.223  0.1362  0.3161  0.2033
 3453SOL    HW121821   2.085   2.861   0.245 -0.4727 -2.4026  1.6130
 3453SOL    HW221822   2.228   2.855   0.297  2.1306 -1.6495 -0.6152
 3454SOL     OW21823   1.691   0.652   9.423 -0.5529 -0.6092  0.1922
 3454SOL    HW121824   1.653   0.603   9.497 -2.2197  1.7344  0.8856
 3454SOL    HW221825   1.740   0.584   9.377  1.6080  0.4550  0.9071
 3455SOL     OW21826   1.058   4.130   9.390 -0.5212 -0.2227  0.0298
 3455SOL    HW121827   1.106   4.048   9.382 -0.2092 -0.1141  0.8367
 3455SOL    HW221828   1.114   4.182   9.332 -1.1789  1.0458  0.5367
 3456SOL     OW21829   3.129   0.740  17.082 -0.2757  0.1632  0.3662
 3456SOL    HW121830   3.143   0.690  17.163  0.6943  0.4195  0.3624
 3456SOL    HW221831   3.079   0.814  17.118  0.7707 -0.0795  2.3154
 3457SOL     OW21832   3.407   3.503   1.728 -0.1628 -0.4199 -0.5270
 3457SOL    HW121833   3.486   3.519   1.780 -0.2068 -2.2860  0.1179
 3457SOL    HW221834   3.432   3.421   1.686 -0.3785 -0.2481 -0.9903
 3458SOL     OW21835   2.006   2.721   3.472  0.3021  0.6397  0.1640
 3458SOL    HW121836   2.080   2.751   3.419  1.4833 -1.3383  0.7090
 3458SOL    HW221837   1.998   2.807   3.514 -3.3973 -0.0068  0.8040
 3459SOL     OW21838   3.187   0.062   9.069 -0.1736 -0.2346  0.1310
 3459SOL    HW121839   3.204   0.096   8.981  0.1175  1.9329  1.0344
 3459SOL    HW221840   3.097   0.028   9.067 -0.2894 -0.0010  1.2520
 3460SOL     OW21841   0.454   1.115  14.815 -0.6139  0.3176  0.0734
 3460SOL    HW121842   0.542   1.119  14.778 -0.1893  0.8026  1.1604
 3460SOL    HW221843   0.417   1.067  14.741 -0.1136 -2.4030  1.6050
 3461SOL     OW21844   0.380   3.699   5.758 -0.0897  0.4519  0.3548
 3461SOL    HW121845   0.396   3.756   5.682 -0.9128  0.0000 -0.1649
 3461SOL    HW221846   0.460   3.648   5.753 -0.5643 -0.3226  0.7333
 3462SOL     OW21847   4.070   4.573   2.584  0.2835 -0.1846 -0.0213
 3462SOL    HW121848   4.059   4.479   2.602  1.9934 -0.3232  0.3112
 3462SOL    HW221849   3.981   4.606   2.574  1.1056  1.7457 -0.9439
 3463SOL     OW21850   2.921   3.505   3.927 -0.4350  0.3743  0.0163
 3463SOL    HW121851   2.937   3.463   3.843 -1.0959  0.8531 -0.3427
 3463SOL    HW221852   3.014   3.519   3.948  0.0334 -2.3191 -0.2823
 3464SOL     OW21853   1.421   4.554   2.004  0.2145 -0.1608 -0.2438
 3464SOL    HW121854   1.475   4.487   1.962  0.6870 -1.0714  1.8101
 3464SOL    HW221855   1.427   4.626   1.942 -1.4137  1.8661  1.9293
 3465SOL     OW21856   2.900   3.121   8.722  0.1356 -0.2726 -0.3618
 3465SOL    HW121857   2.908   3.216   8.734  0.1937 -0.4426  0.8607
 3465SOL    HW221858   2.805   3.110   8.720  0.5776 -3.9076 -0.1456
 3466SOL     OW21859   3.340   1.123   0.534 -0.0480  0.5502 -0.4775
 3466SOL    HW121860   3.382   1.083   0.610  0.1953  1.7467  0.0180
 3466SOL    HW221861   3.302   1.202   0.572 -4.4452 -1.1944 -1.2399
 3467SOL     OW21862   4.614   3.892   8.762  0.3116 -0.0781 -0.1979
 3467SOL    HW121863   4.629   3.985   8.745 -3.5782 -0.1266 -3.8512
 3467SOL    HW221864   4.522   3.891   8.787  0.6028  0.3845  0.8946
 3468SOL     OW21865   3.109   3.702   3.730  0.2290  0.5584 -0.1829
 3468SOL    HW121866   3.138   3.748   3.809 -1.5906  2.1268 -0.4363
 3468SOL    HW221867   3.178   3.728   3.669  2.5336 -1.3564  1.5684
 3469SOL     OW21868   2.397   4.693   5.777  0.1400 -0.0392  0.3305
 3469SOL    HW121869   2.442   4.673   5.859 -1.3743  0.5213  1.2991
 3469SOL    HW221870   2.310   4.696   5.818 -0.5239 -3.0318 -0.8791
 3470SOL     OW21871   0.283   0.937   2.108  0.9404  0.2144 -0.4226
 3470SOL    HW121872   0.230   1.017   2.104  2.3502  1.1518 -0.3630
 3470SOL    HW221873   0.210   0.876   2.101  0.4078  0.7756  0.1683
 3471SOL     OW21874   3.053   1.654   8.076 -0.3641  0.1675 -0.2938
 3471SOL    HW121875   3.133   1.695   8.043  0.7695 -0.3877  1.8172
 3471SOL    HW221876   2.994   1.676   8.003 -1.5204 -1.2458  0.2055
 3472SOL     OW21877   2.425   3.720   5.341  0.2024 -0.3727  0.3300
 3472SOL    HW121878   2.487   3.793   5.344  0.2297 -0.3818  0.0317
 3472SOL    HW221879   2.339   3.758   5.358  0.1176  0.1339 -1.1883
 3473SOL     OW21880   0.909   0.987   8.316 -0.4160  0.3164 -0.0530
 3473SOL    HW121881   0.846   0.951   8.378 -0.3927  0.0192 -0.2000
 3473SOL    HW221882   0.932   1.065   8.365 -0.6930 -0.6052  1.5372
 3474SOL     OW21883   2.017   3.748  13.994 -0.2324 -0.3001 -0.0945
 3474SOL    HW121884   2.019   3.828  13.943  1.0976  0.3620  1.0002
 3474SOL    HW221885   1.937   3.772  14.042  0.0768  1.7402 -0.6064
 3475SOL     OW21886   0.265   1.710   8.219  0.6932  0.1683  0.6431
 3475SOL    HW121887   0.295   1.619   8.206  1.0489  0.4829 -0.7164
 3475SOL    HW221888   0.346   1.726   8.268  2.1955 -1.0417 -1.3717
 3476SOL     OW21889   2.810   2.721   3.134 -0.2273  0.1178  0.4901
 3476SOL    HW121890   2.791   2.765   3.051  0.2983  0.2987  0.4654
 3476SOL    HW221891   2.888   2.676   3.102 -0.6090  0.3341 -0.7576
 3477SOL     OW21892   0.235   4.347   1.815  0.1460 -0.5373  0.2085
 3477SOL    HW121893   0.296   4.302   1.873  0.2293  0.1656  0.6645
 3477SOL    HW221894   0.287   4.338   1.736 -1.5428 -1.3781 -0.8195
 3478SOL     OW21895   3.031   3.788   4.823  0.1593  0.0073  0.3890
 3478SOL    HW121896   3.064   3.737   4.897  1.2353  2.7958  1.8348
 3478SOL    HW221897   2.937   3.776   4.833  0.2859 -2.1969 -1.0825
 3479SOL     OW21898   4.369   1.018   5.097  0.4874  0.4723  0.1101
 3479SOL    HW121899   4.358   0.943   5.155 -0.7700 -0.2668 -1.1149
 3479SOL    HW221900   4.391   1.089   5.158 -1.7341  0.0016  1.4663
 3480SOL     OW21901   0.930   0.990  15.490  0.4452 -0.4848 -0.2919
 3480SOL    HW121902   0.992   1.058  15.514  1.5039 -1.1767 -1.0465
 3480SOL    HW221903   0.849   1.038  15.507  0.1151 -1.1989  0.1364
 3481SOL     OW21904   1.913   3.220   5.678 -0.1546  0.2674 -0.1020
 3481SOL    HW121905   1.910   3.141   5.622  0.1923  0.8167 -0.9016
 3481SOL    HW221906   1.988   3.261   5.635 -1.4300  1.0613 -1.5735
 3482SOL     OW21907   3.311   4.456   0.619  0.4815 -0.7585  0.5171
 3482SOL    HW121908   3.218   4.432   0.627  0.2733 -0.5267 -1.3120
 3482SOL    HW221909   3.331   4.472   0.711 -1.9204  0.2832  0.8583
 3483SOL     OW21910   1.953   2.071   4.567 -0.0745  0.5869 -0.0993
 3483SOL    HW121911   1.909   2.100   4.487 -0.7741  0.0269  0.0890
 3483SOL    HW221912   2.037   2.118   4.566 -0.2113  0.8054 -1.4612
 3484SOL     OW21913   4.175   0.103   4.227 -0.3902 -0.2625 -0.0755
 3484SOL    HW121914   4.262   0.065   4.212 -0.0433  0.5346 -0.0937
 3484SOL    HW221915   4.132   0.086   4.143  2.2685 -1.3269 -1.2259
 3485SOL     OW21916   3.867   4.158   3.488 -0.1856 -0.1637 -0.2577
 3485SOL    HW121917   3.877   4.188   3.578  1.2155 -2.0654  0.2293
 3485SOL    HW221918   3.774   4.147   3.470 -0.5336 -1.0991  2.1325
 3486SOL     OW21919   3.086   1.531   5.464 -0.0351 -0.0033 -0.2530
 3486SOL    HW121920   3.035   1.487   5.532  1.1162 -0.6552  0.1950
 3486SOL    HW221921   3.043   1.616   5.460 -0.6239 -0.3432 -1.0311
 3487SOL     OW21922   3.193   2.266   2.784 -0.1795 -0.5929 -0.2901
 3487SOL    HW121923   3.235   2.218   2.855 -0.4755 -1.6937 -0.8511
 3487SOL    HW221924   3.219   2.212   2.709 -1.2132 -1.2544 -0.1618
 3488SOL     OW21925   4.409   1.417  16.887 -0.5304  0.1870 -0.2577
 3488SOL    HW121926   4.382   1.409  16.796 -3.6645 -0.2761  0.6975
 3488SOL    HW221927   4.326   1.404  16.933 -1.0712 -3.1512 -2.1496
 3489SOL     OW21928   2.097   2.122   7.692  0.3856 -0.0111 -0.2305
 3489SOL    HW121929   2.090   2.167   7.776 -1.6544 -0.9821  0.0954
 3489SOL    HW221930   2.030   2.171   7.644  1.6245  1.5685 -0.3870
 3490SOL     OW21931   1.707   1.245  14.016  0.3168  0.2982 -0.1442
 3490SOL    HW121932   1.776   1.289  13.966 -0.7648 -0.9227 -2.7248
 3490SOL    HW221933   1.739   1.249  14.106  0.9965  0.8870 -0.4118
 3491SOL     OW21934   4.201   2.742   0.935  0.1426  0.1996  0.2251
 3491SOL    HW121935   4.286   2.731   0.977 -0.5018 -2.0948  0.9277
 3491SOL    HW221936   4.187   2.837   0.934  1.1027  0.3536  1.3618
 3492SOL     OW21937   1.788   4.421  13.429  0.5364  0.5556  0.0186
 3492SOL    HW121938   1.862   4.478  13.446 -0.7259  1.7213  1.5796
 3492SOL    HW221939   1.721   4.460  13.484 -1.5614 -1.4729 -1.0838
 3493SOL     OW21940   2.938   1.242   2.535 -0.3396  0.4206 -0.2798
 3493SOL    HW121941   2.978   1.191   2.605  1.2594  0.5908 -1.0663
 3493SOL    HW221942   2.992   1.201   2.467  0.1215  0.2998  0.1517
 3494SOL     OW21943   0.120   1.925   6.706 -0.2336 -0.0918 -0.1337
 3494SOL    HW121944   0.160   1.888   6.785  0.3086  0.2156 -0.2654
 3494SOL    HW221945   0.131   1.847   6.651 -1.1068  0.6658 -1.3991
 3495SOL     OW21946   2.906   2.383  15.789 -0.5736 -0.1970 -0.1574
 3495SOL    HW121947   2.992   2.364  15.751 -0.2942  1.7234 -0.4506
 3495SOL    HW221948   2.905   2.478  15.787 -2.5384 -0.2430 -1.0289
 3496SOL     OW21949   4.524   1.081   1.948 -0.2204  0.8739 -0.1813
 3496SOL    HW121950   4.513   1.069   2.043 -1.9314 -0.9306 -0.6117
 3496SOL    HW221951   4.525   1.177   1.947  3.2558  0.7997 -2.4872
 3497SOL     OW21952   4.456   2.080   9.206 -0.8327 -0.7627  0.3717
 3497SOL    HW121953   4.420   1.995   9.230  0.1838 -1.6122 -1.1160
 3497SOL    HW221954   4.539   2.064   9.162 -2.2010  0.4368 -2.6660
 3498SOL     OW21955   3.571   3.289   7.125 -0.1793 -0.1509 -0.1766
 3498SOL    HW121956   3.620   3.321   7.201  0.4789 -0.5602 -0.4348
 3498SOL    HW221957   3.579   3.196   7.145 -0.7867 -0.3543 -0.8866
 3499SOL     OW21958   3.599   3.653   1.851 -0.2445 -0.3621 -0.2486
 3499SOL    HW121959   3.565   3.740   1.874 -0.1909 -0.6300  0.8773
 3499SOL    HW221960   3.678   3.651   1.906 -1.3893  0.8334  1.4528
 3500SOL     OW21961   2.695   2.848   1.068  0.0319 -0.0785 -0.0064
 3500SOL    HW121962   2.747   2.774   1.039  0.8395  0.0975  0.9730
 3500SOL    HW221963   2.765   2.904   1.102 -0.4605 -0.0248  0.9218
 3501SOL     OW21964   0.625   0.985   3.576 -0.0626  0.5484 -0.0783
 3501SOL    HW121965   0.680   1.063   3.569  0.3443  0.4369  1.9518
 3501SOL    HW221966   0.538   1.016   3.552  0.3442  1.5148 -0.2991
 3502SOL     OW21967   4.017   4.025   8.460 -0.3661  0.2289  0.3437
 3502SOL    HW121968   3.979   3.937   8.460 -1.4081  0.6825 -1.5323
 3502SOL    HW221969   3.954   4.076   8.511 -1.1006  0.7691 -1.1211
 3503SOL     OW21970   0.259   4.451  14.669 -0.5411  0.1300 -0.3421
 3503SOL    HW121971   0.251   4.492  14.755 -1.5917 -0.2075 -0.2858
 3503SOL    HW221972   0.341   4.401  14.675 -1.3954 -1.1981  0.1241
 3504SOL     OW21973   3.985   1.544  14.097  0.0236  0.2503  0.4476
 3504SOL    HW121974   3.939   1.478  14.149  0.7355 -0.9815 -0.5142
 3504SOL    HW221975   3.939   1.544  14.013  1.4541  0.3283 -0.3215
 3505SOL     OW21976   1.838   3.656  17.166 -0.3866 -0.2187  0.5608
 3505SOL    HW121977   1.785   3.641  17.088  0.0541  0.8788  0.0424
 3505SOL    HW221978   1.782   3.718  17.213  0.6091  0.7985  0.4173
 3506SOL     OW21979   0.609   0.096  10.275 -0.1837 -0.7205 -0.0245
 3506SOL    HW121980   0.606   0.144  10.193  2.0937 -1.3936 -0.5094
 3506SOL    HW221981   0.689   0.047  10.256 -0.0703  0.2910 -2.1108
 3507SOL     OW21982   4.558   2.928   1.809  0.7439  0.1661  0.7124
 3507SOL    HW121983   4.571   2.979   1.729  0.3566  1.3429  1.3950
 3507SOL    HW221984   4.531   2.999   1.867 -0.0766  1.1057 -0.8110
 3508SOL     OW21985   3.457   4.136   4.832 -0.5901  0.0105  0.4761
 3508SOL    HW121986   3.387   4.139   4.767 -0.4602 -1.3128  0.2882
 3508SOL    HW221987   3.523   4.096   4.776 -0.3423  2.2540 -0.8569
 3509SOL     OW21988   4.649   4.567   6.194  0.2354  0.1843  0.4023
 3509SOL    HW121989   4.683   4.639   6.141  0.2096 -1.5015 -1.8937
 3509SOL    HW221990   4.692   4.573   6.279  1.9246  0.8547 -0.5125
 3510SOL     OW21991   4.351   2.748   9.363  0.2730  0.1631 -0.4096
 3510SOL    HW121992   4.403   2.799   9.425 -1.4227  0.2148  0.9858
 3510SOL    HW221993   4.397   2.667   9.341 -1.3596 -0.1660 -2.6114
 3511SOL     OW21994   0.241   4.031   8.734 -0.1975 -0.5549 -0.3700
 3511SOL    HW121995   0.216   4.051   8.824  1.9020  0.5555 -0.0501
 3511SOL    HW221996   0.260   4.122   8.709 -1.6733 -0.3540 -0.7706
 3512SOL     OW21997   1.928   2.833   1.625  0.1501 -0.4135  0.2906
 3512SOL    HW121998   1.998   2.864   1.682 -1.4833  1.7937  1.0857
 3512SOL    HW221999   1.942   2.738   1.626  1.4067 -0.2395 -0.0455
 3513SOL     OW22000   1.703   1.711   9.428  0.0990  0.0004  0.4465
 3513SOL    HW122001   1.740   1.639   9.479  3.1300  2.6292  1.9197
 3513SOL    HW222002   1.635   1.662   9.380  0.1740 -0.8563  1.2118
 3514SOL     OW22003   3.749   3.103   3.033 -0.2778 -0.8315  0.5184
 3514SOL    HW122004   3.777   3.105   2.941  0.1810 -2.3727  0.6343
 3514SOL    HW222005   3.819   3.157   3.071  0.1147 -0.5705 -0.5620
 3515SOL     OW22006   0.741   0.512   5.971 -0.3222 -0.4963  0.5122
 3515SOL    HW122007   0.664   0.512   6.028 -0.7269 -0.3449 -0.0286
 3515SOL    HW222008   0.712   0.574   5.904  0.2257 -0.9934 -0.1821
 3516SOL     OW22009   2.009   0.482   4.377  0.0593  0.5221 -0.2127
 3516SOL    HW122010   1.940   0.532   4.334  0.6911 -0.2886 -2.1676
 3516SOL    HW222011   1.961   0.411   4.419  1.0544  1.0912  1.9007
 3517SOL     OW22012   3.573   0.688  16.519 -0.2609  0.6672  0.0897
 3517SOL    HW122013   3.542   0.670  16.608  0.4462 -0.2045  0.1532
 3517SOL    HW222014   3.555   0.782  16.518  0.2493  0.7447 -1.2016
 3518SOL     OW22015   2.485   2.130  11.437 -0.0161 -0.5554  1.0243
 3518SOL    HW122016   2.487   2.072  11.361  2.3321  2.0347 -0.9025
 3518SOL    HW222017   2.414   2.177  11.393  0.2363  0.7137  1.9660
 3519SOL     OW22018   4.437   0.532   6.283 -0.1300 -0.6837  0.0371
 3519SOL    HW122019   4.453   0.538   6.377 -0.2621  0.5076 -0.0253
 3519SOL    HW222020   4.525   0.561   6.258 -0.8082  0.5145 -0.9423
 3520SOL     OW22021   2.071   4.541   5.584  0.4724  0.3514  0.0292
 3520SOL    HW122022   2.066   4.532   5.489  0.6248  1.6275 -0.0906
 3520SOL    HW222023   2.075   4.451   5.619  0.5003  1.2156  2.2773
 3521SOL     OW22024   0.776   1.013   5.773 -0.2927 -0.5018  0.0841
 3521SOL    HW122025   0.858   0.969   5.793 -1.1356 -1.3469  1.6706
 3521SOL    HW222026   0.789   1.068   5.695  0.4175 -2.1099 -0.9334
 3522SOL     OW22027   1.247   2.301   7.950 -0.4991 -0.3339  0.4036
 3522SOL    HW122028   1.161   2.326   7.917 -0.2297  3.2480  2.4503
 3522SOL    HW222029   1.291   2.277   7.868 -0.8119 -2.4276  0.8332
 3523SOL     OW22030   3.307   4.370  10.458 -0.3852  0.0920 -0.0827
 3523SOL    HW122031   3.284   4.437  10.393 -0.3099  1.3560  1.1769
 3523SOL    HW222032   3.379   4.409  10.507 -0.3183  0.0507 -0.1486
 3524SOL     OW22033   3.028   3.400   2.707 -0.5720 -0.6304  1.0972
 3524SOL    HW122034   3.119   3.420   2.725 -0.7963  2.1427 -0.9139
 3524SOL    HW222035   3.043   3.374   2.617  1.1076  0.9464  0.9283
 3525SOL     OW22036   1.378   1.023   7.066  0.1610  0.1052  0.4660
 3525SOL    HW122037   1.399   0.957   7.000  0.7123 -0.0715  0.8233
 3525SOL    HW222038   1.355   0.981   7.148  1.2147 -2.7160 -0.6853
 3526SOL     OW22039   3.605   2.482  11.044  0.0142  0.3292 -0.5013
 3526SOL    HW122040   3.565   2.400  11.016 -0.1102  0.2127  0.0229
 3526SOL    HW222041   3.523   2.524  11.070 -1.5112 -2.3473 -0.9575
 3527SOL     OW22042   4.252   2.975   3.595 -0.2959  0.5121 -0.0710
 3527SOL    HW122043   4.324   2.983   3.532 -0.9985 -2.4072 -1.2401
 3527SOL    HW222044   4.287   3.038   3.658 -0.8581 -0.4058  1.1680
 3528SOL     OW22045   3.358   4.125  10.330  0.2865 -0.2799  0.1474
 3528SOL    HW122046   3.357   4.183  10.406 -0.4649 -0.2493  0.1091
 3528SOL    HW222047   3.282   4.162  10.285  1.0857  0.2579 -0.7410
 3529SOL     OW22048   0.438   4.052   5.770 -0.3757  0.4291 -0.0055
 3529SOL    HW122049   0.428   3.981   5.707 -0.2833  0.5194 -0.1238
 3529SOL    HW222050   0.382   4.115   5.725 -2.8902 -2.5124 -0.9025
 3530SOL     OW22051   0.836   4.419   4.839  0.4042 -0.4547 -0.3690
 3530SOL    HW122052   0.864   4.510   4.851 -1.6189  0.1849 -0.5603
 3530SOL    HW222053   0.742   4.414   4.853  0.3847  0.1786 -0.2803
 3531SOL     OW22054   0.944   2.641   8.272 -0.0195  0.0566 -0.0328
 3531SOL    HW122055   1.016   2.587   8.240 -0.5057  1.2998 -3.1809
 3531SOL    HW222056   0.958   2.653   8.366 -1.1557 -0.0277  0.1462
 3532SOL     OW22057   1.697   1.410   6.502 -0.1495  0.5178 -0.1392
 3532SOL    HW122058   1.707   1.471   6.575 -1.2471 -1.5987  1.7956
 3532SOL    HW222059   1.790   1.394   6.484 -0.1384  0.6078 -0.1622
 3533SOL     OW22060   0.738   1.411   7.412  0.0282  0.6809  0.3397
 3533SOL    HW122061   0.748   1.417   7.507  0.3961  0.3530  0.3230
 3533SOL    HW222062   0.653   1.449   7.391  0.2422  1.0981  0.2359
 3534SOL     OW22063   2.705   2.836   4.122  0.0514  0.0395  0.2940
 3534SOL    HW122064   2.754   2.914   4.095 -2.7082  1.6879  0.1220
 3534SOL    HW222065   2.649   2.826   4.045 -1.3437  2.1505  1.0549
 3535SOL     OW22066   3.280   1.422   3.235 -0.1628 -0.3768 -0.3697
 3535SOL    HW122067   3.195   1.450   3.270  0.5871  0.4656  0.7574
 3535SOL    HW222068   3.318   1.370   3.306  0.8728  1.7072  0.6022
 3536SOL     OW22069   0.261   0.836   9.068 -0.0249  0.1360  0.0989
 3536SOL    HW122070   0.194   0.830   9.136  0.5342 -0.5699  0.6020
 3536SOL    HW222071   0.335   0.814   9.125 -0.8143 -2.3083  0.1950
 3537SOL     OW22072   2.679   0.296   8.938 -0.3383  0.1023  0.4871
 3537SOL    HW122073   2.624   0.353   8.884 -1.0437 -2.3303 -1.3747
 3537SOL    HW222074   2.766   0.317   8.904  0.6535 -0.8289  2.4769
 3538SOL     OW22075   1.931   1.273   2.982  0.4094  0.2441  0.3386
 3538SOL    HW122076   1.903   1.364   2.969 -0.2657  0.4560  3.1064
 3538SOL    HW222077   1.875   1.241   3.053 -1.5753  1.2525 -0.7750
 3539SOL     OW22078   3.904   1.154  17.581 -0.0041 -0.2080  0.0372
 3539SOL    HW122079   3.942   1.234  17.619  1.4021 -0.4725 -0.8179
 3539SOL    HW222080   3.956   1.140  17.502  0.0910  0.3881 -0.0097
 3540SOL     OW22081   3.021   1.466   3.365  0.0131 -0.0247 -0.4331
 3540SOL    HW122082   2.960   1.539   3.374 -1.9100 -1.8332  1.2610
 3540SOL    HW222083   3.031   1.446   3.458  0.0149 -4.5722 -1.3813
 3541SOL     OW22084   3.681   0.856   7.636  0.1661 -0.0086 -0.0118
 3541SOL    HW122085   3.619   0.881   7.704 -1.6360  1.6774 -2.2926
 3541SOL    HW222086   3.709   0.940   7.600  2.7002 -0.7859  0.0923
 3542SOL     OW22087   0.736   1.860   3.440  0.0961 -0.2420 -0.1692
 3542SOL    HW122088   0.741   1.843   3.346 -1.7904  1.5150 -0.5937
 3542SOL    HW222089   0.681   1.788   3.469 -0.6449 -0.6239 -2.4887
 3543SOL     OW22090   1.105   2.418  15.199  0.1806  0.4521  0.0926
 3543SOL    HW122091   1.040   2.360  15.159  0.8342 -0.0975 -0.1716
 3543SOL    HW222092   1.108   2.490  15.136 -1.3769 -0.0272 -0.5264
 3544SOL     OW22093   0.122   0.890   7.965 -0.8294  0.3074 -0.0213
 3544SOL    HW122094   0.066   0.813   7.978  0.6324 -0.9008 -0.9408
 3544SOL    HW222095   0.213   0.862   7.975 -1.2113 -1.2047 -0.6767
 3545SOL     OW22096   1.259   3.415   7.945 -0.1795 -0.2852 -0.6244
 3545SOL    HW122097   1.188   3.452   7.892  0.3246  1.2388 -0.2547
 3545SOL    HW222098   1.334   3.472   7.925  2.0131 -2.5753  1.1556
 3546SOL     OW22099   4.647   3.132   3.668 -0.3829  0.1966  0.1642
 3546SOL    HW122100   4.669   3.116   3.759  0.2008  0.0950  0.0084
 3546SOL    HW222101   4.723   3.181   3.636 -0.0049 -0.8853 -0.5986
 3547SOL     OW22102   2.187   0.345   3.216  0.2641 -0.7906 -0.2398
 3547SOL    HW122103   2.131   0.351   3.138 -1.1320 -3.1556  0.5656
 3547SOL    HW222104   2.244   0.283   3.169  1.5399  0.2666 -0.0896
 3548SOL     OW22105   1.012   1.593   9.881 -0.3212 -0.1652 -0.2565
 3548SOL    HW122106   0.924   1.595   9.917 -0.1564 -1.5898  0.2172
 3548SOL    HW222107   1.063   1.593   9.962 -1.4526  1.1247  0.4399
 3549SOL     OW22108   4.522   4.205  17.162 -0.2852 -0.5471  0.2735
 3549SOL    HW122109   4.489   4.173  17.078 -1.6747 -1.6944  1.2406
 3549SOL    HW222110   4.467   4.283  17.166  0.3180  0.0231 -2.9303
 3550SOL     OW22111   1.745   3.532   4.782 -0.3609  0.1251 -0.3153
 3550SOL    HW122112   1.659   3.573   4.772  0.0579  0.5726 -2.0929
 3550SOL    HW222113   1.802   3.607   4.796 -1.1440  0.5831  0.3731
 3551SOL     OW22114   2.649   0.064  13.617 -0.5221  0.6790  0.5652
 3551SOL    HW122115   2.652   4.700  13.652 -0.4956  0.7033  0.6262
 3551SOL    HW222116   2.635   0.107  13.702 -0.3948 -0.8858  1.3860
 3552SOL     OW22117   4.157   0.481   7.978  0.3760  0.3504 -0.0665
 3552SOL    HW122118   4.147   0.386   7.967  2.3081  0.2391 -0.7858
 3552SOL    HW222119   4.130   0.501   7.889  0.0035 -1.2906 -0.3309
 3553SOL     OW22120   1.723   4.222  10.140 -0.3199 -0.3537  0.1522
 3553SOL    HW122121   1.740   4.131  10.165  2.9016 -0.1273 -1.2050
 3553SOL    HW222122   1.697   4.258  10.224  1.7606 -1.8059  1.4170
 3554SOL     OW22123   3.320   2.057  12.906  0.1795  0.1430  0.0061
 3554SOL    HW122124   3.343   2.019  12.822  2.3760 -0.1069  0.7327
 3554SOL    HW222125   3.403   2.065  12.952 -1.2620  1.2148  2.4403
 3555SOL     OW22126   0.953   1.936   0.537  0.0277  0.4480 -0.5208
 3555SOL    HW122127   0.898   1.954   0.613 -3.2314 -0.1943 -2.7312
 3555SOL    HW222128   1.012   1.876   0.584  0.1177  2.3895  1.8268
 3556SOL     OW22129   0.930   3.630  15.298  0.3854 -0.7003  0.1419
 3556SOL    HW122130   0.886   3.696  15.352  1.7410  0.9369 -0.7548
 3556SOL    HW222131   0.908   3.658  15.210 -1.9231 -0.9749  0.6350
 3557SOL     OW22132   1.379   3.818   0.057  0.5480  0.5112 -0.2085
 3557SOL    HW122133   1.469   3.851   0.060 -0.1214  2.1453  3.0632
 3557SOL    HW222134   1.376   3.732   0.098  0.7911  0.6375  0.0789
 3558SOL     OW22135   1.307   1.507   5.546  0.1863  0.1656 -0.2287
 3558SOL    HW122136   1.244   1.539   5.481  0.3906  0.2803 -0.3703
 3558SOL    HW222137   1.299   1.561   5.624  0.6089 -1.2740  0.8147
 3559SOL     OW22138   1.492   2.276   4.321 -0.1593 -0.1244 -0.1486
 3559SOL    HW122139   1.425   2.214   4.349 -0.1412  0.9186  2.1551
 3559SOL    HW222140   1.569   2.229   4.353 -0.2622  0.0234  0.3160
 3560SOL     OW22141   4.119   1.786   6.834 -0.4899  0.3048 -0.4008
 3560SOL    HW122142   4.159   1.731   6.766 -0.8785 -1.3840  0.7235
 3560SOL    HW222143   4.041   1.825   6.796  0.0484  2.1641  0.4041
 3561SOL     OW22144   0.251   2.189   8.744 -0.3252 -0.0067  0.4043
 3561SOL    HW122145   0.162   2.204   8.711 -0.2825 -0.7224 -0.0160
 3561SOL    HW222146   0.274   2.282   8.755 -1.2519  0.2196  0.4222
 3562SOL     OW22147   4.133   4.244   1.266  0.7094  0.6580  0.4327
 3562SOL    HW122148   4.181   4.174   1.221  0.2424  0.7106 -0.1425
 3562SOL    HW222149   4.177   4.260   1.350  3.6041  0.8434 -1.1331
 3563SOL     OW22150   2.022   3.303   4.926  0.6041  0.3662 -0.6521
 3563SOL    HW122151   2.105   3.262   4.948 -0.1570 -1.3277 -0.9055
 3563SOL    HW222152   2.043   3.323   4.835  1.8187 -1.6267 -0.8118
 3564SOL     OW22153   2.492   2.674   2.945 -0.3310 -0.5404 -0.1749
 3564SOL    HW122154   2.474   2.757   2.988  2.5723 -1.6394  3.1594
 3564SOL    HW222155   2.551   2.706   2.877  1.5905 -1.9283  0.8565
 3565SOL     OW22156   4.355   2.359   8.901 -0.3265 -0.1078  0.4343
 3565SOL    HW122157   4.429   2.354   8.841  0.6233 -1.3290  1.6861
 3565SOL    HW222158   4.349   2.266   8.921  1.8029 -0.0328  1.5087
 3566SOL     OW22159   2.820   0.822   8.060  0.0665  0.3054  0.0073
 3566SOL    HW122160   2.885   0.849   8.124  0.0160  0.6837 -0.1020
 3566SOL    HW222161   2.745   0.876   8.085 -0.2170 -0.0998  0.0407
 3567SOL     OW22162   4.251   2.231   9.464 -0.0446  0.4792 -0.7643
 3567SOL    HW122163   4.300   2.167   9.515 -0.3286 -0.9690 -2.3028
 3567SOL    HW222164   4.167   2.185   9.459  0.5995 -0.8870  1.4134
 3568SOL     OW22165   2.162   0.309   7.279 -0.5553 -0.3564  0.1234
 3568SOL    HW122166   2.170   0.346   7.367 -0.1275  0.0743 -0.0982
 3568SOL    HW222167   2.248   0.336   7.246 -0.3074  0.8437  1.7641
 3569SOL     OW22168   3.574   0.804   2.899 -0.3992 -0.1756 -0.2538
 3569SOL    HW122169   3.522   0.729   2.928  0.3989 -0.4465  0.4771
 3569SOL    HW222170   3.598   0.851   2.979 -2.6913 -1.7754  1.3929
 3570SOL     OW22171   4.460   1.313  17.584  0.1773  0.8280  0.1255
 3570SOL    HW122172   4.451   1.404  17.559 -0.5237  0.7488  0.0795
 3570SOL    HW222173   4.515   1.281  17.512  0.1253  0.0373  0.4349
 3571SOL     OW22174   4.027   3.331  17.270 -0.5910  0.0253 -0.1194
 3571SOL    HW122175   3.940   3.351  17.306 -0.7989  0.4997 -0.8788
 3571SOL    HW222176   4.065   3.414  17.243  1.4282 -1.4218 -1.6787
 3572SOL     OW22177   3.983   2.867   3.940  0.9534 -0.2293 -0.4617
 3572SOL    HW122178   3.991   2.866   3.845  2.4178  1.0255 -0.3425
 3572SOL    HW222179   4.068   2.903   3.963  1.4031 -0.4768 -1.7377
 3573SOL     OW22180   3.105   4.447   5.688 -0.2529  0.3332 -0.7464
 3573SOL    HW122181   3.045   4.493   5.629 -2.1035  0.0666  0.9035
 3573SOL    HW222182   3.080   4.356   5.669  0.6422  0.1864 -1.2280
 3574SOL     OW22183   4.170   1.516  12.335  0.1542 -0.5244  0.2636
 3574SOL    HW122184   4.258   1.514  12.299 -0.0329 -1.7665 -0.1178
 3574SOL    HW222185   4.174   1.421  12.341 -2.3117 -0.6780 -0.4949
 3575SOL     OW22186   3.433   4.335   9.243 -0.0967  0.2851 -0.2008
 3575SOL    HW122187   3.403   4.248   9.270 -0.4492  0.6272  0.5041
 3575SOL    HW222188   3.438   4.332   9.147  1.7701  2.5772 -0.1781
 3576SOL     OW22189   3.999   4.255   5.240 -0.0970 -0.8827  0.2052
 3576SOL    HW122190   3.931   4.204   5.195  1.9813 -4.1486  0.7761
 3576SOL    HW222191   3.999   4.330   5.180  1.3634 -2.5415 -1.8899
 3577SOL     OW22192   4.060   1.739   4.650  0.0615  0.5191 -0.1218
 3577SOL    HW122193   4.004   1.706   4.720  2.2261 -1.8406  0.5222
 3577SOL    HW222194   4.097   1.654   4.626  0.5772  0.4277  1.0103
 3578SOL     OW22195   0.167   3.399   5.597  0.3536 -0.2272  0.5733
 3578SOL    HW122196   0.104   3.417   5.527  1.4003  0.6467 -0.1608
 3578SOL    HW222197   0.233   3.353   5.544 -1.4530 -2.8208  0.5614
 3579SOL     OW22198   3.382   2.311   1.142 -0.3709 -0.3562  0.1204
 3579SOL    HW122199   3.471   2.339   1.162  0.5968 -3.0797 -0.4021
 3579SOL    HW222200   3.400   2.217   1.147  0.6841 -0.1625 -0.1740
 3580SOL     OW22201   3.806   2.972   4.960  0.1041 -0.8043 -0.2350
 3580SOL    HW122202   3.721   3.003   4.991  0.2364 -0.5449 -0.1275
 3580SOL    HW222203   3.863   3.017   5.023 -0.3395 -1.5037  0.6675
 3581SOL     OW22204   0.695   4.177   5.684 -0.2331 -0.2273  0.1516
 3581SOL    HW122205   0.613   4.133   5.705 -1.0541  0.3356 -1.9076
 3581SOL    HW222206   0.699   4.236   5.759  0.5573  0.6822 -0.6057
 3582SOL     OW22207   1.803   0.756   2.435 -0.2723  0.5984 -0.4607
 3582SOL    HW122208   1.855   0.788   2.509 -0.2466 -0.0795 -0.1861
 3582SOL    HW222209   1.860   0.794   2.367  0.2676 -1.1667 -0.9947
 3583SOL     OW22210   4.459   3.249   5.249  0.2250  0.0867  0.2114
 3583SOL    HW122211   4.550   3.231   5.226 -0.3753 -0.6603 -1.5759
 3583SOL    HW222212   4.426   3.168   5.209  0.0196 -0.6077  1.7638
 3584SOL     OW22213   1.647   0.690   7.156 -0.6717  0.2520  0.1195
 3584SOL    HW122214   1.670   0.730   7.072 -0.9197  0.0537 -0.0450
 3584SOL    HW222215   1.553   0.684   7.139 -0.6861 -0.1896  0.3376
 3585SOL     OW22216   3.539   0.681   4.871 -0.2723 -0.1756 -0.4235
 3585SOL    HW122217   3.585   0.732   4.804 -0.2763  1.8995  1.1484
 3585SOL    HW222218   3.480   0.624   4.821  1.3606 -0.1575 -2.3780
 3586SOL     OW22219   2.855   2.517  11.322 -0.4266  0.1349 -0.4018
 3586SOL    HW122220   2.885   2.465  11.247  1.0673  0.6103 -0.1466
 3586SOL    HW222221   2.898   2.601  11.303 -3.4353  1.6304 -0.6228
 3587SOL     OW22222   2.251   1.534  10.875  0.0752  0.0966 -0.4074
 3587SOL    HW122223   2.243   1.439  10.864 -3.4296  0.0840  2.4208
 3587SOL    HW222224   2.158   1.554  10.885  0.3417  0.7258  0.7974
 3588SOL     OW22225   2.889   1.695   3.193 -0.7963  0.0551 -0.3951
 3588SOL    HW122226   2.836   1.622   3.161 -1.9228  0.6817  0.0405
 3588SOL    HW222227   2.899   1.753   3.118 -0.4699  0.5780  0.0537
 3589SOL     OW22228   1.499   1.208   7.644  0.0989  0.3007  0.4630
 3589SOL    HW122229   1.587   1.232   7.615  0.7194 -0.4523  1.7360
 3589SOL    HW222230   1.466   1.291   7.678  1.3016  1.2684 -0.7056
 3590SOL     OW22231   1.263   4.106   1.241 -0.1412 -0.2183 -0.0126
 3590SOL    HW122232   1.328   4.078   1.176 -0.6591 -1.7806  0.1409
 3590SOL    HW222233   1.186   4.133   1.191 -0.6041 -0.5035  0.5478
 3591SOL     OW22234   1.068   2.195   7.329  0.1431  0.2503  0.3606
 3591SOL    HW122235   1.113   2.124   7.374 -0.9675 -0.4192  0.3957
 3591SOL    HW222236   1.130   2.238   7.269 -1.3153 -0.5916 -1.7260
 3592SOL     OW22237   1.305   1.687   8.415 -0.3840  0.1837  0.1070
 3592SOL    HW122238   1.308   1.768   8.464 -0.8367  0.3237 -0.0980
 3592SOL    HW222239   1.318   1.711   8.323 -0.1276  0.7379  0.2903
 3593SOL     OW22240   4.349   1.367   9.756 -0.0005  0.6482 -0.2422
 3593SOL    HW122241   4.351   1.355   9.851  3.4497 -1.1109 -0.5294
 3593SOL    HW222242   4.303   1.285   9.738  0.5147  0.9543 -2.9478
 3594SOL     OW22243   0.783   1.921   5.949 -0.0752  0.0259 -0.4286
 3594SOL    HW122244   0.802   1.974   6.026 -0.6642 -0.0950 -0.2025
 3594SOL    HW222245   0.721   1.863   5.994 -1.6167  2.2876  0.3517
 3595SOL     OW22246   4.721   1.753   7.361 -0.7139  0.2951 -1.1886
 3595SOL    HW122247   0.064   1.776   7.297  0.8703 -0.0450  0.3769
 3595SOL    HW222248   4.703   1.665   7.330 -1.8456 -0.3586  1.4264
 3596SOL     OW22249   3.250   4.045   3.198 -0.2565  0.3292 -0.5224
 3596SOL    HW122250   3.253   4.137   3.173 -2.2328  0.3997 -0.4618
 3596SOL    HW222251   3.336   4.016   3.167 -0.5633 -1.0523 -0.0670
 3597SOL     OW22252   1.794   4.353  12.715 -0.1714 -0.4314 -0.2883
 3597SOL    HW122253   1.775   4.353  12.809  0.1834  1.0339 -0.2180
 3597SOL    HW222254   1.879   4.395  12.724  0.7495 -2.6693  1.5802
 3598SOL     OW22255   4.488   3.532   2.815  0.2694 -0.0856  0.1649
 3598SOL    HW122256   4.424   3.541   2.886 -0.1049 -1.0458 -0.0578
 3598SOL    HW222257   4.445   3.471   2.756 -3.5405  1.9094  0.8688
 3599SOL     OW22258   3.837   1.678   5.536 -0.1233  0.5536  0.6593
 3599SOL    HW122259   3.747   1.647   5.545  0.1419 -0.3696  0.0814
 3599SOL    HW222260   3.880   1.600   5.570 -0.5489 -0.2053 -0.5593
 3600SOL     OW22261   1.527   4.303   3.909  0.2832 -0.5365 -0.1153
 3600SOL    HW122262   1.435   4.276   3.912 -0.1630  1.3022  2.3630
 3600SOL    HW222263   1.512   4.397   3.906  1.1702 -0.3420  1.1162
 3601SOL     OW22264   0.219   0.665  14.392  0.2675  0.0294 -0.2346
 3601SOL    HW122265   0.286   0.717  14.437  1.0593 -0.2771 -1.0419
 3601SOL    HW222266   0.191   0.603  14.460  1.7851 -1.1430 -0.6803
 3602SOL     OW22267   3.681   3.278  12.656 -0.6188  0.4314  0.0291
 3602SOL    HW122268   3.604   3.315  12.699 -0.6225  1.4555 -0.8542
 3602SOL    HW222269   3.752   3.307  12.713 -0.8637 -2.4659  1.7878
 3603SOL     OW22270   3.995   3.029   7.494 -0.1148 -0.4867 -0.4277
 3603SOL    HW122271   4.056   3.033   7.568  0.6941 -0.4224 -1.1029
 3603SOL    HW222272   4.013   2.945   7.451 -0.3711 -0.8473  0.1723
 3604SOL     OW22273   2.751   3.968   8.675 -0.3573 -0.0335 -0.0025
 3604SOL    HW122274   2.840   3.983   8.641 -0.0597  2.5726  1.9259
 3604SOL    HW222275   2.745   4.031   8.746 -2.1053  0.9457 -1.0376
 3605SOL     OW22276   3.476   0.720  11.881  0.2722  0.0898 -0.5493
 3605SOL    HW122277   3.498   0.807  11.915 -0.5848 -0.2228  0.8047
 3605SOL    HW222278   3.497   0.723  11.788 -0.3161  0.0354 -0.6830
 3606SOL     OW22279   1.734   1.666  13.781 -0.0145 -0.3601 -0.3269
 3606SOL    HW122280   1.684   1.684  13.701 -0.4802  2.1545  0.5419
 3606SOL    HW222281   1.758   1.752  13.815  2.1628 -1.2823  0.4491
 3607SOL     OW22282   0.928   4.630  14.488 -0.2810  0.6755  0.0534
 3607SOL    HW122283   0.947   4.636  14.394  0.5161 -0.1873  0.1575
 3607SOL    HW222284   1.000   4.687  14.516 -1.0404  1.0200  1.2874
 3608SOL     OW22285   2.332   0.540   6.581  0.3864  0.2296  0.1830
 3608SOL    HW122286   2.256   0.483   6.579 -0.3828  1.1882  1.8830
 3608SOL    HW222287   2.349   0.520   6.674  4.4533 -0.4402 -0.6882
 3609SOL     OW22288   4.088   2.405   6.244 -0.6828  0.2892 -0.2574
 3609SOL    HW122289   4.105   2.489   6.286  0.5388 -0.1289  0.0764
 3609SOL    HW222290   4.034   2.364   6.313 -1.7192 -0.7072 -1.6544
 3610SOL     OW22291   0.575   1.155   2.365  0.0787 -0.4619 -0.6681
 3610SOL    HW122292   0.514   1.162   2.439  2.0297 -1.2355  1.0390
 3610SOL    HW222293   0.536   1.202   2.292  0.2295  2.5949  1.2200
 3611SOL     OW22294   1.853   3.349  17.159  0.6544 -0.5540 -0.5300
 3611SOL    HW122295   1.824   3.438  17.176 -0.9557 -1.4492  1.4258
 3611SOL    HW222296   1.783   3.302  17.205  0.2825  1.1248  0.5996
 3612SOL     OW22297   0.707   4.291   7.425 -0.2503  0.1869  0.3384
 3612SOL    HW122298   0.643   4.232   7.465 -0.1324 -0.0073  0.2387
 3612SOL    HW222299   0.659   4.321   7.348 -2.1598 -0.5404  1.2571
 3613SOL     OW22300   3.051   1.296   3.142  0.2105  0.3005 -0.3268
 3613SOL    HW122301   3.029   1.358   3.212 -0.1072  0.4451 -0.5512
 3613SOL    HW222302   3.142   1.324   3.132  0.3565 -0.0419  0.0521
 3614SOL     OW22303   0.460   0.606  15.405  0.5550  0.3414  0.1648
 3614SOL    HW122304   0.527   0.544  15.430  0.0425 -0.2751  0.0114
 3614SOL    HW222305   0.517   0.648  15.341  0.3589  0.3980  0.0240
 3615SOL     OW22306   0.626   2.916   3.231  0.7040  0.2949 -0.0464
 3615SOL    HW122307   0.581   2.895   3.149  1.4038  1.3558 -0.7007
 3615SOL    HW222308   0.585   2.857   3.295  0.1865  0.4711 -0.2098
 3616SOL     OW22309   4.216   1.294   4.933  0.2784  0.0974 -0.1133
 3616SOL    HW122310   4.122   1.308   4.928  0.2376 -0.8029 -1.8628
 3616SOL    HW222311   4.209   1.209   4.976  1.8737 -0.6518 -1.3291
 3617SOL     OW22312   2.060   3.950   5.550  0.4773  0.0557 -0.3829
 3617SOL    HW122313   2.033   4.035   5.584 -0.3705 -0.3253 -0.1044
 3617SOL    HW222314   1.985   3.895   5.573 -0.4601  1.3340 -0.3631
 3618SOL     OW22315   0.233   2.378   3.564  0.1142  0.4642 -0.4380
 3618SOL    HW122316   0.237   2.465   3.523 -0.9464  0.0554 -1.3929
 3618SOL    HW222317   0.185   2.400   3.644 -1.5619  1.0123 -1.6040
 3619SOL     OW22318   2.752   4.682   8.815 -0.3613 -0.6023  0.1714
 3619SOL    HW122319   2.709   0.030   8.772 -0.9691 -0.6426  0.7108
 3619SOL    HW222320   2.668   4.649   8.847 -1.3547 -0.6953 -2.5776
 3620SOL     OW22321   0.935   1.022   9.014 -0.2772  0.0170  0.4642
 3620SOL    HW122322   0.959   0.956   8.950  2.2372  0.6932  0.7111
 3620SOL    HW222323   0.968   1.100   8.970 -1.2602 -0.1064 -0.4749
 3621SOL     OW22324   3.980   2.623   8.019  0.6705  0.2930  0.2035
 3621SOL    HW122325   4.032   2.543   8.012 -0.0038 -0.0799 -0.5619
 3621SOL    HW222326   3.896   2.578   8.012  1.6134 -1.5298  0.5915
 3622SOL     OW22327   0.081   3.219  16.603  0.4504 -0.4685 -0.5316
 3622SOL    HW122328   0.031   3.142  16.630 -0.5093  0.1540 -0.5621
 3622SOL    HW222329   0.165   3.190  16.640  1.0957  1.5201 -0.4364
 3623SOL     OW22330   3.728   4.236   2.687  0.0597 -0.1254  0.1852
 3623SOL    HW122331   3.653   4.280   2.646  1.0603  0.3592 -1.1303
 3623SOL    HW222332   3.721   4.258   2.780  1.4334 -0.3883  0.3552
 3624SOL     OW22333   1.386   2.432   5.960 -0.0792 -0.1898  0.0124
 3624SOL    HW122334   1.439   2.355   5.977  3.6826  1.9709 -2.0471
 3624SOL    HW222335   1.432   2.474   5.887 -0.3432  1.7755  0.9734
 3625SOL     OW22336   2.149   1.156   6.236 -0.5027 -0.2244  0.4978
 3625SOL    HW122337   2.083   1.183   6.301  0.0165  0.6577  0.6516
 3625SOL    HW222338   2.126   1.214   6.163  2.0734 -1.4077 -1.2304
 3626SOL     OW22339   1.631   4.515   7.280  0.5090  0.5734  0.2458
 3626SOL    HW122340   1.699   4.456   7.313 -1.7224 -1.9295  0.3762
 3626SOL    HW222341   1.679   4.598   7.278  2.4440 -0.5548 -0.8933
 3627SOL     OW22342   0.566   3.173   4.305  0.1307  0.2095  0.1868
 3627SOL    HW122343   0.501   3.169   4.235  0.1341  2.6797  0.0494
 3627SOL    HW222344   0.618   3.248   4.279 -0.8907  0.4593 -1.1469
 3628SOL     OW22345   4.422   3.730  11.411  0.4016  0.2618 -0.0013
 3628SOL    HW122346   4.491   3.672  11.441  1.9298  1.5851 -0.9774
 3628SOL    HW222347   4.443   3.731  11.318 -1.7338  0.0869 -0.5055
 3629SOL     OW22348   2.310   0.816  16.393  0.1734 -0.0938 -0.2218
 3629SOL    HW122349   2.264   0.895  16.367  1.2500  0.6596  0.1637
 3629SOL    HW222350   2.400   0.837  16.369  0.0362  0.9923  0.1949
 3630SOL     OW22351   4.503   3.679   9.282  0.5061 -0.3439  0.3376
 3630SOL    HW122352   4.589   3.690   9.322 -0.3837 -0.3801  2.2232
 3630SOL    HW222353   4.533   3.625   9.208  0.5440 -1.2131  0.9955
 3631SOL     OW22354   1.723   3.283  11.634  0.7641  0.8367  0.0008
 3631SOL    HW122355   1.677   3.303  11.552  0.1855  0.4088  0.2226
 3631SOL    HW222356   1.782   3.210  11.614  0.2839  0.0982  1.3257
 3632SOL     OW22357   1.621   3.820   0.695 -0.3134  0.1262  0.1057
 3632SOL    HW122358   1.552   3.873   0.735  0.3471  1.5208 -0.5696
 3632SOL    HW222359   1.617   3.849   0.604 -1.0246 -0.4015 -0.0262
 3633SOL     OW22360   0.922   2.880  14.251 -0.1678 -0.1267  0.4067
 3633SOL    HW122361   1.007   2.914  14.224 -1.7632  2.9831 -0.6598
 3633SOL    HW222362   0.927   2.786  14.233 -1.5530  0.0936 -1.1303
 3634SOL     OW22363   3.020   2.256  16.006 -0.1901 -0.4471  0.4044
 3634SOL    HW122364   3.032   2.329  16.066 -1.7686  0.4302 -0.3473
 3634SOL    HW222365   2.961   2.297  15.943 -0.9082  1.1306  2.0982
 3635SOL     OW22366   3.893   1.596  13.849  0.1775  0.0497 -0.1898
 3635SOL    HW122367   3.799   1.616  13.847 -0.0855 -1.0544  1.2619
 3635SOL    HW222368   3.946   1.672  13.871  0.5806  0.0101 -1.0291
 3636SOL     OW22369   1.203   1.753   5.077  0.3934  0.1003 -0.6261
 3636SOL    HW122370   1.238   1.839   5.055 -1.5664  0.6490 -1.5623
 3636SOL    HW222371   1.152   1.729   5.000 -0.7509 -0.2677  0.2496
 3637SOL     OW22372   2.432   2.660   4.918 -0.0746  0.4722 -0.8382
 3637SOL    HW122373   2.399   2.737   4.872 -2.2713  0.7287  1.1212
 3637SOL    HW222374   2.384   2.593   4.868 -2.1003  2.6941 -1.8890
 3638SOL     OW22375   0.961   1.221   0.300 -0.3866  0.3724 -0.2961
 3638SOL    HW122376   1.043   1.174   0.284  0.5497  2.6340 -2.1205
 3638SOL    HW222377   0.958   1.221   0.396  2.2247 -1.2049 -0.2276
 3639SOL     OW22378   3.867   3.993   4.171  0.7890  0.1444 -0.3865
 3639SOL    HW122379   3.775   3.966   4.174  0.9192 -0.1417  0.8287
 3639SOL    HW222380   3.886   3.996   4.264 -0.7084  0.2539 -0.0918
 3640SOL     OW22381   2.832   3.938   9.237  0.0340  0.2504 -0.3875
 3640SOL    HW122382   2.798   3.943   9.147  1.4557 -0.0093 -0.9326
 3640SOL    HW222383   2.816   3.846   9.257  1.3431  0.5778  2.0730
 3641SOL     OW22384   0.975   1.536   8.841 -0.0855 -0.4316  0.2558
 3641SOL    HW122385   0.920   1.613   8.851  2.3547  1.3813 -0.2476
 3641SOL    HW222386   0.952   1.496   8.925 -1.6525 -0.6904 -0.3065
 3642SOL     OW22387   0.707   2.718  10.729 -0.2869 -0.1979 -0.0677
 3642SOL    HW122388   0.731   2.809  10.748  2.4193 -0.7574 -0.8807
 3642SOL    HW222389   0.711   2.685  10.818  0.8496  1.0306  0.3192
 3643SOL     OW22390   1.247   0.692   5.293 -0.1057  0.4590  0.0576
 3643SOL    HW122391   1.175   0.629   5.297 -0.3397  0.7177 -0.0112
 3643SOL    HW222392   1.312   0.635   5.252 -1.1060 -0.5171 -0.1883
 3644SOL     OW22393   3.981   0.268   9.131 -0.5327 -0.8499 -0.1667
 3644SOL    HW122394   3.914   0.258   9.199  0.6103  2.7766  1.4559
 3644SOL    HW222395   3.944   0.332   9.070 -2.4745 -0.6540  1.2138
 3645SOL     OW22396   2.961   3.289   3.665 -0.0393 -0.2808 -0.1958
 3645SOL    HW122397   3.050   3.253   3.669  0.7030  1.4733 -0.5753
 3645SOL    HW222398   2.965   3.298   3.570 -2.7500 -0.5517 -0.3272
 3646SOL     OW22399   3.874   3.327   2.743  0.5598 -0.3857 -0.0759
 3646SOL    HW122400   3.949   3.383   2.763 -0.2605  0.0262  1.8904
 3646SOL    HW222401   3.832   3.396   2.693 -0.6827 -0.4884  0.8159
 3647SOL     OW22402   1.432   3.993   9.371 -0.0182  0.4379  0.1726
 3647SOL    HW122403   1.502   4.027   9.427 -1.1354  1.3303  1.0269
 3647SOL    HW222404   1.446   4.050   9.296  1.5740  0.1125  0.2199
 3648SOL     OW22405   1.492   0.560   3.717 -0.0462  0.6922 -0.2369
 3648SOL    HW122406   1.403   0.584   3.741  0.6424  1.2787  1.6793
 3648SOL    HW222407   1.468   0.485   3.662  0.5299  0.1550  0.2376
 3649SOL     OW22408   2.722   2.654  13.409  0.2878 -0.9533 -0.0014
 3649SOL    HW122409   2.640   2.704  13.418  1.1272  0.2850  0.7631
 3649SOL    HW222410   2.776   2.729  13.434 -1.0925 -0.1934  0.7561
 3650SOL     OW22411   1.357   0.997  13.708  0.7141  0.2439  0.2600
 3650SOL    HW122412   1.281   1.052  13.723  0.4581  0.0922 -0.5105
 3650SOL    HW222413   1.337   0.956  13.624  2.9304 -3.0960  1.3736
 3651SOL     OW22414   3.178   4.004   7.443  0.0355 -0.0900  0.1887
 3651SOL    HW122415   3.199   3.994   7.536 -0.2109  3.0094  0.5903
 3651SOL    HW222416   3.105   3.944   7.432 -1.9760  2.2617  0.7609
 3652SOL     OW22417   0.804   2.471   6.923 -0.1681 -0.2021  0.5558
 3652SOL    HW122418   0.879   2.529   6.930  0.4580 -0.8811 -0.4786
 3652SOL    HW222419   0.749   2.495   6.997  0.2425  2.5887 -0.0632
 3653SOL     OW22420   1.253   4.602   2.469  0.0803  0.1229 -0.1308
 3653SOL    HW122421   1.242   4.608   2.374 -0.4804  1.8795  0.0480
 3653SOL    HW222422   1.342   4.639   2.477  0.0856  0.2936 -0.9793
 3654SOL     OW22423   1.465   3.046   8.294  0.4843 -0.2127  0.3737
 3654SOL    HW122424   1.425   3.113   8.239  2.9873  2.0100  1.2185
 3654SOL    HW222425   1.549   3.025   8.252 -0.1921  1.7902 -1.9313
 3655SOL     OW22426   3.142   3.301   4.293 -0.7614 -0.3870 -0.1728
 3655SOL    HW122427   3.216   3.288   4.234 -0.1026 -1.0072  0.8038
 3655SOL    HW222428   3.068   3.249   4.260 -1.7932 -1.1705  3.4047
 3656SOL     OW22429   0.637   3.360  12.570 -0.3763  0.1353 -0.2307
 3656SOL    HW122430   0.569   3.416  12.607  2.1777  1.5088  2.4965
 3656SOL    HW222431   0.678   3.341  12.655 -0.2794 -0.6167 -0.4490
 3657SOL     OW22432   0.272   2.648   4.428 -0.0245 -0.1099 -0.8774
 3657SOL    HW122433   0.245   2.730   4.468  0.8106 -1.0501  1.6665
 3657SOL    HW222434   0.368   2.649   4.421 -0.0454 -1.1538 -1.3649
 3658SOL     OW22435   2.130   0.176   3.749 -0.4282  0.3627  0.0089
 3658SOL    HW122436   2.037   0.168   3.728 -0.9145  0.5821  2.0877
 3658SOL    HW222437   2.162   0.177   3.659  1.8101  2.0786  0.8155
 3659SOL     OW22438   3.803   1.848  15.107  0.4266 -0.3602  0.6095
 3659SOL    HW122439   3.743   1.840  15.182 -1.1166  4.7835 -0.0469
 3659SOL    HW222440   3.840   1.933  15.129  3.3420 -1.3384 -0.5446
 3660SOL     OW22441   2.202   1.732   6.964 -0.0589 -0.2463  0.0931
 3660SOL    HW122442   2.198   1.697   7.053 -0.2267 -0.2335  0.0901
 3660SOL    HW222443   2.283   1.690   6.936  0.1483  0.8534 -0.9385
 3661SOL     OW22444   0.727   0.303   0.636 -0.2315  0.1398  0.0566
 3661SOL    HW122445   0.631   0.308   0.638 -0.2261  0.3002 -0.0679
 3661SOL    HW222446   0.750   0.381   0.586  3.1972 -1.3118 -0.5748
 3662SOL     OW22447   3.123   3.820   1.998  0.0246  0.0377 -0.3908
 3662SOL    HW122448   3.115   3.727   1.978 -0.0144 -0.1477  0.4782
 3662SOL    HW222449   3.083   3.812   2.085 -1.3495 -1.0026 -1.1259
 3663SOL     OW22450   0.486   3.767  15.568 -0.5662  0.5738 -0.0497
 3663SOL    HW122451   0.466   3.735  15.480  1.2450 -1.7959  0.4227
 3663SOL    HW222452   0.406   3.759  15.620 -0.4136 -0.9895 -0.0472
 3664SOL     OW22453   0.873   3.836  11.721 -0.2619  0.4411 -0.3966
 3664SOL    HW122454   0.892   3.742  11.711 -0.9437  0.4045 -1.3208
 3664SOL    HW222455   0.932   3.859  11.793  0.0085  0.1165 -0.5116
 3665SOL     OW22456   0.709   0.646   7.411 -0.1805 -0.5543  0.0163
 3665SOL    HW122457   0.731   0.699   7.487  1.2483 -0.5525 -0.4073
 3665SOL    HW222458   0.786   0.671   7.360 -0.4571 -0.6455 -0.4422
 3666SOL     OW22459   1.414   0.465   8.955  0.0108  0.6456 -0.1796
 3666SOL    HW122460   1.424   0.544   8.903 -0.5431  0.2023 -0.9584
 3666SOL    HW222461   1.321   0.463   8.977 -0.1324  2.2562 -0.6086
 3667SOL     OW22462   0.812   3.121  14.509  0.3656  0.4993  0.5195
 3667SOL    HW122463   0.879   3.189  14.512 -0.0349  0.9235 -0.1443
 3667SOL    HW222464   0.763   3.132  14.591 -2.1330  2.1383 -1.1691
 3668SOL     OW22465   0.045   1.384   6.207 -0.2610 -0.2023  0.1166
 3668SOL    HW122466   0.123   1.431   6.179 -0.4266 -0.1659 -0.2835
 3668SOL    HW222467   0.003   1.391   6.121  1.4528 -0.2243 -0.7232
 3669SOL     OW22468   3.922   1.674  15.837  0.4122 -0.2553  0.1412
 3669SOL    HW122469   3.896   1.595  15.884 -1.4400  1.2554  1.6410
 3669SOL    HW222470   3.850   1.736  15.840 -0.8669 -1.7850  1.1228
 3670SOL     OW22471   4.614   4.649   3.026 -0.1406 -0.1169 -0.4696
 3670SOL    HW122472   4.547   4.651   2.958  0.1907  1.6752 -0.7440
 3670SOL    HW222473   4.693   4.625   2.978  0.2017  1.9920 -0.9577
 3671SOL     OW22474   0.599   0.237   3.582  0.6471 -0.0233  0.2245
 3671SOL    HW122475   0.620   0.157   3.631  2.9094 -0.8221 -2.0434
 3671SOL    HW222476   0.645   0.307   3.628 -0.0653  1.5234 -1.4549
 3672SOL     OW22477   0.572   2.341   2.920  0.0593  0.0269  0.0806
 3672SOL    HW122478   0.582   2.380   2.833  0.4450 -2.5832 -1.0537
 3672SOL    HW222479   0.628   2.406   2.962 -0.3603  0.4005  0.0585
 3673SOL     OW22480   1.731   2.126  11.013  0.0861  0.2608  0.5659
 3673SOL    HW122481   1.651   2.074  11.022  1.4636 -2.2052 -1.1877
 3673SOL    HW222482   1.805   2.069  11.036 -0.1417 -1.0304 -1.9483
 3674SOL     OW22483   4.536   4.122   1.252  0.4410 -1.0422 -0.6241
 3674SOL    HW122484   4.482   4.153   1.325 -1.1737 -0.7446 -1.9336
 3674SOL    HW222485   4.625   4.132   1.286  1.0824 -1.5931 -2.1357
 3675SOL     OW22486   3.532   2.275   8.121 -0.2454  0.7334 -0.3586
 3675SOL    HW122487   3.606   2.214   8.115  0.9325  2.0684  0.4292
 3675SOL    HW222488   3.489   2.239   8.199 -1.2787 -1.4940 -1.9603
 3676SOL     OW22489   1.396   3.333   4.663 -0.1407  0.5375 -0.5118
 3676SOL    HW122490   1.457   3.302   4.730 -0.9659 -1.8135 -0.8438
 3676SOL    HW222491   1.399   3.428   4.678 -1.2276  0.2301  1.6414
 3677SOL     OW22492   4.397   1.326   1.360 -0.4863 -0.3135 -0.1286
 3677SOL    HW122493   4.399   1.305   1.453 -0.7763  0.0908 -0.0330
 3677SOL    HW222494   4.435   1.414   1.361 -1.3615  0.0617 -0.0239
 3678SOL     OW22495   4.530   1.957   7.812  0.6808  0.4695  0.1898
 3678SOL    HW122496   4.565   2.038   7.775  0.6325  1.4812  2.3424
 3678SOL    HW222497   4.438   1.969   7.788  0.6193  0.9877  0.6826
 3679SOL     OW22498   1.826   0.935   4.168 -0.4172 -0.4203  0.3782
 3679SOL    HW122499   1.849   0.924   4.075  1.6598  1.7154  0.6418
 3679SOL    HW222500   1.737   0.971   4.167  0.4492  1.6987  1.2993
 3680SOL     OW22501   3.724   2.940  14.180  0.5697 -0.0222  0.3623
 3680SOL    HW122502   3.795   2.879  14.165 -0.2524 -0.4907 -1.6142
 3680SOL    HW222503   3.724   2.949  14.275 -2.3987  2.3412  0.1568
 3681SOL     OW22504   4.425   2.512   7.263 -0.0276 -0.3115  0.1125
 3681SOL    HW122505   4.450   2.437   7.317  3.5928 -0.0231 -1.1212
 3681SOL    HW222506   4.505   2.565   7.261 -0.0157 -0.4139 -3.0310
 3682SOL     OW22507   0.265   1.537  11.897  0.5324 -0.0002 -0.4005
 3682SOL    HW122508   0.189   1.586  11.864  0.0178  0.1571  1.0108
 3682SOL    HW222509   0.227   1.462  11.942 -0.5681  1.1483  0.5656
 3683SOL     OW22510   0.491   3.904  10.444 -0.3568  0.6384 -0.1805
 3683SOL    HW122511   0.578   3.873  10.470 -1.4081 -3.1190 -1.1633
 3683SOL    HW222512   0.464   3.943  10.528 -0.3060  2.3435 -0.9601
 3684SOL     OW22513   3.158   0.219   3.834  0.4608  0.4536  0.1985
 3684SOL    HW122514   3.076   0.169   3.835  0.1844  0.8877 -1.4497
 3684SOL    HW222515   3.118   0.297   3.795 -1.9444 -0.8280  0.1121
 3685SOL     OW22516   3.273   0.211   5.498 -0.0176 -0.0720  0.2244
 3685SOL    HW122517   3.262   0.304   5.520 -0.6392 -0.1990  0.4305
 3685SOL    HW222518   3.210   0.194   5.428  1.3752 -0.4762 -0.9540
 3686SOL     OW22519   0.756   0.810  13.328 -0.0435 -0.2192 -0.5047
 3686SOL    HW122520   0.680   0.753  13.314 -1.5888  1.8116 -0.5595
 3686SOL    HW222521   0.819   0.757  13.280 -1.3822 -0.7723 -1.6478
 3687SOL     OW22522   0.713   0.580  11.521  0.2539 -0.6504 -0.1836
 3687SOL    HW122523   0.799   0.541  11.537  0.0505 -0.9183  0.2373
 3687SOL    HW222524   0.746   0.651  11.466  0.8187 -0.1377  0.8101
 3688SOL     OW22525   3.088   0.179   2.875 -0.5832 -0.1921  0.5262
 3688SOL    HW122526   3.139   0.100   2.895  0.3333 -0.1470 -1.5849
 3688SOL    HW222527   3.005   0.147   2.909 -0.7426  1.6293  1.8407
 3689SOL     OW22528   0.520   0.197   7.988  0.3426 -0.1016 -0.6339
 3689SOL    HW122529   0.533   0.286   7.957  0.4623  0.5676  1.2928
 3689SOL    HW222530   0.558   0.210   8.075  0.8243 -1.7923 -0.5868
 3690SOL     OW22531   0.028   4.275  11.294  0.1017 -0.0294  0.5623
 3690SOL    HW122532   0.085   4.309  11.224 -1.3913  1.6021  0.1402
 3690SOL    HW222533   0.092   4.224  11.343  0.4887 -0.3040 -0.2248
 3691SOL     OW22534   4.403   3.044  10.990 -0.0861 -0.0759 -0.4453
 3691SOL    HW122535   4.366   3.093  11.064  0.5482 -0.2936  0.0174
 3691SOL    HW222536   4.329   2.988  10.966 -0.1332  0.7166 -2.1129
 3692SOL     OW22537   1.802   2.750   2.034 -0.1481  0.1498  0.2155
 3692SOL    HW122538   1.774   2.800   1.957  0.6054 -1.1316 -0.8816
 3692SOL    HW222539   1.875   2.701   1.997 -0.8803  0.0003 -1.0405
 3693SOL     OW22540   4.584   0.095   6.966 -0.0761  0.1768 -0.1170
 3693SOL    HW122541   4.496   0.076   7.000 -2.2884  2.8976 -4.3167
 3693SOL    HW222542   4.632   0.104   7.048  2.5711 -0.4573 -1.6092
 3694SOL     OW22543   3.441   0.531   6.503  0.3736 -0.1258 -0.4115
 3694SOL    HW122544   3.405   0.509   6.417  0.2231 -1.9229  0.1067
 3694SOL    HW222545   3.515   0.583   6.472  1.2485  0.7298  3.0176
 3695SOL     OW22546   1.339   0.997  15.005 -0.4656 -0.2853  0.3417
 3695SOL    HW122547   1.273   1.008  15.073 -1.3606  2.0549 -0.9166
 3695SOL    HW222548   1.390   1.078  15.005  0.0593 -0.6131 -0.9557
 3696SOL     OW22549   4.596   3.146   7.172  0.3410 -0.2830 -0.0193
 3696SOL    HW122550   4.567   3.184   7.255  3.7926  0.9012  0.6446
 3696SOL    HW222551   4.605   3.224   7.118 -0.7063 -0.3709 -0.3130
 3697SOL     OW22552   0.668   3.540   8.284  0.6511  0.2314 -0.5679
 3697SOL    HW122553   0.638   3.482   8.355 -0.5627 -0.2917 -1.4968
 3697SOL    HW222554   0.603   3.610   8.278  0.7889  0.5574  1.5403
 3698SOL     OW22555   3.918   3.239  12.268  0.0057 -0.7888 -0.0334
 3698SOL    HW122556   3.863   3.309  12.303 -0.7612 -1.2275 -0.3528
 3698SOL    HW222557   4.000   3.282  12.246 -1.0107  1.0406 -0.2797
 3699SOL     OW22558   2.145   1.482   0.387  0.2215 -0.0243 -0.2565
 3699SOL    HW122559   2.120   1.561   0.340  0.5347  0.2359  0.0102
 3699SOL    HW222560   2.072   1.428   0.358  0.6196 -0.2102 -0.8940
 3700SOL     OW22561   4.187   0.868   8.245  0.4093  0.1310  0.6936
 3700SOL    HW122562   4.141   0.950   8.226  0.4582 -0.5459 -2.4429
 3700SOL    HW222563   4.274   0.877   8.284  0.3926 -1.5027  1.1239
 3701SOL     OW22564   3.874   1.556   3.947 -0.0805 -0.0605 -0.2874
 3701SOL    HW122565   3.888   1.593   4.034  0.0048  0.7301 -0.6409
 3701SOL    HW222566   3.800   1.601   3.906 -0.5128 -0.9854 -0.5194
 3702SOL     OW22567   0.027   0.424   8.848 -0.2545  0.5854  0.3185
 3702SOL    HW122568   0.070   0.340   8.865  1.9918  1.3666 -1.6030
 3702SOL    HW222569   0.102   0.479   8.826 -1.0077  1.7919  0.7575
 3703SOL     OW22570   1.050   0.730   2.595 -0.0329 -0.2859  0.3074
 3703SOL    HW122571   1.022   0.758   2.682 -2.3674 -0.4767 -0.3860
 3703SOL    HW222572   1.052   0.816   2.553  0.6483  0.1145  1.1472
 3704SOL     OW22573   3.587   2.756   4.089  0.4178  0.3800 -0.2444
 3704SOL    HW122574   3.492   2.749   4.093  0.3784  1.1997  0.3804
 3704SOL    HW222575   3.606   2.668   4.058 -2.9024 -0.4343  0.0176
 3705SOL     OW22576   2.706   2.400   7.769 -0.2742  0.2634  0.1037
 3705SOL    HW122577   2.758   2.471   7.806  0.1944 -0.6993  1.2965
 3705SOL    HW222578   2.639   2.450   7.724 -0.5521 -0.0682  0.1488
 3706SOL     OW22579   4.194   1.242   3.846  0.1494 -0.7632  0.6574
 3706SOL    HW122580   4.233   1.275   3.765  0.0867 -3.5463 -0.5047
 3706SOL    HW222581   4.103   1.265   3.824  0.0055 -2.7159 -0.7855
 3707SOL     OW22582   0.232   4.427   7.354  0.0745  0.3883 -0.8915
 3707SOL    HW122583   0.255   4.480   7.430  2.7366 -0.7133 -0.9396
 3707SOL    HW222584   0.291   4.453   7.283  0.1936 -1.3720 -1.4325
 3708SOL     OW22585   2.360   0.804  17.513  0.0705  0.0174 -0.3310
 3708SOL    HW122586   2.349   0.872  17.580  2.2704 -0.8820  0.9169
 3708SOL    HW222587   2.406   0.733  17.558 -0.6555 -1.1358 -1.4083
 3709SOL     OW22588   0.958   0.130   6.055 -0.2885  1.2578  0.2833
 3709SOL    HW122589   0.978   0.119   5.962  0.1409  0.7331  0.4352
 3709SOL    HW222590   1.040   0.174   6.078  0.8188 -0.3417 -0.6609
 3710SOL     OW22591   2.064   3.369  16.988  0.6124  0.2116 -0.3972
 3710SOL    HW122592   2.008   3.376  16.911 -2.0056  0.6417  1.5268
 3710SOL    HW222593   2.004   3.330  17.052  1.1805  1.1623  0.7161
 3711SOL     OW22594   1.493   2.656   9.529  0.2874  0.0772 -0.2973
 3711SOL    HW122595   1.423   2.604   9.567  2.0245 -1.2462  1.0997
 3711SOL    HW222596   1.554   2.583   9.518 -0.2816 -0.4427  0.0491
 3712SOL     OW22597   1.554   3.131   9.752  0.2071  0.0386  0.1767
 3712SOL    HW122598   1.553   3.152   9.846 -2.5289 -1.2677  0.4313
 3712SOL    HW222599   1.542   3.036   9.762  0.6924 -0.0903 -0.4687
 3713SOL     OW22600   1.158   2.036   2.471  0.1577  0.1920  0.7935
 3713SOL    HW122601   1.203   2.029   2.556  1.4422 -0.5207  0.0552
 3713SOL    HW222602   1.069   2.010   2.496 -0.5800  0.9785 -1.0310
 3714SOL     OW22603   3.323   4.317  15.696  0.5349 -0.3376 -0.1787
 3714SOL    HW122604   3.372   4.306  15.615 -0.4109 -1.6712 -0.5633
 3714SOL    HW222605   3.278   4.401  15.682  0.3778 -0.1937  1.1358
 3715SOL     OW22606   3.188   2.168   2.078  0.1251 -0.2541 -0.4905
 3715SOL    HW122607   3.244   2.154   2.154 -0.0037 -0.0641 -0.3588
 3715SOL    HW222608   3.196   2.264   2.078  0.4541 -0.2583  1.9226
 3716SOL     OW22609   4.556   1.261   4.538  0.3786  0.1300 -0.1318
 3716SOL    HW122610   4.573   1.176   4.498 -0.3637 -0.1341  0.1233
 3716SOL    HW222611   4.647   1.272   4.568  0.3831 -0.1086 -0.0597
 3717SOL     OW22612   2.292   4.620   2.564  0.0364  0.4837 -0.8893
 3717SOL    HW122613   2.255   4.707   2.577  0.8751  0.2673  2.8807
 3717SOL    HW222614   2.381   4.632   2.596 -0.0694 -0.8309 -0.0913
 3718SOL     OW22615   1.109   0.320   4.502  0.0248 -0.3147 -0.6103
 3718SOL    HW122616   1.058   0.396   4.528 -1.3275 -1.8968  1.4175
 3718SOL    HW222617   1.185   0.331   4.559 -0.3244 -0.7237 -0.0509
 3719SOL     OW22618   2.749   4.395   6.526  0.0786  0.3867 -0.1956
 3719SOL    HW122619   2.666   4.413   6.482 -0.0186 -1.1854 -0.6476
 3719SOL    HW222620   2.726   4.306   6.555 -0.4200  0.7763  0.6244
 3720SOL     OW22621   3.595   1.900   2.271 -0.4055  0.1683  0.2196
 3720SOL    HW122622   3.625   1.810   2.283 -2.5903 -0.9006 -2.4739
 3720SOL    HW222623   3.650   1.945   2.336  2.3942  1.2757 -2.8710
 3721SOL     OW22624   2.289   4.048   8.270 -0.3220 -0.2614 -0.6351
 3721SOL    HW122625   2.347   4.113   8.229  0.0243  0.2117  0.6156
 3721SOL    HW222626   2.355   3.996   8.315  2.2763  3.3497 -0.2773
 3722SOL     OW22627   4.367   4.270   6.435 -0.0709  0.1362 -0.3971
 3722SOL    HW122628   4.370   4.359   6.468  1.4890 -0.6288  1.5344
 3722SOL    HW222629   4.307   4.287   6.363 -0.4722  1.3460  0.2216
 3723SOL     OW22630   0.987   0.999   9.296 -0.1631 -0.5688  0.5091
 3723SOL    HW122631   0.943   1.080   9.322 -2.7436 -2.6254  2.5053
 3723SOL    HW222632   0.957   0.990   9.205 -2.5754  1.6012  1.0669
 3724SOL     OW22633   2.346   1.492   4.837 -0.3850 -0.1405  0.3116
 3724SOL    HW122634   2.295   1.547   4.897 -0.9187  2.2120 -2.2380
 3724SOL    HW222635   2.370   1.416   4.889 -0.4039  0.3306  0.9982
 3725SOL     OW22636   3.396   0.369   5.840 -0.1637 -0.3856  0.1779
 3725SOL    HW122637   3.380   0.453   5.882  1.7962 -0.0767  0.3386
 3725SOL    HW222638   3.342   0.380   5.762  1.5573  0.8579 -0.8420
 3726SOL     OW22639   2.918   1.326   8.420 -0.2560  0.1222  0.2413
 3726SOL    HW122640   2.874   1.354   8.501 -0.5345  2.5240 -0.7522
 3726SOL    HW222641   2.889   1.235   8.411 -0.9631  0.5985 -2.1093
 3727SOL     OW22642   1.091   3.134   4.929  0.2932 -0.2093  0.2509
 3727SOL    HW122643   1.163   3.080   4.896  0.5279  0.4024 -0.2223
 3727SOL    HW222644   1.129   3.157   5.014 -1.4789  2.7491  0.2260
 3728SOL     OW22645   1.403   0.526   3.018 -0.1787 -0.0224  0.0133
 3728SOL    HW122646   1.332   0.494   2.963 -0.6145 -1.1600  1.2275
 3728SOL    HW222647   1.415   0.451   3.077  1.4245  2.0875  2.3951
 3729SOL     OW22648   3.416   0.601   9.139  0.3435 -0.2280  0.3572
 3729SOL    HW122649   3.478   0.564   9.201  0.5426 -2.0948 -0.9392
 3729SOL    HW222650   3.367   0.661   9.196  2.7317 -0.8499  3.0206
 3730SOL     OW22651   3.448   4.688   6.078  0.2088  0.2551  0.9882
 3730SOL    HW122652   3.517   4.656   6.136  0.0274 -1.7622  0.0923
 3730SOL    HW222653   3.419   4.609   6.034  0.4082  1.0055 -0.4967
 3731SOL     OW22654   2.634   0.795   6.859 -0.3146 -0.1648 -0.3215
 3731SOL    HW122655   2.651   0.755   6.774  0.9954  0.5553 -0.3942
 3731SOL    HW222656   2.694   0.870   6.865  0.5962 -0.9746  0.7836
 3732SOL     OW22657   3.645   2.910   4.489 -0.0793  0.2984  0.1301
 3732SOL    HW122658   3.688   2.884   4.408 -3.2550 -1.4322 -0.9792
 3732SOL    HW222659   3.589   2.834   4.503 -0.5427 -0.1502 -4.2488
 3733SOL     OW22660   0.940   1.943  10.590  0.3078 -0.3691 -0.5547
 3733SOL    HW122661   1.033   1.950  10.567  1.0670 -3.2834  1.5967
 3733SOL    HW222662   0.906   1.913  10.505 -2.7937 -0.2415  0.6562
 3734SOL     OW22663   0.520   0.482   4.348 -0.0310  0.0608  0.6538
 3734SOL    HW122664   0.531   0.464   4.255 -0.9598  1.1172  0.3269
 3734SOL    HW222665   0.425   0.495   4.349 -0.1576 -0.8423  0.6309
 3735SOL     OW22666   0.976   1.564   7.368 -0.2408 -0.4506 -1.0943
 3735SOL    HW122667   0.906   1.507   7.335 -0.1261 -1.6208  0.6984
 3735SOL    HW222668   1.019   1.513   7.435  0.5698  2.7148  0.8000
 3736SOL     OW22669   0.449   1.352   7.054  0.0866 -0.3303  0.4368
 3736SOL    HW122670   0.541   1.340   7.033 -0.0688 -1.6473  0.5207
 3736SOL    HW222671   0.414   1.372   6.967 -2.2508  0.9306  1.6529
 3737SOL     OW22672   4.276   1.537   9.573 -0.0176  0.1952 -0.3999
 3737SOL    HW122673   4.190   1.544   9.613 -1.4270 -2.7087 -2.9391
 3737SOL    HW222674   4.316   1.472   9.631 -0.4528  0.0605 -0.2557
 3738SOL     OW22675   1.834   1.286  17.402 -0.4699  0.0440  0.2378
 3738SOL    HW122676   1.860   1.362  17.351 -1.1130 -0.1421 -0.3592
 3738SOL    HW222677   1.891   1.301  17.477  0.1068  1.2361 -0.4426
 3739SOL     OW22678   0.240   1.389   7.537 -0.2469  0.0269 -0.1772
 3739SOL    HW122679   0.312   1.451   7.548 -0.6741  0.3258  0.9265
 3739SOL    HW222680   0.285   1.311   7.569 -1.4530  0.2258  2.0129
 3740SOL     OW22681   3.116   1.883   0.210  0.8583 -0.6741  0.0240
 3740SOL    HW122682   3.038   1.832   0.231  0.4086  0.9746  2.3375
 3740SOL    HW222683   3.184   1.837   0.260  2.5408  1.0329 -0.6987
 3741SOL     OW22684   1.476   0.524   8.455 -0.3035  0.4242  0.2929
 3741SOL    HW122685   1.504   0.438   8.423  0.1860  0.0712  1.6754
 3741SOL    HW222686   1.382   0.514   8.441 -0.2885  0.3266  0.2575
 3742SOL     OW22687   3.749   4.202   5.935  0.1427  0.0503 -0.2978
 3742SOL    HW122688   3.662   4.191   5.897  0.6859  0.9354 -1.8065
 3742SOL    HW222689   3.795   4.123   5.904  1.3233  0.7510 -0.3539
 3743SOL     OW22690   2.170   2.001   6.880  0.0204  0.1995 -0.2608
 3743SOL    HW122691   2.125   1.988   6.963 -2.0908  2.5138 -1.0140
 3743SOL    HW222692   2.215   1.917   6.888  0.0825  0.3567  0.9810
 3744SOL     OW22693   0.450   0.655  16.918  0.8567  0.2270  0.1748
 3744SOL    HW122694   0.419   0.568  16.892  1.1867  0.3586 -0.6535
 3744SOL    HW222695   0.532   0.660  16.868  0.1773 -1.6704 -1.1296
 3745SOL     OW22696   1.375   1.380  13.288  0.1244  0.1196  0.4813
 3745SOL    HW122697   1.384   1.285  13.299 -2.3439 -0.1202  0.2835
 3745SOL    HW222698   1.362   1.406  13.379  1.2821 -0.2103  0.7431
 3746SOL     OW22699   3.362   2.373   8.969 -0.3578  0.4679  0.3741
 3746SOL    HW122700   3.315   2.450   9.001  0.2640  1.2672 -0.6272
 3746SOL    HW222701   3.326   2.373   8.881  0.6097  2.6441 -0.0132
 3747SOL     OW22702   4.514   2.579  16.844  0.0331  1.0630 -0.6120
 3747SOL    HW122703   4.520   2.673  16.829 -0.6631  1.2351  0.1827
 3747SOL    HW222704   4.428   2.570  16.886 -0.1779 -1.6036 -1.6095
 3748SOL     OW22705   3.979   4.234   3.120  0.5740  0.6343 -0.1299
 3748SOL    HW122706   3.984   4.323   3.083 -3.9735  0.4054 -1.2184
 3748SOL    HW222707   4.046   4.232   3.189 -1.8300  1.2918  2.2231
 3749SOL     OW22708   2.057   0.993   2.803  0.3071 -0.4536 -0.0315
 3749SOL    HW122709   2.120   0.931   2.766  0.7788  0.6917 -1.1406
 3749SOL    HW222710   1.972   0.957   2.778 -0.3668  0.6179  0.6685
 3750SOL     OW22711   3.302   2.038  14.138  0.2608  0.0479  0.1377
 3750SOL    HW122712   3.365   2.077  14.078 -0.1799  1.6169  0.6686
 3750SOL    HW222713   3.223   2.090  14.122  0.8232  1.4488  1.8590
 3751SOL     OW22714   4.325   0.478  17.431 -0.3334  0.5384 -0.1000
 3751SOL    HW122715   4.271   0.472  17.353 -2.0248  2.8645  0.8845
 3751SOL    HW222716   4.351   0.386  17.439 -0.2450  0.6691  1.2500
 3752SOL     OW22717   1.106   1.433   6.513 -0.5259 -0.3299 -1.1630
 3752SOL    HW122718   1.168   1.498   6.545 -1.6228 -0.3190  0.9666
 3752SOL    HW222719   1.130   1.427   6.421  3.1603  0.6892 -0.2407
 3753SOL     OW22720   2.661   2.638  16.529  0.5522  0.3106 -0.2383
 3753SOL    HW122721   2.727   2.581  16.490 -0.8398 -2.3856  1.3088
 3753SOL    HW222722   2.636   2.605  16.616 -0.6810  0.7068 -0.4413
 3754SOL     OW22723   1.450   3.529   5.307 -0.2790 -0.5446  0.0468
 3754SOL    HW122724   1.394   3.505   5.381 -0.9010  1.3892  0.1920
 3754SOL    HW222725   1.525   3.469   5.310 -0.2088 -0.4766 -0.4461
 3755SOL     OW22726   1.387   0.855   9.923  0.3235  0.2394 -0.2150
 3755SOL    HW122727   1.478   0.850   9.951  0.2968 -1.1824 -0.4269
 3755SOL    HW222728   1.405   0.905   9.843  0.3456  2.2024  1.0189
 3756SOL     OW22729   0.164   2.821  11.255 -0.2514 -0.4218  0.3563
 3756SOL    HW122730   0.193   2.744  11.205 -0.2830 -0.2635  0.0927
 3756SOL    HW222731   0.231   2.886  11.234  0.1288 -0.5396  1.2105
 3757SOL     OW22732   1.356   0.457   0.431 -0.5125  0.1834  0.4378
 3757SOL    HW122733   1.289   0.391   0.447  0.5575 -1.1723 -0.7098
 3757SOL    HW222734   1.305   0.517   0.376 -0.9132 -2.1345 -1.7271
 3758SOL     OW22735   4.080   1.098   7.587  0.3803 -0.7061 -0.0092
 3758SOL    HW122736   4.018   1.051   7.641 -1.8204  2.2531  0.0267
 3758SOL    HW222737   4.123   1.029   7.536  0.5177  0.5342 -1.5733
 3759SOL     OW22738   3.301   2.252   9.973 -0.0283 -0.0012 -0.6508
 3759SOL    HW122739   3.336   2.226  10.058 -1.8132 -0.8543 -0.1731
 3759SOL    HW222740   3.371   2.296   9.925  2.0548 -3.4696 -0.7839
 3760SOL     OW22741   2.291   1.826  11.621 -0.4081 -0.5817  0.6825
 3760SOL    HW122742   2.379   1.855  11.645  0.6343 -2.0605 -1.4631
 3760SOL    HW222743   2.255   1.907  11.587 -1.7363 -2.0623 -1.4203
 3761SOL     OW22744   4.639   3.723  12.043 -0.0489  0.3265  0.2271
 3761SOL    HW122745   4.589   3.679  11.974 -0.8978  0.1279  0.9699
 3761SOL    HW222746   0.001   3.695  12.016 -0.3439 -0.7106  0.3325
 3762SOL     OW22747   4.693   1.012   0.652 -0.1765  0.1648 -0.3303
 3762SOL    HW122748   0.032   1.082   0.642 -0.1134  0.2304  0.5249
 3762SOL    HW222749   4.610   1.058   0.653  0.6046  1.5960 -0.8274
 3763SOL     OW22750   1.837   3.032  10.480  0.3928  0.5856 -0.4290
 3763SOL    HW122751   1.783   2.952  10.484  2.4369 -0.8879 -2.0195
 3763SOL    HW222752   1.926   3.013  10.508 -0.4770  1.2226  2.7064
 3764SOL     OW22753   0.681   2.433  17.176 -0.6418  0.6054  0.2876
 3764SOL    HW122754   0.619   2.430  17.248 -0.2684  0.9153  0.6197
 3764SOL    HW222755   0.743   2.501  17.203 -0.4535  1.0742 -1.2951
 3765SOL     OW22756   1.259   2.299   2.452 -0.4424  0.3937  0.1887
 3765SOL    HW122757   1.188   2.242   2.482 -2.7585  3.0709 -0.2378
 3765SOL    HW222758   1.223   2.321   2.366  1.3966  0.2142 -0.6258
 3766SOL     OW22759   3.006   3.629   3.406 -0.1381  0.4852  0.0214
 3766SOL    HW122760   3.031   3.697   3.344  1.0950 -0.0675 -0.1014
 3766SOL    HW222761   3.082   3.570   3.416 -0.1452  0.1535 -1.8433
 3767SOL     OW22762   1.161   1.013  14.782 -0.1853 -0.3035 -0.3073
 3767SOL    HW122763   1.221   1.011  14.857  1.3730  2.4285 -1.4815
 3767SOL    HW222764   1.218   0.971  14.718 -0.7328  2.7042 -2.7677
 3768SOL     OW22765   1.434   0.132  17.269  0.1099 -0.3639  0.6699
 3768SOL    HW122766   1.369   0.153  17.202 -0.0930  0.2548  1.0671
 3768SOL    HW222767   1.483   0.066  17.219  0.8889  0.3492  0.4850
 3769SOL     OW22768   4.306   0.029   1.391 -0.2955  0.1156  0.0727
 3769SOL    HW122769   4.213   0.045   1.378 -0.5120 -0.0440  1.4433
 3769SOL    HW222770   4.334   0.049   1.480  0.0351 -2.5719  0.5699
 3770SOL     OW22771   4.670   2.058  15.429  0.0861 -0.2664 -0.0936
 3770SOL    HW122772   4.638   2.010  15.353  0.3369 -1.5291  0.5859
 3770SOL    HW222773   4.588   2.101  15.454 -0.9638 -0.7138 -2.7780
 3771SOL     OW22774   2.320   4.283   6.008  0.4218  0.1480 -0.4130
 3771SOL    HW122775   2.272   4.200   6.008 -2.8723  2.0395  1.2231
 3771SOL    HW222776   2.309   4.321   5.921  0.7321  0.6700 -0.2261
 3772SOL     OW22777   1.622   1.044  10.923 -0.4652  0.7734 -0.1681
 3772SOL    HW122778   1.675   1.119  10.950 -0.7917  0.8508  0.2660
 3772SOL    HW222779   1.595   1.058  10.833 -0.3358 -2.0022 -0.6217
 3773SOL     OW22780   0.625   0.506  15.780  0.3418  0.3045 -0.3511
 3773SOL    HW122781   0.607   0.433  15.721  0.4553  0.2581 -0.3284
 3773SOL    HW222782   0.686   0.559  15.729 -1.0417  2.0528 -0.1966
 3774SOL     OW22783   2.151   3.035   3.756  0.1452 -0.0004 -0.0061
 3774SOL    HW122784   2.213   3.020   3.685  0.1676 -0.6185  0.1412
 3774SOL    HW222785   2.201   3.017   3.836 -2.1412  0.4589  1.5254
 3775SOL     OW22786   3.037   3.056   7.991  0.5320  0.4480  0.1044
 3775SOL    HW122787   3.128   3.041   8.015 -1.2114 -3.6183  4.1217
 3775SOL    HW222788   3.064   3.104   7.912  1.2829  1.6247  1.0670
 3776SOL     OW22789   0.184   2.493   3.118 -0.4628 -0.5896  0.6575
 3776SOL    HW122790   0.206   2.582   3.146 -1.0777 -0.5377  0.9749
 3776SOL    HW222791   0.090   2.504   3.129 -0.2808  0.0815  1.6185
 3777SOL     OW22792   2.155   3.055   8.704  0.8178 -0.2325 -0.1246
 3777SOL    HW122793   2.128   3.053   8.796  0.9467 -0.2438 -0.0883
 3777SOL    HW222794   2.121   3.141   8.676 -0.3497 -0.4800  0.5298
 3778SOL     OW22795   0.466   4.588   2.429  0.0970  0.1447 -0.1088
 3778SOL    HW122796   0.388   4.552   2.472 -0.2463 -0.5527 -1.3204
 3778SOL    HW222797   0.518   4.509   2.419 -0.1651 -0.0258 -0.1210
 3779SOL     OW22798   0.215   4.049   1.083 -0.0876 -0.4124  0.3270
 3779SOL    HW122799   0.287   4.104   1.113  0.5239 -1.5374  0.9146
 3779SOL    HW222800   0.202   4.093   0.998  0.3302 -0.0662  0.4440
 3780SOL     OW22801   2.645   0.163   4.496  0.6973  0.1458  0.1135
 3780SOL    HW122802   2.725   0.196   4.454  0.7155  0.1681  0.1642
 3780SOL    HW222803   2.675   0.112   4.572  1.5692 -0.9329 -0.9565
 3781SOL     OW22804   4.720   2.091   5.221  0.4542 -0.0995  0.2653
 3781SOL    HW122805   4.703   2.052   5.307  2.2771  0.0386  0.6839
 3781SOL    HW222806   0.087   2.115   5.225  0.1775  0.8933  0.5454
 3782SOL     OW22807   3.626   1.436   4.125  0.1222  0.4641 -0.1406
 3782SOL    HW122808   3.543   1.482   4.114 -0.2448 -0.0822  0.3146
 3782SOL    HW222809   3.610   1.358   4.071 -2.5522  0.6895  0.3095
 3783SOL     OW22810   3.882   2.317   7.165 -0.0654 -0.4528 -0.0622
 3783SOL    HW122811   3.941   2.327   7.240 -0.4967 -0.9956  0.3488
 3783SOL    HW222812   3.801   2.305   7.215  0.5019 -0.0713  0.9636
 3784SOL     OW22813   1.946   1.948  16.248  0.7120  0.2417 -0.1212
 3784SOL    HW122814   1.856   1.981  16.256  0.7532  0.3134  0.0466
 3784SOL    HW222815   1.986   2.028  16.215  0.7437 -1.1116 -3.3335
 3785SOL     OW22816   4.114   2.177  15.388 -0.3160  0.3579 -0.1100
 3785SOL    HW122817   4.192   2.130  15.358  0.3038  0.7543  0.8634
 3785SOL    HW222818   4.167   2.211  15.461 -0.8449 -1.0474  0.9250
 3786SOL     OW22819   1.308   4.054  15.356 -0.8286 -0.0824 -0.3371
 3786SOL    HW122820   1.378   3.989  15.360 -1.8807 -1.0902  1.7316
 3786SOL    HW222821   1.227   4.003  15.354 -1.1843  0.2992  3.0436
 3787SOL     OW22822   4.240   0.228   8.165  0.0930 -0.3231  0.5110
 3787SOL    HW122823   4.179   0.197   8.097  1.5659 -0.9167 -0.5391
 3787SOL    HW222824   4.321   0.178   8.155 -0.1266 -0.7665  0.9539
 3788SOL     OW22825   2.523   0.050   5.380  0.0258  0.2594  0.1209
 3788SOL    HW122826   2.510   4.681   5.386  1.6033  0.1928  2.2891
 3788SOL    HW222827   2.507   0.073   5.471  1.2473 -1.3981  0.7443
 3789SOL     OW22828   0.261   1.071   8.910  0.6579  0.6637 -0.9477
 3789SOL    HW122829   0.280   0.984   8.947 -0.8182  1.5770  1.9249
 3789SOL    HW222830   0.345   1.116   8.901  1.5614 -0.6476  1.0370
 3790SOL     OW22831   4.384   1.442   2.941  0.0032 -0.3690 -0.0961
 3790SOL    HW122832   4.459   1.409   2.990 -1.1480 -0.9053  1.3237
 3790SOL    HW222833   4.352   1.515   2.994 -0.4538  0.5893 -1.7011
 3791SOL     OW22834   0.469   4.610   4.531  0.0938 -0.4358  0.0698
 3791SOL    HW122835   0.506   4.660   4.457  1.0945 -1.1257  0.0975
 3791SOL    HW222836   0.506   4.526   4.504  1.0356 -0.7657  2.4206
 3792SOL     OW22837   1.658   1.859   2.392  0.1480  0.0303  0.3129
 3792SOL    HW122838   1.649   1.788   2.456 -0.7860  0.1831  0.3566
 3792SOL    HW222839   1.753   1.862   2.383  0.1654  0.7824  0.7439
 3793SOL     OW22840   2.471   2.389  12.788 -0.0466  0.1598 -0.2717
 3793SOL    HW122841   2.458   2.432  12.873 -1.1248 -1.6338  0.4804
 3793SOL    HW222842   2.390   2.405  12.740  0.4019  0.7222 -0.8317
 3794SOL     OW22843   0.623   1.099   6.772 -0.0729 -0.2749  0.6397
 3794SOL    HW122844   0.539   1.071   6.809  0.1427  0.2651  1.5342
 3794SOL    HW222845   0.650   1.171   6.829 -1.1332 -0.4000  1.2832
 3795SOL     OW22846   3.633   2.771  11.166 -0.0316 -0.0295 -0.0902
 3795SOL    HW122847   3.595   2.684  11.151  0.9063 -0.3574 -0.5227
 3795SOL    HW222848   3.591   2.801  11.246  0.3876 -0.1747  0.1805
 3796SOL     OW22849   1.908   2.593   3.678  0.0989 -0.5382 -0.6436
 3796SOL    HW122850   1.846   2.655   3.716  1.4533  0.6619 -0.3867
 3796SOL    HW222851   1.944   2.650   3.610  1.2852 -0.0627  0.3873
 3797SOL     OW22852   1.792   3.514   6.818  0.3362  0.2108  0.2588
 3797SOL    HW122853   1.824   3.521   6.728  3.0273  2.5265  1.3992
 3797SOL    HW222854   1.743   3.597   6.822  0.9559  0.6816 -1.9018
 3798SOL     OW22855   4.438   2.953   9.497 -0.0421  0.1603  0.2438
 3798SOL    HW122856   4.531   2.960   9.520  0.0310 -1.1044  0.3239
 3798SOL    HW222857   4.415   3.046   9.502  0.4210  0.1666  2.1065
 3799SOL     OW22858   2.861   4.303   0.380 -0.3608  0.9003 -0.4535
 3799SOL    HW122859   2.829   4.347   0.301 -1.0994  2.7418  0.8794
 3799SOL    HW222860   2.899   4.374   0.433 -0.0740  0.7293 -0.4265
 3800SOL     OW22861   1.490   1.561   7.366  0.0644  0.8322  0.0966
 3800SOL    HW122862   1.462   1.535   7.278 -0.1102  4.4488 -0.8898
 3800SOL    HW222863   1.581   1.532   7.360 -0.2191  0.5031 -2.7559
 3801SOL     OW22864   0.118   2.591  13.292 -0.5856  0.0648 -0.0241
 3801SOL    HW122865   0.103   2.497  13.294 -2.1505  0.3618  1.7074
 3801SOL    HW222866   0.094   2.615  13.202  1.2668 -0.2597 -0.6140
 3802SOL     OW22867   0.573   3.962   9.551  0.0902 -0.3456 -0.1066
 3802SOL    HW122868   0.668   3.972   9.558  0.0710 -0.4258  0.2843
 3802SOL    HW222869   0.561   3.881   9.602 -0.6369 -0.6209 -0.7157
 3803SOL     OW22870   4.554   4.228  11.709 -0.0598  0.1646  0.8523
 3803SOL    HW122871   4.576   4.306  11.659 -0.9854  1.4732  2.5085
 3803SOL    HW222872   4.491   4.191  11.647  1.2002 -0.3311 -0.1331
 3804SOL     OW22873   0.701   0.780   2.666 -0.0519 -0.5369 -0.0933
 3804SOL    HW122874   0.639   0.806   2.733 -1.5797  1.5735 -2.3095
 3804SOL    HW222875   0.645   0.761   2.591  0.3036  0.2657 -0.5659
 3805SOL     OW22876   0.482   2.876   3.005 -0.1727  0.0644 -0.2844
 3805SOL    HW122877   0.513   2.966   2.993 -0.0931  0.2915  1.6354
 3805SOL    HW222878   0.463   2.859   2.912 -0.3893 -0.0484 -0.2195
 3806SOL     OW22879   3.616   3.352   7.924  0.4117  0.6722  0.4526
 3806SOL    HW122880   3.621   3.302   8.005  0.3070  1.8062  1.1439
 3806SOL    HW222881   3.530   3.326   7.891  0.6223 -1.8438  1.8292
 3807SOL     OW22882   0.537   2.083   7.587  0.0117 -0.0419 -0.0918
 3807SOL    HW122883   0.521   1.997   7.547  1.5626  1.0606 -3.1393
 3807SOL    HW222884   0.447   2.115   7.590  1.5681  4.4286 -0.7945
 3808SOL     OW22885   3.441   4.717   9.479 -0.3001 -0.2891 -0.1612
 3808SOL    HW122886   3.357   0.028   9.506 -0.6029 -0.9130 -0.2490
 3808SOL    HW222887   3.498   0.067   9.492  0.4295 -0.7432 -0.7546
 3809SOL     OW22888   2.085   1.091   0.366 -0.2687 -0.2719 -0.2342
 3809SOL    HW122889   2.082   1.103   0.461 -2.1116 -3.5500  0.0874
 3809SOL    HW222890   2.103   0.998   0.354 -1.8229 -0.7632  1.3813
 3810SOL     OW22891   2.278   0.937   8.418 -0.1622 -0.3394 -0.1005
 3810SOL    HW122892   2.315   0.880   8.486  1.4449  0.1494 -0.5731
 3810SOL    HW222893   2.353   0.996   8.419 -2.4046  2.4050  4.0375
 3811SOL     OW22894   2.294   2.589   7.759 -0.4180 -0.2015  0.4560
 3811SOL    HW122895   2.290   2.504   7.716  1.2503 -0.3652  0.6283
 3811SOL    HW222896   2.377   2.630   7.734  0.2246 -2.9158 -1.8165
 3812SOL     OW22897   3.034   4.042   1.654  0.6328 -0.0064  0.5940
 3812SOL    HW122898   2.949   4.013   1.621  1.0827 -0.3308 -0.2885
 3812SOL    HW222899   3.088   4.006   1.583  0.4562  1.3544 -0.2316
 3813SOL     OW22900   4.088   1.131   7.915  0.3416 -0.4630 -0.3925
 3813SOL    HW122901   4.098   1.141   8.010  1.1709 -0.3795 -0.4878
 3813SOL    HW222902   4.176   1.144   7.880  0.7321 -1.1850  0.3139
 3814SOL     OW22903   0.311   0.353   0.983 -0.1804  0.3465 -0.2610
 3814SOL    HW122904   0.348   0.441   0.990  1.7677 -0.4321 -0.7463
 3814SOL    HW222905   0.225   0.359   1.024 -0.7774 -2.0538 -1.1318
 3815SOL     OW22906   0.654   3.068   8.501 -0.4300  0.4976 -0.3980
 3815SOL    HW122907   0.664   3.019   8.419 -1.1568 -2.1811  1.1333
 3815SOL    HW222908   0.683   3.018   8.577 -0.3873  1.0072 -0.0806
 3816SOL     OW22909   2.683   2.733  12.133 -0.4529 -0.1937 -0.3373
 3816SOL    HW122910   2.755   2.693  12.084  1.9897  3.3770  0.3200
 3816SOL    HW222911   2.683   2.674  12.208  1.0191 -0.4525 -0.5490
 3817SOL     OW22912   2.881   4.302   3.249  0.4750 -0.4234  0.1469
 3817SOL    HW122913   2.901   4.227   3.193 -1.6198 -0.8251 -0.0974
 3817SOL    HW222914   2.848   4.267   3.331  0.2484  0.1763  0.3129
 3818SOL     OW22915   4.399   1.039   8.420 -0.1462  0.2665 -0.2823
 3818SOL    HW122916   4.403   1.024   8.514 -0.4418 -1.2780 -0.5218
 3818SOL    HW222917   4.336   1.111   8.410 -1.0889 -0.4754  0.3534
 3819SOL     OW22918   0.602   4.080   3.055 -0.0181 -0.0688  1.2057
 3819SOL    HW122919   0.625   3.996   3.095 -1.4867 -0.2764  1.6106
 3819SOL    HW222920   0.670   4.084   2.987  0.4333  0.6932  1.6941
 3820SOL     OW22921   3.466   1.851  13.519 -0.7302  0.2382 -0.7347
 3820SOL    HW122922   3.538   1.792  13.497 -0.9382 -0.2111 -0.2047
 3820SOL    HW222923   3.425   1.864  13.433 -0.3564  0.5272 -0.8723
 3821SOL     OW22924   3.293   2.080   1.277  0.4892  0.4878 -0.3261
 3821SOL    HW122925   3.307   2.154   1.336  1.3286 -0.4095  0.6146
 3821SOL    HW222926   3.386   2.055   1.279  0.7888  1.5474 -1.1605
 3822SOL     OW22927   4.093   3.285   7.780 -0.4605  0.1047  0.5318
 3822SOL    HW122928   4.138   3.213   7.735  1.1574 -0.2909  2.7542
 3822SOL    HW222929   4.004   3.278   7.746  0.5905 -1.7434 -1.8076
 3823SOL     OW22930   2.912   0.758   7.527  0.3364  0.2934 -0.1123
 3823SOL    HW122931   2.858   0.836   7.520 -0.7053 -0.3864  0.2970
 3823SOL    HW222932   2.925   0.751   7.622  1.4507 -1.7965 -0.4142
 3824SOL     OW22933   4.641   2.742   7.658 -0.0597 -0.1054  0.2613
 3824SOL    HW122934   4.704   2.725   7.729  0.6486  0.5269 -0.2155
 3824SOL    HW222935   4.640   2.837   7.669  0.2300  0.2474 -2.8563
 3825SOL     OW22936   2.586   1.469   5.751  0.2449  0.3071  0.3024
 3825SOL    HW122937   2.643   1.397   5.723 -2.3080 -1.6181  0.0912
 3825SOL    HW222938   2.564   1.502   5.664 -1.6051  0.4869  0.8476
 3826SOL     OW22939   2.211   4.283   7.347  0.0122  0.4707  0.6643
 3826SOL    HW122940   2.218   4.214   7.413  2.6537  0.6844  0.6069
 3826SOL    HW222941   2.130   4.253   7.306  1.4090 -3.9438  1.1926
 3827SOL     OW22942   3.101   4.317   9.238 -0.8195  0.4887 -0.4481
 3827SOL    HW122943   3.053   4.262   9.176 -2.0408  1.2953 -0.1916
 3827SOL    HW222944   3.166   4.249   9.261 -1.1956 -0.4145 -2.0816
 3828SOL     OW22945   2.831   1.963   7.456 -0.0982  0.2769  0.4387
 3828SOL    HW122946   2.852   1.874   7.484 -0.0921 -0.1908 -1.0179
 3828SOL    HW222947   2.794   2.002   7.535  1.6384 -3.0316  2.9023
 3829SOL     OW22948   4.012   3.487  12.342 -0.5436 -0.2061  0.3338
 3829SOL    HW122949   4.073   3.557  12.363 -0.7917 -0.6107  2.4626
 3829SOL    HW222950   3.929   3.532  12.361 -0.2862 -0.0813  1.1699
 3830SOL     OW22951   1.604   3.250   6.218 -0.1499 -0.0772 -0.1051
 3830SOL    HW122952   1.584   3.334   6.260  0.0680  0.1618 -0.4735
 3830SOL    HW222953   1.572   3.191   6.286 -0.6426  1.3474  0.8974
 3831SOL     OW22954   4.449   0.036   1.633 -0.2053 -0.0871 -0.0771
 3831SOL    HW122955   4.432   0.041   1.727 -3.8405  0.7932 -0.7969
 3831SOL    HW222956   4.542   0.056   1.620 -0.4459  0.8301 -0.4126
 3832SOL     OW22957   4.131   3.440   2.813 -0.4444  0.2570 -0.1798
 3832SOL    HW122958   4.178   3.399   2.740 -2.2811 -0.2209 -1.0818
 3832SOL    HW222959   4.126   3.369   2.878 -0.9192  0.9236  0.5067
 3833SOL     OW22960   1.952   2.210   0.379 -0.2297  0.3044 -0.4221
 3833SOL    HW122961   1.866   2.176   0.404  0.9080 -2.6943 -0.5860
 3833SOL    HW222962   1.942   2.271   0.306 -0.5848  0.2259 -0.4366
 3834SOL     OW22963   1.478   3.276  14.073 -0.1012  0.4016  0.3391
 3834SOL    HW122964   1.511   3.240  13.991  1.5157 -0.5139  1.3902
 3834SOL    HW222965   1.556   3.267  14.128  1.3009  0.3231 -1.7011
 3835SOL     OW22966   1.775   2.479  10.411  0.2732  0.3691 -0.2157
 3835SOL    HW122967   1.681   2.496  10.414 -0.0208 -1.3808  0.4286
 3835SOL    HW222968   1.771   2.386  10.391 -3.4345  0.7016 -0.8841
 3836SOL     OW22969   1.965   4.345   8.864 -0.0757 -0.6018 -0.1436
 3836SOL    HW122970   1.936   4.255   8.851  0.0601 -0.9468  1.9313
 3836SOL    HW222971   1.883   4.393   8.869  0.0430 -0.3573 -0.5375
 3837SOL     OW22972   4.537   3.347   4.133  0.2126 -0.1051  0.2388
 3837SOL    HW122973   4.458   3.389   4.166  0.9082  0.7187  0.8691
 3837SOL    HW222974   4.594   3.423   4.120 -2.0136  1.9650  2.6322
 3838SOL     OW22975   0.610   3.593  14.126  0.2951 -0.1529  0.4671
 3838SOL    HW122976   0.690   3.564  14.083 -1.8733 -1.8816 -2.3727
 3838SOL    HW222977   0.544   3.566  14.062  0.6810 -0.5483  0.2419
 3839SOL     OW22978   0.773   0.670   2.991 -0.1884 -0.2786 -0.7488
 3839SOL    HW122979   0.823   0.679   3.072  1.3705 -1.1229 -1.6292
 3839SOL    HW222980   0.834   0.698   2.923  2.0349 -1.0744  0.9287
 3840SOL     OW22981   3.797   4.536  11.065 -0.4032 -0.7851  0.6681
 3840SOL    HW122982   3.866   4.552  11.129 -0.1590  1.7307 -0.2440
 3840SOL    HW222983   3.818   4.443  11.055 -1.5729 -0.9931  0.1430
 3841SOL     OW22984   4.608   3.113   2.742  0.1192  0.3131  0.2957
 3841SOL    HW122985   4.686   3.136   2.793  0.7728 -3.1225  0.8310
 3841SOL    HW222986   4.628   3.027   2.706 -0.0081  0.5432 -0.3216
 3842SOL     OW22987   3.106   3.792  12.964 -0.3631 -0.0314 -0.7548
 3842SOL    HW122988   3.118   3.884  12.941 -1.7579  0.3188 -0.0837
 3842SOL    HW222989   3.031   3.794  13.023 -0.5821  0.8346 -1.0681
 3843SOL     OW22990   4.177   4.645   2.836  0.1955 -0.0454  0.2814
 3843SOL    HW122991   4.099   4.670   2.886  0.8952 -2.0400  2.3236
 3843SOL    HW222992   4.134   4.609   2.759  0.7144  0.7531 -0.3893
 3844SOL     OW22993   3.037   4.055  10.363 -0.4664 -0.0156 -0.3053
 3844SOL    HW122994   2.999   4.127  10.313 -1.1593 -0.7566 -0.8430
 3844SOL    HW222995   2.966   4.037  10.425 -0.6115  0.3214 -0.3718
 3845SOL     OW22996   1.227   4.322   9.034  0.3558 -0.0034 -0.9106
 3845SOL    HW122997   1.137   4.291   9.023 -0.2742  0.4657  2.9723
 3845SOL    HW222998   1.224   4.346   9.127  0.0444 -2.8840 -0.1743
 3846SOL     OW22999   2.750   0.403   1.957  0.4193 -0.2661  0.0670
 3846SOL    HW123000   2.723   0.427   1.868  1.0765  1.3293  0.2952
 3846SOL    HW223001   2.834   0.449   1.961 -0.1281  0.8652 -1.4349
 3847SOL     OW23002   3.825   4.460  15.277 -0.3002  0.4359 -0.2023
 3847SOL    HW123003   3.846   4.552  15.295 -0.3080  0.7549 -1.8244
 3847SOL    HW223004   3.896   4.431  15.220 -0.5136 -0.1754 -0.1619
 3848SOL     OW23005   0.897   3.350  13.457  0.1241 -0.0704  0.3334
 3848SOL    HW123006   0.882   3.306  13.373 -0.4527 -0.3499  0.5776
 3848SOL    HW223007   0.991   3.359  13.449 -0.1635  1.8981 -0.6326
 3849SOL     OW23008   1.412   4.282   2.859  0.1720  0.2016 -0.2924
 3849SOL    HW123009   1.423   4.284   2.764 -0.0516 -1.1784 -0.3561
 3849SOL    HW223010   1.497   4.309   2.895 -0.3060 -0.3057  1.1884
 3850SOL     OW23011   2.217   2.278  15.263 -0.0221 -0.1072 -0.0589
 3850SOL    HW123012   2.256   2.345  15.207  1.7205 -0.6786  0.4657
 3850SOL    HW223013   2.224   2.201  15.206 -0.6401 -1.1933  1.3430
 3851SOL     OW23014   0.432   3.043   5.176  0.5123  0.5865  0.5260
 3851SOL    HW123015   0.423   3.066   5.084 -1.4703  0.0851  0.5932
 3851SOL    HW223016   0.436   2.947   5.169  0.7579  0.6053  0.4097
 3852SOL     OW23017   0.397   2.918   2.263 -0.1526 -0.1787 -0.3621
 3852SOL    HW123018   0.310   2.946   2.292  0.0343 -1.2433  1.1728
 3852SOL    HW223019   0.405   2.976   2.187 -0.8057 -0.7435 -0.8635
 3853SOL     OW23020   1.031   1.685   2.497  0.0560  0.8185 -0.2656
 3853SOL    HW123021   0.974   1.672   2.573 -1.5306 -3.1799 -2.1026
 3853SOL    HW223022   1.087   1.751   2.538  1.0411 -1.5709  2.3094
 3854SOL     OW23023   1.758   2.304  10.822 -0.5382  0.1260  0.7832
 3854SOL    HW123024   1.807   2.368  10.874 -1.7655  2.1486 -0.5578
 3854SOL    HW223025   1.742   2.232  10.884 -2.0021 -1.3506 -1.3129
 3855SOL     OW23026   4.507   0.735  16.244  0.3940  0.0289  0.5798
 3855SOL    HW123027   4.445   0.798  16.281  1.7371  2.2291 -0.9329
 3855SOL    HW223028   4.589   0.785  16.242  1.3311 -1.6148 -1.5177
 3856SOL     OW23029   3.794   0.387  14.520 -0.4707 -0.0024  0.2520
 3856SOL    HW123030   3.861   0.446  14.555 -0.5165 -0.1418  0.5841
 3856SOL    HW223031   3.717   0.441  14.538  0.4652  1.2398  0.5094
 3857SOL     OW23032   2.930   0.239   4.437  0.2442 -0.3855  0.0947
 3857SOL    HW123033   2.949   0.184   4.361  2.5928  1.0935 -0.4204
 3857SOL    HW223034   2.970   0.319   4.404  3.2523 -0.8886  2.4638
 3858SOL     OW23035   3.335   3.345   5.974 -0.1112  0.2137  0.0841
 3858SOL    HW123036   3.342   3.391   6.058 -0.3034 -0.1323  0.2907
 3858SOL    HW223037   3.266   3.395   5.930 -1.4797 -0.2349  1.7252
 3859SOL     OW23038   4.195   4.132   8.191  0.1363  0.3248  0.0932
 3859SOL    HW123039   4.290   4.128   8.191  0.2318  3.0220 -0.4480
 3859SOL    HW223040   4.174   4.067   8.124  1.6127 -0.7831  0.6912
 3860SOL     OW23041   2.861   2.892   0.083 -0.7994  0.3973 -0.3548
 3860SOL    HW123042   2.786   2.834   0.079 -0.5363  0.0017  0.4078
 3860SOL    HW223043   2.825   2.959   0.141  0.3255 -0.4967  1.3804
 3861SOL     OW23044   2.884   0.341   9.810 -0.7007  0.2765  0.5570
 3861SOL    HW123045   2.911   0.261   9.854 -1.6958 -0.3160  0.0660
 3861SOL    HW223046   2.818   0.313   9.747  0.5375 -1.5506  0.0702
 3862SOL     OW23047   4.584   0.192   0.034  0.0767 -0.5213 -0.2417
 3862SOL    HW123048   4.630   0.203  17.655  0.2743  0.1877 -0.0356
 3862SOL    HW223049   4.494   0.197   0.002 -0.4831 -4.7157  0.6807
 3863SOL     OW23050   1.301   2.301   5.318 -0.6058 -0.1671  0.0842
 3863SOL    HW123051   1.284   2.208   5.307  0.6415 -0.4231  0.3251
 3863SOL    HW223052   1.257   2.342   5.244  0.1980  1.6786  0.6299
 3864SOL     OW23053   2.587   3.500   6.068  0.1175 -0.0321  0.0282
 3864SOL    HW123054   2.495   3.518   6.086 -0.2638 -0.1258 -1.8599
 3864SOL    HW223055   2.583   3.405   6.061  1.2168 -0.1268  0.5782
 3865SOL     OW23056   2.278   1.826   6.475  0.6721  0.1041 -0.5734
 3865SOL    HW123057   2.324   1.796   6.554  0.4407 -1.7441 -1.1454
 3865SOL    HW223058   2.277   1.749   6.418  1.7773  0.8237 -1.5461
 3866SOL     OW23059   1.953   2.186   3.949 -0.1997 -0.2201  0.9356
 3866SOL    HW123060   1.863   2.152   3.952 -0.3632  0.3947  2.8361
 3866SOL    HW223061   1.949   2.229   3.863 -3.2612  0.3234  1.3399
 3867SOL     OW23062   3.454   2.145   5.859 -0.1412  0.0149 -0.5258
 3867SOL    HW123063   3.377   2.097   5.829  0.7165 -1.9825  0.4435
 3867SOL    HW223064   3.511   2.070   5.873 -0.1482  0.4487  1.8732
 3868SOL     OW23065   4.479   0.467   5.900  0.4375 -0.5724  0.4291
 3868SOL    HW123066   4.408   0.472   5.964 -1.9631  0.0461 -2.3166
 3868SOL    HW223067   4.469   0.378   5.865  1.7441 -0.9193  0.9374
 3869SOL     OW23068   4.154   4.417   5.408 -0.0370 -0.3602 -0.1377
 3869SOL    HW123069   4.219   4.445   5.343  0.2025 -1.7616 -0.4928
 3869SOL    HW223070   4.113   4.351   5.351 -1.5670  0.6880 -0.2676
 3870SOL     OW23071   2.366   1.682  14.198 -0.1759 -0.3077 -0.1030
 3870SOL    HW123072   2.459   1.659  14.209  0.1301 -0.4581 -3.1887
 3870SOL    HW223073   2.359   1.765  14.246 -1.7950  0.6436 -1.9976
 3871SOL     OW23074   1.396   3.858   7.001 -0.7986 -0.5467 -0.0197
 3871SOL    HW123075   1.395   3.950   7.026 -0.0074 -0.8437  1.1149
 3871SOL    HW223076   1.365   3.822   7.084 -2.6236  2.1643  0.4821
 3872SOL     OW23077   2.473   0.293   4.994  0.1610  0.7189 -0.3167
 3872SOL    HW123078   2.502   0.206   4.966 -0.9539  0.6795 -1.3737
 3872SOL    HW223079   2.436   0.280   5.082  2.1266 -1.8328  0.1339
 3873SOL     OW23080   2.420   3.214   3.250  0.2763 -0.1377 -0.8462
 3873SOL    HW123081   2.502   3.168   3.232  1.8247  2.1942  0.4362
 3873SOL    HW223082   2.419   3.220   3.345 -1.8312  0.2161 -0.8739
 3874SOL     OW23083   2.094   4.586   5.283 -0.5608  0.0369  0.1496
 3874SOL    HW123084   2.144   4.514   5.244 -0.5138 -0.2685  0.7874
 3874SOL    HW223085   2.086   4.645   5.207 -1.7308  1.3057  1.2611
 3875SOL     OW23086   3.548   0.627   7.586 -0.2636  0.0496  0.0524
 3875SOL    HW123087   3.605   0.698   7.617 -0.3287 -0.6611  1.8022
 3875SOL    HW223088   3.508   0.663   7.507  1.2300  2.0847  0.2030
 3876SOL     OW23089   0.142   2.712   7.244 -0.3488  0.5929  0.3646
 3876SOL    HW123090   0.089   2.792   7.248  0.6108  1.1591  1.7354
 3876SOL    HW223091   0.073   2.651   7.218  0.4267 -0.2059  0.2139
 3877SOL     OW23092   2.407   2.441   7.316  0.0750  0.2107 -0.3142
 3877SOL    HW123093   2.356   2.441   7.397  2.0779  0.5018  0.9713
 3877SOL    HW223094   2.364   2.369   7.270 -1.8680  1.8328 -1.0051
 3878SOL     OW23095   0.961   4.245   4.124 -0.3198  0.3832  0.0007
 3878SOL    HW123096   0.990   4.237   4.033  0.9258 -3.1179  0.7152
 3878SOL    HW223097   0.891   4.310   4.115  0.6932  1.4076 -0.6621
 3879SOL     OW23098   1.446   0.522  10.682 -0.6892  0.2816 -0.3032
 3879SOL    HW123099   1.535   0.552  10.662 -0.2018  0.1501  1.6708
 3879SOL    HW223100   1.389   0.599  10.679 -0.3411  0.6706  2.4263
 3880SOL     OW23101   0.754   2.651   6.730  0.7456 -0.3640 -0.1897
 3880SOL    HW123102   0.729   2.617   6.644  0.4625  0.5907 -0.4807
 3880SOL    HW223103   0.756   2.570   6.781  1.7559 -0.9103 -1.0948
 3881SOL     OW23104   3.017   3.507  15.046 -0.3643  0.6215  0.1159
 3881SOL    HW123105   3.008   3.597  15.018  0.8853  0.8297  0.3976
 3881SOL    HW223106   2.945   3.498  15.110 -0.8159 -0.8858 -0.5868
 3882SOL     OW23107   0.112   3.971   7.133 -0.1724  0.3654  0.3336
 3882SOL    HW123108   0.181   4.037   7.143  0.8175 -0.4863 -0.9513
 3882SOL    HW223109   0.114   3.972   7.038 -0.4569  0.6735  0.3288
 3883SOL     OW23110   3.951   2.575   2.714 -0.2460  0.1519 -0.5200
 3883SOL    HW123111   3.905   2.496   2.742 -2.3062  0.7816 -2.1292
 3883SOL    HW223112   3.877   2.635   2.708 -1.3043 -1.2587 -1.5438
 3884SOL     OW23113   3.379   1.272   9.913  0.4757 -0.0010 -0.4533
 3884SOL    HW123114   3.426   1.202   9.868  0.0148 -0.2485 -0.5461
 3884SOL    HW223115   3.432   1.350   9.897  2.0332 -1.2727 -1.4684
 3885SOL     OW23116   1.125   3.504   5.000 -0.4394  0.0694  0.2205
 3885SOL    HW123117   1.095   3.459   5.079 -4.3863  2.6012  0.1692
 3885SOL    HW223118   1.205   3.454   4.988  0.6662  2.2835 -1.6628
 3886SOL     OW23119   0.826   3.820   4.884 -0.3983  0.2712  0.4335
 3886SOL    HW123120   0.902   3.771   4.852 -1.0059 -0.9792  0.9008
 3886SOL    HW223121   0.867   3.862   4.960  0.4576  0.8241 -0.3438
 3887SOL     OW23122   1.189   2.431   6.831 -0.2097  0.2075 -0.2460
 3887SOL    HW123123   1.276   2.451   6.866 -0.0953  1.5729 -1.3263
 3887SOL    HW223124   1.139   2.512   6.826 -0.8930 -0.4677 -4.8772
 3888SOL     OW23125   1.021   0.276   1.743 -0.2944  0.6359 -0.2164
 3888SOL    HW123126   1.002   0.287   1.836  2.4983 -1.1962  0.5875
 3888SOL    HW223127   0.947   0.323   1.705  0.1725  0.3607 -1.4920
 3889SOL     OW23128   0.261   0.343  10.595  0.3066 -0.3675  0.4749
 3889SOL    HW123129   0.244   0.274  10.531 -0.7873  1.3217 -1.0718
 3889SOL    HW223130   0.194   0.304  10.652  0.1818 -0.4331  0.2818
 3890SOL     OW23131   2.506   2.546   6.227 -0.6102  0.4602 -0.7119
 3890SOL    HW123132   2.595   2.575   6.247 -0.7398  0.6016 -0.3365
 3890SOL    HW223133   2.461   2.581   6.304  1.9510  0.7992  0.6081
 3891SOL     OW23134   1.446   1.143   2.692 -0.3073 -0.1266  0.0787
 3891SOL    HW123135   1.499   1.189   2.626  1.5306  1.4802  2.6994
 3891SOL    HW223136   1.443   1.211   2.759  2.3002 -1.3062  1.3866
 3892SOL     OW23137   1.408   3.360   2.176  0.7472  0.2437 -0.0374
 3892SOL    HW123138   1.495   3.328   2.202  1.0906 -0.5708 -2.1434
 3892SOL    HW223139   1.379   3.400   2.257 -0.4721  0.1549 -0.4240
 3893SOL     OW23140   3.452   3.358   3.776  0.2058 -0.0440 -0.2906
 3893SOL    HW123141   3.478   3.304   3.701 -1.3827 -0.0628 -0.8260
 3893SOL    HW223142   3.483   3.300   3.846 -0.3424 -2.1234 -1.7584
 3894SOL     OW23143   3.770   2.412   3.588 -0.3260  0.7769 -0.0931
 3894SOL    HW123144   3.790   2.449   3.502  1.5251 -0.0086 -0.0207
 3894SOL    HW223145   3.763   2.318   3.569  2.5223  0.5174  0.0748
 3895SOL     OW23146   0.353   2.234   6.726  0.2491  0.3159 -0.4497
 3895SOL    HW123147   0.280   2.264   6.781 -0.7006  1.2347 -2.2034
 3895SOL    HW223148   0.360   2.145   6.760 -0.8749 -0.4033 -2.1001
 3896SOL     OW23149   2.434   0.251   0.660  0.2446 -0.9084  0.1628
 3896SOL    HW123150   2.470   0.312   0.725 -2.6171 -0.2925  1.1852
 3896SOL    HW223151   2.465   0.164   0.682  1.0545 -0.6981 -0.1619
 3897SOL     OW23152   1.371   0.870   7.863 -0.0072 -0.1145 -0.4960
 3897SOL    HW123153   1.324   0.933   7.918 -2.8349 -0.6878 -2.2610
 3897SOL    HW223154   1.457   0.912   7.864  0.4793 -1.1469  0.9634
 3898SOL     OW23155   1.800   4.285  16.028  0.1945  0.0600  0.0144
 3898SOL    HW123156   1.710   4.252  16.030  0.5926 -1.0191 -0.2177
 3898SOL    HW223157   1.853   4.205  16.033 -0.7953 -0.5387  0.8797
 3899SOL     OW23158   3.455   1.651   5.145  0.3960  0.3259  0.1387
 3899SOL    HW123159   3.455   1.649   5.049  1.2856  1.2388  0.1165
 3899SOL    HW223160   3.361   1.662   5.162 -0.2597 -1.8490 -2.0661
 3900SOL     OW23161   0.135   3.158   6.295  0.2811 -0.5923  0.1391
 3900SOL    HW123162   0.084   3.225   6.250  1.6967  0.5743  0.2508
 3900SOL    HW223163   0.075   3.084   6.301 -0.5862  0.1713  0.7771
 3901SOL     OW23164   0.919   3.743  14.708  0.5144  0.1175  0.3454
 3901SOL    HW123165   0.934   3.790  14.791 -1.1638  0.9626  0.1803
 3901SOL    HW223166   0.906   3.815  14.646  1.6928 -1.0474 -1.2212
 3902SOL     OW23167   3.136   2.183   9.091 -0.2392 -0.2578  0.0519
 3902SOL    HW123168   3.066   2.173   9.156 -1.0447  2.2435 -0.4120
 3902SOL    HW223169   3.199   2.233   9.143 -0.1482  2.4101 -2.5908
 3903SOL     OW23170   2.387   3.878  10.011  0.2567 -0.6643 -0.0426
 3903SOL    HW123171   2.474   3.841   9.998 -0.5718 -2.4163 -0.6686
 3903SOL    HW223172   2.350   3.871   9.923  2.7385 -0.5012 -1.0792
 3904SOL     OW23173   0.553   1.353   0.191  0.0872  0.2756 -0.4617
 3904SOL    HW123174   0.538   1.443   0.164  0.6357  0.2859 -0.7397
 3904SOL    HW223175   0.638   1.340   0.149  0.1774  1.4194 -0.6427
 3905SOL     OW23176   2.749   1.850  14.656  0.2892 -0.2140  0.0150
 3905SOL    HW123177   2.751   1.771  14.603 -5.3111 -0.1705 -0.2586
 3905SOL    HW223178   2.721   1.820  14.743  0.4205 -2.2751 -0.6687
 3906SOL     OW23179   4.385   1.873   6.887 -0.3148  0.6703  0.5601
 3906SOL    HW123180   4.406   1.783   6.862 -1.0117  0.2166  1.6525
 3906SOL    HW223181   4.290   1.871   6.889 -0.2447 -1.8520  0.3155
 3907SOL     OW23182   0.698   0.107   1.243  0.1365  0.5170  0.1071
 3907SOL    HW123183   0.711   0.057   1.324  0.5765 -0.5243 -0.5954
 3907SOL    HW223184   0.679   0.189   1.287 -0.9992  0.2988  0.0109
 3908SOL     OW23185   2.742   3.684   1.934 -0.2632 -0.1937 -0.0379
 3908SOL    HW123186   2.744   3.622   1.861  0.2381  0.4977 -0.6141
 3908SOL    HW223187   2.785   3.755   1.887 -0.0933 -0.1527  0.1786
 3909SOL     OW23188   2.400   2.615  16.117  0.2028 -0.0823  0.0986
 3909SOL    HW123189   2.464   2.580  16.055  1.3391  1.8489  0.2169
 3909SOL    HW223190   2.380   2.539  16.173 -4.1459 -0.4240 -1.8762
 3910SOL     OW23191   2.542   0.097   4.159 -0.4960 -0.0105  0.4693
 3910SOL    HW123192   2.476   0.102   4.090  1.8972 -2.8772 -2.0287
 3910SOL    HW223193   2.572   0.008   4.144 -0.2095 -0.1987  2.1598
 3911SOL     OW23194   1.699   3.937   2.999  0.3305  0.1906 -0.5299
 3911SOL    HW123195   1.782   3.921   3.043  0.0246 -2.7032 -1.0320
 3911SOL    HW223196   1.732   3.918   2.911 -2.8012  0.6637 -1.8127
 3912SOL     OW23197   3.272   2.550   4.079  0.3137  0.6442  0.0264
 3912SOL    HW123198   3.294   2.474   4.024  0.0883  0.6664 -0.0958
 3912SOL    HW223199   3.290   2.516   4.166 -0.3439 -1.4475 -0.6513
 3913SOL     OW23200   1.030   4.166   6.528  0.2074  0.6430 -0.1966
 3913SOL    HW123201   1.052   4.256   6.509 -1.4884  2.0349  4.2620
 3913SOL    HW223202   0.935   4.171   6.541  0.5142  1.6995  1.6149
 3914SOL     OW23203   0.248   4.013   6.648  0.2548 -0.0746 -0.1320
 3914SOL    HW123204   0.315   3.960   6.604 -0.2772  1.0035 -2.2442
 3914SOL    HW223205   0.301   4.091   6.665 -0.3540  0.4877 -0.8165
 3915SOL     OW23206   0.709   4.202   1.040 -0.3627  0.5857  0.3965
 3915SOL    HW123207   0.647   4.143   0.997 -0.7002  1.4703 -0.3304
 3915SOL    HW223208   0.653   4.258   1.093 -0.6920  0.6260  0.0048
 3916SOL     OW23209   3.597   1.413  15.214 -0.0311 -0.0687 -0.0412
 3916SOL    HW123210   3.640   1.467  15.147  1.9916 -2.1981 -0.4325
 3916SOL    HW223211   3.634   1.326  15.205 -2.5823 -1.0013 -1.7141
 3917SOL     OW23212   2.062   3.102   0.796  0.3127 -0.3038 -0.3218
 3917SOL    HW123213   2.000   3.167   0.764  1.6870  1.2555  0.1797
 3917SOL    HW223214   2.070   3.136   0.885 -0.6419  0.5857 -0.5812
 3918SOL     OW23215   0.935   3.228   3.654 -0.4247  0.0424  0.3406
 3918SOL    HW123216   0.994   3.166   3.697 -0.1016 -0.4097 -0.7409
 3918SOL    HW223217   1.001   3.277   3.604 -0.6431 -1.2831 -1.2316
 3919SOL     OW23218   1.856   3.666   8.145  0.8653  0.4707 -0.5078
 3919SOL    HW123219   1.838   3.665   8.239 -2.9500 -3.2420 -1.2903
 3919SOL    HW223220   1.928   3.729   8.140 -0.9588  2.5949  0.1018
 3920SOL     OW23221   1.370   3.748   8.807  0.1037 -0.5524  0.4631
 3920SOL    HW123222   1.442   3.736   8.868 -0.7043 -0.1147  1.4974
 3920SOL    HW223223   1.415   3.779   8.728 -1.7578 -2.1152 -1.2355
 3921SOL     OW23224   1.944   3.646   4.986 -0.0214  0.5077  0.1275
 3921SOL    HW123225   1.951   3.740   5.001  0.9456  0.7257 -1.7355
 3921SOL    HW223226   2.028   3.632   4.943  0.1104 -0.1141  0.5779
 3922SOL     OW23227   2.242   2.022   5.910 -0.3329 -0.2967  0.2527
 3922SOL    HW123228   2.172   2.007   5.845  0.6877  2.7145 -1.5549
 3922SOL    HW223229   2.208   2.106   5.940 -1.1646 -0.4797 -0.1655
 3923SOL     OW23230   4.580   1.763   8.468 -0.1506 -0.0359 -0.0007
 3923SOL    HW123231   4.668   1.790   8.444  0.9211 -2.4586  1.2190
 3923SOL    HW223232   4.596   1.689   8.527  1.3679  1.3728  1.3326
 3924SOL     OW23233   2.930   0.339   7.930 -0.1987  0.2056  0.4056
 3924SOL    HW123234   3.007   0.376   7.887 -0.2253 -0.4312 -0.1750
 3924SOL    HW223235   2.873   0.414   7.912  2.0228  1.4074 -1.5933
 3925SOL     OW23236   0.619   0.716   4.969  0.1787 -0.1720 -0.0563
 3925SOL    HW123237   0.689   0.662   4.933  0.7682  1.0426 -0.7562
 3925SOL    HW223238   0.542   0.700   4.914  0.1876  0.3718 -0.2339
 3926SOL     OW23239   1.770   3.156   3.867  0.2021 -0.1558  0.1318
 3926SOL    HW123240   1.730   3.103   3.935  0.5146  0.3986  0.7463
 3926SOL    HW223241   1.692   3.192   3.826 -1.4433 -3.0312  0.7590
 3927SOL     OW23242   1.164   1.836  12.749 -0.1909 -0.1674 -0.0916
 3927SOL    HW123243   1.143   1.925  12.779  1.2649 -0.3275  1.3787
 3927SOL    HW223244   1.101   1.796  12.810  0.9902  1.0285  1.9035
 3928SOL     OW23245   1.786   3.221   9.701 -0.7145 -1.0139  0.3076
 3928SOL    HW123246   1.790   3.297   9.758 -0.5536 -0.1803 -0.8296
 3928SOL    HW223247   1.695   3.191   9.710 -0.6196 -1.9350 -1.9847
 3929SOL     OW23248   2.649   1.667  13.030  0.2485  0.6638 -0.3494
 3929SOL    HW123249   2.627   1.660  12.937  2.0743  0.5318 -0.7623
 3929SOL    HW223250   2.650   1.580  13.069 -1.3845  1.9201  2.5050
 3930SOL     OW23251   1.068   2.249   6.100 -0.5230 -0.3458 -0.4073
 3930SOL    HW123252   1.158   2.254   6.066 -1.1334  2.0689 -1.5928
 3930SOL    HW223253   1.072   2.316   6.168 -2.9205  0.6365 -1.2687
 3931SOL     OW23254   3.905   1.971   1.301 -0.4095  0.3693  0.5080
 3931SOL    HW123255   3.836   1.906   1.313  1.7717 -1.7598  1.4385
 3931SOL    HW223256   3.972   1.917   1.344 -0.5270 -0.5530 -0.4653
 3932SOL     OW23257   2.481   2.976  13.250 -0.5603 -0.5765 -0.3598
 3932SOL    HW123258   2.426   3.052  13.233  0.8238  0.5384  0.0877
 3932SOL    HW223259   2.436   2.934  13.324  0.9984  0.9095  1.4472
 3933SOL     OW23260   4.053   4.512   8.964 -0.1941 -0.0810  0.0736
 3933SOL    HW123261   4.041   4.515   8.869 -1.9060  0.6188  0.3118
 3933SOL    HW223262   4.103   4.591   8.987  0.3236 -0.8796  1.6713
 3934SOL     OW23263   2.796   1.295   6.906  0.0498  0.2968 -0.1473
 3934SOL    HW123264   2.756   1.209   6.899 -1.6010  1.0170  0.3601
 3934SOL    HW223265   2.831   1.313   6.819  1.7926 -0.2947  0.4408
 3935SOL     OW23266   2.266   3.678   3.314 -0.2077 -0.0582 -0.0238
 3935SOL    HW123267   2.319   3.691   3.235  0.2135  1.0257  0.4514
 3935SOL    HW223268   2.180   3.654   3.277  0.0876 -1.5249  0.2374
 3936SOL     OW23269   3.410   1.620   9.191 -0.1564  0.3483  0.4978
 3936SOL    HW123270   3.422   1.628   9.096  1.8462 -0.8457  0.6601
 3936SOL    HW223271   3.416   1.525   9.199  1.3851  0.3135 -1.1285
 3937SOL     OW23272   1.691   1.583   6.734  0.0753  0.3580 -0.3728
 3937SOL    HW123273   1.691   1.664   6.683 -0.4542 -0.0761 -1.0795
 3937SOL    HW223274   1.759   1.600   6.799  1.9944 -1.4548 -1.8955
 3938SOL     OW23275   2.845   3.302   6.315 -0.0022  0.5359  0.4760
 3938SOL    HW123276   2.813   3.272   6.231  1.3309 -3.3423  1.3522
 3938SOL    HW223277   2.929   3.256   6.321 -0.8137 -0.8303  1.3115
 3939SOL     OW23278   2.419   3.051   5.982 -0.0319  0.0984  0.2351
 3939SOL    HW123279   2.398   2.993   6.055 -0.1815 -0.5020 -0.2877
 3939SOL    HW223280   2.375   3.016   5.905  3.0728  0.0878 -1.5430
 3940SOL     OW23281   2.603   2.631   4.613 -0.1480 -0.4829  0.3150
 3940SOL    HW123282   2.517   2.640   4.653  0.2437  2.1058  0.6023
 3940SOL    HW223283   2.591   2.682   4.532  0.1961 -0.7922  0.0688
 3941SOL     OW23284   2.829   1.736   7.628  0.1367  0.5110  0.1610
 3941SOL    HW123285   2.757   1.798   7.618  0.3974  0.8170  0.1798
 3941SOL    HW223286   2.796   1.654   7.593 -0.8840  1.7705 -1.8129
 3942SOL     OW23287   3.733   4.295   9.290  0.0691  0.8062 -0.3784
 3942SOL    HW123288   3.665   4.333   9.233 -1.6009 -1.3507  0.1776
 3942SOL    HW223289   3.675   4.280   9.364  0.8203  1.2084  0.2838
 3943SOL     OW23290   3.809   0.302  13.481  0.0726  0.6849 -0.0796
 3943SOL    HW123291   3.897   0.273  13.458  0.6218  0.7793  1.8916
 3943SOL    HW223292   3.833   0.366  13.548  0.7338 -1.3421  1.6165
 3944SOL     OW23293   3.467   4.555   3.147  0.1482  1.0776 -0.1610
 3944SOL    HW123294   3.450   4.581   3.238  2.6548  1.4500  0.2145
 3944SOL    HW223295   3.381   4.525   3.119  0.0302 -0.1475  1.5073
 3945SOL     OW23296   0.461   2.259   3.775  0.8527 -0.1822  0.2081
 3945SOL    HW123297   0.389   2.276   3.714  1.5319  0.3973 -0.4345
 3945SOL    HW223298   0.530   2.309   3.731 -0.4635 -0.1699 -1.8655
 3946SOL     OW23299   0.420   3.805   2.584  0.3729  0.4429 -0.1403
 3946SOL    HW123300   0.422   3.709   2.576  1.1353  0.2595  2.2923
 3946SOL    HW223301   0.514   3.824   2.581  0.9689 -2.4010  1.0364
 3947SOL     OW23302   0.685   2.655  15.645 -0.2069 -0.4164 -0.2423
 3947SOL    HW123303   0.597   2.650  15.608 -1.1247 -1.6829  2.1435
 3947SOL    HW223304   0.694   2.747  15.620  1.3415 -0.2300  1.0407
 3948SOL     OW23305   0.367   2.636   7.101  0.8276 -0.2837  0.5838
 3948SOL    HW123306   0.438   2.686   7.142  2.6037 -2.3917  0.0584
 3948SOL    HW223307   0.292   2.661   7.155 -0.5344 -1.5057 -0.7542
 3949SOL     OW23308   2.976   4.415  10.033 -0.3443 -0.4219  0.2423
 3949SOL    HW123309   3.010   4.499  10.000 -0.3009  0.0213  1.3935
 3949SOL    HW223310   2.884   4.439  10.039 -0.1504  0.2892  0.3997
 3950SOL     OW23311   2.348   0.678  13.585 -0.1734  0.0922  0.2439
 3950SOL    HW123312   2.362   0.670  13.490  0.6785  0.7408  0.3118
 3950SOL    HW223313   2.254   0.674  13.600 -0.0024  0.9066  1.5271
 3951SOL     OW23314   2.241   2.657   6.826  0.2451  0.1467  0.1442
 3951SOL    HW123315   2.174   2.615   6.881 -0.3658  0.4762 -0.3574
 3951SOL    HW223316   2.185   2.680   6.753 -0.4554  2.3055  1.3772
 3952SOL     OW23317   3.428   4.508  13.839 -0.1431 -0.2394 -0.0973
 3952SOL    HW123318   3.452   4.553  13.758 -1.7067  0.0790 -0.3876
 3952SOL    HW223319   3.361   4.450  13.803  1.6123  0.2406 -4.1615
 3953SOL     OW23320   2.844   0.164  13.438 -0.1531 -0.6814  0.0448
 3953SOL    HW123321   2.781   0.117  13.493 -0.9088 -0.9348 -1.0245
 3953SOL    HW223322   2.867   0.100  13.372  1.8173  2.0518 -1.8993
 3954SOL     OW23323   2.916   1.164   9.175  0.0832  0.0156 -0.1897
 3954SOL    HW123324   2.978   1.235   9.159  1.0061 -0.4680  1.1685
 3954SOL    HW223325   2.874   1.162   9.089  0.8007 -3.6558 -0.4604
 3955SOL     OW23326   1.393   1.824   6.727 -0.5169 -0.3562  0.1339
 3955SOL    HW123327   1.301   1.851   6.736 -0.2436  0.9369 -0.8965
 3955SOL    HW223328   1.409   1.802   6.819 -0.1659  0.5498  0.2828
 3956SOL     OW23329   3.130   1.065  13.796  0.3698  0.7364 -0.0383
 3956SOL    HW123330   3.119   1.070  13.701 -1.4092  3.2217  0.3117
 3956SOL    HW223331   3.080   0.989  13.827  2.3547 -0.4863  0.1967
 3957SOL     OW23332   3.231   1.092   9.361  1.0291 -0.6914  0.0390
 3957SOL    HW123333   3.239   1.137   9.445  0.3369  1.0965 -0.8468
 3957SOL    HW223334   3.160   1.028   9.370  0.4161 -0.2488 -1.5378
 3958SOL     OW23335   1.536   0.339   9.428  0.7519 -0.7969 -0.5678
 3958SOL    HW123336   1.514   0.391   9.351  1.0607  0.0576 -0.0813
 3958SOL    HW223337   1.462   0.364   9.483  1.0667 -2.6192  0.6744
 3959SOL     OW23338   4.679   0.621   4.811  0.7339 -0.2423  0.3843
 3959SOL    HW123339   4.596   0.602   4.854 -0.4041 -2.4911 -2.8900
 3959SOL    HW223340   4.708   0.689   4.872  0.8597  1.1707 -1.2562
 3960SOL     OW23341   1.227   3.377   6.029 -0.5347 -0.6345  0.3114
 3960SOL    HW123342   1.282   3.299   6.038 -0.3269 -0.5215  0.0106
 3960SOL    HW223343   1.256   3.432   6.102  1.5892 -0.8376 -0.3800
 3961SOL     OW23344   1.285   3.001   5.688  0.1063 -0.3558  0.0942
 3961SOL    HW123345   1.192   3.014   5.671  0.1802 -1.9943 -1.6127
 3961SOL    HW223346   1.317   3.064   5.624 -1.5548 -0.6845 -1.0588
 3962SOL     OW23347   3.681   4.566  15.918  0.2608 -0.0735 -0.0035
 3962SOL    HW123348   3.605   4.616  15.889 -0.6741 -1.0201  0.8469
 3962SOL    HW223349   3.715   4.520  15.841  0.3221  2.3150 -1.3958
 3963SOL     OW23350   2.070   2.615   2.246 -0.5392  0.1027  0.1317
 3963SOL    HW123351   2.022   2.696   2.267 -0.8609 -0.0731  0.0742
 3963SOL    HW223352   2.090   2.589   2.335 -0.4538 -1.0384 -0.2183
 3964SOL     OW23353   3.546   3.808  11.126  0.4227 -0.1213  0.0282
 3964SOL    HW123354   3.454   3.813  11.149  0.4006 -0.0894 -0.0678
 3964SOL    HW223355   3.538   3.749  11.051  1.2527  1.0014 -0.9489
 3965SOL     OW23356   0.015   0.534   2.099 -0.5456 -0.0808 -0.6497
 3965SOL    HW123357   0.081   0.466   2.082  0.4989  1.1447 -1.5149
 3965SOL    HW223358   4.679   0.493   2.160  0.4597  0.4718  0.7380
 3966SOL     OW23359   3.426   2.672   3.477 -0.3187 -0.1681 -0.3484
 3966SOL    HW123360   3.478   2.725   3.539 -0.2963  0.2213 -0.6958
 3966SOL    HW223361   3.460   2.707   3.394 -2.6228  1.0973 -0.7566
 3967SOL     OW23362   3.095   3.113   9.990  0.3129  0.1847  0.2486
 3967SOL    HW123363   3.157   3.080  10.056  2.7705  1.2917 -1.4996
 3967SOL    HW223364   3.055   3.185  10.037  0.4784  1.2032 -1.1555
 3968SOL     OW23365   4.204   3.052   7.700 -0.0301  0.4154  0.3204
 3968SOL    HW123366   4.249   2.989   7.756  1.2197  1.1521  0.1335
 3968SOL    HW223367   4.269   3.066   7.631 -1.5703 -0.9578 -1.4491
 3969SOL     OW23368   0.718   4.625   0.049  0.0529  0.2837 -0.3386
 3969SOL    HW123369   0.702   4.535   0.078  1.0664  0.0760 -0.4264
 3969SOL    HW223370   0.742   4.615  17.660 -2.0702 -1.6945 -0.6759
 3970SOL     OW23371   2.351   3.586   4.364  0.0113  0.2325 -0.1440
 3970SOL    HW123372   2.333   3.519   4.299 -0.1069 -2.4737  2.6458
 3970SOL    HW223373   2.423   3.545   4.413  0.5786  2.2915  0.7508
 3971SOL     OW23374   2.779   2.647   5.304 -0.3381 -0.0235  0.2071
 3971SOL    HW123375   2.840   2.692   5.363 -1.6197 -0.5900  1.9646
 3971SOL    HW223376   2.764   2.713   5.236 -1.0655 -0.3869  0.0128
 3972SOL     OW23377   0.545   2.804   3.920 -0.2864  0.1625 -0.3787
 3972SOL    HW123378   0.593   2.836   3.997 -1.5409  0.7027  0.1763
 3972SOL    HW223379   0.472   2.866   3.919  0.9368  1.6243  0.3417
 3973SOL     OW23380   2.515   1.703   4.669  0.7236 -0.0126  0.2371
 3973SOL    HW123381   2.473   1.648   4.735 -0.3611  2.1663  1.3309
 3973SOL    HW223382   2.446   1.704   4.602  0.3486 -1.8613  0.5924
 3974SOL     OW23383   3.800   1.728  12.614  0.0452  0.0644  0.2546
 3974SOL    HW123384   3.849   1.691  12.540  0.1929  0.6245  0.0732
 3974SOL    HW223385   3.865   1.751  12.681  1.4801 -0.4920 -0.9461
 3975SOL     OW23386   0.191   2.062   2.044 -0.4613 -0.1374  0.8091
 3975SOL    HW123387   0.173   1.974   2.012  0.0967 -0.6322  1.8407
 3975SOL    HW223388   0.128   2.062   2.116  1.0297  2.8761  2.1334
 3976SOL     OW23389   1.825   3.665   0.265  0.0751 -0.3176 -0.3703
 3976SOL    HW123390   1.832   3.738   0.327  2.2911 -1.1232  0.3477
 3976SOL    HW223391   1.873   3.613   0.330 -1.4321  0.0860  1.0583
 3977SOL     OW23392   2.474   2.983   5.319  0.2927 -0.0959  0.3954
 3977SOL    HW123393   2.533   3.011   5.389 -0.1612  0.0771  0.7031
 3977SOL    HW223394   2.398   3.038   5.339 -0.3466 -1.3005  1.2645
 3978SOL     OW23395   1.138   4.415   7.186  0.1307 -0.7179  0.3777
 3978SOL    HW123396   1.128   4.328   7.227 -0.6956 -0.8475 -0.0944
 3978SOL    HW223397   1.050   4.452   7.180  0.6368  0.5249  0.7543
 3979SOL     OW23398   3.206   1.010   6.621 -0.4055  0.2080 -0.1147
 3979SOL    HW123399   3.137   1.064   6.583  0.6293 -0.4549 -2.8824
 3979SOL    HW223400   3.272   1.077   6.641  1.5594 -2.5454  2.6547
 3980SOL     OW23401   1.069   0.089   2.825 -0.2007  0.0404  0.1043
 3980SOL    HW123402   1.015   0.095   2.903 -0.4434  1.4547 -0.1801
 3980SOL    HW223403   1.002   0.091   2.757  0.3647  3.2686 -0.3425
 3981SOL     OW23404   3.000   4.653   4.028  0.1671  0.4960  0.3169
 3981SOL    HW123405   2.948   4.621   4.102 -0.5946 -0.4672 -0.6385
 3981SOL    HW223406   3.088   4.653   4.066 -0.2332 -1.0058  1.2529
 3982SOL     OW23407   1.524   1.214  10.719  0.2647 -0.5836 -0.7393
 3982SOL    HW123408   1.526   1.307  10.739  3.0669 -1.0562  1.2670
 3982SOL    HW223409   1.438   1.186  10.752 -0.3764 -0.6679 -2.5004
 3983SOL     OW23410   2.125   2.629   6.575  1.0258  0.2142 -0.1924
 3983SOL    HW123411   2.043   2.617   6.527  0.6220  0.6185  0.3879
 3983SOL    HW223412   2.115   2.547   6.624  0.4236 -2.0645 -4.1051
 3984SOL     OW23413   3.146   2.061   7.080 -0.3990 -0.2957 -0.2965
 3984SOL    HW123414   3.053   2.045   7.060 -0.9758  2.9193 -0.2880
 3984SOL    HW223415   3.147   2.067   7.176 -0.6483  1.0961 -0.3671
 3985SOL     OW23416   3.622   4.437   0.700  0.4164 -0.4008  0.1554
 3985SOL    HW123417   3.564   4.398   0.634  1.0503 -1.4973  0.2461
 3985SOL    HW223418   3.632   4.368   0.765  3.4972 -1.9543 -1.9363
 3986SOL     OW23419   1.051   2.175  14.051  0.0710  0.3720  0.4232
 3986SOL    HW123420   1.065   2.155  13.958  1.3254  1.3246  0.4019
 3986SOL    HW223421   1.137   2.206  14.080 -0.7645  0.7469  2.4861
 3987SOL     OW23422   1.625   1.864  16.736  0.2432 -0.1090 -0.2535
 3987SOL    HW123423   1.568   1.787  16.740  0.3195 -0.1198  0.7321
 3987SOL    HW223424   1.555   1.926  16.757  0.9037  0.7588 -0.6306
 3988SOL     OW23425   2.656   1.023   8.573  0.3394  0.0891  0.3558
 3988SOL    HW123426   2.654   1.055   8.663  0.0550 -3.5002  1.6153
 3988SOL    HW223427   2.591   0.953   8.566  1.2048 -0.7224  0.3841
 3989SOL     OW23428   1.596   3.714   6.889 -0.1363  0.1363 -0.0213
 3989SOL    HW123429   1.510   3.748   6.914  0.1095  0.2677  0.6596
 3989SOL    HW223430   1.629   3.780   6.829 -0.1451  1.3773  1.3250
 3990SOL     OW23431   0.169   1.459   2.785 -0.1755 -0.0160  0.2077
 3990SOL    HW123432   0.097   1.400   2.763  1.6480 -2.3761  0.5122
 3990SOL    HW223433   0.140   1.511   2.860 -2.2346  1.8921 -1.9396
 3991SOL     OW23434   4.682   1.157   1.686 -0.0316 -0.8741 -0.2415
 3991SOL    HW123435   4.608   1.202   1.645 -0.5958 -1.4825  0.1183
 3991SOL    HW223436   4.674   1.186   1.777  0.6804 -3.3321  0.6011
 3992SOL     OW23437   2.809   4.670  16.582 -1.2338  0.3219  0.3931
 3992SOL    HW123438   2.766   4.702  16.503  0.1665  0.4160 -0.3431
 3992SOL    HW223439   2.733   4.627  16.621 -1.5305 -0.7218 -1.3630
 3993SOL     OW23440   1.746   4.083   7.432 -0.2147 -0.4691 -0.7687
 3993SOL    HW123441   1.797   4.006   7.408  0.0006 -0.8395  0.9257
 3993SOL    HW223442   1.704   4.093   7.346  0.5808  1.8914 -0.8860
 3994SOL     OW23443   3.505   1.740   3.837 -0.2518 -0.1398  0.2590
 3994SOL    HW123444   3.426   1.795   3.832 -0.9225 -1.0550  0.7323
 3994SOL    HW223445   3.492   1.701   3.923  0.8048 -2.4693 -0.6424
 3995SOL     OW23446   2.852   2.061   5.005 -0.1074 -0.2185  0.2727
 3995SOL    HW123447   2.841   1.966   5.004 -2.9814  0.0988  1.1272
 3995SOL    HW223448   2.761   2.084   4.984  0.3880  1.5278  0.0861
 3996SOL     OW23449   0.885   2.216   3.887  0.2813  0.3488  0.0221
 3996SOL    HW123450   0.826   2.250   3.953 -1.4865 -2.4331 -0.1184
 3996SOL    HW223451   0.897   2.122   3.904 -0.4002 -0.1211 -2.0538
 3997SOL     OW23452   2.144   1.373   6.069  1.0048 -0.2085 -0.2705
 3997SOL    HW123453   2.058   1.413   6.082 -0.2617 -2.0339 -2.9560
 3997SOL    HW223454   2.163   1.405   5.981 -2.3047  2.1982 -0.1097
 3998SOL     OW23455   0.998   0.447   6.070  0.2704  0.4577 -0.6253
 3998SOL    HW123456   0.915   0.494   6.063  0.4700  1.2123  2.2386
 3998SOL    HW223457   1.057   0.519   6.047 -1.0023  1.4356 -0.8139
 3999SOL     OW23458   4.454   2.414   8.181  0.5760 -0.1614 -0.3177
 3999SOL    HW123459   4.400   2.432   8.104  0.6659 -1.4406 -0.6848
 3999SOL    HW223460   4.534   2.463   8.163  1.3648 -0.6242  1.9586
 4000SOL     OW23461   0.476   3.230   2.387  0.4670 -0.1255  0.1779
 4000SOL    HW123462   0.571   3.242   2.386  0.5915 -1.0673  0.1896
 4000SOL    HW223463   0.466   3.145   2.432  1.6103  0.5282  1.6869
 4001SOL     OW23464   2.893   1.736   5.454 -0.1688 -0.0763 -0.3215
 4001SOL    HW123465   2.857   1.700   5.373 -0.1530  0.9647 -0.8012
 4001SOL    HW223466   2.811   1.774   5.488 -0.5973 -0.5518 -0.8315
 4002SOL     OW23467   2.507   3.132  16.346  0.7665  0.1978 -0.5073
 4002SOL    HW123468   2.548   3.046  16.361  1.2674  0.8952  2.1667
 4002SOL    HW223469   2.532   3.148  16.255  1.8626 -0.7567 -0.3874
 4003SOL     OW23470   1.524   4.566  17.396 -0.4985 -0.0074 -0.1134
 4003SOL    HW123471   1.436   4.583  17.428 -1.2089 -1.4840 -1.2835
 4003SOL    HW223472   1.497   4.511  17.322 -1.2103  1.8332 -1.2134
 4004SOL     OW23473   3.031   0.353   9.038 -0.3489  0.0462 -0.3227
 4004SOL    HW123474   3.096   0.387   8.976 -1.3451  3.5208  0.5327
 4004SOL    HW223475   2.998   0.285   8.979  1.7270  0.0690 -1.5246
 4005SOL     OW23476   2.694   3.519   2.586  0.9789 -0.4024  0.0791
 4005SOL    HW123477   2.724   3.433   2.616  1.7929 -0.4558 -0.8989
 4005SOL    HW223478   2.722   3.515   2.495  0.4784  3.0408 -0.1962
 4006SOL     OW23479   0.999   4.711   4.747 -0.4771 -0.5832  0.1095
 4006SOL    HW123480   1.010   0.020   4.835  0.9015 -0.0359 -0.2841
 4006SOL    HW223481   1.090   4.707   4.716 -0.5942  4.1453 -0.7690
 4007SOL     OW23482   3.198   1.979   6.546  0.4394  0.0076 -0.0409
 4007SOL    HW123483   3.194   1.904   6.487  2.3893 -0.9874  1.0851
 4007SOL    HW223484   3.146   2.048   6.504 -2.5484 -0.5472  2.7100
 4008SOL     OW23485   1.705   1.678   3.395  0.3137 -0.4286 -0.0565
 4008SOL    HW123486   1.793   1.712   3.385  0.8358 -1.3193  1.4133
 4008SOL    HW223487   1.667   1.743   3.455 -0.0435  0.0495 -0.8014
 4009SOL     OW23488   4.412   0.188  17.504 -0.4796 -0.2385 -0.0628
 4009SOL    HW123489   4.376   0.156  17.421 -1.0026  1.6104 -0.5529
 4009SOL    HW223490   4.353   0.146  17.567  1.2660 -2.1387  0.3094
 4010SOL     OW23491   3.385   3.995   5.958  0.0702  0.4065 -0.1628
 4010SOL    HW123492   3.361   3.906   5.933  1.2551 -0.7056  2.7197
 4010SOL    HW223493   3.480   3.989   5.961 -0.0297 -1.5063 -0.8835
 4011SOL     OW23494   4.340   0.815   0.592  0.6090  0.6654 -0.0608
 4011SOL    HW123495   4.383   0.752   0.650  1.6797 -0.1093 -1.6989
 4011SOL    HW223496   4.255   0.813   0.635  0.1930 -2.5810 -1.0586
 4012SOL     OW23497   0.020   4.134   5.437 -0.1911  0.3773 -0.2619
 4012SOL    HW123498   4.688   4.200   5.399 -1.1722  0.4637  1.3695
 4012SOL    HW223499   4.683   4.065   5.461 -1.9920  1.7691 -1.0137
 4013SOL     OW23500   0.293   2.328  15.180 -0.2626  0.7148  0.0404
 4013SOL    HW123501   0.386   2.306  15.173 -0.7070 -1.5840  1.3132
 4013SOL    HW223502   0.277   2.394  15.113  0.8993  0.3652 -0.5900
 4014SOL     OW23503   4.652   3.374   7.018 -0.1178  0.7923  0.5701
 4014SOL    HW123504   4.567   3.415   6.999  0.5346  1.6777 -0.4168
 4014SOL    HW223505   4.705   3.420   6.953 -4.2685  0.9419 -2.7212
 4015SOL     OW23506   0.817   1.986   8.093  0.1859  0.0864  0.2523
 4015SOL    HW123507   0.754   1.961   8.026 -0.4356  1.4942  0.2985
 4015SOL    HW223508   0.882   2.025   8.035 -0.0998 -0.5140 -0.4636
 4016SOL     OW23509   1.739   2.292   7.928  0.1323  0.4265  0.2209
 4016SOL    HW123510   1.748   2.362   7.992  1.0678 -1.6345  2.3109
 4016SOL    HW223511   1.646   2.305   7.905 -0.0213  1.9264  1.7221
 4017SOL     OW23512   0.990   0.218   9.471 -0.4782 -0.5077  0.2464
 4017SOL    HW123513   1.054   0.216   9.543 -0.5652 -1.4636  0.3092
 4017SOL    HW223514   1.019   0.268   9.395  0.7949 -1.6379 -0.0252
 4018SOL     OW23515   4.646   1.751   8.878 -0.1137 -0.2022 -0.8820
 4018SOL    HW123516   4.586   1.823   8.859  3.0282  2.0530 -2.2543
 4018SOL    HW223517   0.001   1.779   8.834 -0.1699  0.4843 -0.5497
 4019SOL     OW23518   4.620   2.430   3.065  0.5475  0.1121  0.7530
 4019SOL    HW123519   4.552   2.497   3.066  0.1509 -0.2897  0.6779
 4019SOL    HW223520   4.672   2.446   2.986  1.4127  2.5254  1.8190
 4020SOL     OW23521   1.159   1.013  16.649 -0.0611  0.2663  0.2276
 4020SOL    HW123522   1.117   0.939  16.692 -1.5243  0.6817 -0.4692
 4020SOL    HW223523   1.195   1.064  16.721 -0.3967  1.6879 -0.5993
 4021SOL     OW23524   2.835   2.654   0.957 -0.0526 -0.1954 -0.5250
 4021SOL    HW123525   2.872   2.576   0.998  2.7697  1.8161  0.7141
 4021SOL    HW223526   2.852   2.643   0.863  0.6356  1.1495 -0.5528
 4022SOL     OW23527   2.837   0.308  16.554 -0.0353  0.0069 -0.6180
 4022SOL    HW123528   2.870   0.275  16.470  0.3980  0.2877 -0.5546
 4022SOL    HW223529   2.852   0.227  16.603 -0.9046  0.1980 -0.0464
 4023SOL     OW23530   2.093   1.499  12.624  0.1004 -0.2923 -0.3185
 4023SOL    HW123531   2.050   1.555  12.689  0.1846 -0.8004  0.1731
 4023SOL    HW223532   2.034   1.425  12.636 -1.5303  1.2798  1.3622
 4024SOL     OW23533   3.806   1.229   7.685  0.4510 -0.2070  0.5862
 4024SOL    HW123534   3.848   1.214   7.600 -1.3462  0.1671 -0.3543
 4024SOL    HW223535   3.868   1.291   7.724 -0.3820  0.2006  1.2572
 4025SOL     OW23536   2.777   0.916  12.720 -0.7104  0.0072 -0.5243
 4025SOL    HW123537   2.816   0.841  12.766  2.3286  0.9663 -1.5274
 4025SOL    HW223538   2.702   0.882  12.670 -0.8787  0.7135 -0.7441
 4026SOL     OW23539   2.265   2.287   2.807 -0.2417  0.1710  0.5192
 4026SOL    HW123540   2.230   2.311   2.722  0.7462 -3.8154 -0.9561
 4026SOL    HW223541   2.189   2.313   2.860 -1.9271  0.2309 -1.9299
 4027SOL     OW23542   1.579   3.337   7.927  0.6229 -0.0816 -0.7802
 4027SOL    HW123543   1.600   3.389   8.005  3.3630 -1.4448 -0.5837
 4027SOL    HW223544   1.612   3.391   7.855 -1.1316 -0.4302 -1.8410
 4028SOL     OW23545   4.626   2.794   5.323 -0.0385  0.1172 -0.1389
 4028SOL    HW123546   4.604   2.721   5.265  1.5688  0.8779 -1.7227
 4028SOL    HW223547   4.572   2.770   5.399 -0.1655 -0.4255 -0.3994
 4029SOL     OW23548   1.406   2.374   2.954  0.0300  0.3579  0.3690
 4029SOL    HW123549   1.415   2.469   2.939  0.2634  0.5347  1.6300
 4029SOL    HW223550   1.318   2.370   2.992  0.7029 -0.6920  1.8333
 4030SOL     OW23551   1.698   3.727   3.395 -0.2328 -0.0339 -0.3901
 4030SOL    HW123552   1.783   3.695   3.364  0.2069  0.9137 -0.1500
 4030SOL    HW223553   1.724   3.722   3.487 -1.3251  1.3210 -0.0116
 4031SOL     OW23554   4.356   3.746   7.377  0.0751  0.1641 -0.4073
 4031SOL    HW123555   4.336   3.784   7.463 -0.1471  0.8276 -0.7530
 4031SOL    HW223556   4.373   3.655   7.400  0.1491  0.8220  2.1718
 4032SOL     OW23557   0.419   3.201   4.077 -0.0211  0.4871 -0.5476
 4032SOL    HW123558   0.353   3.146   4.035  1.0647 -2.9277  2.2410
 4032SOL    HW223559   0.497   3.181   4.025 -1.0415  0.1521 -1.9554
 4033SOL     OW23560   0.633   3.192   3.507  0.1778  0.1770  0.5072
 4033SOL    HW123561   0.725   3.180   3.486 -0.1995 -0.3585 -0.8319
 4033SOL    HW223562   0.628   3.288   3.504 -1.2141  0.1023  0.2493
 4034SOL     OW23563   3.757   2.148   0.035 -0.1097 -0.3794  0.4708
 4034SOL    HW123564   3.769   2.183   0.123 -0.0162  1.6522 -0.3533
 4034SOL    HW223565   3.842   2.155  17.695 -2.0263  1.6865 -2.9426
 4035SOL     OW23566   4.305   0.033   4.473 -0.4456 -0.0236 -0.0862
 4035SOL    HW123567   4.347   0.119   4.469 -1.9140  0.7212  0.3903
 4035SOL    HW223568   4.230   0.039   4.414  0.6494 -0.3456 -1.4975
 4036SOL     OW23569   4.338   4.683   4.772  0.0166 -0.0724 -0.2432
 4036SOL    HW123570   4.336   4.716   4.682  1.4101 -0.4860 -0.4289
 4036SOL    HW223571   4.406   0.003   4.820  0.9121 -0.9659 -0.6588
 4037SOL     OW23572   2.889   0.186   8.526  0.1274 -0.4224 -0.0298
 4037SOL    HW123573   2.964   0.184   8.466  1.9130  1.2501  2.1277
 4037SOL    HW223574   2.828   0.125   8.485  0.5278 -0.3753 -0.7101
 4038SOL     OW23575   3.721   0.996   2.508  0.4326 -0.0703  0.0054
 4038SOL    HW123576   3.763   0.976   2.425 -0.9668  2.8770 -1.4050
 4038SOL    HW223577   3.786   1.061   2.536 -0.2910  0.7495 -0.1927
 4039SOL     OW23578   4.578   3.857   4.201 -0.0660  0.2338  0.7038
 4039SOL    HW123579   4.509   3.917   4.173 -1.1387 -0.3813  2.0223
 4039SOL    HW223580   4.528   3.779   4.175 -0.9557  1.2209 -0.5787
 4040SOL     OW23581   3.153   3.579   5.256  0.7276  0.9030  0.6348
 4040SOL    HW123582   3.140   3.505   5.316  1.2532 -0.9685 -1.5724
 4040SOL    HW223583   3.066   3.587   5.218  1.0279  1.9142  0.1817
 4041SOL     OW23584   1.976   2.111   5.460  0.4865 -0.0961  0.3509
 4041SOL    HW123585   1.954   2.202   5.442 -2.4943 -1.2079 -1.5099
 4041SOL    HW223586   1.945   2.066   5.381  1.7647 -0.4837  0.0570
 4042SOL     OW23587   0.213   2.347  17.151 -0.0252 -0.2100 -0.3315
 4042SOL    HW123588   0.256   2.268  17.117 -0.6897 -1.3165  1.4451
 4042SOL    HW223589   0.249   2.352  17.239 -0.8867 -0.7587  0.0504
 4043SOL     OW23590   4.450   2.240   7.339  0.4940  0.4758 -0.2730
 4043SOL    HW123591   4.496   2.183   7.400 -2.6194 -1.1464  0.5457
 4043SOL    HW223592   4.453   2.185   7.261  3.0963 -0.1968  0.3024
 4044SOL     OW23593   4.680   3.330   6.225  0.5242 -0.1895 -0.0173
 4044SOL    HW123594   4.610   3.336   6.291 -0.4007  1.6386 -1.1456
 4044SOL    HW223595   4.664   3.420   6.195  2.3386  0.6445  1.5288
 4045SOL     OW23596   4.395   0.231   7.665 -0.3973  0.2205  0.4414
 4045SOL    HW123597   4.389   0.287   7.742  1.7965  0.6257  0.3102
 4045SOL    HW223598   4.340   0.158   7.694  0.1166 -0.7524 -1.0632
 4046SOL     OW23599   0.596   0.826  10.826  0.3426  0.2635  0.0402
 4046SOL    HW123600   0.632   0.809  10.913 -0.3355 -0.2168  0.2358
 4046SOL    HW223601   0.650   0.897  10.793  1.2772  0.2891  1.6194
 4047SOL     OW23602   2.698   3.019  10.200 -0.0456 -0.0310  0.3761
 4047SOL    HW123603   2.764   2.982  10.141 -2.5887 -1.8036 -1.3647
 4047SOL    HW223604   2.657   2.939  10.232 -2.2121  0.5334 -0.9855
 4048SOL     OW23605   3.647   2.223  15.349  0.0243 -0.3234 -0.6337
 4048SOL    HW123606   3.629   2.230  15.442 -0.6524 -0.6521 -0.7428
 4048SOL    HW223607   3.557   2.201  15.326  0.3787 -1.8338 -0.5622
 4049SOL     OW23608   1.558   3.804   7.353  0.2150 -0.4398  0.3569
 4049SOL    HW123609   1.597   3.720   7.329  1.1205 -0.3002  1.3566
 4049SOL    HW223610   1.615   3.864   7.306 -1.1523 -0.8285 -1.8042
 4050SOL     OW23611   2.220   0.608   3.276  0.1833 -0.4858 -0.4229
 4050SOL    HW123612   2.263   0.600   3.361  0.9241  0.6896 -0.6842
 4050SOL    HW223613   2.199   0.516   3.260 -2.4502  0.1769 -0.8768
 4051SOL     OW23614   0.488   2.081   5.794  0.1361 -0.3080 -0.8062
 4051SOL    HW123615   0.499   2.173   5.768 -0.9955 -0.0228 -0.3141
 4051SOL    HW223616   0.396   2.069   5.818  0.9330 -0.5055  2.0815
 4052SOL     OW23617   1.889   3.258   6.863  0.0534 -0.3164 -0.0591
 4052SOL    HW123618   1.983   3.244   6.868  0.5832  2.4146 -1.9185
 4052SOL    HW223619   1.873   3.352   6.875 -0.6475 -0.6923  2.0015
 4053SOL     OW23620   3.960   0.482  15.237 -0.2092  0.3196  0.3802
 4053SOL    HW123621   4.042   0.433  15.237  1.0452  2.4000  2.1487
 4053SOL    HW223622   3.938   0.498  15.145 -1.1134  1.9665  0.8755
 4054SOL     OW23623   4.606   2.844   3.980  0.8602 -0.2717 -0.0247
 4054SOL    HW123624   4.569   2.772   3.929 -0.5440  0.2084  0.3348
 4054SOL    HW223625   4.696   2.812   3.987  1.5899  1.6220 -0.6933
 4055SOL     OW23626   1.560   2.714   7.931  0.7346  0.1087  0.0605
 4055SOL    HW123627   1.654   2.698   7.936  0.6940 -0.0516  0.2796
 4055SOL    HW223628   1.549   2.762   7.849 -2.2879  0.9917  0.9760
 4056SOL     OW23629   1.846   1.744   8.468 -0.6807 -0.1486  0.8302
 4056SOL    HW123630   1.778   1.730   8.402  0.1713  1.4995 -0.3747
 4056SOL    HW223631   1.865   1.655   8.497  0.6663  0.4729  1.8317
 4057SOL     OW23632   1.675   0.199   0.907  0.4600  0.2892 -0.2844
 4057SOL    HW123633   1.695   0.292   0.920  0.2200  0.0671  1.6710
 4057SOL    HW223634   1.765   0.169   0.921  0.6054  0.9056  0.1035
 4058SOL     OW23635   3.699   0.793   6.724  0.0348 -0.3660  0.0603
 4058SOL    HW123636   3.753   0.852   6.777 -0.4319 -0.0176  0.1537
 4058SOL    HW223637   3.709   0.837   6.639  1.7859  1.6378  1.2902
 4059SOL     OW23638   0.185   4.561   4.769 -0.0188 -0.1336 -0.2271
 4059SOL    HW123639   0.271   4.571   4.809 -1.8605  2.3370  3.1634
 4059SOL    HW223640   0.184   4.652   4.741 -1.1121  0.0674  0.4390
 4060SOL     OW23641   0.304   2.056   7.020  0.1996  0.2380 -0.7272
 4060SOL    HW123642   0.399   2.068   7.025  0.5586 -3.3890  1.4567
 4060SOL    HW223643   0.262   2.137   7.050 -0.8296 -0.9160  0.9490
 4061SOL     OW23644   2.128   2.653   2.712  0.1639 -0.3373 -0.3365
 4061SOL    HW123645   2.050   2.677   2.661  0.6668  3.7645  0.8328
 4061SOL    HW223646   2.162   2.741   2.725  0.3087 -0.1643 -1.9187
 4062SOL     OW23647   1.038   2.415  16.708  0.3010 -0.3124  0.1393
 4062SOL    HW123648   1.010   2.506  16.700 -0.2770 -0.7059 -2.1139
 4062SOL    HW223649   1.049   2.384  16.618  1.8190  0.2269  0.1315
 4063SOL     OW23650   2.605   1.639   4.974 -0.1214  0.5031 -0.3834
 4063SOL    HW123651   2.646   1.715   4.932  0.8413  0.5860  0.7312
 4063SOL    HW223652   2.679   1.579   4.987 -1.7556 -1.8889 -2.0713
 4064SOL     OW23653   4.040   2.070   8.736  0.2814  0.3401  0.2172
 4064SOL    HW123654   4.120   2.023   8.759  0.0147  0.8327  2.1247
 4064SOL    HW223655   4.077   2.126   8.668 -1.6242  0.4080 -0.7668
 4065SOL     OW23656   1.279   0.605   2.232  0.1932  0.1866  0.1888
 4065SOL    HW123657   1.238   0.689   2.254  2.9215  1.2048  1.4123
 4065SOL    HW223658   1.208   0.547   2.255  1.4382 -1.3978  0.0334
 4066SOL     OW23659   4.255   2.063   2.972  0.4621 -0.5389 -0.5774
 4066SOL    HW123660   4.346   2.091   2.964  0.7500 -1.0544  0.9757
 4066SOL    HW223661   4.209   2.099   2.896 -2.3426  0.8630  1.7984
 4067SOL     OW23662   0.045   4.504  12.358 -0.1341 -0.1582 -0.4295
 4067SOL    HW123663   4.698   4.528  12.301  0.1628  0.3954 -0.5736
 4067SOL    HW223664   0.072   4.431  12.303 -1.8827 -0.3957 -0.9581
 4068SOL     OW23665   2.909   0.327  13.012 -0.4558  0.4239  0.4708
 4068SOL    HW123666   2.964   0.330  13.091 -0.5806 -2.0154  0.6474
 4068SOL    HW223667   2.860   0.246  13.028 -1.5360  0.5718 -2.2032
 4069SOL     OW23668   2.130   4.213   4.647 -0.2646 -0.1045  0.1820
 4069SOL    HW123669   2.050   4.215   4.595 -0.3043 -0.3933  0.2338
 4069SOL    HW223670   2.192   4.232   4.576  2.1727 -1.0782  2.0283
 4070SOL     OW23671   1.787   2.703  14.792  0.2288  0.2278 -0.4735
 4070SOL    HW123672   1.725   2.641  14.752 -1.2572  0.4215  1.5354
 4070SOL    HW223673   1.804   2.779  14.736  3.0981  0.0242  0.1010
 4071SOL     OW23674   4.244   1.880   8.787 -0.3545  0.0932 -0.1943
 4071SOL    HW123675   4.302   1.808   8.761 -1.1227 -0.9449  0.9738
 4071SOL    HW223676   4.174   1.825   8.822 -0.0881 -0.2027 -0.1269
 4072SOL     OW23677   1.269   2.781   0.419 -0.6833 -0.2508  0.6001
 4072SOL    HW123678   1.184   2.822   0.432 -0.4389  1.6422 -3.6729
 4072SOL    HW223679   1.295   2.808   0.331 -1.0165 -0.3569  0.4700
 4073SOL     OW23680   0.339   2.547   2.905  0.3807 -0.3301  0.2584
 4073SOL    HW123681   0.287   2.515   2.831  2.4166 -2.9333 -0.0445
 4073SOL    HW223682   0.287   2.505   2.974  0.3841 -0.1345  0.3809
 4074SOL     OW23683   2.572   2.768  10.029  0.0744 -0.0036 -0.2276
 4074SOL    HW123684   2.514   2.843  10.027  0.1789  0.0428 -1.6766
 4074SOL    HW223685   2.607   2.767  10.118 -1.9691 -0.2578  0.5691
 4075SOL     OW23686   1.011   2.670   6.802  0.1115 -0.1932  0.6425
 4075SOL    HW123687   1.062   2.696   6.725 -0.4349 -1.1285 -0.0270
 4075SOL    HW223688   0.926   2.655   6.762  1.0467  1.2286 -1.8961
 4076SOL     OW23689   3.008   1.605  11.792 -0.3297 -0.0370  0.1297
 4076SOL    HW123690   2.963   1.585  11.711  2.0290 -0.1015 -1.1757
 4076SOL    HW223691   2.960   1.684  11.817 -0.7882 -0.8112  1.7056
 4077SOL     OW23692   0.738   1.315  14.575 -0.3312 -0.1579  0.7544
 4077SOL    HW123693   0.749   1.233  14.623  2.4338  0.4142  1.0975
 4077SOL    HW223694   0.760   1.363  14.655  1.1383  0.4595 -0.0266
 4078SOL     OW23695   3.208   0.622   6.682 -0.6081  0.1517 -0.1156
 4078SOL    HW123696   3.143   0.553   6.687  2.0691 -2.2843  0.7770
 4078SOL    HW223697   3.274   0.584   6.624  1.7601 -0.2776  2.8557
 4079SOL     OW23698   1.254   1.594   8.817 -0.5021 -0.3116  0.5639
 4079SOL    HW123699   1.162   1.596   8.791  0.3096  1.8830 -2.1645
 4079SOL    HW223700   1.258   1.669   8.876 -1.7342 -0.3726  0.7280
 4080SOL     OW23701   3.923   3.006   4.645 -0.5145  0.9437 -0.4701
 4080SOL    HW123702   3.844   2.985   4.695  1.1558  0.5626  2.0316
 4080SOL    HW223703   3.971   3.057   4.710 -2.8845  2.7237 -0.0961
 4081SOL     OW23704   4.147   2.139   8.337  0.3321 -0.0683 -0.3695
 4081SOL    HW123705   4.203   2.097   8.272  2.2549 -0.0390  1.2637
 4081SOL    HW223706   4.206   2.202   8.378  2.5852 -1.3733 -1.6196
 4082SOL     OW23707   0.748   4.685   2.524  0.4687  0.8587 -0.3754
 4082SOL    HW123708   0.660   4.651   2.509  0.1424  1.2700  0.5673
 4082SOL    HW223709   0.801   4.636   2.462  1.6790  0.1114  1.2440
 4083SOL     OW23710   3.076   3.891   6.420  0.7652 -0.0987 -0.4075
 4083SOL    HW123711   3.072   3.982   6.451 -0.9163 -0.0334 -0.8477
 4083SOL    HW223712   3.104   3.893   6.329 -0.7111  1.3243 -0.8165
 4084SOL     OW23713   3.049   3.270   7.510  0.2173  0.4983  0.7514
 4084SOL    HW123714   3.095   3.247   7.592 -1.7220  0.4932  1.8336
 4084SOL    HW223715   3.069   3.361   7.491 -1.2990  1.1354  2.1826
 4085SOL     OW23716   1.175   4.384  11.954  0.0204  0.0720  0.5308
 4085SOL    HW123717   1.251   4.414  11.905  0.8795 -1.6605  0.7909
 4085SOL    HW223718   1.205   4.295  11.971  0.3939 -0.0930 -1.0045
 4086SOL     OW23719   3.238   1.615   2.916 -0.4062  0.0407 -0.0121
 4086SOL    HW123720   3.278   1.579   2.836  1.2346 -0.9150  1.2431
 4086SOL    HW223721   3.150   1.583   2.893 -0.8334  0.7301  0.6580
 4087SOL     OW23722   4.440   1.066  12.439  0.0965 -0.7801 -0.5485
 4087SOL    HW123723   4.349   1.084  12.462 -0.2729 -2.9552 -0.3060
 4087SOL    HW223724   4.435   1.077  12.344 -0.6455 -0.3742 -0.4666
 4088SOL     OW23725   2.826   4.098  12.909 -0.5452 -0.5656  0.3095
 4088SOL    HW123726   2.836   4.192  12.897 -1.3346 -0.5629 -0.3246
 4088SOL    HW223727   2.906   4.072  12.955 -1.3739  0.4732  2.3307
 4089SOL     OW23728   4.126   2.922   4.463  0.6643  0.3833  0.2645
 4089SOL    HW123729   4.050   2.932   4.521  0.0135  2.1971 -0.9123
 4089SOL    HW223730   4.086   2.856   4.406  1.5533 -1.0630  1.3329
 4090SOL     OW23731   4.661   0.653  17.539  0.0820  0.4659  0.2461
 4090SOL    HW123732   4.680   0.732  17.489  3.5764 -1.1596 -1.0277
 4090SOL    HW223733   0.013   0.601  17.517  0.5880  1.1353  0.4755
 4091SOL     OW23734   3.722   4.457  11.392  0.6760 -0.1994  0.3117
 4091SOL    HW123735   3.727   4.456  11.487 -1.9435 -1.3396  0.4343
 4091SOL    HW223736   3.690   4.544  11.367  1.1761  0.5272  2.2032
 4092SOL     OW23737   2.605   1.596  10.560 -0.2235  0.4474  0.4418
 4092SOL    HW123738   2.588   1.504  10.540 -0.9480  0.9665 -1.3761
 4092SOL    HW223739   2.700   1.594  10.572  0.0737 -0.8418 -2.1463
 4093SOL     OW23740   0.719   1.047   4.018 -0.1068  0.0105 -0.0054
 4093SOL    HW123741   0.735   1.113   4.086 -1.3784  0.5166 -0.1859
 4093SOL    HW223742   0.808   1.052   3.984  1.0830 -0.0564  3.0684
 4094SOL     OW23743   3.429   2.800   3.224 -0.2346 -0.0382  0.0180
 4094SOL    HW123744   3.464   2.716   3.194  0.1101  0.0979  0.0364
 4094SOL    HW223745   3.440   2.859   3.150 -1.1851  0.2347  0.0964
 4095SOL     OW23746   4.044   0.523  10.822 -0.7875 -0.0203  0.3555
 4095SOL    HW123747   3.956   0.561  10.820 -0.7568 -0.0036 -0.7534
 4095SOL    HW223748   4.030   0.474  10.741 -1.1591 -0.3180  0.5988
 4096SOL     OW23749   3.351   2.311   3.969 -0.1236  0.4037  0.2136
 4096SOL    HW123750   3.430   2.258   3.982 -0.3645  0.2653  1.0910
 4096SOL    HW223751   3.364   2.329   3.876  2.1813 -1.0118  0.2696
 4097SOL     OW23752   3.404   1.928   8.941  0.1202  0.4697 -0.1901
 4097SOL    HW123753   3.408   1.832   8.950  0.4144  0.4677 -0.3316
 4097SOL    HW223754   3.456   1.942   9.021 -0.4421  1.4035  0.0084
 4098SOL     OW23755   3.611   3.028   6.818  0.0558  0.3127  0.2639
 4098SOL    HW123756   3.624   3.008   6.725 -1.1048  0.2319  0.1201
 4098SOL    HW223757   3.597   2.938   6.846 -2.3371  0.5441 -0.1806
 4099SOL     OW23758   3.251   0.199   0.923 -0.2845 -0.2681  0.2189
 4099SOL    HW123759   3.229   0.110   0.949 -2.7535 -0.2148 -1.7074
 4099SOL    HW223760   3.303   0.245   0.989 -1.4808  0.0947  0.9264
 4100SOL     OW23761   0.812   1.707  17.541 -0.1911  0.5814 -0.6999
 4100SOL    HW123762   0.805   1.690  17.635 -2.7163  1.5322 -0.7054
 4100SOL    HW223763   0.851   1.794  17.534 -0.2012  0.6785  0.5270
 4101SOL     OW23764   2.403   0.454   7.253 -0.4685  0.2060 -0.5601
 4101SOL    HW123765   2.462   0.414   7.316  0.6609  1.3098 -0.9233
 4101SOL    HW223766   2.446   0.539   7.242  0.6052 -0.1355  0.9712
 4102SOL     OW23767   0.179   4.335   4.269 -0.1441  1.1565  0.2307
 4102SOL    HW123768   0.181   4.376   4.356 -0.7434  1.8360 -0.0818
 4102SOL    HW223769   0.270   4.352   4.245  0.2181 -1.8029 -0.4643
 4103SOL     OW23770   0.756   4.088   6.568 -0.0118  0.4965  0.5243
 4103SOL    HW123771   0.791   3.999   6.564 -0.2686  0.3473  1.4764
 4103SOL    HW223772   0.684   4.081   6.505  0.7868 -2.9339 -0.0217
 4104SOL     OW23773   2.749   1.473  16.429  0.4084  0.3837 -0.1512
 4104SOL    HW123774   2.715   1.505  16.513 -0.9892  1.3124 -1.0560
 4104SOL    HW223775   2.768   1.552  16.380 -0.2893  1.6921  1.6937
 4105SOL     OW23776   2.839   2.640   9.571  0.4404  0.4152  0.3182
 4105SOL    HW123777   2.933   2.654   9.556  0.0995 -1.6431 -3.5470
 4105SOL    HW223778   2.816   2.721   9.618 -2.0546  0.9562 -1.8414
 4106SOL     OW23779   1.233   3.551  12.804  0.0760 -0.1988 -0.2045
 4106SOL    HW123780   1.289   3.629  12.805 -1.1886  0.7214 -0.4235
 4106SOL    HW223781   1.199   3.559  12.715  0.6241 -2.3271 -0.5891
 4107SOL     OW23782   4.683   1.435   5.683 -0.1686 -0.2512  0.2577
 4107SOL    HW123783   0.010   1.513   5.662  0.2004 -0.7312 -0.6302
 4107SOL    HW223784   0.022   1.369   5.660  1.0978  1.0583  0.0176
 4108SOL     OW23785   3.249   0.856   6.846  0.0323 -0.3515 -0.0854
 4108SOL    HW123786   3.257   0.891   6.758 -0.7711 -3.7532 -1.5145
 4108SOL    HW223787   3.236   0.764   6.822 -2.6841 -0.3354  1.2657
 4109SOL     OW23788   1.176   1.028  14.459  0.1267 -0.1715 -0.1684
 4109SOL    HW123789   1.223   1.058  14.381 -0.6483  1.4177 -0.0452
 4109SOL    HW223790   1.257   0.997  14.500  0.2842  1.6105  0.8904
 4110SOL     OW23791   2.525   4.645  15.406  0.3938  0.0766  0.3167
 4110SOL    HW123792   2.477   4.657  15.488  1.2810  0.6393  0.7503
 4110SOL    HW223793   2.506   4.552  15.395  0.1980  0.1999 -0.4219
 4111SOL     OW23794   2.270   2.353   7.594  0.3803  0.1030  0.0161
 4111SOL    HW123795   2.344   2.317   7.643  1.0780  0.9407 -0.4221
 4111SOL    HW223796   2.207   2.281   7.600 -0.8911  1.2285  0.1661
 4112SOL     OW23797   3.597   3.534   5.656 -0.1788  0.4195  0.5523
 4112SOL    HW123798   3.512   3.528   5.612  0.6139 -1.3696 -0.7469
 4112SOL    HW223799   3.645   3.588   5.593  0.8589  1.2746  2.0902
 4113SOL     OW23800   0.580   1.073   5.948 -0.0992  0.6451 -0.0778
 4113SOL    HW123801   0.602   1.032   6.032  1.6644 -1.2738 -1.5025
 4113SOL    HW223802   0.652   1.048   5.891 -0.0438 -0.6681  0.5703
 4114SOL     OW23803   4.040   0.813   8.844  0.2135 -0.3893  0.2618
 4114SOL    HW123804   4.044   0.718   8.840 -0.9019 -0.3664 -1.2373
 4114SOL    HW223805   4.135   0.821   8.857  0.1511  0.4731  0.1653
 4115SOL     OW23806   4.456   2.581   2.841 -0.3260  0.0121 -0.2239
 4115SOL    HW123807   4.412   2.586   2.756 -1.0876 -0.1030  0.1640
 4115SOL    HW223808   4.513   2.504   2.833 -0.2841 -0.0133  0.3328
 4116SOL     OW23809   3.699   2.973   8.916  0.2420 -0.1792 -0.0329
 4116SOL    HW123810   3.619   2.957   8.966  0.1316  0.7941  0.0971
 4116SOL    HW223811   3.699   3.068   8.909  0.4107 -0.1178  0.8778
 4117SOL     OW23812   4.063   3.372   4.327  0.1857  0.0904 -0.2099
 4117SOL    HW123813   4.011   3.293   4.313 -0.6359 -0.2728  4.6121
 4117SOL    HW223814   4.081   3.376   4.421 -1.6684  1.8151  0.0839
 4118SOL     OW23815   2.760   2.822  12.948  0.2650 -0.0560 -0.0777
 4118SOL    HW123816   2.825   2.756  12.969  0.2058  0.0840  0.5293
 4118SOL    HW223817   2.724   2.784  12.867 -0.4902  2.1056 -0.7681
 4119SOL     OW23818   1.869   3.423   3.328  0.4968  0.4191 -0.1198
 4119SOL    HW123819   1.873   3.503   3.276 -0.8088  0.4501 -0.1680
 4119SOL    HW223820   1.950   3.423   3.379  0.6446  2.0178 -0.3528
 4120SOL     OW23821   1.948   1.069   4.660 -0.6407 -0.1920  0.6886
 4120SOL    HW123822   1.955   0.974   4.648 -0.8621 -0.1316  0.0855
 4120SOL    HW223823   1.924   1.101   4.574  0.5217  1.7984  1.1287
 4121SOL     OW23824   1.525   2.512   4.719 -0.2801  0.0188  0.1840
 4121SOL    HW123825   1.469   2.435   4.720  0.9947 -0.9143 -2.0770
 4121SOL    HW223826   1.471   2.589   4.700  0.1504  0.2050 -0.2662
 4122SOL     OW23827   3.792   2.289   6.800 -0.0134  0.2835 -0.2699
 4122SOL    HW123828   3.869   2.346   6.802 -0.1600  0.5004 -0.9490
 4122SOL    HW223829   3.727   2.355   6.823  0.6213  1.0616 -0.6941
 4123SOL     OW23830   3.500   0.524  12.940 -0.2635 -0.3926  0.4474
 4123SOL    HW123831   3.463   0.436  12.946  1.7021 -1.2668 -0.1134
 4123SOL    HW223832   3.505   0.543  13.034  0.8645 -0.5001  0.4157
 4124SOL     OW23833   3.916   0.711   3.849  0.4553  0.4272  0.3566
 4124SOL    HW123834   3.990   0.703   3.789 -0.1098 -1.4701 -0.0890
 4124SOL    HW223835   3.855   0.649   3.810  0.5603 -2.4251  4.6797
 4125SOL     OW23836   4.157   1.788   1.280  0.5622 -0.0682  0.2063
 4125SOL    HW123837   4.168   1.786   1.185 -0.3894  0.8856  0.0848
 4125SOL    HW223838   4.084   1.727   1.293  1.2954 -0.2777  3.2608
 4126SOL     OW23839   1.638   2.957  14.982 -0.1451  0.1293  0.0847
 4126SOL    HW123840   1.655   3.016  14.910 -1.2087  2.3382  1.6476
 4126SOL    HW223841   1.696   2.992  15.049 -1.7318 -1.3536  2.2398
 4127SOL     OW23842   0.544   2.714   2.470 -0.0084 -0.1292  0.4764
 4127SOL    HW123843   0.462   2.690   2.513  0.0247 -0.4002  0.3872
 4127SOL    HW223844   0.532   2.808   2.453  1.0609 -0.1287 -0.2703
 4128SOL     OW23845   1.371   3.160   4.027  0.1676 -0.4274 -0.5787
 4128SOL    HW123846   1.315   3.115   3.963  1.6647  0.6419 -2.6457
 4128SOL    HW223847   1.409   3.231   3.975 -0.2305 -1.4781 -2.2937
 4129SOL     OW23848   2.328   0.829  16.733  0.2020 -0.2749  0.2302
 4129SOL    HW123849   2.290   0.741  16.728 -0.9153  0.2174 -0.1292
 4129SOL    HW223850   2.421   0.813  16.742  0.1347 -0.0043  1.3558
 4130SOL     OW23851   3.430   3.593   7.037 -0.3408  0.2861  0.0124
 4130SOL    HW123852   3.442   3.688   7.026 -0.3818  0.3191  0.2585
 4130SOL    HW223853   3.438   3.580   7.131  1.2314 -1.5883 -0.3927
 4131SOL     OW23854   0.517   0.357  16.033  0.2874 -0.2689  0.2235
 4131SOL    HW123855   0.473   0.338  16.116 -2.6081  0.7309 -1.0786
 4131SOL    HW223856   0.575   0.281  16.030  0.2057 -0.2548 -1.4721
 4132SOL     OW23857   0.679   3.114   7.689 -0.2772 -0.3127 -0.2121
 4132SOL    HW123858   0.646   3.168   7.617  2.1135  0.6017 -0.6273
 4132SOL    HW223859   0.601   3.120   7.744 -2.1120  1.1023 -2.9758
 4133SOL     OW23860   2.659   1.158  12.777 -0.1251 -0.4697  0.0737
 4133SOL    HW123861   2.715   1.082  12.794 -0.4270 -0.8845 -0.8241
 4133SOL    HW223862   2.566   1.134  12.781  0.0700 -0.5931  3.5532
 4134SOL     OW23863   4.131   2.420  12.052 -0.5060  0.2613  0.7583
 4134SOL    HW123864   4.050   2.401  12.005 -0.5764 -2.2298  1.9153
 4134SOL    HW223865   4.115   2.512  12.074  0.8853  0.9361 -0.9996
 4135SOL     OW23866   3.421   1.508   6.657 -0.4758 -0.5549 -0.2722
 4135SOL    HW123867   3.440   1.577   6.594  3.9160 -2.9395 -1.5784
 4135SOL    HW223868   3.422   1.561   6.736 -1.5229  1.5995 -1.7107
 4136SOL     OW23869   0.247   0.209   5.456 -0.0244  0.4994  0.0220
 4136SOL    HW123870   0.267   0.195   5.549  0.2512  1.4622  0.1108
 4136SOL    HW223871   0.335   0.239   5.433 -0.0705 -0.6601 -1.6655
 4137SOL     OW23872   0.140   2.779   4.019 -0.6533 -0.6080 -0.2778
 4137SOL    HW123873   0.212   2.792   3.957 -0.7550  2.3426  0.2350
 4137SOL    HW223874   0.136   2.685   4.032 -0.7451 -0.6402 -0.5315
 4138SOL     OW23875   4.620   0.268   3.072 -0.7816 -0.2798  0.0819
 4138SOL    HW123876   4.610   0.200   3.005 -0.2525 -0.0633 -0.2156
 4138SOL    HW223877   4.701   0.303   3.035 -0.7475  0.7074  1.0969
 4139SOL     OW23878   3.462   3.679   1.232  0.3373 -0.6885 -0.2199
 4139SOL    HW123879   3.485   3.771   1.222  0.3986 -0.5680  0.9960
 4139SOL    HW223880   3.520   3.654   1.304 -0.5211  0.9182  1.0257
 4140SOL     OW23881   4.294   2.531   5.075  0.1646 -0.4416  0.0421
 4140SOL    HW123882   4.376   2.527   5.124 -0.0834  4.8510  0.8973
 4140SOL    HW223883   4.300   2.459   5.013 -3.7575 -0.8194  0.0809
 4141SOL     OW23884   4.622   4.166   4.281 -0.3587  0.4197 -0.1653
 4141SOL    HW123885   4.630   4.093   4.343 -0.1320  0.4990 -0.0991
 4141SOL    HW223886   4.653   4.228   4.347 -1.9192  3.0720 -1.9493
 4142SOL     OW23887   3.018   1.209   8.661 -0.1665  0.2438 -0.6099
 4142SOL    HW123888   3.018   1.176   8.751 -0.5332  1.9143 -0.0033
 4142SOL    HW223889   2.939   1.262   8.660  0.5708  1.3615  0.1047
 4143SOL     OW23890   1.780   3.402   5.817  0.0286  0.3110  0.0516
 4143SOL    HW123891   1.781   3.333   5.750 -0.5886  1.8590 -1.5687
 4143SOL    HW223892   1.721   3.372   5.885  1.3602  1.7462  1.8356
 4144SOL     OW23893   3.457   0.853   7.845 -0.4212  0.6049 -0.4414
 4144SOL    HW123894   3.425   0.939   7.872 -0.2101  0.4916  0.1648
 4144SOL    HW223895   3.385   0.842   7.783 -0.9171  0.0739  0.2288
 4145SOL     OW23896   1.820   0.558   5.084  0.4037 -0.1375 -0.1721
 4145SOL    HW123897   1.816   0.597   5.171 -1.7275 -1.2655  0.2375
 4145SOL    HW223898   1.893   0.497   5.079  1.8407  1.6229 -0.7707
 4146SOL     OW23899   1.025   1.561   5.986  0.7007  0.4303 -0.6143
 4146SOL    HW123900   0.998   1.653   5.994  0.3910  0.3027 -0.2005
 4146SOL    HW223901   1.099   1.568   5.925  0.4084 -2.3328 -1.2802
 4147SOL     OW23902   2.661   1.550   6.905 -0.2314 -0.4283  0.1255
 4147SOL    HW123903   2.594   1.514   6.847 -1.4278  2.2441 -0.1625
 4147SOL    HW223904   2.684   1.464   6.941 -1.8453 -0.6877  0.5899
 4148SOL     OW23905   1.531   0.693   2.359  0.1142 -0.2042  0.0232
 4148SOL    HW123906   1.495   0.662   2.275  1.4291 -2.0482  0.1463
 4148SOL    HW223907   1.621   0.711   2.334 -0.4396  3.0153  0.3228
 4149SOL     OW23908   1.333   1.187   4.434  0.5343  0.2515  0.0125
 4149SOL    HW123909   1.294   1.273   4.449 -3.4809 -1.2147 -1.9371
 4149SOL    HW223910   1.364   1.206   4.346 -2.4919  1.3154 -0.8272
 4150SOL     OW23911   0.088   0.433   0.148 -0.7846 -0.2703 -0.3738
 4150SOL    HW123912   0.005   0.480   0.153  0.1514  1.2670  0.6780
 4150SOL    HW223913   0.071   0.398   0.061  0.8636 -0.6010 -0.5678
 4151SOL     OW23914   3.593   4.488   1.398 -0.2639 -0.1515  0.2489
 4151SOL    HW123915   3.498   4.495   1.405 -0.3349 -0.0971 -0.7604
 4151SOL    HW223916   3.618   4.523   1.484  1.3120  0.4548 -0.4584
 4152SOL     OW23917   1.715   0.711  10.330  0.0380  0.0649  0.0933
 4152SOL    HW123918   1.716   0.627  10.283  0.9421 -0.1190  0.4337
 4152SOL    HW223919   1.805   0.744  10.340 -0.2348  0.5709  0.8904
 4153SOL     OW23920   3.698   1.928   5.482 -0.4738  0.6143 -0.6764
 4153SOL    HW123921   3.774   1.878   5.514 -0.6210  1.3834  0.8992
 4153SOL    HW223922   3.719   1.954   5.393  0.5514  2.2981  0.0494
 4154SOL     OW23923   2.275   1.235  16.843  0.4579  0.4329 -0.2291
 4154SOL    HW123924   2.329   1.304  16.883 -0.0459  1.6973 -1.7374
 4154SOL    HW223925   2.210   1.294  16.806  0.4965  2.1648  2.4109
 4155SOL     OW23926   1.331   1.036   6.370  0.0685 -0.2066 -0.0378
 4155SOL    HW123927   1.328   1.120   6.324  0.2515  0.1793  0.6546
 4155SOL    HW223928   1.413   1.001   6.336 -1.1300 -2.4424 -0.5921
 4156SOL     OW23929   1.060   1.405   0.780  0.2276 -0.2769 -0.0401
 4156SOL    HW123930   1.155   1.405   0.777  0.1519 -1.1590 -2.2615
 4156SOL    HW223931   1.045   1.389   0.687  1.0413  0.7460 -0.3425
 4157SOL     OW23932   1.880   4.278   8.534 -0.1568  0.2817 -0.3180
 4157SOL    HW123933   1.891   4.313   8.445 -1.3145  0.0743 -0.5457
 4157SOL    HW223934   1.798   4.319   8.563 -0.5052 -0.2729 -0.5159
 4158SOL     OW23935   2.862   2.634   0.683 -0.1672 -0.0467 -0.1440
 4158SOL    HW123936   2.896   2.555   0.641 -0.8076  1.0775 -2.7914
 4158SOL    HW223937   2.830   2.689   0.612  0.9156 -0.2579 -0.7774
 4159SOL     OW23938   4.668   3.449   3.437 -0.4586 -0.2614  0.1693
 4159SOL    HW123939   0.012   3.388   3.462 -0.9534 -1.2873 -0.9786
 4159SOL    HW223940   4.597   3.431   3.498 -2.0718  0.2909 -1.5472
 4160SOL     OW23941   0.656   0.644  16.762 -0.0168  0.0376  0.1932
 4160SOL    HW123942   0.734   0.593  16.782  1.5308  2.5749  0.7039
 4160SOL    HW223943   0.661   0.629  16.667 -2.0230 -1.6581  0.3627
 4161SOL     OW23944   2.613   2.035   3.107  0.3759 -0.0570  1.1603
 4161SOL    HW123945   2.534   2.038   3.053  0.0061  0.9632  1.7444
 4161SOL    HW223946   2.579   2.009   3.193 -0.3895 -2.1241  0.2268
 4162SOL     OW23947   0.369   1.366   2.919 -0.2265  0.0311 -0.0486
 4162SOL    HW123948   0.288   1.406   2.887  0.4891  1.0543 -0.6220
 4162SOL    HW223949   0.437   1.422   2.881 -0.1694 -0.1213 -0.1710
 4163SOL     OW23950   4.596   1.608  16.782  0.2935  0.0291  0.0529
 4163SOL    HW123951   4.514   1.571  16.814  0.8201  1.1317  2.6830
 4163SOL    HW223952   4.607   1.564  16.698 -0.1302  0.9268 -0.4697
 4164SOL     OW23953   2.964   2.307   6.157 -0.8393 -0.3028 -0.2284
 4164SOL    HW123954   2.972   2.275   6.247  0.9221 -1.5129 -0.8322
 4164SOL    HW223955   3.027   2.251   6.113  2.1582  1.8210  1.3423
 4165SOL     OW23956   4.430   0.823   4.767  0.6453 -0.4701  0.1588
 4165SOL    HW123957   4.488   0.886   4.811 -0.7086  0.9149 -0.0678
 4165SOL    HW223958   4.383   0.881   4.707  2.4022  0.1756 -0.5986
 4166SOL     OW23959   4.632   2.574   4.625 -0.6600  0.3146  0.4095
 4166SOL    HW123960   4.618   2.592   4.531 -0.7448  1.0354  0.5590
 4166SOL    HW223961   4.550   2.529   4.646 -0.7107 -0.3358 -1.1819
 4167SOL     OW23962   2.380   2.764   7.028  0.2652  0.1508 -0.9889
 4167SOL    HW123963   2.333   2.722   6.956  0.6572 -0.7043 -0.7396
 4167SOL    HW223964   2.441   2.694   7.048  0.5880  1.2162  1.8194
 4168SOL     OW23965   3.665   3.358   1.814 -0.2437 -0.2310  0.4969
 4168SOL    HW123966   3.722   3.364   1.891 -1.0888  1.8642  0.9621
 4168SOL    HW223967   3.594   3.315   1.862 -0.3477 -1.0482 -0.3993
 4169SOL     OW23968   2.344   0.040  16.151 -0.3212  0.1109  0.2649
 4169SOL    HW123969   2.335   0.063  16.058  0.0719 -0.0131  0.1967
 4169SOL    HW223970   2.340   0.127  16.191  0.7531  0.1953  0.2012
 4170SOL     OW23971   3.579   1.670   8.493  0.1047 -0.1008  0.2391
 4170SOL    HW123972   3.508   1.624   8.449  0.3843 -0.9459  0.6625
 4170SOL    HW223973   3.609   1.592   8.542 -1.1973 -0.8068 -0.1093
 4171SOL     OW23974   1.784   2.426   4.032 -0.0506  0.4469 -0.4178
 4171SOL    HW123975   1.772   2.516   4.004  1.4297  0.6491 -0.3910
 4171SOL    HW223976   1.704   2.383   4.004 -0.2704  2.7999 -3.3373
 4172SOL     OW23977   2.950   0.421   9.284 -0.3564 -0.3158  0.1829
 4172SOL    HW123978   2.976   0.390   9.197 -0.1379  3.8962 -1.2918
 4172SOL    HW223979   3.017   0.383   9.342 -0.8198 -0.4283  0.6413
 4173SOL     OW23980   0.814   1.626  16.237  0.6297  0.0380 -0.1116
 4173SOL    HW123981   0.777   1.662  16.157  1.0033 -1.7795 -1.1169
 4173SOL    HW223982   0.759   1.670  16.301  0.3065 -1.4180  0.6085
 4174SOL     OW23983   1.358   1.898   4.307  0.4154  0.1944  0.2849
 4174SOL    HW123984   1.444   1.859   4.290  1.6496  2.0387  2.1654
 4174SOL    HW223985   1.303   1.859   4.240 -0.4237  1.5489  0.1839
 4175SOL     OW23986   2.706   2.391   3.132 -0.3281 -0.1454 -0.6075
 4175SOL    HW123987   2.651   2.410   3.056  0.8957 -1.0427 -1.7117
 4175SOL    HW223988   2.667   2.317   3.178 -1.3994  0.2621 -0.8540
 4176SOL     OW23989   0.308   4.212   3.800 -0.6032  0.0996  0.3424
 4176SOL    HW123990   0.232   4.168   3.764  0.4756 -3.2102  2.0358
 4176SOL    HW223991   0.308   4.174   3.888  0.5322 -2.1512 -0.6341
 4177SOL     OW23992   1.600   3.447  10.066 -0.1646 -0.3078 -0.0791
 4177SOL    HW123993   1.602   3.368  10.120 -0.6212 -0.0149  0.3623
 4177SOL    HW223994   1.540   3.500  10.117 -3.0411 -2.2913 -1.3773
 4178SOL     OW23995   0.954   2.875   8.118  0.0195  0.0041  0.5452
 4178SOL    HW123996   1.032   2.904   8.166  0.3136 -0.9188  0.6337
 4178SOL    HW223997   0.945   2.785   8.148  0.3354  0.1065  0.9536
 4179SOL     OW23998   4.457   4.244   3.841 -0.2639 -0.0806  0.2945
 4179SOL    HW123999   4.511   4.276   3.912  2.2002 -0.2036 -1.5207
 4179SOL    HW224000   4.502   4.165   3.810  0.6659  0.6006 -0.1111
 4180SOL     OW24001   1.880   3.864   5.941  0.1360 -0.4398 -0.2940
 4180SOL    HW124002   1.974   3.858   5.955  0.3604  0.0760 -1.6398
 4180SOL    HW224003   1.874   3.859   5.845 -0.2187 -2.0419 -0.2018
 4181SOL     OW24004   0.092   4.438   8.866  0.1472 -0.4322  0.1902
 4181SOL    HW124005   0.076   4.402   8.778 -0.8530  3.3127 -1.1669
 4181SOL    HW224006   0.187   4.428   8.868  0.5294  3.0526 -0.2348
 4182SOL     OW24007   4.191   4.179   6.194 -0.2712 -0.3055 -0.0290
 4182SOL    HW124008   4.189   4.091   6.232  3.1825  0.2631  1.4821
 4182SOL    HW224009   4.142   4.171   6.113 -0.9422 -0.9130  0.4360
 4183SOL     OW24010   2.408   1.517   0.448 -0.1995 -0.3556  0.1054
 4183SOL    HW124011   2.315   1.506   0.428  0.1073 -1.7571 -0.5140
 4183SOL    HW224012   2.429   1.425   0.436  0.3263 -0.3332  0.8948
 4184SOL     OW24013   2.770   2.884   2.340 -0.0045 -0.3122 -0.2752
 4184SOL    HW124014   2.788   2.819   2.408  0.1021 -0.5526 -0.5339
 4184SOL    HW224015   2.675   2.889   2.330  0.0188  0.0144 -0.3438
 4185SOL     OW24016   0.525   0.997   2.017 -0.1680  0.3115  0.2713
 4185SOL    HW124017   0.435   1.005   2.047 -0.6603 -0.8478 -0.9099
 4185SOL    HW224018   0.527   0.902   2.016 -0.1898  0.3271 -0.8488
 4186SOL     OW24019   3.245   0.481   5.590  0.2280  0.0218 -0.3031
 4186SOL    HW124020   3.182   0.505   5.657  0.1803  0.3620 -0.4678
 4186SOL    HW224021   3.209   0.532   5.518  2.8588  1.4910 -0.5797
 4187SOL     OW24022   3.615   4.120   5.679  0.4209 -0.3460  0.2339
 4187SOL    HW124023   3.572   4.159   5.603  0.4649  1.9978  1.4227
 4187SOL    HW224024   3.550   4.058   5.714  0.9272 -0.1226  1.5733
 4188SOL     OW24025   3.375   1.105   7.927 -0.2077 -0.2101 -0.4701
 4188SOL    HW124026   3.287   1.133   7.901 -0.6118  0.7905  1.9388
 4188SOL    HW224027   3.391   1.150   8.010  3.1306  1.2221 -1.9229
 4189SOL     OW24028   0.651   3.767  17.542  0.1796  0.2471  0.6114
 4189SOL    HW124029   0.583   3.750  17.476  1.9913  0.7368 -1.3546
 4189SOL    HW224030   0.614   3.728  17.622  3.2462  2.2633  2.9811
 4190SOL     OW24031   0.900   4.704  10.205 -0.3355 -0.0953  0.7824
 4190SOL    HW124032   0.877   4.644  10.134  0.5942  1.9546 -1.2247
 4190SOL    HW224033   0.951   0.042  10.156  0.8931 -1.8197 -0.1789
 4191SOL     OW24034   3.355   0.863   4.966 -0.2466 -0.7677  0.1937
 4191SOL    HW124035   3.430   0.809   4.943  1.7517  2.4630 -0.8794
 4191SOL    HW224036   3.294   0.799   5.003 -0.6677 -0.7405 -0.4602
 4192SOL     OW24037   3.950   2.332   7.478 -0.1789 -0.1408 -0.1951
 4192SOL    HW124038   3.984   2.244   7.467  0.9274  0.5529 -2.3124
 4192SOL    HW224039   3.987   2.361   7.561  0.0296 -2.5447  0.5221
 4193SOL     OW24040   0.837   3.857   2.561  0.0577 -0.3294  0.3665
 4193SOL    HW124041   0.878   3.941   2.537  4.2324 -2.1832  1.0548
 4193SOL    HW224042   0.913   3.801   2.546  0.2748  0.7335 -2.5714
 4194SOL     OW24043   0.441   0.439   0.007  0.3074  0.1745 -0.1186
 4194SOL    HW124044   0.402   0.518  17.675  0.3584 -0.1343 -0.8605
 4194SOL    HW224045   0.417   0.442   0.099 -1.7285 -1.0209 -0.6018
 4195SOL     OW24046   3.173   1.181  12.716  0.1724 -0.9544 -0.0574
 4195SOL    HW124047   3.228   1.255  12.740 -0.4385 -0.3422 -0.5179
 4195SOL    HW224048   3.097   1.201  12.770  0.7106 -1.7663  1.0078
 4196SOL     OW24049   4.553   0.686   4.178 -0.0664  0.4647  0.3049
 4196SOL    HW124050   4.610   0.609   4.176 -0.1923  0.3751  0.1597
 4196SOL    HW224051   4.494   0.662   4.106 -1.2672  1.1741  1.0495
 4197SOL     OW24052   1.112   1.874   4.586 -0.9720  0.0862  0.2588
 4197SOL    HW124053   1.055   1.881   4.509 -2.4632 -2.8179  1.1092
 4197SOL    HW224054   1.067   1.899   4.666 -0.8528  0.6291  0.1599
 4198SOL     OW24055   0.949   0.967   7.612  0.0617  0.6041  0.1891
 4198SOL    HW124056   0.929   1.027   7.540 -0.2503  0.8907  0.5143
 4198SOL    HW224057   1.025   1.004   7.656  1.2750  0.2499 -1.6166
 4199SOL     OW24058   1.201   1.250  10.745 -0.5115 -0.6355 -0.1410
 4199SOL    HW124059   1.130   1.195  10.778  0.6194 -2.8947 -1.4419
 4199SOL    HW224060   1.236   1.289  10.825  0.9696 -0.8002 -0.7153
 4200SOL     OW24061   1.514   3.396  10.649 -0.5851 -0.4101 -0.3039
 4200SOL    HW124062   1.596   3.358  10.681 -2.0012 -3.0582  0.1760
 4200SOL    HW224063   1.474   3.310  10.634  1.7023 -1.5389  0.0506
 4201SOL     OW24064   1.941   3.285   9.469  0.4016 -0.2779  0.4806
 4201SOL    HW124065   1.883   3.276   9.544  0.1784  0.6764  0.4251
 4201SOL    HW224066   1.900   3.359   9.424  0.3691 -2.3676 -2.9002
 4202SOL     OW24067   0.213   1.519   6.010 -0.1761 -0.2738  0.6756
 4202SOL    HW124068   0.199   1.552   5.921 -0.8892 -0.3249  0.7631
 4202SOL    HW224069   0.299   1.557   6.028 -0.0742 -0.2614  0.1620
 4203SOL     OW24070   4.382   0.097   2.967 -0.1867  0.1890 -0.1084
 4203SOL    HW124071   4.405   0.119   2.877  0.2498 -0.2868 -0.1193
 4203SOL    HW224072   4.308   0.038   2.950 -0.4770  0.3633  0.5416
 4204SOL     OW24073   2.598   0.386   3.564 -0.0091 -0.1421 -0.0509
 4204SOL    HW124074   2.540   0.435   3.623  3.5570  0.8267  2.6983
 4204SOL    HW224075   2.556   0.300   3.560  1.8290 -1.0524  0.2973
 4205SOL     OW24076   2.613   1.408   2.129  0.1102 -0.4000 -0.6180
 4205SOL    HW124077   2.674   1.334   2.128  2.4653  1.5839 -1.8387
 4205SOL    HW224078   2.639   1.454   2.050 -0.4776  1.3618  0.2109
 4206SOL     OW24079   1.301   3.217   3.199 -0.4250 -0.0817 -0.0696
 4206SOL    HW124080   1.260   3.145   3.151 -0.2512  0.9037 -1.6714
 4206SOL    HW224081   1.376   3.236   3.143 -1.7257  0.5166 -1.5992
 4207SOL     OW24082   2.222   2.122   8.388  0.6979  0.4276  0.3600
 4207SOL    HW124083   2.214   2.170   8.470  1.6285  2.5669 -0.7860
 4207SOL    HW224084   2.149   2.061   8.397 -0.6607  2.0109  0.0988
 4208SOL     OW24085   4.290   2.099   4.087 -0.1326  0.0854 -0.1620
 4208SOL    HW124086   4.260   2.041   4.157  1.7060 -1.9070 -1.0152
 4208SOL    HW224087   4.279   2.185   4.128  2.5734  0.8047 -0.9499
 4209SOL     OW24088   3.355   0.521   4.751 -0.5608 -0.1260 -0.2127
 4209SOL    HW124089   3.326   0.521   4.660 -0.5455 -0.4947 -0.2158
 4209SOL    HW224090   3.301   0.456   4.796 -1.8522  0.5317 -0.8238
 4210SOL     OW24091   2.316   4.333   2.581  0.0298  0.1661  0.5126
 4210SOL    HW124092   2.309   4.425   2.556  0.2143  0.3933  1.2979
 4210SOL    HW224093   2.226   4.305   2.598 -0.3671  0.5523 -0.9640
 4211SOL     OW24094   2.998   3.489  12.060  0.7351 -0.2948  0.2519
 4211SOL    HW124095   3.003   3.479  11.965  0.2317  0.5948  0.1413
 4211SOL    HW224096   2.953   3.573  12.062 -0.8142 -1.0624 -2.8281
 4212SOL     OW24097   2.035   4.674   6.847 -0.1804  0.0360  0.2525
 4212SOL    HW124098   1.955   4.704   6.804 -0.2757  0.3531  0.6534
 4212SOL    HW224099   2.067   0.027   6.892 -0.0188  0.8101 -1.2131
 4213SOL     OW24100   1.174   2.329  14.562  0.2739  0.1499 -0.0621
 4213SOL    HW124101   1.218   2.254  14.601 -0.1694 -0.8605 -1.5163
 4213SOL    HW224102   1.088   2.325  14.605  1.5428 -0.0675  2.4897
 4214SOL     OW24103   4.008   1.375   8.826  0.3412 -0.1389  0.1096
 4214SOL    HW124104   4.069   1.389   8.753  2.1296 -0.9350  1.4508
 4214SOL    HW224105   3.928   1.359   8.776 -0.1251  0.8521  0.5509
 4215SOL     OW24106   0.546   4.658   6.327 -0.0552 -0.5063  0.1410
 4215SOL    HW124107   0.541   0.027   6.310 -1.9989 -0.8189 -1.0205
 4215SOL    HW224108   0.481   4.629   6.263 -0.5913  0.0126  0.4431
 4216SOL     OW24109   4.213   1.100  11.080  0.1748  0.5112  0.1803
 4216SOL    HW124110   4.251   1.188  11.074  1.1564  0.2457  2.6306
 4216SOL    HW224111   4.288   1.051  11.113 -1.1181 -1.2490  0.4964
 4217SOL     OW24112   3.328   0.249  17.651 -0.4614  0.1758  0.0557
 4217SOL    HW124113   3.343   0.331  17.604  1.4509 -0.3390 -0.2142
 4217SOL    HW224114   3.403   0.246   0.007  0.6101  0.1413 -1.2810
 4218SOL     OW24115   1.917   2.234   7.529 -0.1247 -0.0959  0.3814
 4218SOL    HW124116   1.907   2.267   7.440  2.1272  0.2282  0.2473
 4218SOL    HW224117   1.835   2.272   7.563  0.5039  0.7743  0.9229
 4219SOL     OW24118   2.360   1.099  13.315  0.2561 -0.4795  0.2105
 4219SOL    HW124119   2.278   1.148  13.319  0.7741  0.4027 -0.1847
 4219SOL    HW224120   2.334   1.025  13.370 -0.4366 -1.2846 -1.1943
 4220SOL     OW24121   1.473   1.656   9.069 -0.2485 -0.3825 -0.2037
 4220SOL    HW124122   1.545   1.719   9.069  1.6953 -2.5972  1.9088
 4220SOL    HW224123   1.499   1.591   9.134 -1.3118 -0.0967  0.5256
 4221SOL     OW24124   3.081   4.720   7.817  0.2534 -0.4139  0.6422
 4221SOL    HW124125   3.039   0.076   7.791  0.8502  0.1668  1.5136
 4221SOL    HW224126   3.083   0.015   7.911  1.2550  0.5197  0.4100
 4222SOL     OW24127   0.171   1.944  13.491 -0.8576 -0.3265  0.6899
 4222SOL    HW124128   0.107   1.928  13.423 -0.1150  1.3239 -0.4149
 4222SOL    HW224129   0.191   1.858  13.527  2.7384 -0.1563 -0.8726
 4223SOL     OW24130   2.641   3.828   6.918  0.0678  0.0585  0.2767
 4223SOL    HW124131   2.590   3.762   6.965 -0.8441 -0.4825 -1.4868
 4223SOL    HW224132   2.728   3.811   6.954 -0.8116 -2.9280  0.9541
 4224SOL     OW24133   2.894   3.598   5.106 -0.4265 -0.1201  0.2736
 4224SOL    HW124134   2.834   3.626   5.037 -1.0644  2.0544  1.7072
 4224SOL    HW224135   2.882   3.504   5.111  2.4242 -0.5031  0.3040
 4225SOL     OW24136   3.843   0.499   8.977 -0.0174  0.0976 -0.6544
 4225SOL    HW124137   3.830   0.593   8.993  2.5198  0.4857 -0.8911
 4225SOL    HW224138   3.753   0.466   8.976  0.1803 -0.5813  2.4364
 4226SOL     OW24139   1.273   0.934   4.525  0.5839  0.1143 -0.5657
 4226SOL    HW124140   1.356   0.899   4.492 -0.4641 -0.6033 -2.4202
 4226SOL    HW224141   1.256   1.020   4.488 -0.0331 -0.2221 -1.0678
 4227SOL     OW24142   4.002   3.468   2.226  0.4101  0.0020 -0.4660
 4227SOL    HW124143   3.984   3.544   2.171 -0.2404  0.8645  0.9366
 4227SOL    HW224144   3.997   3.507   2.314  0.2193 -4.7716  1.6153
 4228SOL     OW24145   2.060   4.402  14.683 -0.1411 -0.6747 -0.3700
 4228SOL    HW124146   1.976   4.423  14.642  0.3496  0.7940 -0.6013
 4228SOL    HW224147   2.030   4.378  14.771 -1.1009 -0.7501 -0.7191
 4229SOL     OW24148   3.733   4.457   6.028  0.2634  0.5807 -0.5883
 4229SOL    HW124149   3.776   4.371   6.036  0.5282  0.8029  0.3249
 4229SOL    HW224150   3.782   4.493   5.954  0.3061  2.9875  0.6150
 4230SOL     OW24151   3.473   2.988   4.841 -0.0417 -0.0306 -0.0511
 4230SOL    HW124152   3.381   2.984   4.817 -0.7529  1.2602  2.4103
 4230SOL    HW224153   3.507   3.056   4.782  0.8966 -0.5950 -0.1675
 4231SOL     OW24154   1.731   0.639   8.916 -0.2076  0.1892 -0.2463
 4231SOL    HW124155   1.758   0.549   8.899  0.9906  0.4029  0.4827
 4231SOL    HW224156   1.655   0.643   8.858 -1.4733  1.1102  1.4884
 4232SOL     OW24157   1.055   3.246  17.287 -0.3305  0.4053  0.3805
 4232SOL    HW124158   1.057   3.219  17.195 -1.0852 -0.3603  0.5817
 4232SOL    HW224159   0.961   3.266  17.288 -0.4861 -0.2807 -0.7232
 4233SOL     OW24160   4.309   4.045   1.146  0.8073  0.2900  0.7125
 4233SOL    HW124161   4.403   4.051   1.165  0.8718  0.4865  0.3320
 4233SOL    HW224162   4.294   3.951   1.146  1.9308  0.1242 -0.8196
 4234SOL     OW24163   1.594   4.192   5.080  0.3278  0.8506  0.1893
 4234SOL    HW124164   1.642   4.113   5.102  1.1502  1.5897  1.0494
 4234SOL    HW224165   1.650   4.217   5.006 -1.3609  1.9118 -0.7270
 4235SOL     OW24166   2.788   0.541   3.474 -0.2376 -0.4793 -0.0259
 4235SOL    HW124167   2.740   0.465   3.508  0.2166 -1.0817 -0.7345
 4235SOL    HW224168   2.719   0.584   3.424 -3.7655 -4.6643  1.2867
 4236SOL     OW24169   4.317   3.815   0.366 -0.2860 -0.3505 -0.4763
 4236SOL    HW124170   4.292   3.735   0.320 -1.8586 -0.2951  0.2638
 4236SOL    HW224171   4.283   3.805   0.455  1.0609 -0.2366  0.0411
 4237SOL     OW24172   3.551   4.605   7.455  0.2343 -0.1911  0.0273
 4237SOL    HW124173   3.514   4.636   7.373 -2.0140 -2.3588  0.2316
 4237SOL    HW224174   3.556   4.512   7.435  0.5005 -0.4174  1.1141
 4238SOL     OW24175   3.740   1.268   2.256  0.3010 -0.6259 -0.3380
 4238SOL    HW124176   3.798   1.199   2.287  0.2033 -0.4409  0.2586
 4238SOL    HW224177   3.797   1.339   2.226 -2.5439  1.3142 -1.2015
 4239SOL     OW24178   2.727   4.109   4.683  0.6765 -0.4905 -0.0457
 4239SOL    HW124179   2.773   4.090   4.764 -0.8599 -3.3718  0.1673
 4239SOL    HW224180   2.769   4.036   4.636 -1.4270 -0.5297 -1.9080
 4240SOL     OW24181   3.502   0.778  10.669 -0.0806 -0.2170 -0.5454
 4240SOL    HW124182   3.596   0.770  10.683 -0.0017  1.6469 -0.0682
 4240SOL    HW224183   3.484   0.839  10.740 -1.7714 -1.0486 -0.2649
 4241SOL     OW24184   3.717   3.350   4.414  0.4026 -0.3201 -0.0239
 4241SOL    HW124185   3.707   3.357   4.508 -0.5405 -1.4833 -0.0393
 4241SOL    HW224186   3.745   3.259   4.401 -1.6343 -0.9537  0.0610
 4242SOL     OW24187   3.067   3.826  16.621 -0.7419 -0.1407  0.2127
 4242SOL    HW124188   3.031   3.737  16.621 -1.6434  0.2264 -0.3289
 4242SOL    HW224189   3.149   3.803  16.576  0.6620  1.7987  1.7760
 4243SOL     OW24190   4.430   3.533   7.946 -0.4930  0.1627 -0.7640
 4243SOL    HW124191   4.424   3.445   7.982 -2.2317  0.5168 -0.2073
 4243SOL    HW224192   4.377   3.581   8.009 -2.0069  1.0149 -2.6888
 4244SOL     OW24193   2.017   0.853  13.455 -0.3285  0.3892  0.3169
 4244SOL    HW124194   2.036   0.776  13.509 -0.8589 -0.2014 -0.3450
 4244SOL    HW224195   1.924   0.832  13.447 -0.4847  1.9477 -1.9770
 4245SOL     OW24196   3.051   2.227   2.412 -0.0046  0.0541 -0.1233
 4245SOL    HW124197   3.029   2.140   2.380 -2.5193  0.6706 -0.0546
 4245SOL    HW224198   3.081   2.275   2.335 -0.3472  0.4073 -0.0366
 4246SOL     OW24199   0.675   2.557  14.674 -1.3529 -0.4053 -0.7224
 4246SOL    HW124200   0.606   2.493  14.660 -2.1891  0.6490 -1.3984
 4246SOL    HW224201   0.742   2.539  14.608 -0.8640  1.0559 -0.6206
 4247SOL     OW24202   1.568   0.267  12.608 -0.4049  0.1920  0.0245
 4247SOL    HW124203   1.506   0.196  12.625 -3.3182  2.8750  0.5739
 4247SOL    HW224204   1.573   0.296  12.700  1.2732 -1.0214  0.3168
 4248SOL     OW24205   0.934   2.029   6.185  0.3425  0.1778  0.0670
 4248SOL    HW124206   0.975   2.016   6.270  0.5113 -0.5994 -0.1301
 4248SOL    HW224207   0.986   2.099   6.148 -1.9806  1.0389 -1.5950
 4249SOL     OW24208   0.959   0.363   4.162  0.3610  0.4137  0.3236
 4249SOL    HW124209   0.892   0.429   4.146  0.2615  0.5865  1.4184
 4249SOL    HW224210   0.945   0.365   4.257  0.4549  1.1682  0.3237
 4250SOL     OW24211   3.425   3.753   2.119 -0.1834 -0.1514  0.3400
 4250SOL    HW124212   3.343   3.731   2.076 -1.2504  3.4206  0.6193
 4250SOL    HW224213   3.445   3.843   2.096  0.9572 -0.5833 -0.3679
 4251SOL     OW24214   2.496   4.539   8.845 -0.0599  0.2842  0.1430
 4251SOL    HW124215   2.425   4.601   8.828  0.4806  1.0058  0.5371
 4251SOL    HW224216   2.462   4.483   8.915  0.9821  0.4224  0.7553
 4252SOL     OW24217   2.711   4.710   8.409 -0.0791  0.0941  0.7245
 4252SOL    HW124218   2.625   0.027   8.407 -0.3393 -0.4915 -0.3771
 4252SOL    HW224219   2.690   4.617   8.398 -0.9795  0.1947  1.5325
 4253SOL     OW24220   1.239   1.382  14.283 -0.2101 -0.9426  0.0884
 4253SOL    HW124221   1.149   1.353  14.294  0.0929 -2.1215 -0.5308
 4253SOL    HW224222   1.283   1.302  14.253  0.3334 -0.6961  0.2241
 4254SOL     OW24223   4.413   3.227  10.017 -0.2031  0.6347  0.0302
 4254SOL    HW124224   4.366   3.220  10.100  0.8537 -3.2998  0.2761
 4254SOL    HW224225   4.398   3.320   9.998 -1.7314  0.6121  1.1144
 4255SOL     OW24226   2.514   3.645   7.059  0.0303 -0.9872  0.5395
 4255SOL    HW124227   2.456   3.587   7.010  0.9370 -0.1874 -1.4955
 4255SOL    HW224228   2.515   3.587   7.135  0.9020  0.7051  1.8052
 4256SOL     OW24229   1.532   0.413   2.475 -0.0409  0.1505 -0.2413
 4256SOL    HW124230   1.607   0.455   2.433 -0.6959  2.1742  0.6122
 4256SOL    HW224231   1.478   0.492   2.476  0.7741  0.7231 -1.4471
 4257SOL     OW24232   2.555   2.853   3.897  0.1148  0.4959  0.8203
 4257SOL    HW124233   2.582   2.886   3.811 -0.6710  0.9699  0.7550
 4257SOL    HW224234   2.479   2.907   3.915  0.5104 -0.0252  4.1053
 4258SOL     OW24235   3.682   4.294   2.962  0.1449 -0.1482  0.4071
 4258SOL    HW124236   3.614   4.255   3.016 -1.8673  1.0945 -1.2406
 4258SOL    HW224237   3.757   4.267   3.015 -0.0559 -1.0923  0.2051
 4259SOL     OW24238   4.443   4.281  13.401 -0.3270 -0.1000 -0.1436
 4259SOL    HW124239   4.507   4.223  13.444 -1.2940 -0.1821  1.1759
 4259SOL    HW224240   4.464   4.263  13.309  2.5808 -1.5479  0.7890
 4260SOL     OW24241   4.682   3.990   5.051 -0.3287  0.2516 -0.1162
 4260SOL    HW124242   4.676   3.914   5.109 -0.9357 -1.0498 -1.8800
 4260SOL    HW224243   0.007   4.046   5.109 -0.1953  1.1316 -1.0914
 4261SOL     OW24244   0.268   4.336   9.552  0.1516 -0.2394 -0.0331
 4261SOL    HW124245   0.354   4.295   9.559 -0.8497 -2.0687  1.5393
 4261SOL    HW224246   0.211   4.264   9.525  0.4673 -1.3678  2.2788
 4262SOL     OW24247   0.438   2.900   9.723  0.3791 -0.2027  0.4115
 4262SOL    HW124248   0.402   2.924   9.638  1.2505 -1.7386 -0.3841
 4262SOL    HW224249   0.383   2.952   9.783  1.6771  1.0133  0.5567
 4263SOL     OW24250   2.013   2.824  14.460  0.2856 -0.2867 -0.2666
 4263SOL    HW124251   2.094   2.870  14.438  0.4759  1.1852  3.6594
 4263SOL    HW224252   1.970   2.851  14.378 -0.3128 -0.6012 -0.0569
 4264SOL     OW24253   3.384   4.343   0.121 -0.1635  0.3334  0.0311
 4264SOL    HW124254   3.359   4.356   0.212  0.2449  1.5585 -0.0255
 4264SOL    HW224255   3.390   4.434   0.090  3.9206 -0.2246 -0.8033
 4265SOL     OW24256   3.258   0.630   3.619  0.0657  0.2800 -0.0674
 4265SOL    HW124257   3.300   0.654   3.536  1.4996  0.0848  0.5877
 4265SOL    HW224258   3.173   0.593   3.595  0.8547 -3.3343  2.6926
 4266SOL     OW24259   2.192   0.597  15.233  0.4111 -0.1118  0.2168
 4266SOL    HW124260   2.246   0.649  15.293 -0.1774  0.2764  0.4158
 4266SOL    HW224261   2.115   0.566  15.281  0.8075  0.2866  1.1344
 4267SOL     OW24262   1.596   1.572   5.526 -0.0599  0.2810  0.2453
 4267SOL    HW124263   1.515   1.522   5.519  0.8278 -0.8986 -1.3182
 4267SOL    HW224264   1.582   1.616   5.611 -0.6589  0.7547 -0.0961
 4268SOL     OW24265   1.412   0.521  16.630 -0.2884 -0.3808  0.2134
 4268SOL    HW124266   1.443   0.595  16.577  1.6906 -0.9084  0.6328
 4268SOL    HW224267   1.433   0.445  16.575 -1.8078 -0.5089 -0.1958
 4269SOL     OW24268   4.517   0.889   3.307  0.4005  0.7160 -0.4411
 4269SOL    HW124269   4.565   0.843   3.375 -1.5647  1.4015  1.3952
 4269SOL    HW224270   4.574   0.854   3.239  1.3110  0.8040  0.2842
 4270SOL     OW24271   4.299   0.094  13.857  0.3966  0.0814  0.0046
 4270SOL    HW124272   4.267   0.044  13.932 -1.3050  0.0726 -0.7154
 4270SOL    HW224273   4.383   0.053  13.837  0.3047 -0.6501  1.1278
 4271SOL     OW24274   4.342   4.073  10.609  0.0969  0.0005  0.2389
 4271SOL    HW124275   4.304   4.160  10.594 -1.2330 -0.5375  0.4442
 4271SOL    HW224276   4.304   4.063  10.697  0.7259  0.7170  0.5846
 4272SOL     OW24277   3.990   1.588   4.885 -0.0138  0.4466  0.1682
 4272SOL    HW124278   3.991   1.494   4.870 -1.9967  0.2270  1.3617
 4272SOL    HW224279   3.994   1.599   4.980  0.3712 -0.1771  0.2249
 4273SOL     OW24280   3.450   4.702   8.764  0.3865 -0.4713  0.2642
 4273SOL    HW124281   3.544   4.716   8.774 -0.1625  1.1733  3.0348
 4273SOL    HW224282   3.435   0.048   8.702 -0.9679  1.3813  2.7116
 4274SOL     OW24283   1.223   4.605   2.178 -0.0895 -0.5744  0.3809
 4274SOL    HW124284   1.216   4.699   2.195 -1.1503 -0.7858  1.0818
 4274SOL    HW224285   1.300   4.612   2.122  0.1601 -0.1143  0.7825
 4275SOL     OW24286   3.641   2.847   8.650  0.0594 -0.0197  0.4994
 4275SOL    HW124287   3.666   2.889   8.732  0.8258 -0.3378  0.4282
 4275SOL    HW224288   3.627   2.755   8.670 -1.9913 -0.5288 -3.1504
 4276SOL     OW24289   3.517   3.122   7.575 -0.5945 -0.3831  0.0561
 4276SOL    HW124290   3.610   3.117   7.551 -0.1945  0.6441  1.3877
 4276SOL    HW224291   3.487   3.112   7.484 -0.9100  1.4333 -0.0234
 4277SOL     OW24292   4.069   4.184   6.883  0.0650  0.5705  0.1302
 4277SOL    HW124293   4.005   4.255   6.888 -1.2738 -0.8170  2.7191
 4277SOL    HW224294   4.098   4.209   6.795 -1.0838 -0.6322 -0.5879
 4278SOL     OW24295   4.715   1.192   8.848 -0.0637 -0.0917  0.2483
 4278SOL    HW124296   0.065   1.139   8.874 -1.5698 -3.0934 -1.4433
 4278SOL    HW224297   0.042   1.264   8.813 -0.8526  1.1760  1.6831
 4279SOL     OW24298   0.031   3.496   2.822 -0.6907 -0.1904 -0.1916
 4279SOL    HW124299   0.070   3.583   2.829  1.2447 -1.1545  0.7124
 4279SOL    HW224300   4.664   3.523   2.820  0.1147  2.6016  0.2816
 4280SOL     OW24301   4.182   2.369   2.404 -0.0949  0.3285  0.4190
 4280SOL    HW124302   4.109   2.311   2.424 -0.1469 -0.0984 -0.9525
 4280SOL    HW224303   4.174   2.378   2.309  3.6942  0.8282  0.1532
 4281SOL     OW24304   4.312   2.268   4.941 -0.6426  0.6871  0.1867
 4281SOL    HW124305   4.367   2.208   4.991  0.0525 -1.7062 -3.5128
 4281SOL    HW224306   4.229   2.242   4.982 -0.9394  1.1010 -0.1491
 4282SOL     OW24307   4.126   3.081   9.037 -0.0976 -0.7526  0.2095
 4282SOL    HW124308   4.044   3.077   9.087  0.3351  1.1361  1.0614
 4282SOL    HW224309   4.179   3.042   9.107  1.2114 -1.1539 -1.0122
 4283SOL     OW24310   3.728   1.436   7.960 -0.2840  0.3286 -0.2171
 4283SOL    HW124311   3.796   1.371   7.940  0.1384  0.5638  0.4367
 4283SOL    HW224312   3.718   1.404   8.050 -1.2054 -1.6070 -0.9990
 4284SOL     OW24313   2.546   2.768   2.496  0.0235  0.3825 -0.1917
 4284SOL    HW124314   2.514   2.679   2.484  0.1871  0.3857 -0.6529
 4284SOL    HW224315   2.532   2.786   2.403  0.8700  1.0305 -0.1968
 4285SOL     OW24316   4.035   4.112   5.515 -0.1154  0.2817  0.4654
 4285SOL    HW124317   4.016   4.128   5.423  0.0021  0.3552  0.4533
 4285SOL    HW224318   3.965   4.163   5.557 -1.5293 -2.2574  1.1692
 4286SOL     OW24319   2.822   1.883   8.114  0.5534  0.3004 -0.4459
 4286SOL    HW124320   2.909   1.868   8.151  0.0729  0.6600  0.8391
 4286SOL    HW224321   2.827   1.816   8.046  0.3789  0.8663 -1.0122
 4287SOL     OW24322   2.200   0.757   7.361 -0.4820  0.4273 -0.2668
 4287SOL    HW124323   2.146   0.780   7.286  1.9696  3.3873 -1.0819
 4287SOL    HW224324   2.149   0.698   7.417  1.9752 -1.6020 -0.1438
 4288SOL     OW24325   4.607   0.363  11.097  0.3886  0.4212  0.0382
 4288SOL    HW124326   4.570   0.274  11.095  0.2615  0.4543  0.8332
 4288SOL    HW224327   4.530   0.413  11.070  0.9519  0.4623 -1.5014
 4289SOL     OW24328   0.114   3.152  11.494  0.2145 -0.3731 -0.4798
 4289SOL    HW124329   0.145   3.166  11.583 -0.5296 -0.1287 -0.2623
 4289SOL    HW224330   0.192   3.171  11.442  0.8965 -2.0912 -0.0881
 4290SOL     OW24331   0.505   4.257  16.823  0.5648 -0.4863 -0.1425
 4290SOL    HW124332   0.462   4.255  16.737 -1.8283 -0.7492  1.0495
 4290SOL    HW224333   0.469   4.183  16.871  0.9434  0.2079  1.2051
 4291SOL     OW24334   2.818   1.360   6.633 -0.6310  0.0115 -0.3053
 4291SOL    HW124335   2.874   1.437   6.623 -1.0452  0.1152 -1.8334
 4291SOL    HW224336   2.755   1.376   6.563  0.3502 -0.5818 -1.3116
 4292SOL     OW24337   0.636   0.915  16.752  0.1547 -0.1647  0.2559
 4292SOL    HW124338   0.679   0.829  16.747 -1.4413 -0.8667 -1.3352
 4292SOL    HW224339   0.625   0.926  16.846 -0.6889 -0.6928  0.2155
 4293SOL     OW24340   0.171   1.783  15.730 -0.3418 -0.1754 -0.3688
 4293SOL    HW124341   0.263   1.798  15.707 -0.7212  0.2046 -1.6599
 4293SOL    HW224342   0.171   1.753  15.821  2.5972 -0.0224 -0.3030
 4294SOL     OW24343   1.523   3.111   5.768  0.5366  0.0256  0.1141
 4294SOL    HW124344   1.452   3.048   5.773  1.7033 -1.2680  0.4702
 4294SOL    HW224345   1.572   3.075   5.693 -2.6380 -1.7459 -1.1432
 4295SOL     OW24346   0.953   0.109   5.498  0.4308 -0.0761 -0.2238
 4295SOL    HW124347   0.900   0.143   5.570 -0.6393 -0.4388 -0.8496
 4295SOL    HW224348   1.031   0.074   5.542  1.4024  2.2247 -0.1118
 4296SOL     OW24349   3.203   3.431  12.212  0.4323  0.1821 -0.3070
 4296SOL    HW124350   3.254   3.383  12.147  0.3318  0.7282 -0.7841
 4296SOL    HW224351   3.116   3.442  12.174  1.7243  1.4534 -2.8813
 4297SOL     OW24352   4.708   0.966   7.017  0.1907  0.1923  0.6824
 4297SOL    HW124353   4.614   0.957   7.005 -0.1636  1.5228  2.4159
 4297SOL    HW224354   0.000   1.057   6.992 -0.2354  0.6950  2.1896
 4298SOL     OW24355   3.252   1.746   9.368 -0.6703  0.2046  0.4702
 4298SOL    HW124356   3.319   1.811   9.389  0.3288 -0.7653  0.3331
 4298SOL    HW224357   3.308   1.692   9.311  0.5480 -0.7205  2.5234
 4299SOL     OW24358   2.966   2.682   6.787  0.6412  0.0379  0.0013
 4299SOL    HW124359   3.027   2.624   6.741 -1.3710 -0.0334 -2.5052
 4299SOL    HW224360   2.993   2.765   6.749  0.4510  0.9097  1.7823
 4300SOL     OW24361   0.460   1.521   5.319  0.7628  0.7610 -0.0636
 4300SOL    HW124362   0.376   1.552   5.287 -0.3938 -1.2201  1.0590
 4300SOL    HW224363   0.489   1.607   5.352  1.0220  1.0165 -0.9562
 4301SOL     OW24364   2.148   0.706  13.015  0.6448  0.1863 -0.4071
 4301SOL    HW124365   2.171   0.621  13.052  0.3485 -0.2218 -1.1902
 4301SOL    HW224366   2.114   0.678  12.931 -0.2128 -0.5896  0.2022
 4302SOL     OW24367   3.760   4.631   6.725  0.0851 -0.1211 -0.2999
 4302SOL    HW124368   3.795   4.702   6.779  1.6981  0.4931 -2.1687
 4302SOL    HW224369   3.670   4.622   6.756 -0.3242  4.0091 -0.2835
 4303SOL     OW24370   4.297   2.683   5.828 -0.4086  0.4026  0.5647
 4303SOL    HW124371   4.387   2.661   5.848 -0.3349  0.0989 -0.1133
 4303SOL    HW224372   4.269   2.603   5.784  1.4626  0.5699 -0.9176
 4304SOL     OW24373   0.516   1.752   2.546  0.4382  0.3352  0.0330
 4304SOL    HW124374   0.603   1.724   2.517 -0.0110 -2.0228  0.9806
 4304SOL    HW224375   0.466   1.779   2.468  0.1185  0.8906  0.4260
 4305SOL     OW24376   2.976   0.281   2.276 -0.5090  0.0066 -0.0479
 4305SOL    HW124377   2.923   0.324   2.343  0.5602 -0.2109  0.9240
 4305SOL    HW224378   3.055   0.252   2.322 -0.1968  2.2650  0.8406
 4306SOL     OW24379   1.671   4.307   1.343 -0.6519 -1.0063 -0.1875
 4306SOL    HW124380   1.614   4.327   1.268  0.2830 -2.6491 -1.3304
 4306SOL    HW224381   1.680   4.216   1.316  1.7552 -1.0594  0.8277
 4307SOL     OW24382   2.620   2.372   5.119 -0.2158  0.1722 -0.7404
 4307SOL    HW124383   2.591   2.294   5.073 -0.2239  0.0477 -0.5253
 4307SOL    HW224384   2.538   2.420   5.133 -0.7888 -1.8432  2.9519
 4308SOL     OW24385   2.234   1.389   6.562  0.3564 -0.6396 -0.3820
 4308SOL    HW124386   2.199   1.413   6.647 -0.9669  0.8227 -1.3365
 4308SOL    HW224387   2.296   1.317   6.573 -1.2395 -1.8958  0.5142
 4309SOL     OW24388   0.964   2.007   9.166  0.1089 -0.1306 -0.2300
 4309SOL    HW124389   1.030   1.942   9.140  0.0699 -0.5632  0.7535
 4309SOL    HW224390   0.941   2.037   9.078  3.5650 -2.1067 -1.8077
 4310SOL     OW24391   4.626   1.815   3.073 -0.5822  1.2497 -0.0853
 4310SOL    HW124392   4.674   1.896   3.056 -0.1837  0.7876 -1.1567
 4310SOL    HW224393   4.644   1.808   3.166  3.9415  0.0234 -1.0702
 4311SOL     OW24394   3.362   4.048   1.339 -0.4677  0.2941 -0.8101
 4311SOL    HW124395   3.447   4.032   1.298  0.2663 -0.3033  0.9399
 4311SOL    HW224396   3.382   4.063   1.432  0.7464 -0.7311 -0.9056
 4312SOL     OW24397   2.894   4.091   6.758 -0.1947 -0.4239 -0.4661
 4312SOL    HW124398   2.848   4.128   6.833 -0.4667 -0.7068 -0.4919
 4312SOL    HW224399   2.955   4.030   6.798  0.2657 -0.6056 -1.4405
 4313SOL     OW24400   4.578   0.953   8.855 -0.4210 -0.2235 -0.6787
 4313SOL    HW124401   4.653   0.913   8.811  0.8782  0.5822  0.7929
 4313SOL    HW224402   4.605   1.045   8.862  1.1299 -0.7207 -0.2246
 4314SOL     OW24403   2.642   4.382   1.878  0.6090  0.3076 -0.1150
 4314SOL    HW124404   2.721   4.337   1.850  0.1137 -0.6986  0.1031
 4314SOL    HW224405   2.661   4.476   1.873  1.4187  0.1792  0.5507
 4315SOL     OW24406   1.492   3.259   1.015 -0.1355 -0.3331  0.6154
 4315SOL    HW124407   1.565   3.308   0.976  0.7744 -2.8088 -0.7733
 4315SOL    HW224408   1.436   3.331   1.046  1.0962  0.7591  0.3173
 4316SOL     OW24409   0.896   3.439  11.041 -0.6308  0.0847  0.1038
 4316SOL    HW124410   0.916   3.446  11.135  0.0138  0.0777 -0.0294
 4316SOL    HW224411   0.815   3.488  11.047 -1.1112 -0.5945 -0.8882
 4317SOL     OW24412   4.144   1.894  10.738 -0.1282 -0.2544  0.5119
 4317SOL    HW124413   4.076   1.830  10.717  0.3831 -1.4488  2.5438
 4317SOL    HW224414   4.187   1.849  10.810 -0.4371 -0.3339  0.6462
 4318SOL     OW24415   3.789   3.042   8.328 -0.2788 -0.2695  0.3420
 4318SOL    HW124416   3.762   3.133   8.342 -0.2194 -0.5589  2.3613
 4318SOL    HW224417   3.769   3.005   8.414 -0.1035 -1.5088 -0.1493
 4319SOL     OW24418   3.179   0.378   3.374  0.0790  0.1391  0.2846
 4319SOL    HW124419   3.142   0.292   3.353 -1.0678  0.9996 -1.1988
 4319SOL    HW224420   3.123   0.399   3.448 -0.1620 -0.8353  0.3817
 4320SOL     OW24421   4.117   0.187   7.913  0.1863  0.1638 -0.2401
 4320SOL    HW124422   4.029   0.148   7.910 -0.4914  1.5698  1.5466
 4320SOL    HW224423   4.154   0.141   7.838 -0.9573 -1.0486 -0.0497
 4321SOL     OW24424   4.398   4.294  14.927 -0.4231 -0.0547 -0.1965
 4321SOL    HW124425   4.344   4.371  14.945  0.5172  1.0006 -1.8552
 4321SOL    HW224426   4.487   4.328  14.921 -0.4106 -0.1055 -0.3071
 4322SOL     OW24427   0.878   3.560  14.480  0.8197 -0.3337  0.0294
 4322SOL    HW124428   0.924   3.633  14.521 -0.1170 -0.6515  1.6596
 4322SOL    HW224429   0.946   3.514  14.432  2.1764  0.3819  1.2844
 4323SOL     OW24430   3.173   2.391   2.236 -0.8270 -0.2056 -0.3387
 4323SOL    HW124431   3.082   2.419   2.225 -0.7249  0.3319  0.1771
 4323SOL    HW224432   3.211   2.474   2.265 -1.8413  1.3390 -3.4291
 4324SOL     OW24433   1.286   1.293   7.062 -0.0525 -0.2147  0.3819
 4324SOL    HW124434   1.203   1.284   7.108 -0.5020  2.2991  0.0484
 4324SOL    HW224435   1.315   1.202   7.051  0.2113 -0.1445  0.5040
 4325SOL     OW24436   0.991   1.963   8.675 -0.0096 -0.1835 -0.0478
 4325SOL    HW124437   1.073   1.970   8.725 -1.6752  4.2322  2.0606
 4325SOL    HW224438   1.010   2.014   8.595  0.4028 -1.0892 -0.5239
 4326SOL     OW24439   3.988   3.221   3.095  0.3239 -0.2081  0.3592
 4326SOL    HW124440   4.061   3.223   3.034  0.3246 -0.2341  0.3590
 4326SOL    HW224441   4.041   3.187   3.168  1.6911 -1.4267 -1.1964
 4327SOL     OW24442   0.219   0.482  10.313 -0.1726 -0.5923  0.1335
 4327SOL    HW124443   0.230   0.390  10.289  2.3363 -0.0115 -0.9203
 4327SOL    HW224444   0.258   0.533  10.243 -1.2056 -1.3973 -1.0149
 4328SOL     OW24445   0.578   0.773   0.908 -0.0593  0.2203 -0.5139
 4328SOL    HW124446   0.674   0.777   0.913 -0.1207 -0.5934  1.0957
 4328SOL    HW224447   0.582   0.824   0.827 -4.3551  0.1427 -0.7798
 4329SOL     OW24448   2.789   1.324   9.337  0.5413  0.7651 -0.6812
 4329SOL    HW124449   2.820   1.313   9.427  1.0933  1.2420 -0.8120
 4329SOL    HW224450   2.838   1.258   9.289  2.0870  2.3351 -1.2508
 4330SOL     OW24451   0.329   2.749   4.913 -0.0542 -0.7531 -0.1395
 4330SOL    HW124452   0.325   2.841   4.885  1.7100 -0.3694  0.8360
 4330SOL    HW224453   0.264   2.712   4.853 -1.1039 -0.5090  0.8337
 4331SOL     OW24454   4.011   1.576   6.281 -0.0936 -0.4240 -0.1487
 4331SOL    HW124455   4.096   1.619   6.272 -0.4902  0.6426  1.1973
 4331SOL    HW224456   4.048   1.494   6.311  2.2187  0.1940 -1.3132
 4332SOL     OW24457   1.919   3.640  11.947 -0.1299  0.0130 -0.1932
 4332SOL    HW124458   1.940   3.566  12.004 -1.2372 -2.0284 -2.3953
 4332SOL    HW224459   1.878   3.598  11.871  2.4883 -0.7373 -1.2242
 4333SOL     OW24460   3.772   2.415  12.245 -0.1539 -0.1455  0.2586
 4333SOL    HW124461   3.760   2.469  12.167  1.2874  1.2652  1.0143
 4333SOL    HW224462   3.769   2.472  12.321  3.1305  0.0201  0.2671
 4334SOL     OW24463   2.390   1.757   7.428  0.0055 -0.4371  0.4676
 4334SOL    HW124464   2.468   1.725   7.384  0.1627 -2.6848  2.3883
 4334SOL    HW224465   2.332   1.785   7.357  0.7700 -0.2577 -0.0823
 4335SOL     OW24466   2.038   1.143   6.894 -0.1049  0.1846 -0.1695
 4335SOL    HW124467   1.949   1.172   6.875 -0.7207 -0.0918  2.2005
 4335SOL    HW224468   2.015   1.050   6.890 -1.2263  0.3706  1.8313
 4336SOL     OW24469   2.093   2.690   2.990  0.6496  0.0522 -0.7645
 4336SOL    HW124470   2.091   2.778   2.953  2.2674  0.8421  1.0264
 4336SOL    HW224471   2.101   2.641   2.908 -1.6249 -1.3274 -0.1327
 4337SOL     OW24472   0.591   4.497   3.541  0.3127 -0.8957 -0.0126
 4337SOL    HW124473   0.620   4.456   3.622 -1.8412  1.0672  1.7692
 4337SOL    HW224474   0.498   4.474   3.542  0.2860 -0.9145 -3.9743
 4338SOL     OW24475   3.034   1.671   9.201 -0.2361  0.1210  0.2471
 4338SOL    HW124476   3.109   1.723   9.231  0.1643 -0.2271 -0.1325
 4338SOL    HW224477   2.967   1.739   9.198 -1.0208 -0.6578  0.3509
 4339SOL     OW24478   2.408   1.736   6.022  0.2632  0.0427 -0.2149
 4339SOL    HW124479   2.445   1.653   5.991  0.2224 -0.4926  1.1826
 4339SOL    HW224480   2.322   1.720   5.983  0.2090  0.7039 -0.3596
 4340SOL     OW24481   0.909   1.908  16.202  0.2966 -0.2287 -0.5051
 4340SOL    HW124482   0.910   1.998  16.234  1.2368 -0.1014 -0.8835
 4340SOL    HW224483   0.908   1.870  16.290  1.7950 -0.5994 -0.6451
 4341SOL     OW24484   0.434   1.234   7.928  0.0267 -0.4968  0.6652
 4341SOL    HW124485   0.380   1.250   8.006  2.3843 -1.7773  2.5601
 4341SOL    HW224486   0.520   1.214   7.965 -0.7473 -3.4595  0.9016
 4342SOL     OW24487   4.717   0.363   6.642  0.6032 -0.3547  0.1064
 4342SOL    HW124488   0.002   0.342   6.734 -0.2954  0.5026  0.4108
 4342SOL    HW224489   4.636   0.315   6.623  0.0832  0.7875 -0.6145
 4343SOL     OW24490   2.439   3.775  11.272 -0.1723 -0.1909 -0.1599
 4343SOL    HW124491   2.504   3.833  11.313 -0.7330 -1.2548  2.2551
 4343SOL    HW224492   2.487   3.692  11.280 -1.0057 -0.5584  0.9989
 4344SOL     OW24493   2.345   4.225   3.726  0.3376  0.6991 -0.9994
 4344SOL    HW124494   2.326   4.217   3.820  0.2270  0.7018 -1.0216
 4344SOL    HW224495   2.365   4.134   3.704 -1.6275  0.3841 -1.4727
 4345SOL     OW24496   2.798   0.293  14.106 -0.3084  0.4406 -0.0236
 4345SOL    HW124497   2.772   0.380  14.075 -0.7148  0.2993 -0.0849
 4345SOL    HW224498   2.886   0.300  14.070 -0.0984  0.0526  0.4237
 4346SOL     OW24499   0.356   4.657   8.647 -0.3339  0.0217 -0.4012
 4346SOL    HW124500   0.437   4.708   8.639  0.4132 -0.9330  1.0793
 4346SOL    HW224501   0.393   4.594   8.708  1.3946 -0.0306 -1.5177
 4347SOL     OW24502   0.567   2.669   0.662  0.4983  0.1956 -0.2025
 4347SOL    HW124503   0.488   2.616   0.651 -0.5392  1.8620 -0.8689
 4347SOL    HW224504   0.631   2.613   0.706  1.2863 -0.2096 -1.8329
 4348SOL     OW24505   1.301   4.605  14.156 -0.2821 -0.7017 -0.1364
 4348SOL    HW124506   1.257   4.672  14.103 -0.9559 -1.8267 -0.9795
 4348SOL    HW224507   1.375   4.578  14.102 -0.5070  0.5328 -1.0763
 4349SOL     OW24508   3.733   1.676   3.703 -0.4573 -0.0573  0.1407
 4349SOL    HW124509   3.644   1.697   3.729 -0.0041  1.0724  0.7934
 4349SOL    HW224510   3.731   1.580   3.698 -1.2762 -0.0682  0.7275
 4350SOL     OW24511   0.473   2.623  10.250 -0.0063 -0.5513 -0.2465
 4350SOL    HW124512   0.384   2.595  10.269 -0.5071  2.4832  1.7238
 4350SOL    HW224513   0.499   2.643  10.339  3.1408 -2.8073 -0.6503
 4351SOL     OW24514   1.387   1.636   1.893 -0.1416 -0.0249  0.6438
 4351SOL    HW124515   1.459   1.584   1.929  0.2755  0.2012  0.1497
 4351SOL    HW224516   1.387   1.603   1.804 -2.0285  2.3095 -0.2284
 4352SOL     OW24517   1.425   4.541  10.894  0.1133 -0.3774  0.7098
 4352SOL    HW124518   1.432   4.633  10.919  0.2058 -0.6407  1.6282
 4352SOL    HW224519   1.366   4.539  10.818  0.5820  1.0303  0.2982
 4353SOL     OW24520   3.577   0.649   8.543  0.0825  0.5257 -0.8316
 4353SOL    HW124521   3.644   0.582   8.556 -0.0805  0.2478 -1.4014
 4353SOL    HW224522   3.569   0.646   8.447  1.4478  1.1637 -0.9655
 4354SOL     OW24523   0.424   3.498   3.562 -0.7385  0.2590  0.3928
 4354SOL    HW124524   0.399   3.411   3.532  0.6548 -0.1805  0.4707
 4354SOL    HW224525   0.424   3.488   3.658  1.8559 -1.7247  0.2029
 4355SOL     OW24526   1.587   1.677   2.651 -0.7383 -0.2640  0.6859
 4355SOL    HW124527   1.516   1.742   2.647  0.0510  0.6392  1.1397
 4355SOL    HW224528   1.537   1.597   2.658 -2.0680  0.2939 -2.5869
 4356SOL     OW24529   2.666   3.037   3.154 -0.5981  0.0558 -0.2731
 4356SOL    HW124530   2.723   3.043   3.077 -0.7639  0.8181 -0.3329
 4356SOL    HW224531   2.734   3.000   3.210 -0.7046  0.1415 -0.0880
 4357SOL     OW24532   0.299   1.521   4.437 -0.2612  0.0554  0.2334
 4357SOL    HW124533   0.305   1.472   4.355 -2.9723  0.7646 -0.3588
 4357SOL    HW224534   0.224   1.577   4.420 -1.0423 -1.9230 -2.7211
 4358SOL     OW24535   3.128   0.754  13.484 -0.6078 -0.0220  0.9237
 4358SOL    HW124536   3.179   0.834  13.494 -0.1598 -0.5840  3.1693
 4358SOL    HW224537   3.069   0.770  13.410  1.8290 -0.3830 -1.0729
 4359SOL     OW24538   3.577   0.995   5.505 -0.0659  0.0239  0.2456
 4359SOL    HW124539   3.511   1.064   5.513  3.0047  2.5657  3.4380
 4359SOL    HW224540   3.573   0.981   5.410 -0.7668 -1.0886  0.4334
 4360SOL     OW24541   1.941   0.322   1.804  0.5489 -0.1828  0.5881
 4360SOL    HW124542   1.926   0.386   1.735 -0.4181 -0.1376  0.8322
 4360SOL    HW224543   2.025   0.282   1.783 -0.3783 -2.4717  1.2518
 4361SOL     OW24544   4.004   0.751   9.458  0.4754 -0.1699  0.5617
 4361SOL    HW124545   4.006   0.660   9.428  0.4597 -0.3903  1.2269
 4361SOL    HW224546   4.065   0.783   9.392  0.1546 -0.4607  0.1262
 4362SOL     OW24547   2.631   4.517   7.981 -0.4376  0.0055  0.1496
 4362SOL    HW124548   2.559   4.576   7.956 -0.1398 -0.0813 -0.9156
 4362SOL    HW224549   2.633   4.462   7.903 -0.0718 -1.2570  1.0570
 4363SOL     OW24550   4.270   0.674   8.588 -0.3458  0.1476  0.6808
 4363SOL    HW124551   4.271   0.655   8.681  0.5052  1.4154  0.9247
 4363SOL    HW224552   4.362   0.698   8.576 -0.0897  0.7111  3.7511
 4364SOL     OW24553   1.634   2.673   5.020  0.2362  0.1991 -0.1184
 4364SOL    HW124554   1.671   2.680   4.932  0.9227 -1.2886  0.0566
 4364SOL    HW224555   1.578   2.595   5.020  0.3981  0.0948 -3.0567
 4365SOL     OW24556   1.814   0.119   4.889 -0.0120 -0.0682 -0.4146
 4365SOL    HW124557   1.736   0.113   4.834 -0.3193 -0.3095  0.0478
 4365SOL    HW224558   1.877   0.167   4.835 -1.7308  0.5815 -1.8238
 4366SOL     OW24559   2.088   1.358   4.497 -0.3937  0.0043 -0.0442
 4366SOL    HW124560   2.039   1.393   4.572  0.2670  1.5254 -0.3256
 4366SOL    HW224561   2.056   1.399   4.417  2.0190 -0.9700 -1.5045
 4367SOL     OW24562   2.495   4.200   5.498 -0.5966 -0.1741  0.0081
 4367SOL    HW124563   2.581   4.218   5.534 -0.6481  2.0658 -1.0081
 4367SOL    HW224564   2.510   4.116   5.453  0.9674  0.2546 -0.2480
 4368SOL     OW24565   1.222   0.493   6.910 -0.0080  0.3524 -0.8429
 4368SOL    HW124566   1.220   0.577   6.865  2.0837 -0.0372 -1.6619
 4368SOL    HW224567   1.218   0.430   6.838 -0.5211 -0.5124 -0.0610
 4369SOL     OW24568   1.689   0.216   1.895 -0.1351  0.4053 -0.1901
 4369SOL    HW124569   1.712   0.206   1.988 -0.9579 -0.8493 -0.1286
 4369SOL    HW224570   1.773   0.244   1.859 -0.3391 -1.0646 -1.7848
 4370SOL     OW24571   3.383   4.594   9.766 -0.2854  0.5633 -0.1637
 4370SOL    HW124572   3.441   4.535   9.718 -0.4311  0.1825  0.1376
 4370SOL    HW224573   3.454   4.654   9.792 -0.1285 -0.1588  1.0872
 4371SOL     OW24574   1.636   1.883   9.028 -0.1337  0.5318  0.3330
 4371SOL    HW124575   1.676   1.891   8.941 -1.7695  0.3675 -0.4180
 4371SOL    HW224576   1.710   1.906   9.085  1.8100 -0.4026 -1.8092
 4372SOL     OW24577   2.457   1.902   1.588  0.1384  0.0517  0.1945
 4372SOL    HW124578   2.386   1.848   1.555  0.7678 -0.1316 -0.8583
 4372SOL    HW224579   2.435   1.913   1.681 -0.0084 -2.3659  0.4457
 4373SOL     OW24580   0.112   3.107   1.949 -0.3871  0.4696  0.2344
 4373SOL    HW124581   0.030   3.156   1.940 -0.3019  0.9345  2.1092
 4373SOL    HW224582   0.093   3.069   2.034 -1.5031 -1.7327 -0.9851
 4374SOL     OW24583   3.551   2.534  12.030  0.7002  0.2187  0.3890
 4374SOL    HW124584   3.463   2.508  12.058  1.4695 -1.5824  1.1306
 4374SOL    HW224585   3.543   2.628  12.016 -0.9184 -0.3798 -2.7977
 4375SOL     OW24586   0.025   0.308   0.816 -0.0021 -0.2195 -0.2938
 4375SOL    HW124587   0.046   0.392   0.856  0.4185  0.2011 -1.4059
 4375SOL    HW224588   4.717   0.346   0.734  1.6622 -0.4929 -1.0973
 4376SOL     OW24589   4.281   4.237   4.304  0.1735  0.5353  0.1524
 4376SOL    HW124590   4.239   4.276   4.228 -0.5891 -2.2097 -0.8351
 4376SOL    HW224591   4.343   4.307   4.323 -2.6271  2.9669  0.3159
 4377SOL     OW24592   3.379   0.603   9.809  0.5109 -0.1667 -0.2274
 4377SOL    HW124593   3.284   0.598   9.800  0.6303  0.9687 -2.1242
 4377SOL    HW224594   3.380   0.645   9.895  0.9607 -1.4261  0.3762
 4378SOL     OW24595   2.951   4.462  11.266 -0.0946  0.1640 -0.1123
 4378SOL    HW124596   2.977   4.553  11.250  0.4166 -0.3008 -1.8411
 4378SOL    HW224597   2.856   4.471  11.263 -0.3269 -2.2686  0.0465
 4379SOL     OW24598   0.794   0.271   4.790  0.6890  0.1158 -0.1112
 4379SOL    HW124599   0.730   0.273   4.861 -1.0373  3.6804 -1.7738
 4379SOL    HW224600   0.772   0.187   4.748 -0.4407 -0.6708  2.0463
 4380SOL     OW24601   4.717   2.729   9.043 -0.0010  0.8469 -0.2235
 4380SOL    HW124602   0.063   2.785   9.013  1.6933 -0.9061  0.5125
 4380SOL    HW224603   0.011   2.733   9.136 -2.1682  0.8521  0.2227
 4381SOL     OW24604   1.244   0.507  14.638 -0.3021 -0.0882  0.5945
 4381SOL    HW124605   1.229   0.523  14.731  0.5789 -0.1731  0.7530
 4381SOL    HW224606   1.295   0.426  14.647 -0.0087  0.1668  1.2898
 4382SOL     OW24607   1.011   4.648   0.246  1.0213 -0.1992  0.2065
 4382SOL    HW124608   0.979   4.599   0.321  0.1393 -0.3439 -0.2592
 4382SOL    HW224609   0.938   4.642   0.185  0.9674  0.6033  0.1902
 4383SOL     OW24610   2.440   0.534   3.744 -0.0647  0.3558  0.1514
 4383SOL    HW124611   2.418   0.473   3.815 -0.7996  0.2957 -0.1263
 4383SOL    HW224612   2.494   0.602   3.783 -2.1557  1.0601  1.8331
 4384SOL     OW24613   0.599   4.112  13.093 -0.2692 -0.2055  0.4418
 4384SOL    HW124614   0.633   4.096  13.182  1.0473  2.0682  0.3286
 4384SOL    HW224615   0.653   4.190  13.082 -1.2207  0.4062  0.1549
 4385SOL     OW24616   2.846   0.062   5.139  0.2829  0.7356 -0.9752
 4385SOL    HW124617   2.891   0.045   5.056  1.8728 -1.2974  0.2997
 4385SOL    HW224618   2.822   4.698   5.161 -1.3071  1.6076  0.8997
 4386SOL     OW24619   1.892   0.649   3.594  0.0318  0.0956  0.4235
 4386SOL    HW124620   1.987   0.641   3.582  0.0795  0.3001  0.6737
 4386SOL    HW224621   1.854   0.587   3.532  0.9650 -0.9946  0.9507
 4387SOL     OW24622   2.816   1.565   9.550  0.2095 -0.7429 -0.0986
 4387SOL    HW124623   2.844   1.613   9.628 -2.0598 -0.8398  0.7882
 4387SOL    HW224624   2.902   1.538   9.520  0.1680 -0.2846 -0.6321
 4388SOL     OW24625   3.775   3.806   4.653 -0.0310 -0.0439 -1.1670
 4388SOL    HW124626   3.824   3.788   4.734 -0.0294  0.2218 -1.1100
 4388SOL    HW224627   3.748   3.897   4.667  0.3312  0.1190 -1.5319
 4389SOL     OW24628   1.864   3.371  16.304  0.3740 -0.1275 -0.6875
 4389SOL    HW124629   1.855   3.298  16.243 -1.2398 -1.3824  1.0393
 4389SOL    HW224630   1.783   3.415  16.279 -1.3573 -1.9536  1.6923
 4390SOL     OW24631   2.069   3.249   1.088  0.3509  0.0551  0.1044
 4390SOL    HW124632   2.147   3.231   1.141 -0.0581 -1.0662  0.3151
 4390SOL    HW224633   2.017   3.174   1.117 -0.0384  0.4183  0.3431
 4391SOL     OW24634   2.116   3.040   5.559  0.1712  0.4087  0.0392
 4391SOL    HW124635   2.183   3.079   5.503  0.5009 -0.8065 -0.4264
 4391SOL    HW224636   2.095   2.955   5.520  0.8571  0.8812 -1.3466
 4392SOL     OW24637   1.905   4.584   3.500 -0.5119  0.3772  0.1625
 4392SOL    HW124638   1.871   4.673   3.505  0.6005  0.8324 -0.4322
 4392SOL    HW224639   1.914   4.565   3.594 -4.1924 -0.2144  0.3969
 4393SOL     OW24640   3.110   0.108   1.836  0.3631 -0.1028 -0.2389
 4393SOL    HW124641   3.140   0.198   1.822 -0.5564  0.0905 -0.9799
 4393SOL    HW224642   3.046   0.131   1.903  1.1477 -1.8713  1.1238
 4394SOL     OW24643   1.959   1.166   7.452 -0.0025  0.0974 -0.7668
 4394SOL    HW124644   1.937   1.149   7.361 -1.3342  0.6244 -0.5407
 4394SOL    HW224645   2.055   1.163   7.454 -0.1356 -2.1612  1.6671
 4395SOL     OW24646   0.780   1.620   6.242  0.3651 -0.1445 -0.3462
 4395SOL    HW124647   0.749   1.689   6.184 -0.0800 -0.6014 -0.6573
 4395SOL    HW224648   0.763   1.663   6.326  0.6435  0.1545 -0.4431
 4396SOL     OW24649   4.312   3.378   5.412  0.2705 -0.1651 -1.1674
 4396SOL    HW124650   4.343   3.468   5.402  3.2394 -1.1559 -1.0255
 4396SOL    HW224651   4.381   3.329   5.366 -1.0202 -1.0706 -2.1364
 4397SOL     OW24652   1.036   2.183  13.779 -0.0086 -0.2048  0.3918
 4397SOL    HW124653   0.956   2.139  13.811 -0.6877  0.6292 -0.1645
 4397SOL    HW224654   1.048   2.155  13.688 -2.1257 -0.8905  0.3074
 4398SOL     OW24655   3.458   0.775   4.113  0.0174 -0.4772  0.5482
 4398SOL    HW124656   3.436   0.737   4.027  0.7692  0.6939 -0.1496
 4398SOL    HW224657   3.439   0.867   4.095  0.0497 -0.8520 -1.3918
 4399SOL     OW24658   1.428   3.580   0.159 -0.4632  0.2427 -0.1912
 4399SOL    HW124659   1.402   3.539   0.077  3.2702 -1.1142 -0.6952
 4399SOL    HW224660   1.407   3.510   0.220 -0.5496  0.2148 -0.2528
 4400SOL     OW24661   0.090   1.228   4.328  0.2676 -0.4901  0.6639
 4400SOL    HW124662   0.183   1.227   4.306  0.0020 -1.1684 -0.4390
 4400SOL    HW224663   0.069   1.321   4.323 -0.2076 -0.6662 -0.6683
 4401SOL     OW24664   0.110   4.151  11.661  0.1757  0.2568  0.3983
 4401SOL    HW124665   0.083   4.198  11.740  1.9152  1.1073  0.4905
 4401SOL    HW224666   0.018   4.142  11.635  0.1666 -0.8518  0.8312
 4402SOL     OW24667   1.529   2.458   5.465  0.7548  0.4426  0.1992
 4402SOL    HW124668   1.506   2.395   5.397 -1.6062  1.0548  0.4303
 4402SOL    HW224669   1.493   2.541   5.433 -0.9165  0.2603  1.5765
 4403SOL     OW24670   0.817   1.866   2.673 -0.0950 -0.0261 -0.1993
 4403SOL    HW124671   0.767   1.923   2.730 -0.6566  0.4906 -1.2089
 4403SOL    HW224672   0.818   1.785   2.723 -1.4920  0.6363  0.8930
 4404SOL     OW24673   4.644   3.359   8.378  0.3687 -0.2201 -0.0344
 4404SOL    HW124674   4.683   3.308   8.306  2.0660 -0.5783  1.1416
 4404SOL    HW224675   4.554   3.327   8.369 -0.3035  1.2803  1.4704
 4405SOL     OW24676   0.122   4.026   2.256 -0.5791  0.8666  0.2566
 4405SOL    HW124677   0.057   3.995   2.318 -0.1134  0.5854  0.6023
 4405SOL    HW224678   0.139   3.946   2.207  0.1460  1.4379 -0.4306
 4406SOL     OW24679   3.391   0.903   6.457 -0.2463 -0.0579 -0.2751
 4406SOL    HW124680   3.333   0.897   6.533 -0.3862  1.4987 -0.2521
 4406SOL    HW224681   3.367   0.989   6.424  0.5166  1.0192  1.9477
 4407SOL     OW24682   0.363   0.308  14.642  0.5024 -0.5220 -0.3219
 4407SOL    HW124683   0.419   0.242  14.681  0.4355 -0.2319  0.2544
 4407SOL    HW224684   0.383   0.380  14.701 -2.5313 -0.8430  1.0964
 4408SOL     OW24685   0.811   1.267   9.553  0.1049  0.0416  0.0178
 4408SOL    HW124686   0.738   1.318   9.589 -0.7898  0.0438 -1.7716
 4408SOL    HW224687   0.885   1.295   9.606  0.0130 -0.3318  0.3511
 4409SOL     OW24688   4.109   4.253   2.373 -0.7446 -0.1980  0.0656
 4409SOL    HW124689   4.184   4.195   2.383 -1.1014 -0.6784 -0.0207
 4409SOL    HW224690   4.062   4.259   2.456 -1.3927  1.5944 -0.4393
 4410SOL     OW24691   0.296   3.366  15.643 -0.8837  0.0495 -0.2292
 4410SOL    HW124692   0.223   3.324  15.688 -1.9974  3.3831  1.0951
 4410SOL    HW224693   0.313   3.304  15.572  0.8693  3.5578 -2.8621
 4411SOL     OW24694   0.109   1.923   5.921 -0.6088  0.6003  0.1162
 4411SOL    HW124695   0.124   2.017   5.923  0.2306  0.4124  2.0458
 4411SOL    HW224696   0.187   1.875   5.894 -1.3566  0.1809 -1.2874
 4412SOL     OW24697   1.373   1.075   4.890 -0.0262 -0.0663 -0.3358
 4412SOL    HW124698   1.345   0.984   4.895  0.7111 -0.4217 -2.9244
 4412SOL    HW224699   1.397   1.084   4.983  2.5053 -0.2870 -0.9813
 4413SOL     OW24700   2.775   4.102   7.975 -0.3722 -0.6562 -0.2425
 4413SOL    HW124701   2.809   4.190   7.991 -3.5633  0.9843 -2.3231
 4413SOL    HW224702   2.832   4.044   8.025 -0.7016  0.4473  1.3891
 4414SOL     OW24703   4.004   1.036   2.133  0.0819 -0.5400 -0.1623
 4414SOL    HW124704   3.992   1.108   2.195 -1.6338  0.0085 -1.1133
 4414SOL    HW224705   4.093   1.014   2.160  0.0498  2.8865  2.7486
 4415SOL     OW24706   1.235   0.427   9.358  0.0567 -0.1323 -0.4017
 4415SOL    HW124707   1.184   0.452   9.281 -2.0614 -1.0734  0.6913
 4415SOL    HW224708   1.312   0.391   9.314 -1.2941 -2.4094 -0.9387
 4416SOL     OW24709   3.418   4.483  14.955  0.4988 -0.2920  0.7435
 4416SOL    HW124710   3.454   4.442  14.877  0.7620 -1.3059  1.4040
 4416SOL    HW224711   3.459   4.431  15.024  1.9169  0.1787  0.2329
 4417SOL     OW24712   3.916   2.441   4.350 -0.4744 -0.5601  0.1491
 4417SOL    HW124713   3.933   2.386   4.273 -1.9857 -2.8206  1.4010
 4417SOL    HW224714   3.822   2.422   4.351 -0.3173 -1.3150  0.5623
 4418SOL     OW24715   4.558   2.463   1.073  0.5685  0.3168 -0.2545
 4418SOL    HW124716   4.509   2.435   0.995 -0.4638 -1.6057  1.0888
 4418SOL    HW224717   4.643   2.468   1.029 -0.4659  0.2226 -2.2978
 4419SOL     OW24718   1.151   2.239   0.214 -0.2311  0.4315 -0.0696
 4419SOL    HW124719   1.175   2.276   0.299 -0.0739 -0.1451  0.1344
 4419SOL    HW224720   1.082   2.176   0.236 -1.2977  1.1565 -1.3083
 4420SOL     OW24721   4.488   0.976   6.093  0.5920  0.4016 -0.3510
 4420SOL    HW124722   4.548   1.006   6.026  1.7149 -1.4937 -0.1877
 4420SOL    HW224723   4.564   0.939   6.138 -0.8044 -0.9891  0.8742
 4421SOL     OW24724   2.996   0.589   2.052  0.4810  0.2052  0.2860
 4421SOL    HW124725   2.959   0.580   2.139  1.4545  0.9446  0.7724
 4421SOL    HW224726   2.983   0.682   2.038  0.8050  0.9135  4.7683
 4422SOL     OW24727   0.920   4.631  16.703 -0.3134  0.2808  0.1775
 4422SOL    HW124728   0.943   4.550  16.748 -0.6438 -0.0121 -0.1921
 4422SOL    HW224729   0.829   4.640  16.731 -0.7132  1.6397 -1.6054
 4423SOL     OW24730   3.785   4.019   6.913 -1.5283  0.6833 -0.1631
 4423SOL    HW124731   3.739   3.952   6.863 -2.4615  0.3964  1.0884
 4423SOL    HW224732   3.835   4.067   6.847 -0.9643  0.6218  0.2158
 4424SOL     OW24733   1.418   0.298  17.015  0.0556  0.0541  0.2784
 4424SOL    HW124734   1.495   0.259  16.973  0.5868 -0.1250  1.4265
 4424SOL    HW224735   1.461   0.378  17.045  0.2330  0.2283 -0.4229
 4425SOL     OW24736   2.650   2.150   9.685  0.1539 -0.4376 -0.0322
 4425SOL    HW124737   2.738   2.120   9.662 -0.0706  0.0350 -1.4801
 4425SOL    HW224738   2.646   2.238   9.649  2.2263 -0.4559 -0.3346
 4426SOL     OW24739   3.268   0.074   5.070  0.5301 -0.2458  0.3638
 4426SOL    HW124740   3.307   4.718   5.038  0.9366 -0.1603  0.6427
 4426SOL    HW224741   3.347   0.124   5.091  1.6517 -1.2049 -1.6516
 4427SOL     OW24742   2.721   3.688   9.198 -0.3309  0.0602 -0.3983
 4427SOL    HW124743   2.630   3.701   9.171 -0.5871 -1.2938 -0.1549
 4427SOL    HW224744   2.719   3.598   9.228 -1.1219 -0.5010 -2.1002
 4428SOL     OW24745   2.625   1.868   5.495  0.1736 -0.3298 -0.6580
 4428SOL    HW124746   2.556   1.871   5.560  0.7289  0.0754 -0.0795
 4428SOL    HW224747   2.645   1.962   5.492  2.6412 -0.8964 -2.2290
 4429SOL     OW24748   2.932   1.123   7.419 -0.0846 -0.0688 -0.2661
 4429SOL    HW124749   3.016   1.167   7.416  0.3232 -0.9654 -1.7682
 4429SOL    HW224750   2.946   1.058   7.351 -1.0341  0.6212 -1.1324
 4430SOL     OW24751   2.132   1.024  16.713  0.0542 -0.1619 -0.1365
 4430SOL    HW124752   2.200   0.959  16.698  0.5053  0.4813 -0.9111
 4430SOL    HW224753   2.192   1.098  16.717  0.5748 -0.7207  1.8492
 4431SOL     OW24754   0.454   3.425  13.961 -0.1953  0.6322 -0.2885
 4431SOL    HW124755   0.405   3.372  13.898  1.3934  1.4695 -2.1738
 4431SOL    HW224756   0.414   3.506  13.931  4.6939  2.0606 -2.7957
 4432SOL     OW24757   3.179   3.211  15.456  0.4142  0.2440  0.3405
 4432SOL    HW124758   3.189   3.130  15.406  0.8873  0.6415 -0.2091
 4432SOL    HW224759   3.273   3.230  15.457  0.1694  1.5152 -1.1073
 4433SOL     OW24760   3.080   3.564   4.365  0.1830 -0.2344 -0.4348
 4433SOL    HW124761   3.079   3.582   4.459 -0.6611 -0.2757 -0.4334
 4433SOL    HW224762   3.123   3.478   4.363  0.6523 -0.0205  0.4052
 4434SOL     OW24763   1.599   0.328   1.660  0.0958 -0.3210 -0.1450
 4434SOL    HW124764   1.613   0.308   1.753  0.3578 -2.6354 -0.6871
 4434SOL    HW224765   1.634   0.246   1.627 -0.2137 -0.9229  1.0171
 4435SOL     OW24766   2.643   2.364   8.029 -0.2893 -0.1442  0.0281
 4435SOL    HW124767   2.672   2.352   7.939  0.0733  0.6606  0.0392
 4435SOL    HW224768   2.623   2.271   8.040  3.0706 -0.6332  1.9011
 4436SOL     OW24769   3.178   1.311   7.370  0.4038 -0.3308  0.0731
 4436SOL    HW124770   3.242   1.264   7.423  1.4670  1.1940  0.1466
 4436SOL    HW224771   3.216   1.399   7.376  0.7863 -0.5821  1.4218
 4437SOL     OW24772   0.792   4.222   2.124 -0.7089 -0.6653  0.3398
 4437SOL    HW124773   0.798   4.316   2.141  2.6930 -0.4641 -1.8448
 4437SOL    HW224774   0.864   4.191   2.179  0.6000  0.6322 -0.6593
 4438SOL     OW24775   0.836   1.992  17.086  0.3866 -0.4430  0.0352
 4438SOL    HW124776   0.828   2.071  17.140 -0.0892 -0.0847 -0.5469
 4438SOL    HW224777   0.762   2.006  17.027 -0.9839  0.5358  1.9640
 4439SOL     OW24778   2.359   4.257  13.741 -0.2246  0.3649  0.4613
 4439SOL    HW124779   2.341   4.348  13.719 -0.4880 -0.6675 -3.5023
 4439SOL    HW224780   2.273   4.227  13.711  0.1098 -0.1145 -0.0164
 4440SOL     OW24781   2.819   0.465   3.915  0.2892 -0.2217  1.0889
 4440SOL    HW124782   2.776   0.389   3.878  1.6563 -0.5810  0.2436
 4440SOL    HW224783   2.739   0.496   3.958 -0.1458 -0.2494  0.2898
 4441SOL     OW24784   0.410   0.519   4.915 -0.8032 -0.0348  0.3804
 4441SOL    HW124785   0.344   0.493   4.850 -0.0556  1.7916 -1.1054
 4441SOL    HW224786   0.478   0.454   4.898  1.0393  2.3498 -1.4230
 4442SOL     OW24787   4.138   1.330   6.994  0.2283 -0.1314  0.7548
 4442SOL    HW124788   4.126   1.351   7.086 -2.7322  0.4225  0.2663
 4442SOL    HW224789   4.081   1.382   6.936  0.7444  0.3311  0.6629
 4443SOL     OW24790   1.912   1.831   9.916 -0.0263 -0.4306 -0.2829
 4443SOL    HW124791   1.960   1.749   9.906  0.7691 -0.2680  2.3042
 4443SOL    HW224792   1.980   1.894   9.942 -0.5394 -0.5817  1.4561
 4444SOL     OW24793   3.585   4.560   7.985 -0.3199 -0.4129  0.8331
 4444SOL    HW124794   3.610   4.526   8.071 -0.6713  0.0907  1.1336
 4444SOL    HW224795   3.576   4.652   8.008 -1.4005 -0.2419 -0.3124
 4445SOL     OW24796   2.723   1.246   5.694  0.2326  0.2640  0.6249
 4445SOL    HW124797   2.686   1.204   5.617  0.9133 -1.1062  1.0436
 4445SOL    HW224798   2.783   1.178   5.724  1.1686 -0.3440 -2.6423
 4446SOL     OW24799   3.604   2.183   9.045 -0.1205 -0.0957 -0.3510
 4446SOL    HW124800   3.525   2.235   9.055  0.8989  1.1057  1.5213
 4446SOL    HW224801   3.674   2.229   9.092  0.0472 -0.8860  0.1737
 4447SOL     OW24802   4.009   0.929   2.888  0.3411 -0.4221 -0.3959
 4447SOL    HW124803   3.921   0.932   2.849  0.5702  2.5623 -0.6826
 4447SOL    HW224804   4.013   0.840   2.924 -1.7952  0.1228  1.1842
 4448SOL     OW24805   0.405   3.176   4.947 -0.2322 -0.0765 -0.2382
 4448SOL    HW124806   0.394   3.148   4.856  1.3793  0.9870 -0.7635
 4448SOL    HW224807   0.388   3.267   4.923  2.1588  0.1116 -1.2661
 4449SOL     OW24808   3.338   4.330   4.588 -0.4170 -0.7433 -0.4109
 4449SOL    HW124809   3.279   4.278   4.534 -1.0821 -0.1171 -0.2868
 4449SOL    HW224810   3.421   4.338   4.540 -1.5490  0.6980 -2.1190
 4450SOL     OW24811   1.501   2.005   8.383  1.0147  0.2021  0.4201
 4450SOL    HW124812   1.478   1.913   8.393 -0.8102  0.4336 -1.6563
 4450SOL    HW224813   1.473   2.038   8.468 -1.6192  3.1235 -1.6178
 4451SOL     OW24814   2.172   0.207  11.571  0.3478 -0.2595 -0.1519
 4451SOL    HW124815   2.130   0.155  11.640  2.8484 -0.9999  0.7852
 4451SOL    HW224816   2.145   0.171  11.486  0.5813 -2.5936  0.7589
 4452SOL     OW24817   1.620   4.131  10.990 -0.0398 -0.2496  0.3453
 4452SOL    HW124818   1.563   4.207  11.003  1.3376  0.3673  2.7143
 4452SOL    HW224819   1.622   4.121  10.894  0.6899 -1.0980  0.4538
 4453SOL     OW24820   0.392   1.135   5.764 -0.1465 -0.0632  0.0570
 4453SOL    HW124821   0.467   1.115   5.819 -0.9496 -0.3330  1.0611
 4453SOL    HW224822   0.426   1.103   5.680 -1.2868 -2.5955  0.5571
 4454SOL     OW24823   3.210   4.490  13.287  0.2267 -0.3064  0.5032
 4454SOL    HW124824   3.272   4.545  13.239  0.6007  0.5091  1.9258
 4454SOL    HW224825   3.210   4.411  13.234 -3.0894  0.4052 -0.5502
 4455SOL     OW24826   2.339   4.236   0.340  0.7521 -0.1634 -0.2488
 4455SOL    HW124827   2.424   4.257   0.378  1.5704  1.1715 -2.8001
 4455SOL    HW224828   2.283   4.244   0.417 -0.5315  0.9615 -1.3056
 4456SOL     OW24829   2.876   0.636   4.962  0.1746 -0.1103 -0.0887
 4456SOL    HW124830   2.809   0.702   4.948  0.7973  0.0937 -2.0630
 4456SOL    HW224831   2.921   0.612   4.881  2.3774 -2.6798  1.8717
 4457SOL     OW24832   3.455   1.668  15.066  0.0242 -0.3268 -0.3318
 4457SOL    HW124833   3.363   1.666  15.093 -0.1395  1.0139 -0.7764
 4457SOL    HW224834   3.500   1.722  15.132  1.7360 -1.8684 -0.2286
 4458SOL     OW24835   4.271   0.372   7.060 -0.3286 -0.1935  0.1864
 4458SOL    HW124836   4.205   0.388   7.128 -2.3726 -3.3368 -1.0478
 4458SOL    HW224837   4.354   0.388   7.104 -1.1083  1.6988  0.9557
 4459SOL     OW24838   3.994   3.579  10.186 -0.1983 -0.3502 -0.2297
 4459SOL    HW124839   3.934   3.508  10.166 -1.1151  1.0591 -2.4435
 4459SOL    HW224840   4.062   3.529  10.232  1.3889  0.2650 -1.8783
 4460SOL     OW24841   2.143   2.940   7.650 -0.1270 -0.2764 -0.2642
 4460SOL    HW124842   2.102   2.986   7.577  0.3728  0.2828 -0.1882
 4460SOL    HW224843   2.165   2.864   7.596 -0.0503 -1.1307  0.9635
 4461SOL     OW24844   2.327   4.433   8.252  0.1484 -0.1644 -0.2574
 4461SOL    HW124845   2.346   4.477   8.335 -0.4640 -1.5699  0.6276
 4461SOL    HW224846   2.231   4.442   8.249 -0.0868 -2.1932  0.8876
 4462SOL     OW24847   0.149   3.274   3.578 -0.1936  0.1099  0.5238
 4462SOL    HW124848   0.229   3.265   3.527  0.5865 -0.1595  1.7949
 4462SOL    HW224849   0.165   3.350   3.635 -1.0902  1.7810 -1.4247
 4463SOL     OW24850   3.997   1.207   2.814 -0.1712  0.1032  0.5326
 4463SOL    HW124851   3.910   1.244   2.800 -0.5243 -0.9213  0.0581
 4463SOL    HW224852   3.975   1.136   2.875  1.2721 -0.8457 -0.0579
 4464SOL     OW24853   3.072   3.619   6.464 -0.4141  0.1646 -0.3484
 4464SOL    HW124854   2.989   3.584   6.433 -1.2267  0.4098  1.5863
 4464SOL    HW224855   3.087   3.705   6.424  0.3368 -0.0395 -0.5167
 4465SOL     OW24856   2.774   0.672  12.307 -0.1162 -0.4602 -0.6635
 4465SOL    HW124857   2.739   0.709  12.226 -0.4108 -0.7944 -0.6901
 4465SOL    HW224858   2.827   0.603  12.267  0.8137  0.9955 -1.9485
 4466SOL     OW24859   2.011   4.699   5.059 -0.0165  0.0775 -0.0632
 4466SOL    HW124860   2.074   4.682   4.989 -1.8782 -2.0955 -1.1902
 4466SOL    HW224861   1.936   0.006   5.009 -1.7100  0.1241  2.4837
 4467SOL     OW24862   0.017   2.557  17.538 -0.8361  0.1132 -0.1995
 4467SOL    HW124863   0.011   2.650  17.559  0.3358  0.3714 -0.9871
 4467SOL    HW224864   0.019   2.516  17.624  0.6629  1.9019  0.6265
 4468SOL     OW24865   1.427   1.071   8.689 -0.5213  0.0978  0.0438
 4468SOL    HW124866   1.459   1.161   8.695  0.1769 -0.2012  0.8531
 4468SOL    HW224867   1.506   1.026   8.718  0.1615  2.5596  2.0378
 4469SOL     OW24868   0.811   3.627   6.595  0.7332 -0.6359 -1.1223
 4469SOL    HW124869   0.732   3.580   6.568  0.5444 -0.0644 -1.5521
 4469SOL    HW224870   0.830   3.675   6.515  2.2057 -1.7451 -1.4319
 4470SOL     OW24871   0.820   2.229   7.940 -0.0623 -0.1285  0.0049
 4470SOL    HW124872   0.803   2.318   7.909  1.3022  0.9455  2.3331
 4470SOL    HW224873   0.734   2.188   7.932 -0.9981  1.8406  0.0083
 4471SOL     OW24874   1.586   3.878   5.030  0.1699  0.0340 -0.0904
 4471SOL    HW124875   1.600   3.790   5.065 -0.4455 -0.8366 -2.0208
 4471SOL    HW224876   1.516   3.859   4.968  1.3085 -0.9931 -1.0756
 4472SOL     OW24877   1.830   3.069   4.873  0.3881 -0.3827  0.0057
 4472SOL    HW124878   1.866   3.152   4.906 -2.0216  0.5029  0.3464
 4472SOL    HW224879   1.870   3.055   4.787 -0.0315  2.1431 -0.5918
 4473SOL     OW24880   2.236   0.100   7.591  0.4072 -0.3290 -0.5744
 4473SOL    HW124881   2.236   0.144   7.676 -1.1680 -1.4296 -0.0138
 4473SOL    HW224882   2.230   0.006   7.609 -1.7396 -0.0390  0.1094
 4474SOL     OW24883   3.200   1.407  12.912  0.1639  0.3072  0.4417
 4474SOL    HW124884   3.274   1.350  12.933  0.0636  0.9104  2.4202
 4474SOL    HW224885   3.259   1.468  12.868 -0.1120 -0.5489 -1.1091
 4475SOL     OW24886   1.401   1.747   6.237  0.0017  0.5123 -0.2128
 4475SOL    HW124887   1.370   1.798   6.312 -1.0644  0.5024 -0.6376
 4475SOL    HW224888   1.403   1.665   6.286 -0.4623  2.0548  2.4161
 4476SOL     OW24889   0.752   3.231   2.437  0.0517  0.1726  0.2833
 4476SOL    HW124890   0.784   3.283   2.511 -1.5329  0.4313  0.7878
 4476SOL    HW224891   0.770   3.287   2.361 -2.0944  1.1115  0.4469
 4477SOL     OW24892   4.034   0.502  14.584 -0.1475 -0.0350  0.1993
 4477SOL    HW124893   4.033   0.561  14.660 -1.7224  1.0769 -0.6829
 4477SOL    HW224894   4.128   0.496  14.570 -0.1505  1.3563 -0.3793
 4478SOL     OW24895   1.766   2.364   4.750  0.0573  0.1064 -0.6031
 4478SOL    HW124896   1.683   2.412   4.751  0.7861  1.3162  2.4083
 4478SOL    HW224897   1.756   2.269   4.742 -1.6722  0.0264  2.4058
 4479SOL     OW24898   4.241   4.378   5.053 -0.9475  0.0063 -0.2732
 4479SOL    HW124899   4.160   4.422   5.026 -1.1842 -2.3581 -3.4947
 4479SOL    HW224900   4.275   4.441   5.116 -0.0739 -0.7090 -0.0303
 4480SOL     OW24901   3.688   0.688  14.501 -0.5653  0.6761  0.1500
 4480SOL    HW124902   3.631   0.617  14.533 -0.4167  1.2933  1.8053
 4480SOL    HW224903   3.691   0.655  14.411 -0.4451  2.7584 -0.5871
 4481SOL     OW24904   0.555   1.991   1.868 -0.0753 -0.5160 -0.0442
 4481SOL    HW124905   0.462   1.970   1.872  0.1922 -1.5772  0.5249
 4481SOL    HW224906   0.551   2.077   1.911 -1.2629 -2.4775  3.7494
 4482SOL     OW24907   0.473   0.379   7.645  0.0942 -0.2684 -0.6094
 4482SOL    HW124908   0.506   0.413   7.728 -2.5109 -0.5052  0.4937
 4482SOL    HW224909   0.454   0.459   7.598  1.7649  1.2770  1.3422
 4483SOL     OW24910   0.226   3.435  11.767  0.0595 -0.5531 -0.4330
 4483SOL    HW124911   0.193   3.500  11.706 -3.6209 -0.8555  1.2509
 4483SOL    HW224912   0.147   3.396  11.804 -0.3492  1.5534  0.9470
 4484SOL     OW24913   3.774   3.467   3.057  0.5305 -0.5406  0.4887
 4484SOL    HW124914   3.831   3.396   3.028  2.0988  0.4887  1.0588
 4484SOL    HW224915   3.755   3.434   3.145 -1.5204  1.9397  0.9816
 4485SOL     OW24916   4.271   1.639   3.109  0.1253 -0.0280 -0.4201
 4485SOL    HW124917   4.239   1.729   3.116  0.3745  0.0665 -0.4790
 4485SOL    HW224918   4.310   1.641   3.196 -1.2714  0.9084  0.1865
 4486SOL     OW24919   0.924   0.993   9.628  0.0882  0.5559 -0.5115
 4486SOL    HW124920   0.876   0.917   9.594 -3.7092  1.8402  1.8962
 4486SOL    HW224921   0.867   1.068   9.613 -0.2678  0.4182  0.1251
 4487SOL     OW24922   1.087   0.751   1.501 -0.0014  0.6901  0.1628
 4487SOL    HW124923   0.993   0.750   1.483  0.2687 -1.0701 -1.1070
 4487SOL    HW224924   1.115   0.824   1.446  1.5263 -1.1051 -1.4328
 4488SOL     OW24925   3.632   1.045   3.814 -0.5663  0.1482 -0.3376
 4488SOL    HW124926   3.671   0.966   3.775 -1.3587 -1.1700  1.5099
 4488SOL    HW224927   3.549   1.041   3.766  1.3465  1.8755 -3.7349
 4489SOL     OW24928   1.258   0.066   1.534 -0.0359  1.0246  0.0486
 4489SOL    HW124929   1.251   0.045   1.441 -0.3148 -0.2851  0.3619
 4489SOL    HW224930   1.212   4.716   1.570  0.3943  0.0785 -1.3965
 4490SOL     OW24931   2.892   4.720   6.674  0.2049  0.5937 -0.1509
 4490SOL    HW124932   2.901   0.043   6.757  1.8594 -3.2523  1.9164
 4490SOL    HW224933   2.877   0.053   6.600 -3.3650  0.9664  0.8379
 4491SOL     OW24934   1.361   4.069   4.744  0.1549 -0.1321  0.5615
 4491SOL    HW124935   1.392   4.158   4.760  1.6974 -0.4687 -0.6091
 4491SOL    HW224936   1.355   4.074   4.649  0.0522  0.7556  0.6135
 4492SOL     OW24937   2.305   0.284  16.264  0.5427  0.6082 -0.0872
 4492SOL    HW124938   2.251   0.303  16.341  0.6056 -0.7061  0.2851
 4492SOL    HW224939   2.252   0.322  16.194 -0.9394  0.7429  1.1070
 4493SOL     OW24940   2.875   2.007   6.492  0.4617 -0.0274 -0.0987
 4493SOL    HW124941   2.803   1.952   6.461  0.4790 -0.1553  0.0919
 4493SOL    HW224942   2.847   2.042   6.576  0.3529  0.3003 -0.2701
 4494SOL     OW24943   3.988   1.696   2.674  0.1220 -0.2037 -0.6230
 4494SOL    HW124944   4.048   1.709   2.748  0.3287  0.0638 -0.8393
 4494SOL    HW224945   4.026   1.619   2.631  1.6833 -0.4518  1.2216
 4495SOL     OW24946   3.846   0.217  10.171 -0.2913 -0.1109 -0.5059
 4495SOL    HW124947   3.787   0.232  10.097  1.9673  0.1556 -2.2548
 4495SOL    HW224948   3.888   0.303  10.175 -0.3199 -0.2009  2.0397
 4496SOL     OW24949   1.215   3.191  13.326 -0.1322  0.0221  0.6667
 4496SOL    HW124950   1.175   3.271  13.361 -3.3264 -0.8575 -0.9539
 4496SOL    HW224951   1.288   3.173  13.385  1.1438 -1.7643 -1.4275
 4497SOL     OW24952   1.058   3.952  11.939  0.7369  0.3599  0.7324
 4497SOL    HW124953   1.046   3.871  11.988  0.5022  1.0654  1.8428
 4497SOL    HW224954   0.969   3.986  11.930  0.3555 -0.2472  2.2121
 4498SOL     OW24955   1.867   0.516   1.147 -0.1753 -0.3272 -0.4990
 4498SOL    HW124956   1.825   0.553   1.224  0.2061 -2.0170  0.5008
 4498SOL    HW224957   1.955   0.508   1.182  0.7818  1.5112 -2.4828
 4499SOL     OW24958   2.823   4.126   4.214 -0.0825 -0.2118  0.0708
 4499SOL    HW124959   2.877   4.048   4.224  0.0708 -0.1896 -0.5957
 4499SOL    HW224960   2.889   4.191   4.240 -0.8289 -0.2129  1.9600
 4500SOL     OW24961   2.469   4.720   3.238 -0.0528 -0.1197 -0.5085
 4500SOL    HW124962   2.426   0.048   3.171  0.8205  0.0104 -0.9724
 4500SOL    HW224963   2.471   4.630   3.203 -0.5697 -0.4746  0.3759
 4501SOL     OW24964   1.353   1.777  16.012  0.2422 -0.3088  0.2778
 4501SOL    HW124965   1.283   1.837  16.037  1.1957  0.5811  0.8001
 4501SOL    HW224966   1.331   1.750  15.922  0.6945  0.8410 -0.1770
 4502SOL     OW24967   1.741   2.310   3.464  0.1622  0.8448  0.1934
 4502SOL    HW124968   1.780   2.348   3.385 -1.9767  0.6643 -0.9410
 4502SOL    HW224969   1.799   2.350   3.529 -2.3210  1.6892  1.8838
 4503SOL     OW24970   0.849   1.664  10.224  0.8599 -0.3782 -0.7197
 4503SOL    HW124971   0.845   1.577  10.264  0.4873  0.5246  1.2100
 4503SOL    HW224972   0.768   1.704  10.253  0.7877 -0.5432 -0.6958
 4504SOL     OW24973   1.387   1.762   2.218  0.0849 -0.4226 -0.5884
 4504SOL    HW124974   1.375   1.845   2.173 -1.2259 -0.6671 -0.6901
 4504SOL    HW224975   1.442   1.785   2.293  0.4441 -1.6999 -0.4502
 4505SOL     OW24976   4.575   0.110   3.394 -0.4110  0.3668  0.6870
 4505SOL    HW124977   4.586   0.188   3.448 -1.2266 -0.2131  1.6873
 4505SOL    HW224978   4.659   0.100   3.351 -0.4950 -0.4164  0.6993
 4506SOL     OW24979   2.430   4.684   9.174  0.0216  0.6980  0.1814
 4506SOL    HW124980   2.499   4.711   9.235  0.8972  0.3295 -0.6257
 4506SOL    HW224981   2.445   0.017   9.099 -2.6948  1.6574  0.4058
 4507SOL     OW24982   2.112   0.961   4.116  0.1993  0.2443 -0.4696
 4507SOL    HW124983   2.045   0.917   4.063 -1.5123  2.3514 -0.0852
 4507SOL    HW224984   2.093   0.907   4.193 -1.6410  1.0568 -0.3421
 4508SOL     OW24985   4.596   4.291   3.251 -0.1923  0.6598  0.2384
 4508SOL    HW124986   4.540   4.263   3.323 -0.4771  1.9464  0.5152
 4508SOL    HW224987   4.550   4.249   3.178 -0.9737 -0.4733  1.3785
 4509SOL     OW24988   1.738   1.974   0.229 -0.4349  0.8885 -0.0798
 4509SOL    HW124989   1.783   1.891   0.217 -0.3252  0.8845  0.3758
 4509SOL    HW224990   1.734   1.980   0.325 -0.4611 -1.1122  0.0486
 4510SOL     OW24991   0.749   3.198  13.683  0.0566 -0.5773  0.5182
 4510SOL    HW124992   0.796   3.263  13.631 -1.5260  1.9821  2.2631
 4510SOL    HW224993   0.680   3.163  13.626  0.9904 -2.1350  0.3378
 4511SOL     OW24994   2.579   1.082   2.692 -0.5893 -0.0943 -0.0730
 4511SOL    HW124995   2.662   1.125   2.711  0.4716 -2.9915  1.6494
 4511SOL    HW224996   2.519   1.145   2.733 -1.0602  0.9275 -2.2987
 4512SOL     OW24997   0.430   3.553  11.536  0.2531  0.2153  0.1617
 4512SOL    HW124998   0.475   3.481  11.490  0.6238  0.7276 -0.2860
 4512SOL    HW224999   0.467   3.630  11.491 -2.0880 -0.1123 -2.3360
 4513SOL     OW25000   1.974   0.306   4.056 -0.6112  0.0321  0.6184
 4513SOL    HW125001   1.968   0.392   4.098  1.0759 -0.2865  1.4774
 4513SOL    HW225002   2.040   0.335   3.993  0.1436  0.6105  1.6892
 4514SOL     OW25003   4.665   0.278   6.237 -0.3940  0.0058  0.5487
 4514SOL    HW125004   4.598   0.259   6.171  0.6414 -0.9087 -0.2440
 4514SOL    HW225005   4.673   0.372   6.225  0.7023 -0.0893  0.4645
 4515SOL     OW25006   4.547   3.963   5.529  0.7860 -0.2714  0.3019
 4515SOL    HW125007   4.541   3.874   5.563 -0.5405 -0.5213 -0.5963
 4515SOL    HW225008   4.458   3.978   5.498  0.5288 -2.2032  0.1080
 4516SOL     OW25009   3.329   3.774   5.788  0.3977  0.1653 -0.2872
 4516SOL    HW125010   3.278   3.708   5.741 -0.7378  0.7295  0.1549
 4516SOL    HW225011   3.349   3.845   5.727  1.2266  2.1386  2.2967
 4517SOL     OW25012   2.131   0.478   7.506  0.2038  0.3265  0.4970
 4517SOL    HW125013   2.068   0.460   7.576  1.5641 -2.6912  0.9553
 4517SOL    HW225014   2.216   0.490   7.548  0.0648  2.0627  0.2794
 4518SOL     OW25015   2.170   0.096   3.511 -0.0709  0.5221 -0.5157
 4518SOL    HW125016   2.137   0.162   3.450  0.4624  1.6026  0.3816
 4518SOL    HW225017   2.196   0.031   3.446 -2.9812  0.7922 -1.9571
 4519SOL     OW25018   3.212   2.129  12.040 -0.2380  0.5502  0.2392
 4519SOL    HW125019   3.194   2.222  12.048 -0.4776  0.5645 -0.4992
 4519SOL    HW225020   3.137   2.107  11.985 -0.8932  2.0209  0.5564
 4520SOL     OW25021   2.223   0.935   8.727 -0.1264  0.2404  0.2386
 4520SOL    HW125022   2.199   0.852   8.769  0.3122 -0.0150 -0.0179
 4520SOL    HW225023   2.166   0.999   8.770  1.6141  1.1442  1.2206
 4521SOL     OW25024   2.455   0.231   5.602  0.9008 -0.5780 -0.2497
 4521SOL    HW125025   2.397   0.290   5.651  0.2537  0.0775 -1.7819
 4521SOL    HW225026   2.477   0.163   5.665 -1.5451 -1.2101 -0.0717
 4522SOL     OW25027   4.239   2.508  16.064  0.0010 -0.1863 -0.6424
 4522SOL    HW125028   4.233   2.547  16.152  2.7551  0.7465 -0.8448
 4522SOL    HW225029   4.203   2.581  16.015  0.8038  0.2370 -0.6056
 4523SOL     OW25030   4.493   0.127   9.766 -0.1645 -0.9061 -0.5193
 4523SOL    HW125031   4.398   0.124   9.779 -0.1452  1.1040  0.1591
 4523SOL    HW225032   4.493   0.128   9.670 -2.0036 -1.4933 -0.5372
 4524SOL     OW25033   0.532   3.319  12.982  0.3381 -0.2413  0.5093
 4524SOL    HW125034   0.612   3.365  12.958 -0.9349  0.9841 -1.3752
 4524SOL    HW225035   0.465   3.386  12.969  1.6476  0.6651 -1.5762
 4525SOL     OW25036   3.110   0.781  16.323  0.2240 -0.6308  0.3888
 4525SOL    HW125037   3.136   0.811  16.411  0.9124 -1.1469  0.3546
 4525SOL    HW225038   3.021   0.757  16.349  0.4020 -1.0861  0.5693
 4526SOL     OW25039   0.609   3.687   5.106  0.0755 -0.1483  0.5541
 4526SOL    HW125040   0.696   3.707   5.142 -0.2326  0.9751  0.6627
 4526SOL    HW225041   0.567   3.773   5.111  0.7906  0.1039  2.2614
 4527SOL     OW25042   2.002   1.690  11.179  0.2886  0.1993  0.0874
 4527SOL    HW125043   2.018   1.621  11.244  0.1361  1.0408  1.0323
 4527SOL    HW225044   1.938   1.748  11.221 -0.1707 -0.9397  0.9476
 4528SOL     OW25045   3.676   3.194  15.120  0.0109  0.5973  0.6019
 4528SOL    HW125046   3.675   3.261  15.189 -2.9151 -0.1193  1.2360
 4528SOL    HW225047   3.591   3.207  15.077 -0.1744  1.6895  1.2866
 4529SOL     OW25048   0.271   0.913   1.064  0.2304 -0.1159 -0.4247
 4529SOL    HW125049   0.187   0.960   1.064  0.2056 -0.1564 -1.8992
 4529SOL    HW225050   0.294   0.910   1.157  0.0609 -0.3185 -0.3905
 4530SOL     OW25051   0.566   2.693   5.829  0.1293 -0.2109  0.0572
 4530SOL    HW125052   0.586   2.633   5.758 -0.4888 -0.3329 -0.0110
 4530SOL    HW225053   0.655   2.698   5.863  0.5020 -0.4909 -0.8834
 4531SOL     OW25054   0.855   4.481   0.397 -0.2382  0.5218 -0.0405
 4531SOL    HW125055   0.804   4.524   0.465 -1.2447 -1.6037  0.5372
 4531SOL    HW225056   0.789   4.462   0.330  3.7884 -0.9775 -3.5998
 4532SOL     OW25057   0.485   3.842   7.210 -0.5037 -0.6686  0.1831
 4532SOL    HW125058   0.567   3.842   7.260 -0.7879  1.0269  0.6714
 4532SOL    HW225059   0.449   3.760   7.242  0.6566 -1.3493 -0.2710
 4533SOL     OW25060   3.481   3.413  12.790 -0.2070 -0.1388 -0.0702
 4533SOL    HW125061   3.454   3.474  12.722 -0.7998  2.5514  2.5685
 4533SOL    HW225062   3.415   3.436  12.856  0.2962 -1.9344  1.0757
 4534SOL     OW25063   2.695   1.127  10.779  0.1200  0.2726 -0.0519
 4534SOL    HW125064   2.652   1.084  10.705  1.2327 -2.2860  0.8036
 4534SOL    HW225065   2.710   1.047  10.830  1.0630 -2.6215 -4.8625
 4535SOL     OW25066   0.401   0.884   2.818  0.4146 -0.2147 -0.2333
 4535SOL    HW125067   0.458   0.910   2.890  0.5707 -1.3181  0.0385
 4535SOL    HW225068   0.362   0.966   2.789 -0.6116 -0.9005 -0.8112
 4536SOL     OW25069   4.268   4.395   7.925  0.5606  0.2484 -0.2664
 4536SOL    HW125070   4.329   4.391   7.998  0.0463  0.2887  0.1627
 4536SOL    HW225071   4.181   4.388   7.963  0.9990 -0.6430  0.5770
 4537SOL     OW25072   3.076   1.931   9.464 -0.0744 -0.0685  0.1948
 4537SOL    HW125073   3.132   1.855   9.448 -0.4754  0.1917 -2.3261
 4537SOL    HW225074   3.132   2.009   9.460 -2.3810  1.5312 -0.2736
 4538SOL     OW25075   0.693   0.290  16.448  0.1266  0.3976 -0.5649
 4538SOL    HW125076   0.733   0.264  16.365 -0.4728  2.2065 -1.3951
 4538SOL    HW225077   0.761   0.262  16.510 -0.0935  1.2746  0.0677
 4539SOL     OW25078   1.912   2.543   5.803 -0.1729  0.3747 -0.1064
 4539SOL    HW125079   1.949   2.455   5.809 -0.6948  0.1800  0.2673
 4539SOL    HW225080   1.865   2.524   5.722  1.0000 -1.2212 -0.4202
 4540SOL     OW25081   3.650   1.415   2.489 -0.1054  0.1047 -0.0157
 4540SOL    HW125082   3.576   1.354   2.496  1.0447 -1.3350 -0.5304
 4540SOL    HW225083   3.702   1.356   2.435 -1.4976 -1.1618  0.0143
 4541SOL     OW25084   3.125   1.140   4.912 -0.0142  0.3986 -0.3478
 4541SOL    HW125085   3.109   1.046   4.914 -0.3022  0.4593  0.2619
 4541SOL    HW225086   3.219   1.141   4.930  0.1935  3.6962 -1.4856
 4542SOL     OW25087   0.645   2.549   5.585 -0.9189  0.5185  0.1657
 4542SOL    HW125088   0.703   2.481   5.552 -1.4081  2.4739 -4.8102
 4542SOL    HW225089   0.662   2.610   5.512  1.6725  0.9528  1.1209
 4543SOL     OW25090   1.229   3.498  12.251  0.2187 -0.1261 -0.0254
 4543SOL    HW125091   1.321   3.524  12.261  0.1896 -0.4058  0.9419
 4543SOL    HW225092   1.207   3.535  12.166  1.5395 -1.9837 -1.1730
 4544SOL     OW25093   4.656   0.645  11.916 -0.7122 -0.3424 -0.1922
 4544SOL    HW125094   4.685   0.733  11.891  0.7485 -0.3329  1.5003
 4544SOL    HW225095   4.650   0.652  12.011  3.7309 -0.6132  0.1175
 4545SOL     OW25096   2.068   3.099   2.984 -0.2848  0.0322 -0.1095
 4545SOL    HW125097   2.063   3.193   3.004 -1.1910 -0.7665  3.3766
 4545SOL    HW225098   2.002   3.100   2.915 -0.8609 -0.8356  0.4290
 4546SOL     OW25099   2.605   2.276   4.262  0.2055  1.1060 -0.6373
 4546SOL    HW125100   2.626   2.254   4.352  0.1022 -2.0244 -1.3957
 4546SOL    HW225101   2.674   2.339   4.241 -1.0397  2.7727  0.2094
 4547SOL     OW25102   0.218   2.803   2.002 -0.4887  0.7414 -0.1005
 4547SOL    HW125103   0.265   2.722   2.018 -0.4372  0.9020  0.5775
 4547SOL    HW225104   0.289   2.866   2.014  0.5654 -0.1331 -1.7659
 4548SOL     OW25105   1.968   3.379   9.124 -0.0931  0.6159  0.2772
 4548SOL    HW125106   2.013   3.310   9.173 -1.2883  0.9789  1.9056
 4548SOL    HW225107   1.930   3.419   9.202  1.2246  1.1239  0.6605
 4549SOL     OW25108   4.385   4.186  15.600  0.4703  0.1032  0.2297
 4549SOL    HW125109   4.437   4.266  15.595  0.6308 -0.1652 -2.6760
 4549SOL    HW225110   4.343   4.182  15.685 -1.6210  0.9863 -0.7684
 4550SOL     OW25111   4.262   3.766   9.962  0.4733 -0.2808 -0.2411
 4550SOL    HW125112   4.176   3.756  10.004  0.6693  0.7734  0.4120
 4550SOL    HW225113   4.320   3.796  10.032 -0.1658 -1.2980  0.7291
 4551SOL     OW25114   1.079   4.690   8.652  0.2319 -0.2206 -0.2500
 4551SOL    HW125115   1.072   4.700   8.557  0.9907 -1.7547 -0.4676
 4551SOL    HW225116   0.987   4.673   8.677 -0.2810  0.1848 -1.8852
 4552SOL     OW25117   0.082   1.036   5.796 -0.0857  0.0423 -0.3337
 4552SOL    HW125118   4.716   1.035   5.823 -0.0115 -0.2622 -0.0963
 4552SOL    HW225119   0.105   1.128   5.786 -0.2939  0.3014  1.7546
 4553SOL     OW25120   2.069   1.358  17.609  0.2437  0.6662 -0.1836
 4553SOL    HW125121   2.132   1.367  17.537 -0.6223  0.7527 -0.9316
 4553SOL    HW225122   2.129   1.370  17.683  1.4164  1.2534 -1.2104
 4554SOL     OW25123   0.810   3.895   3.652  0.2034 -0.5355 -0.1410
 4554SOL    HW125124   0.803   3.830   3.581  1.3808 -0.7366 -0.0794
 4554SOL    HW225125   0.877   3.955   3.620 -1.6697  1.5051 -0.2215
 4555SOL     OW25126   1.830   0.683   4.289  0.3568 -0.0604 -0.4761
 4555SOL    HW125127   1.735   0.694   4.296  0.3419  0.9097 -2.1480
 4555SOL    HW225128   1.857   0.773   4.271  0.0494  0.7526  3.2968
 4556SOL     OW25129   0.954   4.106   2.578 -0.3982 -0.1874  0.2982
 4556SOL    HW125130   1.027   4.167   2.586 -1.5717  1.2262  0.1370
 4556SOL    HW225131   0.943   4.067   2.665 -0.5070 -1.8652 -0.4593
 4557SOL     OW25132   3.478   3.071   2.145 -0.0373 -0.4556 -0.5300
 4557SOL    HW125133   3.387   3.040   2.148  0.3527 -1.1446  4.6997
 4557SOL    HW225134   3.519   3.032   2.222 -0.5081 -0.8158 -0.4585
 4558SOL     OW25135   4.097   1.887   3.499 -0.2526 -0.1470 -0.2095
 4558SOL    HW125136   4.095   1.792   3.484  0.0619  0.0325 -1.3799
 4558SOL    HW225137   4.069   1.889   3.591  0.4629 -0.5864  0.0136
 4559SOL     OW25138   1.304   1.665   0.806  0.1424 -0.7503 -0.5552
 4559SOL    HW125139   1.251   1.738   0.774 -1.0569 -0.5887  1.8685
 4559SOL    HW225140   1.350   1.654   0.723  1.3651 -0.3397  0.0770
 4560SOL     OW25141   4.271   0.981   2.174 -0.0289 -0.2435 -0.3835
 4560SOL    HW125142   4.364   1.000   2.189 -0.6139  0.9190  1.7253
 4560SOL    HW225143   4.285   0.887   2.188  0.5483 -0.3211 -1.4937
 4561SOL     OW25144   2.000   2.334   2.860  0.2302 -0.3273 -0.1269
 4561SOL    HW125145   1.969   2.277   2.790  1.4468 -0.6992 -0.3529
 4561SOL    HW225146   1.929   2.398   2.858  0.6666  0.1993  1.4226
 4562SOL     OW25147   3.148   1.990   8.876 -0.0953  0.5155  0.3666
 4562SOL    HW125148   3.238   1.959   8.887 -0.4327 -0.0189  1.5874
 4562SOL    HW225149   3.133   2.063   8.936 -0.3971 -0.0296  0.9610
 4563SOL     OW25150   2.751   1.534   7.448  0.0691 -0.6111  0.0260
 4563SOL    HW125151   2.743   1.527   7.353 -0.5316  0.0458  0.0242
 4563SOL    HW225152   2.730   1.449   7.485 -1.2848 -0.8357 -1.2751
 4564SOL     OW25153   2.925   2.211   2.863  0.0377  0.3147  0.4411
 4564SOL    HW125154   2.940   2.189   2.954  0.3073 -0.3681  0.2325
 4564SOL    HW225155   3.015   2.213   2.832 -0.0111 -1.0662  0.2079
 4565SOL     OW25156   4.648   3.820   8.503  0.0179  0.2303 -0.6225
 4565SOL    HW125157   4.638   3.842   8.595  3.3731  1.6094 -0.5790
 4565SOL    HW225158   4.678   3.729   8.515 -0.4848  0.2455  0.6883
 4566SOL     OW25159   4.213   0.681   9.295 -0.6327  0.0388  0.4565
 4566SOL    HW125160   4.248   0.657   9.381 -1.3931 -1.2867  0.3902
 4566SOL    HW225161   4.215   0.597   9.249 -0.1414  0.3643 -0.1198
 4567SOL     OW25162   3.159   3.629   6.728  0.5922  0.0831  0.5028
 4567SOL    HW125163   3.125   3.650   6.641 -1.1886 -1.0780  0.9237
 4567SOL    HW225164   3.121   3.542   6.740  0.3842  0.0683 -0.2821
 4568SOL     OW25165   3.444   4.040   8.523  0.0557  0.2354 -0.4497
 4568SOL    HW125166   3.408   4.118   8.566 -0.7425 -0.2914 -0.1484
 4568SOL    HW225167   3.364   3.996   8.494  0.3701 -0.6916  0.0896
 4569SOL     OW25168   1.718   3.785  12.074  0.0093 -0.2298  0.6720
 4569SOL    HW125169   1.807   3.754  12.055 -0.7712 -0.9526 -1.7500
 4569SOL    HW225170   1.665   3.714  12.038 -0.9078  1.1350 -0.6901
 4570SOL     OW25171   2.571   3.295   2.962  0.0503 -0.5671 -0.4841
 4570SOL    HW125172   2.541   3.365   2.903  0.9848 -0.7617 -1.1952
 4570SOL    HW225173   2.509   3.226   2.938 -1.3055  1.7478 -3.7442
 4571SOL     OW25174   3.784   0.812  10.356 -0.2057  0.4320  0.0726
 4571SOL    HW125175   3.868   0.784  10.321 -0.2559 -1.1050  1.2187
 4571SOL    HW225176   3.729   0.736  10.339  0.3116  0.1682 -0.4351
 4572SOL     OW25177   4.034   4.593   7.990  0.2537  0.5778 -0.3525
 4572SOL    HW125178   4.110   4.596   7.932  0.4864 -0.1750 -0.0910
 4572SOL    HW225179   4.016   4.501   8.007 -1.5141  1.1279  0.7226
 4573SOL     OW25180   1.101   2.332  16.987  0.7389  0.2464  0.0129
 4573SOL    HW125181   1.095   2.326  16.892 -0.7232 -2.8363  0.2975
 4573SOL    HW225182   1.027   2.392  16.992 -0.6815 -1.3796 -1.6479
 4574SOL     OW25183   0.252   0.652   5.881  0.3308  0.2804  0.1156
 4574SOL    HW125184   0.277   0.725   5.937  1.8669 -1.3716  1.5686
 4574SOL    HW225185   0.184   0.689   5.824 -0.2682 -0.6085  0.2545
 4575SOL     OW25186   4.489   0.516   8.830  0.1983 -0.0084  0.2145
 4575SOL    HW125187   4.469   0.438   8.882 -2.5381  0.9619  0.6238
 4575SOL    HW225188   4.581   0.495   8.811  0.2385  0.7076 -0.3769
 4576SOL     OW25189   0.216   3.441  12.879  0.4983  0.2506  0.4508
 4576SOL    HW125190   0.203   3.346  12.878  1.2583  0.1580 -0.7665
 4576SOL    HW225191   0.234   3.457  12.971 -1.3673 -2.1575  1.2415
 4577SOL     OW25192   2.708   0.964   0.195  0.1916  0.0053 -0.4122
 4577SOL    HW125193   2.778   1.029   0.207  0.3155 -0.1759 -0.1455
 4577SOL    HW225194   2.767   0.891   0.176  1.0170  0.4866  0.2862
 4578SOL     OW25195   4.426   4.307   7.080  0.0880 -0.8930  0.3170
 4578SOL    HW125196   4.392   4.220   7.058  2.9226 -1.6549 -1.0062
 4578SOL    HW225197   4.352   4.333   7.134 -1.3505  0.4070 -2.2749
 4579SOL     OW25198   3.975   3.633   6.425  0.4719 -0.7493  0.4560
 4579SOL    HW125199   3.954   3.576   6.499  0.2873  0.7534  1.5753
 4579SOL    HW225200   3.907   3.700   6.434  1.0563  0.2711 -2.7975
 4580SOL     OW25201   4.628   4.706   3.680 -0.4938 -0.1216 -0.2558
 4580SOL    HW125202   4.567   4.669   3.616 -1.0074 -2.8892  1.8485
 4580SOL    HW225203   4.620   0.074   3.662  1.5587 -0.1048 -1.0232
 4581SOL     OW25204   0.988   1.485   9.626 -0.2201 -0.2460  0.2310
 4581SOL    HW125205   0.998   1.512   9.718  0.3461 -0.1952  0.1574
 4581SOL    HW225206   1.034   1.551   9.575  2.9210 -3.3337 -0.9737
 4582SOL     OW25207   0.854   4.587   3.769 -0.6400 -0.0272 -0.4747
 4582SOL    HW125208   0.906   4.633   3.836 -0.6557  1.7763 -1.6931
 4582SOL    HW225209   0.882   4.622   3.685 -2.0229  2.9337  0.2775
 4583SOL     OW25210   2.445   2.139  16.456  0.2035 -0.3078 -0.6625
 4583SOL    HW125211   2.375   2.181  16.406  0.8084  0.6460 -0.6992
 4583SOL    HW225212   2.486   2.086  16.388  2.5270  1.0386 -0.2792
 4584SOL     OW25213   4.575   0.697  10.414  0.4456 -0.6931 -0.0852
 4584SOL    HW125214   4.550   0.684  10.506  0.8439  0.7025  0.2278
 4584SOL    HW225215   4.502   0.754  10.388  0.6263  0.9385  2.9270
 4585SOL     OW25216   1.980   0.813   4.634  0.1173  0.2188 -0.0871
 4585SOL    HW125217   1.905   0.753   4.639 -1.3533  1.9490 -1.2580
 4585SOL    HW225218   2.031   0.776   4.706  0.1614 -0.5646 -0.5300
 4586SOL     OW25219   1.675   3.213   8.664  0.0836 -0.5999 -0.0294
 4586SOL    HW125220   1.653   3.127   8.701 -1.8002  0.9394  2.4350
 4586SOL    HW225221   1.708   3.257   8.742  1.2060 -0.0118 -0.8376
 4587SOL     OW25222   2.580   2.482   0.679 -0.4591 -0.0179  0.1236
 4587SOL    HW125223   2.654   2.536   0.703 -1.0142  1.1141 -0.7242
 4587SOL    HW225224   2.532   2.465   0.761 -1.3259 -0.0885 -0.3943
 4588SOL     OW25225   2.454   1.874   3.330  0.0588  0.2741 -0.3737
 4588SOL    HW125226   2.510   1.804   3.365 -1.3068  0.5239  2.3059
 4588SOL    HW225227   2.391   1.823   3.278  0.0198 -1.3647  1.2930
 4589SOL     OW25228   4.427   4.469   2.538 -0.5641  0.4732 -0.9163
 4589SOL    HW125229   4.391   4.401   2.595  0.3326  2.3535  1.8925
 4589SOL    HW225230   4.364   4.470   2.466 -2.2127  2.0645  0.5681
 4590SOL     OW25231   3.352   1.964   3.846 -0.0874  0.2533 -0.1935
 4590SOL    HW125232   3.436   1.997   3.812 -0.2450  2.3940  1.4718
 4590SOL    HW225233   3.294   2.035   3.820 -0.3065  0.3646  0.6069
 4591SOL     OW25234   0.740   1.784   7.699 -0.1593 -0.5139 -0.0087
 4591SOL    HW125235   0.762   1.810   7.789  0.9621 -2.5599  0.2892
 4591SOL    HW225236   0.750   1.689   7.703 -1.4688 -0.6583 -0.2245
 4592SOL     OW25237   2.550   2.636   1.241  0.4330 -0.0533  0.4014
 4592SOL    HW125238   2.572   2.543   1.235  0.2277 -0.0590 -0.2058
 4592SOL    HW225239   2.624   2.685   1.207 -0.2088 -0.7313 -1.9517
 4593SOL     OW25240   4.497   0.321  12.469  0.9776 -0.0328 -0.2654
 4593SOL    HW125241   4.553   0.276  12.406 -2.1474 -1.3229 -2.1200
 4593SOL    HW225242   4.425   0.352  12.415  0.3050  2.3166  1.9532
 4594SOL     OW25243   4.291   4.240   2.688 -0.3574  0.3838  1.0996
 4594SOL    HW125244   4.367   4.182   2.678 -0.5527  0.6112 -1.7309
 4594SOL    HW225245   4.228   4.189   2.738  0.3956 -0.3251  1.3183
 4595SOL     OW25246   2.973   1.382   5.645 -0.1311  0.2895  0.1188
 4595SOL    HW125247   2.889   1.340   5.663 -0.5956  2.1327  2.2705
 4595SOL    HW225248   2.998   1.387   5.738 -0.8383  1.2371  0.2567
 4596SOL     OW25249   1.424   3.492  15.078  0.1959  0.6826  0.1336
 4596SOL    HW125250   1.411   3.464  15.169  3.9184  2.2210  1.1089
 4596SOL    HW225251   1.466   3.414  15.041  2.1681  1.9495 -0.2749
 4597SOL     OW25252   2.574   0.210   7.808  0.3577 -0.3705 -0.1251
 4597SOL    HW125253   2.598   0.127   7.768  0.3726 -0.6757  0.5283
 4597SOL    HW225254   2.621   0.208   7.891  2.0448  0.2755 -1.0678
 4598SOL     OW25255   1.099   1.361   1.169  1.1315 -0.3322 -0.5633
 4598SOL    HW125256   1.068   1.429   1.109 -3.0491 -1.8386 -0.1189
 4598SOL    HW225257   1.177   1.398   1.209 -0.3197  3.0464 -0.9023
 4599SOL     OW25258   2.706   0.215   9.389  0.1398 -0.2743 -0.4445
 4599SOL    HW125259   2.795   0.234   9.361  0.5125 -0.9042  0.3269
 4599SOL    HW225260   2.672   0.170   9.311  0.5083  2.0495 -1.9818
 4600SOL     OW25261   0.491   1.887  10.570 -0.3072 -1.0448 -0.3459
 4600SOL    HW125262   0.395   1.892  10.571 -0.3029 -1.5138  1.1182
 4600SOL    HW225263   0.500   1.792  10.576 -0.3402 -1.1723 -2.1418
 4601SOL     OW25264   4.630   1.516   8.620 -0.2138  0.1500 -0.2008
 4601SOL    HW125265   4.701   1.453   8.636  0.1773  1.0755  1.7571
 4601SOL    HW225266   4.584   1.469   8.550 -0.0841 -0.8599  0.3842
 4602SOL     OW25267   4.299   1.318   4.663 -0.0053  0.0482 -0.1538
 4602SOL    HW125268   4.386   1.314   4.623 -0.5833  2.1292 -1.6337
 4602SOL    HW225269   4.309   1.336   4.756  0.3500 -1.0091  0.0132
 4603SOL     OW25270   1.858   1.139  15.384  0.1972  0.3226 -0.2895
 4603SOL    HW125271   1.801   1.117  15.458  0.0225  2.7277  0.2824
 4603SOL    HW225272   1.860   1.060  15.330 -0.4504 -0.8137  1.3519
 4604SOL     OW25273   1.138   0.271   9.708  0.3408 -0.4322 -0.8108
 4604SOL    HW125274   1.113   0.189   9.751 -2.1933  0.0504 -1.3742
 4604SOL    HW225275   1.103   0.335   9.770 -1.9396 -2.1072 -0.3678
 4605SOL     OW25276   0.216   1.285   1.720 -0.3295 -0.5650  0.4410
 4605SOL    HW125277   0.254   1.319   1.639  2.3996 -2.4401  0.9244
 4605SOL    HW225278   0.136   1.240   1.693 -0.7517  0.3591  0.1777
 4606SOL     OW25279   4.244   3.812  10.668 -0.0671  0.0441  0.1335
 4606SOL    HW125280   4.284   3.869  10.603  2.0329  0.2688  1.6036
 4606SOL    HW225281   4.161   3.794  10.624 -0.4454  1.8453  0.1067
 4607SOL     OW25282   2.036   4.146   8.254 -0.1254 -0.3718  0.1297
 4607SOL    HW125283   2.131   4.144   8.265 -0.2855  1.5079  1.7885
 4607SOL    HW225284   2.027   4.147   8.158  2.5511  0.2592 -0.1317
 4608SOL     OW25285   2.708   2.237   7.501  0.2083  0.0632 -0.5580
 4608SOL    HW125286   2.653   2.256   7.577 -1.0371  0.1283 -1.4776
 4608SOL    HW225287   2.637   2.212   7.443 -0.3502 -0.1884  0.2330
 4609SOL     OW25288   1.256   1.713   5.820 -0.4826  0.4782 -0.3295
 4609SOL    HW125289   1.188   1.778   5.802 -3.2367 -2.2256  0.3946
 4609SOL    HW225290   1.292   1.751   5.900  0.4501  0.5784 -0.7944
 4610SOL     OW25291   0.858   1.760   0.730  0.1573 -0.0322  0.2408
 4610SOL    HW125292   0.775   1.794   0.763 -0.2732  0.8330 -1.7419
 4610SOL    HW225293   0.832   1.707   0.655  0.7707 -0.1624  0.1172
 4611SOL     OW25294   0.855   1.089  14.991 -0.3964  0.9095 -0.6080
 4611SOL    HW125295   0.920   1.155  15.016 -0.5583  0.5468  0.7760
 4611SOL    HW225296   0.850   1.021  15.058  0.0858 -1.6619 -3.1542
 4612SOL     OW25297   1.850   2.112   5.940  0.5417  0.1466  0.2963
 4612SOL    HW125298   1.866   2.046   5.873  1.9647  1.7493 -0.9377
 4612SOL    HW225299   1.875   2.066   6.021 -1.8895 -0.9568  0.4260
 4613SOL     OW25300   1.821   2.477  11.031 -0.4502 -0.0184  0.0599
 4613SOL    HW125301   1.733   2.479  11.069 -0.5248 -1.1360 -0.0805
 4613SOL    HW225302   1.838   2.560  10.986 -0.3842  0.9193  1.7939
 4614SOL     OW25303   3.207   4.201  14.803 -0.4256 -0.0654  0.4697
 4614SOL    HW125304   3.187   4.279  14.854 -1.7540 -1.6386  2.4032
 4614SOL    HW225305   3.268   4.243  14.744  0.9026 -0.9702  1.1739
 4615SOL     OW25306   2.513   2.805   8.590  0.0089 -0.1795 -0.5047
 4615SOL    HW125307   2.601   2.781   8.561  0.2242  1.8395 -1.5389
 4615SOL    HW225308   2.525   2.886   8.639 -0.9870 -1.3567  1.6787
 4616SOL     OW25309   3.872   3.866   4.919 -0.0934  0.4419  0.5051
 4616SOL    HW125310   3.905   3.954   4.935  0.4149 -0.1622  2.7837
 4616SOL    HW225311   3.786   3.875   4.958 -0.8606  1.9469 -1.5633
 4617SOL     OW25312   2.035   4.179   1.005 -0.0799  0.0069  0.1497
 4617SOL    HW125313   2.034   4.134   0.920  0.6167  1.6033 -0.7088
 4617SOL    HW225314   2.075   4.264   0.987  0.4481 -0.7909 -2.5461
 4618SOL     OW25315   0.019   0.297  10.700 -0.6803 -0.2847  0.1845
 4618SOL    HW125316   4.707   0.274  10.615 -0.5266  1.1753 -0.2918
 4618SOL    HW225317   4.665   0.326  10.744  0.3481  1.8336  0.6729
 4619SOL     OW25318   2.037   1.606   9.848  0.4344 -0.0871  0.5233
 4619SOL    HW125319   2.131   1.596   9.855  0.4807 -1.3386 -1.9145
 4619SOL    HW225320   2.003   1.537   9.791  1.6881  2.6131 -3.4589
 4620SOL     OW25321   1.659   2.919   7.678 -0.4068  0.5361 -0.0700
 4620SOL    HW125322   1.693   2.972   7.750 -1.0778  1.8647 -0.7207
 4620SOL    HW225323   1.565   2.923   7.692 -0.3365 -1.1515  0.8606
 4621SOL     OW25324   2.334   2.738   5.376  0.2504  1.1319 -0.5133
 4621SOL    HW125325   2.388   2.700   5.445  1.0826  3.5919  0.1785
 4621SOL    HW225326   2.378   2.821   5.359 -0.3852  0.9448 -3.0903
 4622SOL     OW25327   2.359   0.252   9.593  0.8993 -0.0096 -0.3100
 4622SOL    HW125328   2.400   0.304   9.525  2.2399  0.7845  1.0971
 4622SOL    HW225329   2.407   0.293   9.665 -1.0428 -1.4742  1.8408
 4623SOL     OW25330   0.487   0.734  14.184  0.5002 -0.1904  0.2693
 4623SOL    HW125331   0.478   0.790  14.261  0.7533  0.7497 -0.3779
 4623SOL    HW225332   0.535   0.663  14.226  2.8298  1.6845  0.7770
 4624SOL     OW25333   3.872   3.607   3.312  0.1561 -0.2697 -0.2518
 4624SOL    HW125334   3.831   3.638   3.393 -0.7312 -1.8144 -0.0918
 4624SOL    HW225335   3.801   3.570   3.259  1.5245  0.2839 -2.4703
 4625SOL     OW25336   4.482   0.426   7.912 -0.3043 -0.3417 -0.4181
 4625SOL    HW125337   4.526   0.347   7.944  1.4060  0.5783 -0.4990
 4625SOL    HW225338   4.436   0.453   7.992  0.1245  0.9962 -0.6352
 4626SOL     OW25339   4.530   3.970  10.418  0.5022  0.3257  0.5494
 4626SOL    HW125340   4.482   4.025  10.480  0.6368  0.7308  0.2999
 4626SOL    HW225341   4.585   3.906  10.462  2.2968 -0.6892 -3.1382
 4627SOL     OW25342   3.135   0.473   5.326  0.2847 -0.5054 -0.0944
 4627SOL    HW125343   3.093   0.390   5.301  1.4513 -0.9227 -0.6538
 4627SOL    HW225344   3.058   0.529   5.333  0.9761  0.6729 -2.1524
 4628SOL     OW25345   2.112   1.434  11.280 -0.2233 -0.1498 -0.0452
 4628SOL    HW125346   2.141   1.485  11.355  2.0193 -0.2245 -0.8447
 4628SOL    HW225347   2.067   1.362  11.325  1.1416 -1.0832 -0.1662
 4629SOL     OW25348   3.720   1.786   9.600  0.2106  0.3740  0.4304
 4629SOL    HW125349   3.689   1.775   9.510  1.0048  1.4490  0.0292
 4629SOL    HW225350   3.762   1.872   9.601  2.7390 -0.8208 -3.0142
 4630SOL     OW25351   0.427   4.462   4.229  0.5032  0.0205 -0.4957
 4630SOL    HW125352   0.498   4.485   4.169  1.2425 -1.7627 -0.3182
 4630SOL    HW225353   0.476   4.439   4.308 -2.0322 -0.4738  0.9191
 4631SOL     OW25354   2.767   3.230   9.560  0.2078  0.7839 -0.1377
 4631SOL    HW125355   2.759   3.197   9.471  0.3567  1.0537 -0.2489
 4631SOL    HW225356   2.782   3.324   9.551  0.6577  0.6644 -0.6162
 4632SOL     OW25357   3.814   1.326  14.197 -0.3016 -0.2652 -0.0450
 4632SOL    HW125358   3.731   1.280  14.203  0.7398 -2.1153  0.2757
 4632SOL    HW225359   3.862   1.287  14.271 -0.6856 -2.8674 -1.1725
 4633SOL     OW25360   1.526   0.923   9.693  0.1982  0.5501 -0.0546
 4633SOL    HW125361   1.496   1.004   9.653  0.9117  1.0559  0.4500
 4633SOL    HW225362   1.497   0.861   9.625  1.0864 -0.4815  0.4989
 4634SOL     OW25363   3.925   2.252  12.082 -0.3212 -0.2841 -0.5148
 4634SOL    HW125364   3.895   2.161  12.087 -0.5055 -0.2269 -0.5633
 4634SOL    HW225365   3.853   2.302  12.123  0.6503  0.2956  0.4769
 4635SOL     OW25366   4.331   2.283   1.713 -0.0106  0.1253 -0.0223
 4635SOL    HW125367   4.304   2.372   1.689 -0.5759 -0.1466 -0.3702
 4635SOL    HW225368   4.382   2.256   1.636 -0.9629  2.3441 -1.4291
 4636SOL     OW25369   1.601   2.497   3.631 -0.9763 -0.1000 -0.7115
 4636SOL    HW125370   1.667   2.552   3.590 -0.6022  0.0961  0.1462
 4636SOL    HW225371   1.625   2.414   3.591  0.3521 -0.5448  1.0065
 4637SOL     OW25372   3.107   2.767  13.741 -0.1026 -0.1522 -0.3445
 4637SOL    HW125373   3.170   2.725  13.799 -1.1294 -0.6694  0.3890
 4637SOL    HW225374   3.024   2.770  13.788 -0.7082 -1.5679 -1.3198
 4638SOL     OW25375   4.336   4.631   9.600 -0.0784  0.0695 -0.5423
 4638SOL    HW125376   4.361   4.711   9.552 -1.3001 -0.4981 -2.1175
 4638SOL    HW225377   4.315   4.670   9.685  0.3382 -0.3758 -0.2355
 4639SOL     OW25378   3.607   0.363  14.246 -0.4866 -0.3317 -0.2635
 4639SOL    HW125379   3.628   0.443  14.294 -1.4708  0.3230 -0.9102
 4639SOL    HW225380   3.511   0.365  14.248 -0.4796  0.4676 -0.7698
 4640SOL     OW25381   3.699   1.689   2.397  0.3938  0.0647 -0.1430
 4640SOL    HW125382   3.696   1.605   2.443 -0.4086 -0.9189 -2.0104
 4640SOL    HW225383   3.757   1.734   2.459 -0.8954  0.4962  0.7637
 4641SOL     OW25384   1.592   0.009   4.431 -0.1965  0.2272  0.0004
 4641SOL    HW125385   1.549   0.017   4.346 -0.7949  0.1218  0.2898
 4641SOL    HW225386   1.522   0.064   4.468 -0.1547  0.3366 -0.0852
 4642SOL     OW25387   4.682   3.533  16.823  0.7309  0.4210  0.1493
 4642SOL    HW125388   4.624   3.609  16.825  1.4688  0.9740  0.4827
 4642SOL    HW225389   4.639   3.463  16.873  1.3075  1.3750  1.9746
 4643SOL     OW25390   0.407   1.063   0.844 -0.3291 -0.2370  0.6742
 4643SOL    HW125391   0.366   1.009   0.912  1.2592 -0.0042  1.8266
 4643SOL    HW225392   0.414   0.994   0.778 -0.1884  2.4335 -2.0788
 4644SOL     OW25393   0.070   0.792   5.049 -0.2359  0.1570 -0.3933
 4644SOL    HW125394   0.107   0.839   5.124  1.1166 -1.2403 -0.1666
 4644SOL    HW225395   0.056   0.711   5.098  1.7803 -0.8321 -1.4352
 4645SOL     OW25396   4.721   1.233   8.192 -0.0606  0.2391 -0.2211
 4645SOL    HW125397   4.706   1.188   8.108 -4.4776  1.7377 -0.2153
 4645SOL    HW225398   4.631   1.263   8.205  0.1029  0.5358  0.1994
 4646SOL     OW25399   4.167   2.303   4.495  0.3208  0.1431  0.1228
 4646SOL    HW125400   4.200   2.214   4.492  1.4207  0.6198 -1.3285
 4646SOL    HW225401   4.076   2.298   4.466 -0.2011  1.7871  1.4508
 4647SOL     OW25402   4.671   0.681   3.477  0.5873  0.6268 -0.0906
 4647SOL    HW125403   0.034   0.667   3.512 -0.0825 -0.9666  0.9678
 4647SOL    HW225404   4.643   0.593   3.450  0.9059  1.0802 -1.9109
 4648SOL     OW25405   3.802   2.315   0.241  0.0054 -0.3167  0.3733
 4648SOL    HW125406   3.736   2.350   0.301  0.4145  0.8457  0.1429
 4648SOL    HW225407   3.769   2.365   0.166  1.0584 -0.8051 -0.4086
 4649SOL     OW25408   1.812   3.801   8.772  0.1464  0.6718  0.3587
 4649SOL    HW125409   1.789   3.711   8.795  0.8840  0.2094 -0.7412
 4649SOL    HW225410   1.736   3.850   8.802 -0.9450 -1.5751  1.3122
 4650SOL     OW25411   0.466   0.316  16.326 -0.6746  0.7201  0.2461
 4650SOL    HW125412   0.418   0.384  16.374 -1.7013  0.7763 -0.8646
 4650SOL    HW225413   0.552   0.312  16.369 -0.6872 -0.5297  0.1412
 4651SOL     OW25414   1.746   0.903   9.439  0.0706  0.0698  0.6557
 4651SOL    HW125415   1.703   0.818   9.436 -2.1685  1.2874 -2.1557
 4651SOL    HW225416   1.694   0.958   9.380 -2.2611 -0.7540  1.9228
 4652SOL     OW25417   1.072   3.917  15.717 -0.6950 -0.1743 -0.1969
 4652SOL    HW125418   1.024   3.965  15.649 -1.2548 -1.3506 -0.6229
 4652SOL    HW225419   1.164   3.931  15.693 -0.1864 -1.1762  1.1838
 4653SOL     OW25420   1.533   1.744   5.774  0.2382  0.6117  0.1789
 4653SOL    HW125421   1.438   1.747   5.775  0.2236 -0.7577  1.5629
 4653SOL    HW225422   1.543   1.662   5.822  2.1516  0.8048  0.1416
 4654SOL     OW25423   1.808   0.035   9.188  0.3326  0.3738  0.1307
 4654SOL    HW125424   1.877   4.713   9.143  0.7019 -0.2103  1.3280
 4654SOL    HW225425   1.828   0.023   9.280  0.5263 -0.2247  0.0063
 4655SOL     OW25426   2.657   3.282   3.685  0.2078  0.1800 -0.2124
 4655SOL    HW125427   2.717   3.208   3.676 -1.2311 -1.0385  0.0245
 4655SOL    HW225428   2.722   3.350   3.670  2.3532 -1.9385 -0.5194
 4656SOL     OW25429   0.572   0.790   9.129  0.1865 -0.5701  0.3150
 4656SOL    HW125430   0.590   0.807   9.221  1.6072 -0.5136  0.0274
 4656SOL    HW225431   0.629   0.713   9.124  0.4892 -0.4220  1.7446
 4657SOL     OW25432   1.889   1.769  16.474 -0.2605 -0.1682 -0.5987
 4657SOL    HW125433   1.815   1.712  16.454  1.3676 -2.4603 -0.0581
 4657SOL    HW225434   1.912   1.801  16.387 -0.7566  0.4268 -0.5170
 4658SOL     OW25435   2.959   2.087   0.645  0.5446 -0.4106 -0.1400
 4658SOL    HW125436   3.028   2.083   0.579  0.4871 -1.5539 -0.1262
 4658SOL    HW225437   2.887   2.041   0.603  0.5347  0.0446 -0.6151
 4659SOL     OW25438   3.654   4.019  16.675 -0.4708  0.9463  0.1435
 4659SOL    HW125439   3.705   4.023  16.756 -2.1226 -1.3155  1.3275
 4659SOL    HW225440   3.568   4.008  16.716  0.6326 -0.7714  2.0199
 4660SOL     OW25441   0.716   0.417   1.243  0.7373 -0.2308 -0.0083
 4660SOL    HW125442   0.649   0.469   1.289  2.2939  0.9317  0.9544
 4660SOL    HW225443   0.779   0.482   1.211 -1.5638  1.2125 -1.6323
 4661SOL     OW25444   4.263   1.856   6.515 -0.1106 -0.1165 -0.0179
 4661SOL    HW125445   4.332   1.911   6.479 -0.1051 -0.1616 -0.0747
 4661SOL    HW225446   4.296   1.771   6.487 -2.9154 -0.5788 -1.9252
 4662SOL     OW25447   3.827   0.982   8.932 -0.5787 -0.2304  0.3183
 4662SOL    HW125448   3.900   0.936   8.891  0.4014  1.2044  0.4331
 4662SOL    HW225449   3.778   0.910   8.971  0.9522  0.6887  3.8666
 4663SOL     OW25450   2.955   2.768   5.493 -0.9458  0.3231 -0.0699
 4663SOL    HW125451   2.945   2.692   5.550 -2.4885 -0.6985 -1.7425
 4663SOL    HW225452   3.042   2.804   5.512 -0.5555 -0.5956 -0.1414
 4664SOL     OW25453   1.525   1.043   5.837  0.3418  0.3683 -0.2575
 4664SOL    HW125454   1.472   1.031   5.916  0.8867  0.4362  0.1143
 4664SOL    HW225455   1.596   1.092   5.879 -0.6032 -0.0248  1.7965
 4665SOL     OW25456   1.028   1.861  10.307 -0.4749 -0.1457  0.6510
 4665SOL    HW125457   1.093   1.798  10.338  0.7790 -0.0492 -1.7996
 4665SOL    HW225458   0.965   1.808  10.260  1.2408 -2.8890  1.4185
 4666SOL     OW25459   1.347   1.490   7.846  0.3871 -0.0036 -0.6177
 4666SOL    HW125460   1.398   1.433   7.904 -0.9490  0.5397  1.0743
 4666SOL    HW225461   1.296   1.420   7.805 -1.0617  1.8447 -1.9578
 4667SOL     OW25462   1.384   1.656   8.117 -0.2237 -0.1522  0.6467
 4667SOL    HW125463   1.306   1.705   8.092 -0.5835 -1.0688 -0.0659
 4667SOL    HW225464   1.336   1.574   8.129  1.8816 -1.8509 -2.3118
 4668SOL     OW25465   2.908   1.594   8.693 -0.5349 -0.1493 -0.0706
 4668SOL    HW125466   2.870   1.517   8.652  0.1655 -0.2234 -0.5912
 4668SOL    HW225467   2.973   1.568   8.759  0.6875  0.6093 -0.9545
 4669SOL     OW25468   1.335   2.159  17.275  0.4251  0.4033  0.2376
 4669SOL    HW125469   1.309   2.067  17.272  3.9239 -0.5991 -0.1273
 4669SOL    HW225470   1.407   2.158  17.339  0.3079 -1.1091  0.3615
 4670SOL     OW25471   0.852   3.429   7.750 -0.1092  0.1318 -0.7152
 4670SOL    HW125472   0.778   3.412   7.692 -1.4708  1.8895  0.4935
 4670SOL    HW225473   0.812   3.419   7.836  2.9071 -0.4842  0.6257
 4671SOL     OW25474   2.134   0.475   5.950  0.1360 -0.1332  0.1690
 4671SOL    HW125475   2.146   0.389   5.990 -1.8424 -1.3754 -1.8820
 4671SOL    HW225476   2.170   0.530   6.019 -2.2446  1.1759  0.3392
 4672SOL     OW25477   0.606   2.239   6.933 -0.3473  0.0216 -0.2005
 4672SOL    HW125478   0.552   2.209   6.860  0.6971 -1.4907 -0.3272
 4672SOL    HW225479   0.693   2.230   6.894  0.3758  1.1726  1.1668
 4673SOL     OW25480   2.205   2.480   2.046 -0.1606  0.6763 -0.6032
 4673SOL    HW125481   2.215   2.560   1.994 -1.1454  0.4168 -1.1887
 4673SOL    HW225482   2.169   2.522   2.124 -0.9423  1.2866 -1.2953
 4674SOL     OW25483   3.811   4.635   8.962  0.3962 -0.2290  0.4369
 4674SOL    HW125484   3.824   4.640   9.057  2.1292 -0.1652  0.2056
 4674SOL    HW225485   3.889   4.588   8.931  0.8478  0.0158  1.1870
 4675SOL     OW25486   1.977   2.270   1.103 -0.3728  0.0104  0.2515
 4675SOL    HW125487   2.036   2.222   1.045  2.0073  1.3650  1.5601
 4675SOL    HW225488   1.924   2.199   1.140 -0.8333 -0.7195 -1.8201
 4676SOL     OW25489   4.130   1.459  11.681 -0.5815  0.3221 -0.3141
 4676SOL    HW125490   4.081   1.436  11.602 -0.0155  1.1101 -0.8888
 4676SOL    HW225491   4.071   1.427  11.749  1.3726 -0.5461  0.9815
 4677SOL     OW25492   1.829   1.052   3.119 -0.4787  0.3627  0.0645
 4677SOL    HW125493   1.801   1.102   3.195 -2.1119  2.3040 -1.8080
 4677SOL    HW225494   1.745   1.011   3.095  0.7503 -0.7275 -2.3795
 4678SOL     OW25495   2.872   2.953   2.634 -0.7219  0.3217 -0.0735
 4678SOL    HW125496   2.949   2.928   2.684 -1.5556 -1.2867  0.4049
 4678SOL    HW225497   2.854   2.868   2.594  1.9079 -0.7802  1.0696
 4679SOL     OW25498   0.515   1.197   8.820 -0.7096  0.4086 -0.3412
 4679SOL    HW125499   0.607   1.205   8.796 -0.6711  1.4721  0.1368
 4679SOL    HW225500   0.514   1.258   8.894  0.9446  1.6038 -1.3133
 4680SOL     OW25501   0.043   0.915  13.827 -0.6667  0.7103  0.1543
 4680SOL    HW125502   0.059   0.989  13.768  0.2590  0.7677  0.4830
 4680SOL    HW225503   4.681   0.883  13.805 -0.3326 -1.0998  1.4183
 4681SOL     OW25504   4.049   3.347  10.330 -0.4686 -0.0369  0.1797
 4681SOL    HW125505   3.977   3.342  10.266 -0.8696  1.7412  0.5108
 4681SOL    HW225506   4.024   3.285  10.399  0.0431  0.3846  0.7323
 4682SOL     OW25507   4.405   0.590   3.702  0.1036  0.1471  0.0152
 4682SOL    HW125508   4.377   0.569   3.612  0.2541 -0.9170  0.2104
 4682SOL    HW225509   4.323   0.635   3.720 -0.5023 -0.3771 -1.3565
 4683SOL     OW25510   2.934   0.165   6.900  0.0644  0.4649 -0.1973
 4683SOL    HW125511   2.872   0.230   6.933  0.6782  1.1710 -0.4289
 4683SOL    HW225512   3.015   0.217   6.894 -0.2251  0.9605  0.2668
 4684SOL     OW25513   4.601   2.786   6.766 -0.6471 -0.5282  0.3655
 4684SOL    HW125514   4.581   2.832   6.847 -0.1711  1.1486 -0.4734
 4684SOL    HW225515   4.671   2.836   6.725 -0.5889 -0.7556  0.1882
 4685SOL     OW25516   2.239   2.978   9.385  0.0808  0.3625 -0.3498
 4685SOL    HW125517   2.248   2.958   9.478  0.7168  2.1845 -0.0150
 4685SOL    HW225518   2.154   2.939   9.363  0.1995 -0.1508  0.1078
 4686SOL     OW25519   1.550   2.674   2.448  0.2598 -0.6980 -0.7438
 4686SOL    HW125520   1.529   2.767   2.436  0.6430 -0.5724 -0.4534
 4686SOL    HW225521   1.638   2.676   2.413  1.2706  1.0569  1.8733
 4687SOL     OW25522   1.825   0.411   9.601  0.1264 -0.0314  0.4543
 4687SOL    HW125523   1.789   0.325   9.622  0.6790 -0.6009 -0.9824
 4687SOL    HW225524   1.746   0.463   9.613  0.4162  0.9060 -1.7473
 4688SOL     OW25525   0.840   1.016   1.643  0.0220  0.9447  0.2570
 4688SOL    HW125526   0.813   0.968   1.565  0.3174  0.9188  0.1713
 4688SOL    HW225527   0.754   1.031   1.683  0.0048  0.2365  0.4785
 4689SOL     OW25528   0.153   3.583   2.546 -0.4266  0.5284  0.1415
 4689SOL    HW125529   0.123   3.634   2.621 -1.4686  0.3037 -0.1132
 4689SOL    HW225530   0.206   3.648   2.501  0.3432 -0.1809  0.0279
 4690SOL     OW25531   4.634   1.896   0.795  0.1371  0.9509  1.0093
 4690SOL    HW125532   4.711   1.869   0.845  0.6044  2.1687  0.9535
 4690SOL    HW225533   4.586   1.934   0.868 -0.9368 -2.3940  2.0776
 4691SOL     OW25534   1.597   3.801   2.288 -0.2280  0.1052  0.1124
 4691SOL    HW125535   1.621   3.755   2.207 -1.9467 -1.1208  0.3105
 4691SOL    HW225536   1.517   3.756   2.314 -0.7155  0.5738 -0.5870
 4692SOL     OW25537   3.961   4.358  16.083  0.0842 -0.6735  0.3128
 4692SOL    HW125538   3.963   4.304  16.161  2.9450  1.5119  1.7357
 4692SOL    HW225539   3.898   4.425  16.110  2.2313  1.3393  0.3688
 4693SOL     OW25540   0.326   2.767  11.779 -0.2082 -0.1071 -0.2154
 4693SOL    HW125541   0.345   2.772  11.685  0.0841 -0.4663 -0.1736
 4693SOL    HW225542   0.406   2.730  11.816 -0.9855 -1.1244  0.4482
 4694SOL     OW25543   2.845   2.691   4.731 -0.0514 -0.5285  0.7168
 4694SOL    HW125544   2.785   2.655   4.666 -1.3228  1.4833  0.8006
 4694SOL    HW225545   2.787   2.683   4.807 -3.0081  0.4411 -1.4536
 4695SOL     OW25546   1.541   0.097  17.676  0.1540  0.3219  0.1416
 4695SOL    HW125547   1.555   0.003  17.664 -0.1816  0.1588  1.0106
 4695SOL    HW225548   1.514   0.117  17.587 -0.8218  0.5026  0.4844
 4696SOL     OW25549   4.263   3.623   1.790 -0.1115 -0.2104 -0.5574
 4696SOL    HW125550   4.196   3.622   1.722  1.3166  1.9651 -1.9956
 4696SOL    HW225551   4.210   3.620   1.869  1.1723  0.2262  0.3145
 4697SOL     OW25552   2.876   1.636   3.759  0.3298  0.1358  0.4731
 4697SOL    HW125553   2.939   1.705   3.777  0.5801  0.5503 -1.9567
 4697SOL    HW225554   2.836   1.618   3.844  0.8294  0.5082  0.7856
 4698SOL     OW25555   3.306   0.044   3.971 -0.3298 -0.4159 -0.3923
 4698SOL    HW125556   3.305   4.716   3.892  1.5211 -0.6891 -0.2239
 4698SOL    HW225557   3.271   0.119   3.922  0.3547  0.9764  1.2569
 4699SOL     OW25558   0.384   1.539   7.898  0.8877  0.4609  0.6831
 4699SOL    HW125559   0.292   1.514   7.910  0.5630  0.8908 -0.8619
 4699SOL    HW225560   0.428   1.454   7.903  0.2687  0.1332  0.5773
 4700SOL     OW25561   0.617   0.698   4.016 -0.6059 -0.0529  0.3090
 4700SOL    HW125562   0.584   0.772   3.965 -0.6140  0.3731  0.9284
 4700SOL    HW225563   0.710   0.711   4.034 -0.2744 -2.1599  0.1059
 4701SOL     OW25564   1.028   3.673   4.808 -0.5681 -0.0962  0.4198
 4701SOL    HW125565   1.058   3.628   4.728  1.4646  0.4447  0.8779
 4701SOL    HW225566   1.065   3.619   4.878  0.9362 -1.5877 -1.4945
 4702SOL     OW25567   0.029   0.669   4.535  0.1022  0.2213 -0.4596
 4702SOL    HW125568   4.683   0.625   4.489 -0.1299  2.6158 -2.3958
 4702SOL    HW225569   0.001   0.655   4.626  0.0635  2.6261 -0.0871
 4703SOL     OW25570   4.077   2.331   8.620  0.3516  0.6496 -0.5585
 4703SOL    HW125571   4.059   2.423   8.636 -1.4549  0.7269 -2.9700
 4703SOL    HW225572   4.124   2.339   8.538 -0.3445 -1.0719 -1.1396
 4704SOL     OW25573   0.697   1.281  17.087  0.0149 -0.1641  0.2310
 4704SOL    HW125574   0.751   1.326  17.153  0.7983  1.8274 -1.7870
 4704SOL    HW225575   0.710   1.334  17.009 -0.5043  1.5184  1.3044
 4705SOL     OW25576   1.824   3.287   8.892 -0.2962 -0.3051  0.3408
 4705SOL    HW125577   1.804   3.321   8.979  0.4814  0.0007  0.4037
 4705SOL    HW225578   1.919   3.293   8.900 -0.1771  0.1994 -1.5341
 4706SOL     OW25579   0.352   1.837   7.328 -0.1036  0.0227 -0.7017
 4706SOL    HW125580   0.444   1.815   7.343  0.5265  3.1503  0.0766
 4706SOL    HW225581   0.313   1.836   7.415  0.5274  2.4305 -0.3877
 4707SOL     OW25582   4.384   4.595   7.540 -0.3893  0.5468  0.1422
 4707SOL    HW125583   4.466   4.641   7.558 -0.0470 -1.0727  2.6713
 4707SOL    HW225584   4.412   4.504   7.549 -1.8893  0.0125 -0.6063
 4708SOL     OW25585   0.863   2.033  17.697  0.0167 -0.3021  0.5450
 4708SOL    HW125586   0.809   2.041   0.072 -0.3319  1.7439  0.0744
 4708SOL    HW225587   0.799   2.053  17.629  1.2614 -0.2824 -0.6240
 4709SOL     OW25588   0.812   2.078  12.281 -0.1068  0.8080 -0.4909
 4709SOL    HW125589   0.797   1.986  12.258  1.5223  0.6440 -0.9534
 4709SOL    HW225590   0.904   2.066  12.307 -0.3006 -0.4111 -0.3798
 4710SOL     OW25591   0.294   3.444  14.188  0.0056 -0.2388  0.4788
 4710SOL    HW125592   0.314   3.358  14.152 -1.6203 -0.6061  0.4657
 4710SOL    HW225593   0.349   3.502  14.134 -0.0420 -1.1820 -0.5633
 4711SOL     OW25594   4.041   1.150   1.688 -0.8057  0.6500  0.1965
 4711SOL    HW125595   3.962   1.134   1.739  0.1147 -1.0348  1.1127
 4711SOL    HW225596   4.112   1.166   1.750  0.1411  1.1512 -1.0179
 4712SOL     OW25597   3.796   2.753  10.711 -0.5050  0.3350  0.0353
 4712SOL    HW125598   3.717   2.749  10.657  0.3424 -1.6796 -1.0945
 4712SOL    HW225599   3.779   2.816  10.780  3.9014  0.6891  0.7831
 4713SOL     OW25600   1.093   3.440   6.498 -0.1067 -0.2325  0.8293
 4713SOL    HW125601   1.003   3.411   6.507  0.6816 -2.7845  0.5743
 4713SOL    HW225602   1.141   3.360   6.520  0.1186 -0.1934  0.4927
 4714SOL     OW25603   4.180   4.442   2.181 -0.1113  0.3644  0.1505
 4714SOL    HW125604   4.140   4.378   2.241 -0.3815  2.3303  2.0712
 4714SOL    HW225605   4.196   4.511   2.246  2.1655  1.1129 -1.2353
 4715SOL     OW25606   3.638   0.653   9.950 -0.2870  0.1641  0.1626
 4715SOL    HW125607   3.547   0.670   9.974 -0.5572 -0.0757 -0.6893
 4715SOL    HW225608   3.634   0.695   9.864  2.6987  0.6541  0.2887
 4716SOL     OW25609   3.421   4.065  10.972  0.3522 -0.5275  0.2367
 4716SOL    HW125610   3.370   4.089  11.050 -1.2977 -0.7218 -0.7885
 4716SOL    HW225611   3.508   4.051  11.010  1.2485  1.5083 -1.0588
 4717SOL     OW25612   1.054   2.527  17.279 -0.6844 -0.5800 -0.1345
 4717SOL    HW125613   1.136   2.518  17.231 -0.0030 -0.1109  0.9625
 4717SOL    HW225614   0.987   2.544  17.212 -1.9567 -0.8789  1.0567
 4718SOL     OW25615   0.338   0.448   1.302  0.4053  0.7676  0.1574
 4718SOL    HW125616   0.380   0.474   1.219  1.0448  0.8217  0.4998
 4718SOL    HW225617   0.409   0.467   1.362  1.4363  0.7575 -1.0458
 4719SOL     OW25618   0.231   4.023   4.284  0.9017 -0.3367 -0.4278
 4719SOL    HW125619   0.188   4.087   4.226 -1.4087 -1.3694  0.1336
 4719SOL    HW225620   0.160   4.004   4.346  1.2522 -1.1141 -0.2724
 4720SOL     OW25621   3.286   4.669   8.403 -0.0362  0.5038 -0.2523
 4720SOL    HW125622   3.303   4.603   8.335  1.1175 -0.5922  1.0998
 4720SOL    HW225623   3.192   4.684   8.394 -0.1481 -1.2816 -2.1771
 4721SOL     OW25624   0.234   2.938   8.585 -0.1999  0.1290 -0.2205
 4721SOL    HW125625   0.185   2.859   8.606  0.6135 -0.4299 -0.4273
 4721SOL    HW225626   0.167   3.005   8.596 -0.8306 -0.4883 -0.2878
 4722SOL     OW25627   2.439   3.844   0.963  0.6198 -0.3472  0.1278
 4722SOL    HW125628   2.531   3.859   0.982  1.0065  0.1007 -2.1580
 4722SOL    HW225629   2.397   3.930   0.977  0.0724 -0.6072  0.1034
 4723SOL     OW25630   0.111   1.196  16.160 -0.2555  0.0004  0.1502
 4723SOL    HW125631   0.073   1.109  16.152  1.3187 -0.9257  3.1276
 4723SOL    HW225632   0.154   1.196  16.245 -0.6651  1.7835  0.3631
 4724SOL     OW25633   4.506   0.506   3.208  0.2829  0.2169 -0.0196
 4724SOL    HW125634   4.546   0.419   3.195 -2.4772 -0.7796 -1.7450
 4724SOL    HW225635   4.570   0.564   3.168  0.5601  0.3743  0.6477
 4725SOL     OW25636   3.159   1.346   7.098  0.2055 -0.8621  0.1824
 4725SOL    HW125637   3.242   1.393   7.102 -0.1256 -0.0664 -1.9588
 4725SOL    HW225638   3.149   1.307   7.184  0.5450 -1.0229  0.1469
 4726SOL     OW25639   0.690   4.388  14.872 -0.0014 -0.6884 -0.3814
 4726SOL    HW125640   0.778   4.390  14.834 -1.3435  0.6081 -3.4358
 4726SOL    HW225641   0.634   4.362  14.799 -0.6469 -1.6344  0.4425
 4727SOL     OW25642   1.544   0.619   5.557 -0.2980  0.3347  0.2808
 4727SOL    HW125643   1.539   0.629   5.462  1.9987 -1.2963 -0.0120
 4727SOL    HW225644   1.524   0.708   5.585 -3.6614  0.0156 -1.0479
 4728SOL     OW25645   2.826   4.065  11.253 -0.8383 -0.2322  0.3496
 4728SOL    HW125646   2.913   4.094  11.280 -0.6875 -2.2020  2.0741
 4728SOL    HW225647   2.846   3.982  11.210 -0.2440  1.9525 -3.5354
 4729SOL     OW25648   2.931   4.328   8.010  0.6868  0.7084  0.1896
 4729SOL    HW125649   2.896   4.398   8.066 -1.9992 -0.6676  0.2362
 4729SOL    HW225650   2.941   4.374   7.926  1.3611  0.1041 -0.0665
 4730SOL     OW25651   3.698   1.662   5.239  0.1093 -0.3833 -0.5833
 4730SOL    HW125652   3.685   1.664   5.334 -1.7623  1.4209 -0.8897
 4730SOL    HW225653   3.608   1.659   5.208 -1.1331  1.5772  2.8281
 4731SOL     OW25654   1.159   1.892   7.133  0.3411 -0.2128  0.1533
 4731SOL    HW125655   1.105   1.965   7.104 -0.4833  0.0834  2.4650
 4731SOL    HW225656   1.195   1.932   7.211 -0.0828  0.0614  0.2079
 4732SOL     OW25657   0.572   2.579   4.451  0.6983 -0.4009  0.2270
 4732SOL    HW125658   0.603   2.553   4.365 -0.1442  3.5892 -1.2842
 4732SOL    HW225659   0.657   2.596   4.491  0.7604  0.0566 -0.1019
 4733SOL     OW25660   3.343   0.853   5.889 -0.0742 -0.2241  0.0791
 4733SOL    HW125661   3.341   0.913   5.815  0.2209 -0.5395 -0.1849
 4733SOL    HW225662   3.416   0.893   5.937 -1.3419  1.4841  0.5586
 4734SOL     OW25663   2.742   2.079   4.117  0.0302  0.3782  0.2020
 4734SOL    HW125664   2.687   2.154   4.139 -0.8459 -0.2545  0.1861
 4734SOL    HW225665   2.712   2.026   4.191 -3.5460 -0.0547 -1.5298
 4735SOL     OW25666   0.910   0.920  10.452 -0.0527 -0.3859  0.4688
 4735SOL    HW125667   0.931   0.849  10.390  1.6067 -0.1932  0.8085
 4735SOL    HW225668   0.990   0.970  10.467  0.5809 -2.2476  3.2197
 4736SOL     OW25669   4.085   3.484   3.185  0.2972  0.2010  0.2538
 4736SOL    HW125670   4.000   3.516   3.215 -0.6418  0.2838 -2.4757
 4736SOL    HW225671   4.088   3.391   3.210  0.6033  0.7642  2.2715
 4737SOL     OW25672   4.712   0.891  11.812  0.0159 -1.0049  0.0489
 4737SOL    HW125673   4.718   0.899  11.716 -1.8081 -1.1021 -0.0781
 4737SOL    HW225674   4.638   0.944  11.840  1.3970  0.0545  1.6642
 4738SOL     OW25675   2.318   4.548  16.675  0.5096 -0.2433  0.3954
 4738SOL    HW125676   2.276   4.555  16.589 -1.0935  2.1322  1.3815
 4738SOL    HW225677   2.280   4.466  16.707  1.9283 -1.0000  0.1379
 4739SOL     OW25678   3.498   4.171   6.130 -0.1639 -0.0917 -0.1519
 4739SOL    HW125679   3.453   4.097   6.091  0.2181  0.3058 -1.3584
 4739SOL    HW225680   3.470   4.161   6.220  0.2429 -1.0654 -0.1299
 4740SOL     OW25681   0.688   3.120   3.989  0.4295  0.3345  0.5798
 4740SOL    HW125682   0.674   3.035   4.031 -1.3085  0.0234 -0.6372
 4740SOL    HW225683   0.774   3.145   4.022 -0.0761  2.3612  0.3578
 4741SOL     OW25684   2.457   0.648  14.576  0.8555 -0.2330  0.0636
 4741SOL    HW125685   2.545   0.642  14.538 -0.2095  1.3864 -2.6380
 4741SOL    HW225686   2.482   0.665  14.667  1.6924  0.2986 -0.2616
 4742SOL     OW25687   1.393   0.179   2.507 -0.6488 -0.0793 -0.0457
 4742SOL    HW125688   1.440   0.096   2.507 -0.8257 -0.1769  0.8069
 4742SOL    HW225689   1.466   0.242   2.512  0.3677 -1.1018 -1.9113
 4743SOL     OW25690   0.238   3.973   8.090  0.0494  0.0368 -0.4509
 4743SOL    HW125691   0.185   4.053   8.086  3.0216  2.0497  0.4419
 4743SOL    HW225692   0.307   3.995   8.153  0.9971 -0.3729 -1.3463
 4744SOL     OW25693   2.804   1.037   6.083  0.6782  0.1032 -0.0233
 4744SOL    HW125694   2.823   1.018   5.991 -3.4524 -0.2319 -0.8087
 4744SOL    HW225695   2.723   0.987   6.096  0.7268 -0.6371 -2.4524
 4745SOL     OW25696   0.324   4.427   3.571 -0.4144 -0.2243  0.3581
 4745SOL    HW125697   0.325   4.365   3.644  1.5626  1.3419  1.6294
 4745SOL    HW225698   0.255   4.487   3.601 -1.7134 -0.1937 -2.6228
 4746SOL     OW25699   1.252   0.502   3.334  0.3184  0.3447  0.0842
 4746SOL    HW125700   1.258   0.579   3.389  1.3252 -1.5706  2.6381
 4746SOL    HW225701   1.190   0.452   3.388  0.1153  0.6699  0.1552
 4747SOL     OW25702   2.465   0.509   6.094 -0.0210  0.1719  0.0645
 4747SOL    HW125703   2.448   0.464   6.177 -0.3290 -1.5420 -0.9181
 4747SOL    HW225704   2.560   0.515   6.103  0.1470  0.6639 -2.0774
 4748SOL     OW25705   3.607   0.504   9.682  0.0587 -0.4177  0.3611
 4748SOL    HW125706   3.657   0.454   9.747  1.1781 -0.4996 -0.5777
 4748SOL    HW225707   3.535   0.540   9.735  0.4788 -0.1684  0.7615
 4749SOL     OW25708   3.434   2.213  16.339 -0.4104 -0.0536  0.3160
 4749SOL    HW125709   3.455   2.230  16.247 -0.3189 -4.5406 -0.5346
 4749SOL    HW225710   3.383   2.290  16.365  0.4360  0.4667  0.4051
 4750SOL     OW25711   0.867   0.853   8.743 -0.0019  0.1854 -0.1285
 4750SOL    HW125712   0.790   0.866   8.799  0.4653 -0.0566  0.5762
 4750SOL    HW225713   0.913   0.936   8.760 -1.6644  1.1469 -0.3315
 4751SOL     OW25714   3.264   3.851  11.277  0.0493 -0.0064 -1.0688
 4751SOL    HW125715   3.289   3.888  11.362 -1.3205  2.9068 -1.9582
 4751SOL    HW225716   3.265   3.935  11.231 -2.3386  1.6276  1.8752
 4752SOL     OW25717   3.793   0.100  13.126 -0.2725  0.6393  0.8518
 4752SOL    HW125718   3.804   0.133  13.037 -2.3718  2.2646  1.1941
 4752SOL    HW225719   3.870   0.044  13.134 -1.0921 -0.3251  1.9801
 4753SOL     OW25720   1.588   4.116   8.197  0.1390  0.3243 -0.0860
 4753SOL    HW125721   1.640   4.036   8.201 -0.5388 -0.1662 -1.1880
 4753SOL    HW225722   1.612   4.157   8.114  0.0436  1.3957  0.4164
 4754SOL     OW25723   1.148   0.912   0.918 -0.3452 -0.0416  0.5679
 4754SOL    HW125724   1.212   0.844   0.937 -0.4495  0.3680  2.3804
 4754SOL    HW225725   1.183   0.988   0.965 -1.8535  0.8033  0.3152
 4755SOL     OW25726   3.433   1.688  10.013  0.3410  0.1152 -0.3441
 4755SOL    HW125727   3.404   1.634  10.086 -1.4471  0.5962 -0.7007
 4755SOL    HW225728   3.380   1.768  10.017  0.1671 -0.1316  1.9215
 4756SOL     OW25729   3.043   1.041   6.910 -0.2172  0.7229  0.1739
 4756SOL    HW125730   3.104   0.974   6.879  1.9696  2.4411  0.7365
 4756SOL    HW225731   3.105   1.112   6.927 -0.3256  0.7657  0.3781
 4757SOL     OW25732   3.537   1.306   9.082 -0.4577  0.3284  0.3353
 4757SOL    HW125733   3.607   1.354   9.038 -1.8296  3.2028  1.2680
 4757SOL    HW225734   3.562   1.318   9.174 -0.1781 -0.4567  0.3602
 4758SOL     OW25735   1.334   2.692   7.588 -0.2604  0.1486 -0.0421
 4758SOL    HW125736   1.244   2.683   7.619  0.2841  0.3424  1.6042
 4758SOL    HW225737   1.357   2.782   7.611 -2.1451  0.2622  1.4322
 4759SOL     OW25738   4.658   1.364  17.020 -0.3253  0.2421 -0.1392
 4759SOL    HW125739   4.573   1.382  16.981  0.0733  2.7436  0.1482
 4759SOL    HW225740   4.633   1.347  17.110  0.9760  0.2131  0.2206
 4760SOL     OW25741   2.535   0.013   2.635 -0.1028 -0.1647 -0.0801
 4760SOL    HW125742   2.570   0.102   2.644  4.0049 -1.9002  1.3710
 4760SOL    HW225743   2.563   4.722   2.545 -2.1256 -1.0050 -0.5533
 4761SOL     OW25744   3.269   0.234   8.849  0.3537  0.5242  0.1917
 4761SOL    HW125745   3.301   0.229   8.759  3.6002  0.5581  1.3562
 4761SOL    HW225746   3.308   0.320   8.858  1.5296  0.0409 -0.4030
 4762SOL     OW25747   0.463   4.683   6.752 -0.4569 -0.1160 -0.0300
 4762SOL    HW125748   0.383   4.637   6.778 -3.0189  3.3276 -1.7268
 4762SOL    HW225749   0.503   4.639   6.677  0.9889 -1.0490  1.2852
 4763SOL     OW25750   4.315   3.818  12.762 -0.3913  0.0441  0.2981
 4763SOL    HW125751   4.243   3.878  12.783  0.2092  1.0356 -0.4979
 4763SOL    HW225752   4.382   3.840  12.827 -0.0908  1.8851 -0.6352
 4764SOL     OW25753   4.200   1.978   4.307  0.0717  0.5739  0.0646
 4764SOL    HW125754   4.109   1.960   4.284  0.1447 -1.1437  1.1019
 4764SOL    HW225755   4.182   2.018   4.392  0.0625 -1.0358  0.8258
 4765SOL     OW25756   1.353   1.674   1.077 -0.3857  0.5227  0.1663
 4765SOL    HW125757   1.341   1.660   0.983 -3.3980 -1.4562  0.8262
 4765SOL    HW225758   1.397   1.759   1.075 -1.4059  1.0538  0.1329
 4766SOL     OW25759   4.586   0.978   4.929  0.0289  0.0345  0.3286
 4766SOL    HW125760   4.655   0.962   4.994  0.2985  1.5906  0.4435
 4766SOL    HW225761   4.520   1.012   4.990  0.4368 -0.3865  1.0152
 4767SOL     OW25762   4.591   3.598  13.657 -0.4737  0.3629 -0.0695
 4767SOL    HW125763   4.574   3.664  13.724  0.4537  0.4270  0.1133
 4767SOL    HW225764   4.546   3.647  13.588 -1.2316 -1.3156 -0.7741
 4768SOL     OW25765   1.273   1.253   6.233  0.0797  0.3845 -0.1947
 4768SOL    HW125766   1.205   1.320   6.230 -0.2078  0.1814  1.6131
 4768SOL    HW225767   1.279   1.224   6.142  1.3759  0.9536 -0.2972
 4769SOL     OW25768   1.172   1.818   2.017  0.4053  0.7669  0.5708
 4769SOL    HW125769   1.247   1.760   2.008 -0.1822  0.4053 -1.9955
 4769SOL    HW225770   1.137   1.788   2.100 -0.8292 -1.6479 -0.8401
 4770SOL     OW25771   3.586   2.026  10.005  0.0961 -0.2435 -0.3392
 4770SOL    HW125772   3.549   1.988   9.926 -0.7124 -0.6142  0.2203
 4770SOL    HW225773   3.657   1.964  10.018  0.3546 -0.1433 -1.3224
 4771SOL     OW25774   1.116   1.424   1.570  0.2079 -0.3748 -0.2374
 4771SOL    HW125775   1.021   1.416   1.573  0.0643  0.8195 -1.4955
 4771SOL    HW225776   1.124   1.481   1.493  1.8953 -0.0663  0.1637
 4772SOL     OW25777   2.896   1.675   9.788  0.3548 -0.1479 -0.3477
 4772SOL    HW125778   2.963   1.664   9.856 -0.7151 -1.1140  0.5468
 4772SOL    HW225779   2.824   1.648   9.845 -0.5933  0.9903 -1.0182
 4773SOL     OW25780   4.140   3.205   3.337 -0.1853 -0.2959  0.0711
 4773SOL    HW125781   4.229   3.232   3.360 -0.2571  0.1646 -0.1730
 4773SOL    HW225782   4.108   3.232   3.423  1.2129  0.4326  0.3586
 4774SOL     OW25783   0.870   0.028   6.576 -0.4986 -0.0832  0.2033
 4774SOL    HW125784   0.892   4.663   6.600 -1.9217 -0.3635  0.4432
 4774SOL    HW225785   0.867   0.010   6.481  1.4403  0.6596 -0.0056
 4775SOL     OW25786   0.763   2.968   2.486 -0.0292  0.1235  0.6857
 4775SOL    HW125787   0.744   3.062   2.481 -1.6311 -0.3230 -1.3161
 4775SOL    HW225788   0.839   2.957   2.428 -0.4690  1.1713 -0.0878
 4776SOL     OW25789   1.816   4.023   5.052 -0.1459 -0.0687  0.4740
 4776SOL    HW125790   1.861   4.019   4.968 -0.8299 -0.4480  0.1245
 4776SOL    HW225791   1.740   3.966   5.040 -0.0861 -0.4001  1.6455
 4777SOL     OW25792   1.388   1.471   2.642  0.2691  0.2035  0.2233
 4777SOL    HW125793   1.459   1.417   2.605  0.2527  1.1935 -1.2730
 4777SOL    HW225794   1.319   1.440   2.583  0.0581 -0.7250  0.9743
 4778SOL     OW25795   0.898   0.829   3.260 -0.1930  0.2026 -0.3377
 4778SOL    HW125796   0.889   0.741   3.295  0.0808  0.9858  1.7210
 4778SOL    HW225797   0.958   0.816   3.187  0.7753  1.7649  0.1665
 4779SOL     OW25798   0.296   1.153   6.760  0.8088  0.2287 -0.6788
 4779SOL    HW125799   0.318   1.105   6.680 -1.3669  2.8799 -2.8716
 4779SOL    HW225800   0.372   1.210   6.756  1.0722  0.0996  2.1954
 4780SOL     OW25801   4.566   1.124   7.316 -0.4201 -0.0440 -0.1219
 4780SOL    HW125802   4.576   1.062   7.388  0.9482  2.1449  1.5793
 4780SOL    HW225803   4.589   1.207   7.357  0.0816 -0.1040 -0.2837
 4781SOL     OW25804   1.605   1.682  11.172  0.3797  0.2604  0.4086
 4781SOL    HW125805   1.655   1.655  11.249 -0.1720  1.1595  1.0808
 4781SOL    HW225806   1.511   1.672  11.189  0.8208  1.4086  3.4953
 4782SOL     OW25807   0.905   2.180   9.799 -0.0577 -0.1329  0.5197
 4782SOL    HW125808   0.848   2.145   9.731  1.3470  0.7129 -1.0949
 4782SOL    HW225809   0.879   2.145   9.884  0.7318  0.4909  1.0216
 4783SOL     OW25810   0.649   0.038   5.351  0.4809  0.0044 -0.8428
 4783SOL    HW125811   0.727   0.084   5.382 -0.8044  1.9515 -0.5075
 4783SOL    HW225812   0.600   0.039   5.434  1.3446  0.4008 -0.3377
 4784SOL     OW25813   2.364   1.609   9.305  0.0452 -0.1771  0.1640
 4784SOL    HW125814   2.422   1.533   9.311  0.3057  0.1088  1.2760
 4784SOL    HW225815   2.408   1.680   9.258 -0.0918  0.2665  0.7219
 4785SOL     OW25816   0.866   1.746   8.567  0.0100  0.4364 -0.0430
 4785SOL    HW125817   0.907   1.821   8.609 -0.1020  1.1361 -1.1909
 4785SOL    HW225818   0.883   1.763   8.474 -0.7074  0.3955 -0.1803
 4786SOL     OW25819   3.400   0.975   0.755  0.0184  0.7514 -0.2080
 4786SOL    HW125820   3.466   0.940   0.814 -0.2995  1.7709  0.7499
 4786SOL    HW225821   3.317   0.944   0.791  0.5386  0.8060  1.0140
 4787SOL     OW25822   0.290   0.982  10.238  0.3987 -0.2299 -0.1427
 4787SOL    HW125823   0.232   1.006  10.311  0.0004 -1.0569 -0.1926
 4787SOL    HW225824   0.370   0.958  10.285  0.1231  0.5317  0.7146
 4788SOL     OW25825   0.639   2.116  17.547  0.2170 -0.2021  0.2624
 4788SOL    HW125826   0.577   2.055  17.509 -1.4595  1.6072  0.1047
 4788SOL    HW225827   0.596   2.128  17.632 -0.3279  0.4890 -0.1093
 4789SOL     OW25828   2.646   4.356  16.511 -0.5971  0.2256  0.0043
 4789SOL    HW125829   2.617   4.279  16.559 -2.1096 -0.1377 -1.4999
 4789SOL    HW225830   2.621   4.423  16.576 -1.2611 -0.0352  0.0162
 4790SOL     OW25831   4.079   1.120  11.941  0.0006 -0.0822 -0.1385
 4790SOL    HW125832   4.148   1.057  11.960 -0.3642 -0.6424 -0.6541
 4790SOL    HW225833   4.039   1.084  11.861 -0.4729  0.1236  0.0074
 4791SOL     OW25834   4.069   1.411   4.313 -0.0853  0.5233  0.5859
 4791SOL    HW125835   4.123   1.333   4.308 -0.6069  0.0113  2.8457
 4791SOL    HW225836   4.105   1.469   4.246  0.9829 -1.4002 -0.4961
 4792SOL     OW25837   4.419   4.525   6.554 -0.0956 -0.2778  0.0078
 4792SOL    HW125838   4.489   4.479   6.601  1.4386  0.3115 -1.7008
 4792SOL    HW225839   4.405   4.599   6.614 -0.7914 -0.4168  0.0152
 4793SOL     OW25840   3.969   0.781   9.886 -0.4972 -0.2341  0.0779
 4793SOL    HW125841   4.023   0.852   9.852 -0.5953 -0.2625 -0.1427
 4793SOL    HW225842   3.933   0.823   9.963  2.0614  1.4533  0.3471
 4794SOL     OW25843   0.606   2.919   4.150  0.0293  0.1818 -0.0431
 4794SOL    HW125844   0.512   2.919   4.169 -0.0944  0.1884 -0.6814
 4794SOL    HW225845   0.648   2.954   4.230  1.8777 -1.4334 -0.3123
 4795SOL     OW25846   3.550   0.257   7.448 -0.3123  0.1683 -0.7491
 4795SOL    HW125847   3.492   0.215   7.511  0.2280  0.6183  0.0470
 4795SOL    HW225848   3.491   0.312   7.396 -0.5887 -1.0966 -1.7832
 4796SOL     OW25849   0.841   2.231   7.566 -0.0192 -0.3087 -0.0324
 4796SOL    HW125850   0.840   2.297   7.498 -0.9154 -0.4634 -0.1726
 4796SOL    HW225851   0.751   2.201   7.582 -0.1124 -0.0612 -0.1055
 4797SOL     OW25852   1.233   4.536   0.102  0.4591 -0.2304 -0.0441
 4797SOL    HW125853   1.172   4.582   0.160  1.6167  0.5312  0.5860
 4797SOL    HW225854   1.199   4.447   0.100  1.0599 -0.5625  3.2301
 4798SOL     OW25855   2.200   3.095   5.012  0.3252  0.0872  0.0512
 4798SOL    HW125856   2.292   3.080   5.033  0.7873 -1.6614 -3.2005
 4798SOL    HW225857   2.162   3.084   5.099 -0.5127  1.3988 -0.1475
 4799SOL     OW25858   2.343   3.758   5.925 -0.2148  0.0357  0.5669
 4799SOL    HW125859   2.385   3.798   5.849  1.7590 -0.1698  1.5470
 4799SOL    HW225860   2.251   3.751   5.898 -0.0861  0.2926  0.0610
 4800SOL     OW25861   3.646   2.622   5.943  0.0670  0.4863 -0.5595
 4800SOL    HW125862   3.672   2.703   5.988 -2.1768  0.8416  0.1293
 4800SOL    HW225863   3.551   2.637   5.939 -0.0608 -0.3137 -0.5142
 4801SOL     OW25864   1.637   0.285   3.838 -0.2598 -0.2230  0.4978
 4801SOL    HW125865   1.708   0.315   3.782 -0.5350 -1.9008 -0.7275
 4801SOL    HW225866   1.586   0.366   3.838  1.2712  0.7505 -0.5832
 4802SOL     OW25867   2.348   0.037   2.932 -0.0407 -0.4639  0.1768
 4802SOL    HW125868   2.265   4.716   2.932 -1.1482  1.4979  2.0839
 4802SOL    HW225869   2.325   0.110   2.874  1.3133 -0.1293  0.0456
 4803SOL     OW25870   0.388   2.020   6.171 -0.2209  0.0545 -0.0810
 4803SOL    HW125871   0.334   2.094   6.142 -1.4136 -0.6739  0.2955
 4803SOL    HW225872   0.367   2.018   6.264  1.0005 -2.8678  0.1252
 4804SOL     OW25873   3.475   4.042  12.922 -0.5018  0.3003  0.0158
 4804SOL    HW125874   3.569   4.057  12.927 -0.5126  0.5322 -0.4868
 4804SOL    HW225875   3.444   4.131  12.906 -1.7703 -0.4715 -1.9440
 4805SOL     OW25876   2.696   2.442   9.730  0.4592  0.1862 -0.3523
 4805SOL    HW125877   2.703   2.501   9.655 -0.5186  2.4557  1.3319
 4805SOL    HW225878   2.789   2.426   9.746  0.0740  0.0364  1.8241
 4806SOL     OW25879   1.363   0.681   5.826 -0.3876 -0.3198  0.1469
 4806SOL    HW125880   1.322   0.596   5.812  1.2007 -1.1341  0.4771
 4806SOL    HW225881   1.391   0.718   5.743  3.8274 -1.7288  0.9679
 4807SOL     OW25882   3.341   3.772   5.359 -0.1922 -0.2676  0.7044
 4807SOL    HW125883   3.414   3.711   5.372 -1.0106 -1.0212  1.8044
 4807SOL    HW225884   3.288   3.720   5.298  0.8606 -1.0569  0.4639
 4808SOL     OW25885   4.061   3.639   4.258 -0.4294  0.1192  0.0410
 4808SOL    HW125886   4.029   3.695   4.328  0.4617 -0.3502  0.8318
 4808SOL    HW225887   4.063   3.556   4.305 -2.1413  0.1008  0.0815
 4809SOL     OW25888   3.638   1.148  10.603  0.1779 -0.8326 -0.6003
 4809SOL    HW125889   3.589   1.067  10.618 -0.1299 -0.1515  2.1961
 4809SOL    HW225890   3.601   1.198  10.531 -0.8105  1.8100  1.7271
 4810SOL     OW25891   0.409   4.594   5.728  0.0617  0.6745  0.0817
 4810SOL    HW125892   0.418   4.509   5.685  1.2558  0.3193  1.0174
 4810SOL    HW225893   0.417   4.572   5.821 -1.2818 -2.5511 -0.5477
 4811SOL     OW25894   1.906   3.727  15.412  0.4712  0.1309  0.9615
 4811SOL    HW125895   1.898   3.655  15.474 -3.2946  0.6850  1.1319
 4811SOL    HW225896   1.998   3.749  15.429  1.6793 -2.8215 -1.6354
 4812SOL     OW25897   1.360   4.283  15.108  0.1210 -0.0782  0.0346
 4812SOL    HW125898   1.347   4.212  15.171 -2.1992 -0.2388 -0.6172
 4812SOL    HW225899   1.297   4.343  15.147 -0.4733 -1.4906  1.2628
 4813SOL     OW25900   3.449   3.394   7.391 -0.1039  0.3636  0.3495
 4813SOL    HW125901   3.440   3.488   7.401 -2.6137  0.0960  0.7351
 4813SOL    HW225902   3.541   3.370   7.391  0.0369  0.9196 -3.7607
 4814SOL     OW25903   4.526   0.757   8.622  0.4500  0.2392  0.2984
 4814SOL    HW125904   4.588   0.829   8.609  0.8845 -0.3326 -0.7940
 4814SOL    HW225905   4.538   0.738   8.715  0.0450  1.1250  0.5242
 4815SOL     OW25906   4.368   4.209   3.396  0.2432  0.1444  0.3475
 4815SOL    HW125907   4.277   4.236   3.383  0.4852  0.4413 -0.6924
 4815SOL    HW225908   4.366   4.160   3.478 -0.6878  1.6287  1.2067
 4816SOL     OW25909   0.303   1.733   6.843  0.7820 -0.4005 -0.9775
 4816SOL    HW125910   0.273   1.729   6.934 -0.3046 -1.4104 -1.3730
 4816SOL    HW225911   0.323   1.640   6.827  0.9860 -0.4248 -0.5621
 4817SOL     OW25912   4.670   2.729  13.646  0.0298  0.4200 -0.3804
 4817SOL    HW125913   0.032   2.748  13.612 -0.1849  1.0681 -0.5566
 4817SOL    HW225914   4.625   2.681  13.577 -0.3738 -0.1859  0.2975
 4818SOL     OW25915   2.052   2.282   7.899  0.6494 -0.0579  0.1437
 4818SOL    HW125916   2.052   2.378   7.891 -0.3301 -0.4769 -4.7828
 4818SOL    HW225917   2.086   2.262   7.986 -1.8929  0.0707  1.1654
 4819SOL     OW25918   2.571   3.895   2.884 -0.3088  0.4726 -0.2118
 4819SOL    HW125919   2.586   3.801   2.876  2.0447  0.6988  1.6023
 4819SOL    HW225920   2.647   3.928   2.835 -1.3395  0.4854 -1.7940
 4820SOL     OW25921   0.722   2.474   6.101  0.2890 -0.6136  0.0455
 4820SOL    HW125922   0.640   2.500   6.143  0.1810 -0.1403 -0.4464
 4820SOL    HW225923   0.697   2.399   6.048 -1.0602  1.5708 -2.4576
 4821SOL     OW25924   3.394   1.320   3.753  0.3834 -0.2501  0.0484
 4821SOL    HW125925   3.310   1.346   3.791 -0.6467  0.2934 -2.5838
 4821SOL    HW225926   3.456   1.341   3.824  0.9741 -0.5079 -0.3946
 4822SOL     OW25927   2.825   1.598  12.509  0.0627 -0.3694 -0.3308
 4822SOL    HW125928   2.761   1.552  12.454 -1.9981 -0.7912  2.4087
 4822SOL    HW225929   2.876   1.647  12.444  2.4752 -1.4078  0.7665
 4823SOL     OW25930   3.116   3.192   8.514  0.3856 -0.1997  0.5114
 4823SOL    HW125931   3.067   3.178   8.595 -1.2413  0.7140 -0.2921
 4823SOL    HW225932   3.073   3.117   8.474 -2.9416  0.9466  1.9417
 4824SOL     OW25933   0.861   0.716   7.916 -0.1890 -0.0146  0.3797
 4824SOL    HW125934   0.910   0.764   7.983  0.0126  1.5269 -0.8945
 4824SOL    HW225935   0.909   0.633   7.913  1.2415  0.8800 -1.2174
 4825SOL     OW25936   0.190   2.823   2.512 -0.0207  0.4690  0.0900
 4825SOL    HW125937   0.135   2.792   2.440  2.0585  1.6570 -2.0309
 4825SOL    HW225938   0.254   2.753   2.502 -0.2043  0.4022 -0.6132
 4826SOL     OW25939   1.101   3.403   3.514  0.1034  0.0903 -0.3579
 4826SOL    HW125940   1.066   3.393   3.426  0.4030 -1.8514 -0.2545
 4826SOL    HW225941   1.194   3.387   3.502 -0.0299 -1.0288  0.0622
 4827SOL     OW25942   3.742   2.164   5.309  0.2870 -0.7685 -0.2256
 4827SOL    HW125943   3.786   2.247   5.288  2.6092 -1.4868  1.7699
 4827SOL    HW225944   3.664   2.191   5.357 -0.5062 -1.5035 -1.1102
 4828SOL     OW25945   1.036   4.433   6.486  0.1789  0.0356  0.1730
 4828SOL    HW125946   1.127   4.451   6.511  0.2283  0.5267 -0.3711
 4828SOL    HW225947   1.001   4.475   6.565 -2.0003  0.0850 -0.8228
 4829SOL     OW25948   3.680   0.560  15.310 -0.2241  0.0273  0.1243
 4829SOL    HW125949   3.692   0.646  15.351 -0.8453 -0.1010  0.5598
 4829SOL    HW225950   3.760   0.547  15.258  0.5121  1.2768  0.9300
 4830SOL     OW25951   4.196   4.335   5.687 -0.2479  0.0828 -0.5213
 4830SOL    HW125952   4.196   4.371   5.598 -0.8981 -0.6056 -0.7959
 4830SOL    HW225953   4.103   4.316   5.694 -1.3777  3.9087 -5.4189
 4831SOL     OW25954   1.188   1.932  13.063  1.1477 -0.3350  0.5046
 4831SOL    HW125955   1.127   1.878  13.013  1.6496 -1.0362  0.6472
 4831SOL    HW225956   1.152   2.019  13.042  1.3951  0.3956  3.1535
 4832SOL     OW25957   1.176   2.390   5.080  0.4130 -0.0770  0.2426
 4832SOL    HW125958   1.137   2.404   4.994 -2.1040 -2.9401  0.9407
 4832SOL    HW225959   1.108   2.402   5.147  0.1651 -0.9876  0.1479
 4833SOL     OW25960   4.659   0.687   0.103  0.2456 -0.1179  0.2886
 4833SOL    HW125961   4.596   0.757   0.120  0.8057  0.2536  0.8777
 4833SOL    HW225962   4.647   0.670   0.010  1.6946 -1.1052  0.2703
 4834SOL     OW25963   0.104   1.521   7.935  0.4742 -0.6560 -0.1636
 4834SOL    HW125964   0.058   1.438   7.921  3.1118 -1.8199 -2.0226
 4834SOL    HW225965   0.034   1.585   7.946  0.1080 -0.6505 -2.3941
 4835SOL     OW25966   3.307   2.823   6.256  0.4184 -0.5541 -0.6340
 4835SOL    HW125967   3.221   2.782   6.256  0.6120 -0.9528  0.9770
 4835SOL    HW225968   3.318   2.835   6.350 -0.7213 -1.5849 -0.3628
 4836SOL     OW25969   0.422   0.825   4.268  0.1997 -0.4229  0.4312
 4836SOL    HW125970   0.369   0.752   4.301  1.7562 -0.4533  2.8946
 4836SOL    HW225971   0.476   0.790   4.197  0.2926 -0.9936  0.7852
 4837SOL     OW25972   4.460   2.421   4.053  0.7532  0.0893  0.5228
 4837SOL    HW125973   4.430   2.511   4.063 -0.5869  0.0040 -2.8822
 4837SOL    HW225974   4.376   2.376   4.065  0.3803  0.5830 -0.2329
 4838SOL     OW25975   1.686   0.555   8.155  0.0468 -0.0248  0.1465
 4838SOL    HW125976   1.635   0.500   8.096  1.0961  0.6841 -1.3968
 4838SOL    HW225977   1.766   0.572   8.106  0.1596 -1.0938 -0.0224
 4839SOL     OW25978   2.912   2.898  10.099 -0.3203 -0.0972 -0.3028
 4839SOL    HW125979   2.977   2.913  10.168  0.6557 -0.9535 -1.0319
 4839SOL    HW225980   2.959   2.839  10.040 -0.3664  0.3762 -0.8095
 4840SOL     OW25981   1.822   3.165  16.111 -0.5321 -0.0494  0.1992
 4840SOL    HW125982   1.875   3.104  16.060 -0.0440 -0.3857  1.1116
 4840SOL    HW225983   1.745   3.109  16.119 -0.8283  0.3164 -0.0979
 4841SOL     OW25984   3.025   0.559   9.894  0.5074 -0.5211 -0.3463
 4841SOL    HW125985   2.949   0.609   9.865  0.2058 -0.9513 -0.2910
 4841SOL    HW225986   2.995   0.478   9.853 -0.6489 -0.5074  0.5041
 4842SOL     OW25987   2.753   2.077   6.726 -0.0415  0.2771  0.1506
 4842SOL    HW125988   2.742   1.994   6.772 -0.1122  0.8563  1.1894
 4842SOL    HW225989   2.662   2.092   6.701 -0.2863 -2.5301 -0.6526
 4843SOL     OW25990   4.285   3.793  13.291  0.2618 -0.5111  0.0852
 4843SOL    HW125991   4.294   3.883  13.323 -0.8290 -0.7102  0.9874
 4843SOL    HW225992   4.193   3.795  13.263  0.3335 -1.7889 -0.2353
 4844SOL     OW25993   2.015   3.280   3.789 -0.2316  0.0415  0.0451
 4844SOL    HW125994   2.035   3.189   3.769  0.5534  0.4427 -0.9577
 4844SOL    HW225995   1.924   3.263   3.817  0.6596 -2.0884  1.6405
 4845SOL     OW25996   2.115   0.861   4.406 -0.5674  0.1526  0.8200
 4845SOL    HW125997   2.062   0.846   4.484 -1.0339  0.9493  0.6583
 4845SOL    HW225998   2.166   0.939   4.429  0.3645 -0.8578  2.1712
 4846SOL     OW25999   4.533   3.100   4.305  0.0134 -0.4948 -0.0824
 4846SOL    HW126000   4.495   3.135   4.386  0.1563  0.6060 -0.4805
 4846SOL    HW226001   4.536   3.185   4.261  0.3758 -0.3584  0.2040
 4847SOL     OW26002   3.642   3.406   9.262  0.2084  0.2541 -0.1195
 4847SOL    HW126003   3.648   3.491   9.306 -1.3794 -1.5995  3.6627
 4847SOL    HW226004   3.734   3.389   9.239 -0.0281 -1.3820  0.1385
 4848SOL     OW26005   2.551   3.603   3.357  0.0240  0.1042  0.8018
 4848SOL    HW126006   2.493   3.623   3.283 -3.3204 -2.0651  2.8526
 4848SOL    HW226007   2.600   3.526   3.328 -1.2763  0.4206 -2.3149
 4849SOL     OW26008   2.049   1.712  16.209  0.2100  0.4191  0.0924
 4849SOL    HW126009   2.084   1.731  16.122  0.1053 -0.3122 -0.1174
 4849SOL    HW226010   1.994   1.787  16.232 -0.0719  0.5869 -1.1235
 4850SOL     OW26011   0.967   3.686   3.320  0.2928 -0.6154 -0.2286
 4850SOL    HW126012   0.977   3.765   3.374  0.8911  0.5840 -2.1168
 4850SOL    HW226013   1.054   3.658   3.292  1.2799  0.4079  1.8089
 4851SOL     OW26014   0.272   2.145   7.654 -0.3218 -0.6939 -0.1059
 4851SOL    HW126015   0.207   2.191   7.601  1.6841  0.2152 -1.7762
 4851SOL    HW226016   0.209   2.091   7.703 -0.3778 -2.4205 -2.0607
 4852SOL     OW26017   3.101   0.372   1.865 -0.5152 -0.4786  0.8478
 4852SOL    HW126018   3.171   0.420   1.820  0.5234 -2.6413  0.1590
 4852SOL    HW226019   3.047   0.435   1.912  0.4351  0.7570  0.2667
 4853SOL     OW26020   1.993   1.549  10.933  0.5222  0.8054 -0.0992
 4853SOL    HW126021   1.897   1.543  10.926  0.6667  0.8652 -1.9932
 4853SOL    HW226022   1.995   1.579  11.024 -1.3563 -1.4214  0.7066
 4854SOL     OW26023   3.980   4.229   1.664  0.5163  0.3020  0.2676
 4854SOL    HW126024   3.996   4.317   1.628 -0.8199 -0.7221 -2.7992
 4854SOL    HW226025   3.885   4.238   1.663  0.5724  0.4496 -2.8612
 4855SOL     OW26026   1.917   0.961   3.393  0.1688 -0.0102  0.1738
 4855SOL    HW126027   1.830   0.931   3.369 -0.4181 -0.3973  2.7887
 4855SOL    HW226028   1.964   0.903   3.333  0.7413 -0.8693  1.4620
 4856SOL     OW26029   0.081   0.425   5.952  0.5706  0.0912 -0.3074
 4856SOL    HW126030   0.090   0.521   5.947  1.6043 -0.0457 -1.0386
 4856SOL    HW226031   4.722   0.411   5.993  0.4816  1.4520 -0.0234
 4857SOL     OW26032   2.780   2.870   0.481  0.4752 -0.4983 -0.0221
 4857SOL    HW126033   2.790   2.951   0.429  0.3101 -1.6122 -1.7910
 4857SOL    HW226034   2.693   2.890   0.516 -0.2558  0.5470 -2.4126
 4858SOL     OW26035   3.359   2.289   7.882 -0.6712  0.3511  0.0885
 4858SOL    HW126036   3.389   2.269   7.970 -0.6372  0.0829  0.0172
 4858SOL    HW226037   3.438   2.322   7.838 -1.2352  0.7516 -0.6265
 4859SOL     OW26038   1.248   4.429   8.438 -0.1692  0.6149  0.1880
 4859SOL    HW126039   1.285   4.486   8.505  1.1521  0.6050 -0.5150
 4859SOL    HW226040   1.267   4.340   8.469 -1.1813  0.0702 -0.7772
 4860SOL     OW26041   0.585   3.497   6.544 -0.3646  0.6465  0.2658
 4860SOL    HW126042   0.531   3.434   6.593  1.2388 -0.8860  0.0286
 4860SOL    HW226043   0.516   3.531   6.486  0.5211 -0.6011 -1.4994
 4861SOL     OW26044   1.565   1.338   2.501  0.8477  0.2571 -0.0854
 4861SOL    HW126045   1.643   1.291   2.530  0.4950  0.6366  1.4737
 4861SOL    HW226046   1.571   1.327   2.406 -1.1646 -1.2263 -0.0403
 4862SOL     OW26047   1.604   0.800   4.986 -0.1400  0.4886  0.4208
 4862SOL    HW126048   1.514   0.827   5.007  0.0020 -0.3676  2.1854
 4862SOL    HW226049   1.628   0.859   4.915  1.3016 -2.1139 -1.2639
 4863SOL     OW26050   3.197   4.267   8.150 -0.2731  0.4093 -0.5007
 4863SOL    HW126051   3.193   4.352   8.194 -0.5257 -0.6455  1.5236
 4863SOL    HW226052   3.104   4.269   8.125 -0.0815 -1.2394 -1.3849
 4864SOL     OW26053   0.255   0.991  14.037 -0.0006 -0.2942 -0.1068
 4864SOL    HW126054   0.212   1.011  14.119 -1.4954  0.3608 -1.0541
 4864SOL    HW226055   0.184   1.005  13.974  0.9591  1.7209 -0.7294
 4865SOL     OW26056   1.327   2.033   1.061  0.0833 -0.4872 -0.0515
 4865SOL    HW126057   1.280   1.972   1.004 -0.9466 -1.7758  2.1914
 4865SOL    HW226058   1.261   2.054   1.127  1.6752  0.5919  1.2016
 4866SOL     OW26059   0.605   0.353  17.306 -0.0154 -0.7601  0.1465
 4866SOL    HW126060   0.572   0.437  17.337 -0.3556 -1.7041  2.4104
 4866SOL    HW226061   0.686   0.338  17.354  0.8206  2.9487 -0.1152
 4867SOL     OW26062   3.853   2.712   8.235  0.6583 -0.5064 -0.0754
 4867SOL    HW126063   3.865   2.657   8.158  3.0799  1.4465 -1.0746
 4867SOL    HW226064   3.893   2.790   8.198  1.9317 -0.6695  0.9610
 4868SOL     OW26065   1.487   4.423  17.140  0.7416  0.2584 -0.2613
 4868SOL    HW126066   1.400   4.440  17.177 -0.7817 -2.6245 -2.4739
 4868SOL    HW226067   1.464   4.342  17.095  0.7654  0.0617  0.0826
 4869SOL     OW26068   3.264   0.252   6.793  0.0311 -0.1122  0.1193
 4869SOL    HW126069   3.294   0.161   6.797 -0.1709 -0.1748  0.2122
 4869SOL    HW226070   3.346   0.298   6.812 -1.0971  1.3834  1.2698
 4870SOL     OW26071   4.494   0.220   6.604  0.6095  0.2835 -1.0284
 4870SOL    HW126072   4.457   0.251   6.522 -1.6572 -2.5927 -1.1039
 4870SOL    HW226073   4.426   0.156   6.625 -0.3437  0.7054 -2.8461
 4871SOL     OW26074   4.622   4.156  10.227  0.2980 -0.1747 -0.6500
 4871SOL    HW126075   4.620   4.218  10.300 -0.4180  0.5874 -1.3265
 4871SOL    HW226076   4.618   4.072  10.274 -0.9466  1.4281  2.0929
 4872SOL     OW26077   2.850   4.342   2.573 -0.1262 -0.0608 -0.5336
 4872SOL    HW126078   2.768   4.310   2.535 -0.7994  1.0967 -0.0522
 4872SOL    HW226079   2.835   4.356   2.667  0.4384 -1.4087 -0.2414
 4873SOL     OW26080   3.255   1.071   3.258  0.3124 -0.3265  0.0401
 4873SOL    HW126081   3.182   1.075   3.197  2.2191 -0.3934 -2.2335
 4873SOL    HW226082   3.213   1.093   3.341  1.0072 -0.6515  0.4846
 4874SOL     OW26083   2.925   0.454   6.217  0.3216  0.2556  0.0142
 4874SOL    HW126084   3.000   0.453   6.158 -0.6743 -2.1354 -1.2384
 4874SOL    HW226085   2.930   0.543   6.252  2.8347  0.3296 -0.5265
 4875SOL     OW26086   0.998   0.001  12.900  0.3442 -0.1320 -0.0184
 4875SOL    HW126087   0.936   0.060  12.856 -0.6364 -0.7247  0.5651
 4875SOL    HW226088   1.079   0.051  12.902  0.2998 -0.0362 -0.6669
 4876SOL     OW26089   0.640   0.821  10.372  0.3861  0.0824  0.5053
 4876SOL    HW126090   0.716   0.833  10.428  1.6223  0.4803 -1.2519
 4876SOL    HW226091   0.564   0.854  10.420  0.9728 -0.0094  1.4936
 4877SOL     OW26092   1.519   4.651  12.428 -0.0468 -0.2011  0.3885
 4877SOL    HW126093   1.451   4.680  12.367 -0.5038 -0.5736  0.7215
 4877SOL    HW226094   1.490   4.678  12.515 -1.2460  2.5039 -0.8762
 4878SOL     OW26095   0.619   2.631  11.835  0.3211 -0.2083 -0.0575
 4878SOL    HW126096   0.687   2.697  11.841 -0.3672  0.6043 -1.2576
 4878SOL    HW226097   0.636   2.604  11.745  1.7325 -0.9151  0.4242
 4879SOL     OW26098   0.279   3.910  13.443 -0.4354 -0.7115 -0.3738
 4879SOL    HW126099   0.355   3.926  13.500  0.8503 -1.5544 -1.8434
 4879SOL    HW226100   0.302   3.962  13.366 -1.1550 -1.9580 -1.4358
 4880SOL     OW26101   0.150   1.231   1.301 -0.2534  0.2682 -0.3680
 4880SOL    HW126102   0.101   1.165   1.253 -0.3786  2.1758 -2.9015
 4880SOL    HW226103   0.199   1.276   1.231 -0.8955 -0.6524 -1.4008
 4881SOL     OW26104   2.235   1.593   6.343  0.5684  0.4351 -0.1903
 4881SOL    HW126105   2.255   1.536   6.417 -3.2238  1.3980  1.5729
 4881SOL    HW226106   2.277   1.546   6.271  1.8877  0.7120  0.4090
 4882SOL     OW26107   1.530   0.263   5.186  0.3318 -0.0910  0.0615
 4882SOL    HW126108   1.500   0.303   5.268 -0.1889 -1.1087  0.3676
 4882SOL    HW226109   1.623   0.257   5.205  0.4304  1.0924 -0.0329
 4883SOL     OW26110   2.180   2.846  12.778  0.5756  0.1989 -0.1854
 4883SOL    HW126111   2.235   2.906  12.828  1.1241  0.0973 -0.6647
 4883SOL    HW226112   2.100   2.854  12.829  0.3013 -0.3047 -0.5344
 4884SOL     OW26113   3.552   0.476  11.646  0.0430 -0.1042 -0.2853
 4884SOL    HW126114   3.593   0.443  11.566  0.3633  0.7178 -0.4562
 4884SOL    HW226115   3.563   0.571  11.639  1.0973 -0.0634  2.0812
 4885SOL     OW26116   2.308   0.087  15.891  0.1044  0.0849 -0.2097
 4885SOL    HW126117   2.316   4.723  15.858 -0.4123  0.0908 -0.3416
 4885SOL    HW226118   2.215   0.107  15.884  0.0452 -0.7372 -1.8691
 4886SOL     OW26119   3.051   1.496   2.360 -0.2671  0.2007 -0.7970
 4886SOL    HW126120   3.144   1.494   2.337 -0.7002  1.1195 -2.6188
 4886SOL    HW226121   3.046   1.412   2.405  2.5685  1.3561  1.6686
 4887SOL     OW26122   3.686   4.709   3.195  0.4917  0.1247  0.3365
 4887SOL    HW126123   3.622   4.646   3.162 -2.1398  1.1711  3.5320
 4887SOL    HW226124   3.657   0.069   3.163  0.5916  0.3395  0.8212
 4888SOL     OW26125   0.858   2.272  15.360 -0.3969  0.1564  0.2134
 4888SOL    HW126126   0.901   2.358  15.366  0.9332 -0.4999  0.1146
 4888SOL    HW226127   0.864   2.260  15.265  0.5161  3.3326 -0.1286
 4889SOL     OW26128   0.380   1.342  15.690  0.0037  0.3529  0.3837
 4889SOL    HW126129   0.422   1.412  15.740  1.0704  0.4615 -0.6740
 4889SOL    HW226130   0.441   1.272  15.713 -1.3118 -1.1892 -0.7383
 4890SOL     OW26131   0.401   4.471   3.161 -0.0393  0.0804  0.2971
 4890SOL    HW126132   0.306   4.460   3.167 -0.1476  0.7912 -0.0660
 4890SOL    HW226133   0.431   4.391   3.205 -0.8598 -0.0295  0.6505
 4891SOL     OW26134   2.625   3.647   0.010 -0.4196 -0.1015  0.2355
 4891SOL    HW126135   2.680   3.693  17.651 -1.4976  1.5682  0.5025
 4891SOL    HW226136   2.596   3.712   0.075  0.4601 -0.1177  0.6393
 4892SOL     OW26137   0.904   2.195   4.529  0.6963  0.1026  0.0519
 4892SOL    HW126138   0.954   2.115   4.545 -0.1423 -0.5258 -0.4822
 4892SOL    HW226139   0.916   2.211   4.436  2.6248 -1.5277  0.0020
 4893SOL     OW26140   3.864   2.616   7.697  0.1997 -0.4705  0.9706
 4893SOL    HW126141   3.801   2.664   7.644  0.7488 -0.0350  0.7182
 4893SOL    HW226142   3.919   2.687   7.730  0.2036  0.4737 -1.1232
 4894SOL     OW26143   2.319   1.339   3.885 -0.3306 -0.7545  0.5625
 4894SOL    HW126144   2.364   1.348   3.801 -0.1861 -2.1450  0.4850
 4894SOL    HW226145   2.388   1.330   3.952 -1.3373 -1.7340  1.4650
 4895SOL     OW26146   2.157   3.164   6.848 -0.7324  0.4916 -0.3106
 4895SOL    HW126147   2.246   3.198   6.846 -0.0435 -1.1946  1.1824
 4895SOL    HW226148   2.169   3.075   6.814 -1.8839  0.8473 -1.6188
 4896SOL     OW26149   2.872   1.505   6.122  0.2642 -0.4390 -0.1097
 4896SOL    HW126150   2.815   1.433   6.146 -2.9817  1.6876 -1.4365
 4896SOL    HW226151   2.934   1.503   6.195  3.0784 -2.7268 -2.5620
 4897SOL     OW26152   2.673   0.493  10.798 -0.1370  0.1012 -0.1086
 4897SOL    HW126153   2.689   0.540  10.880  1.7063 -1.3193  0.3614
 4897SOL    HW226154   2.623   0.567  10.766  1.8189  1.8769  0.9237
 4898SOL     OW26155   4.349   1.994  15.452 -0.2549  0.0409 -0.0969
 4898SOL    HW126156   4.327   1.907  15.483 -2.2733  0.9224  0.9386
 4898SOL    HW226157   4.395   2.030  15.527  2.3379 -1.3946 -1.0089
 4899SOL     OW26158   3.366   4.512   5.753  0.2768 -0.0187 -0.4258
 4899SOL    HW126159   3.273   4.498   5.733 -0.8199  3.8583  2.1000
 4899SOL    HW226160   3.381   4.476   5.840  0.6039 -0.2017 -0.5579
 4900SOL     OW26161   2.468   1.327   7.730  0.5852 -0.5354 -0.0145
 4900SOL    HW126162   2.433   1.411   7.703  0.9481  0.0717  1.3826
 4900SOL    HW226163   2.505   1.292   7.649 -0.0103 -1.3689  0.0729
 4901SOL     OW26164   4.473   1.091  13.892  0.0156  0.3206  0.6576
 4901SOL    HW126165   4.484   1.151  13.818  3.7625 -0.2837  0.7002
 4901SOL    HW226166   4.493   1.011  13.842 -0.6623  0.0403  0.8328
 4902SOL     OW26167   1.994   0.566   3.988 -0.3105 -0.3223  0.0979
 4902SOL    HW126168   2.073   0.619   3.977 -0.5853  0.4484  1.7927
 4902SOL    HW226169   1.927   0.601   3.930 -0.5490 -0.2365  0.4266
 4903SOL     OW26170   0.270   4.277  16.269  0.4469 -0.1064  0.2008
 4903SOL    HW126171   0.186   4.317  16.293 -0.0014 -2.0071  1.7932
 4903SOL    HW226172   0.237   4.189  16.251 -0.4248  0.7092 -2.1405
 4904SOL     OW26173   0.111   3.056  15.938  0.0578 -0.2594  0.0968
 4904SOL    HW126174   0.113   2.987  15.872  2.5971 -0.8257  0.7761
 4904SOL    HW226175   0.090   3.130  15.881  0.9671  0.0738  0.2023
 4905SOL     OW26176   3.861   2.104   6.998  0.0266 -0.5043 -0.1531
 4905SOL    HW126177   3.901   2.173   7.050 -0.7560 -0.9758  1.0666
 4905SOL    HW226178   3.827   2.166   6.933 -3.9391 -0.6172  1.8593
 4906SOL     OW26179   1.072   2.958   2.459  0.4157  0.1216  0.0083
 4906SOL    HW126180   1.016   2.916   2.394 -1.7269  3.4336 -0.2635
 4906SOL    HW226181   1.142   2.893   2.459 -1.0224 -1.4554  0.2127
 4907SOL     OW26182   0.280   3.232   8.874 -0.6475  0.6318 -0.1013
 4907SOL    HW126183   0.355   3.258   8.820 -1.2354  2.0099 -0.2689
 4907SOL    HW226184   0.321   3.236   8.960 -2.6970  0.5525  0.8738
 4908SOL     OW26185   3.584   2.095   2.765  0.2239  0.0221  0.1537
 4908SOL    HW126186   3.573   2.189   2.753  2.1993  0.6183  3.0130
 4908SOL    HW226187   3.497   2.063   2.786  1.1944 -1.4119  2.0561
 4909SOL     OW26188   2.677   3.516   6.339 -0.2180  0.0914  0.0690
 4909SOL    HW126189   2.662   3.488   6.248 -4.0064 -0.3612  0.8592
 4909SOL    HW226190   2.748   3.458   6.364 -0.6284  0.3615  1.8063
 4910SOL     OW26191   0.445   2.322  12.790  0.0018  0.0564  0.3744
 4910SOL    HW126192   0.523   2.274  12.816  1.2797  1.6039 -0.6065
 4910SOL    HW226193   0.467   2.412  12.812 -1.0169  0.5286 -0.5654
 4911SOL     OW26194   2.297   3.012   3.520  0.3093 -0.0351 -0.8895
 4911SOL    HW126195   2.224   3.050   3.471  1.6403  0.9541 -2.0895
 4911SOL    HW226196   2.352   3.090   3.525  0.5200 -0.3229  1.6155
 4912SOL     OW26197   4.090   2.689   3.213 -0.0694 -0.6834 -0.4869
 4912SOL    HW126198   4.148   2.764   3.203 -0.4142 -0.3156  0.2598
 4912SOL    HW226199   4.144   2.624   3.258 -0.9639 -0.1856  1.3220
 4913SOL     OW26200   1.962   0.248   3.366 -0.0123 -0.3173  0.1860
 4913SOL    HW126201   1.875   0.271   3.333  1.4849  3.6814 -0.9692
 4913SOL    HW226202   2.027   0.294   3.313 -0.1432 -0.4646 -0.0992
 4914SOL     OW26203   0.849   2.060   6.895 -0.0432 -0.2142  0.5844
 4914SOL    HW126204   0.869   2.069   6.802 -0.5553  0.1800  0.5136
 4914SOL    HW226205   0.921   2.109   6.935 -1.4509  2.4906 -0.2457
 4915SOL     OW26206   2.986   3.375   8.019  0.0083 -0.5697  0.3164
 4915SOL    HW126207   2.957   3.353   7.931  0.7873 -0.9291  0.1488
 4915SOL    HW226208   3.068   3.421   7.999  0.7874 -1.9321  0.3715
 4916SOL     OW26209   2.265   1.144   7.111 -0.3810 -0.3526 -0.2833
 4916SOL    HW126210   2.339   1.179   7.061 -0.4148  0.3181  0.1346
 4916SOL    HW226211   2.198   1.125   7.045 -0.4795 -1.0746  0.0243
 4917SOL     OW26212   4.602   1.760   5.874  0.0484 -0.3030  0.5310
 4917SOL    HW126213   4.627   1.772   5.782  0.4309  1.2775  0.8567
 4917SOL    HW226214   4.683   1.785   5.917  0.2785  1.9068 -1.1983
 4918SOL     OW26215   1.213   2.743   2.730  0.0310 -1.0276 -0.1506
 4918SOL    HW126216   1.229   2.648   2.730 -1.5220 -1.2841 -2.0315
 4918SOL    HW226217   1.203   2.757   2.636  1.9871  3.0987  0.2386
 4919SOL     OW26218   2.164   3.991   6.225 -0.4094  0.0370  0.6715
 4919SOL    HW126219   2.208   3.909   6.247  0.9206  0.7498  0.7073
 4919SOL    HW226220   2.155   4.042   6.305  0.5550  0.3841  0.5686
 4920SOL     OW26221   2.462   3.218   6.906  0.0121  0.2031  0.1861
 4920SOL    HW126222   2.509   3.265   6.838 -0.8687 -1.3783 -1.5085
 4920SOL    HW226223   2.457   3.282   6.978  2.9075 -0.2849  0.8009
 4921SOL     OW26224   4.691   3.013   2.166 -0.0904 -0.2877 -0.0890
 4921SOL    HW126225   4.701   2.990   2.258 -0.8637 -0.9667 -0.1729
 4921SOL    HW226226   4.599   3.002   2.143 -0.2258  0.9753 -0.1865
 4922SOL     OW26227   0.297   0.078  13.000  0.3072 -0.1228 -0.3667
 4922SOL    HW126228   0.380   0.126  13.002  1.2793 -1.7928 -0.6145
 4922SOL    HW226229   0.309   0.015  12.928  1.7525 -0.5139  0.2194
 4923SOL     OW26230   0.976   0.767  12.794 -0.8065  0.0779  0.1894
 4923SOL    HW126231   1.070   0.763  12.775 -0.3928 -0.9200  2.5307
 4923SOL    HW226232   0.955   0.702  12.861  0.2641  1.7004  2.0643
 4924SOL     OW26233   4.720   0.898   6.207 -0.7874  0.6768 -0.5690
 4924SOL    HW126234   0.034   0.857   6.284 -3.4431  2.3121  1.6499
 4924SOL    HW226235   0.048   0.977   6.204  2.0508 -1.2225  0.5456
 4925SOL     OW26236   1.130   1.407   2.518  0.2515  0.5913 -0.1635
 4925SOL    HW126237   1.161   1.409   2.428  3.1101  1.4026  0.8588
 4925SOL    HW226238   1.066   1.478   2.524 -0.0010  0.3409  0.1028
 4926SOL     OW26239   0.327   2.546   5.994 -0.2665  0.8244  0.2810
 4926SOL    HW126240   0.397   2.536   5.930 -0.5734 -1.5765  0.3394
 4926SOL    HW226241   0.363   2.612   6.053  0.2237  0.0955  0.7931
 4927SOL     OW26242   2.758   1.473   7.191 -0.2024 -0.4317 -0.7424
 4927SOL    HW126243   2.810   1.396   7.213 -0.9419  0.1676  3.2165
 4927SOL    HW226244   2.821   1.545   7.180  0.1696  0.0153  4.0121
 4928SOL     OW26245   1.925   4.259   4.238 -0.3900 -0.1769 -0.2636
 4928SOL    HW126246   1.893   4.260   4.328 -1.0842 -0.9144 -0.5026
 4928SOL    HW226247   1.946   4.170   4.210 -2.6194 -0.9976  0.6926
 4929SOL     OW26248   3.256   0.011  16.196 -0.5195  0.3890 -0.0741
 4929SOL    HW126249   3.241   4.668  16.261 -1.2173  1.4625  0.8878
 4929SOL    HW226250   3.261   4.686  16.115  0.3373  0.9736 -0.3919
 4930SOL     OW26251   2.546   3.028   8.296 -0.2054  0.2060 -0.3974
 4930SOL    HW126252   2.543   3.091   8.368  1.4849 -0.0207 -0.1367
 4930SOL    HW226253   2.581   3.078   8.222  1.2128  1.1663  0.9277
 4931SOL     OW26254   3.548   0.129   5.799  0.0941 -0.1288 -0.2555
 4931SOL    HW126255   3.534   0.216   5.837  0.5496 -0.3071  0.3202
 4931SOL    HW226256   3.456   0.110   5.778 -0.1928 -0.0475  0.9046
 4932SOL     OW26257   1.502   2.304  10.689  0.5311 -0.1564  0.6776
 4932SOL    HW126258   1.592   2.285  10.716  0.2853 -0.2642  1.4257
 4932SOL    HW226259   1.485   2.393  10.720  1.4551 -0.2546  1.4825
 4933SOL     OW26260   0.970   2.866   2.791  0.1721  0.3034  0.6425
 4933SOL    HW126261   1.056   2.823   2.784  1.1798  2.2218  1.3523
 4933SOL    HW226262   0.976   2.947   2.740  0.2682 -0.2284 -0.1963
 4934SOL     OW26263   2.238   1.422   2.484  0.1627 -0.0664  0.0973
 4934SOL    HW126264   2.241   1.493   2.549 -0.2565  0.1769 -0.1484
 4934SOL    HW226265   2.328   1.425   2.450  1.2510 -0.0732  2.9318
 4935SOL     OW26266   4.609   0.216   8.297  0.1390  0.5300  0.5097
 4935SOL    HW126267   4.539   0.216   8.362  1.9374 -0.0610  2.4236
 4935SOL    HW226268   4.571   0.163   8.227  1.0099 -0.0697  0.4891
 4936SOL     OW26269   0.776   1.511   9.380  0.7180 -0.7575  0.0120
 4936SOL    HW126270   0.691   1.533   9.418 -0.0960 -1.1450 -1.5962
 4936SOL    HW226271   0.801   1.438   9.437  1.1870 -0.5562  0.0692
 4937SOL     OW26272   3.295   3.961   7.693 -0.5213 -0.8306  0.7352
 4937SOL    HW126273   3.293   3.890   7.757 -1.5243 -1.3543  0.1186
 4937SOL    HW226274   3.283   4.033   7.755  0.0541 -0.1140  0.0226
 4938SOL     OW26275   2.260   0.459   2.100  0.6219  0.1959  0.7965
 4938SOL    HW126276   2.170   0.458   2.068  0.5442 -1.9010  1.0601
 4938SOL    HW226277   2.301   0.531   2.053  1.0494 -0.4968  0.1270
 4939SOL     OW26278   4.112   0.966   3.572  0.5896 -0.4494 -0.0285
 4939SOL    HW126279   4.061   1.040   3.605  1.2591 -0.3262  0.7061
 4939SOL    HW226280   4.096   0.981   3.478  1.4400  0.7512  0.0188
 4940SOL     OW26281   0.083   0.530   5.431  0.1312  0.3958  0.5132
 4940SOL    HW126282   0.048   0.466   5.492 -3.4290 -0.9396 -2.9206
 4940SOL    HW226283   0.155   0.563   5.485 -0.4951  1.0694  0.9436
 4941SOL     OW26284   2.205   4.471   3.142  0.3845 -0.5301 -0.4431
 4941SOL    HW126285   2.294   4.473   3.178  0.1083 -2.1850  0.3709
 4941SOL    HW226286   2.221   4.477   3.048  0.5772 -2.8436 -0.5728
 4942SOL     OW26287   1.227   2.224  17.663  0.1252  0.0915 -0.0338
 4942SOL    HW126288   1.213   2.243   0.052 -1.6446  0.9181 -0.4756
 4942SOL    HW226289   1.229   2.312  17.626  2.6758 -0.5422 -1.4208
 4943SOL     OW26290   3.617   3.113   3.298 -0.4064 -0.0814 -0.0474
 4943SOL    HW126291   3.674   3.069   3.235 -1.6439 -1.7331 -0.0109
 4943SOL    HW226292   3.531   3.107   3.257 -0.0942  0.9467 -0.8723
 4944SOL     OW26293   3.358   4.578   1.275  0.2214  0.2443 -0.1758
 4944SOL    HW126294   3.317   4.501   1.236  1.4164 -0.7238  0.5104
 4944SOL    HW226295   3.279   4.631   1.284 -0.2566  0.1065 -3.3337
 4945SOL     OW26296   1.073   1.591   1.060 -0.7130  0.3743 -0.0997
 4945SOL    HW126297   1.119   1.615   0.979  0.6231  0.9517  0.8245
 4945SOL    HW226298   1.117   1.649   1.122 -2.1274 -0.1000  1.3323
 4946SOL     OW26299   3.081   0.861   2.579 -0.1668  0.0391 -0.3905
 4946SOL    HW126300   3.110   0.824   2.496 -2.8425 -1.5980 -0.5939
 4946SOL    HW226301   3.024   0.792   2.613  0.5978 -0.5897 -0.3678
 4947SOL     OW26302   2.784   1.726   2.448 -0.0019 -0.4016  0.1841
 4947SOL    HW126303   2.702   1.678   2.436  0.6797 -1.2846 -0.8909
 4947SOL    HW226304   2.825   1.725   2.362  0.2622 -2.7815  0.3437
 4948SOL     OW26305   3.999   0.672   7.330  0.3701 -0.2359 -0.0452
 4948SOL    HW126306   3.955   0.610   7.387  3.8134 -0.2316  2.5865
 4948SOL    HW226307   3.935   0.665   7.259 -0.7815  2.6251  0.7018
 4949SOL     OW26308   4.516   4.599   8.342  0.9924  0.3428  0.1952
 4949SOL    HW126309   4.516   4.608   8.438  0.6022 -1.4734  0.3681
 4949SOL    HW226310   4.455   4.526   8.334 -0.0974  1.0831  1.6432
 4950SOL     OW26311   4.666   3.846   6.381 -0.1331  0.2063 -0.0117
 4950SOL    HW126312   4.583   3.873   6.420 -0.9488 -2.1608 -0.1344
 4950SOL    HW226313   0.001   3.920   6.385 -0.7731  0.6776  1.1873
 4951SOL     OW26314   2.662   4.297  14.605  0.3472 -0.3109  0.9149
 4951SOL    HW126315   2.636   4.377  14.559 -0.5231 -1.1252 -0.0123
 4951SOL    HW226316   2.693   4.318  14.693 -1.3921 -0.1991  1.5138
 4952SOL     OW26317   0.740   3.166   6.785 -0.4183 -0.0479  0.2119
 4952SOL    HW126318   0.753   3.252   6.825 -1.4984  1.0348 -1.7649
 4952SOL    HW226319   0.777   3.114   6.857  0.1221  1.1171  0.7680
 4953SOL     OW26320   2.875   4.491   8.661 -0.5021 -0.4094 -0.2550
 4953SOL    HW126321   2.826   4.570   8.686 -0.4462 -0.5787  0.3726
 4953SOL    HW226322   2.966   4.516   8.676 -0.8727  1.6890 -1.4606
 4954SOL     OW26323   1.595   0.938  11.791  0.2124  0.0761  0.1597
 4954SOL    HW126324   1.630   0.856  11.755  2.8356  0.9704  0.6593
 4954SOL    HW226325   1.668   0.959  11.849  0.4890  0.7990 -0.4506
 4955SOL     OW26326   1.524   0.735   4.354  0.0585 -0.3570  0.4611
 4955SOL    HW126327   1.561   0.818   4.383  1.7966 -0.9654 -0.0156
 4955SOL    HW226328   1.545   0.675   4.426 -1.0049 -1.3197 -0.0340
 4956SOL     OW26329   4.511   1.080   9.718 -0.3846 -0.3661  0.6390
 4956SOL    HW126330   4.564   1.150   9.681 -0.5878 -0.5785 -0.0580
 4956SOL    HW226331   4.577   1.013   9.736  1.0876  0.8266 -0.3509
 4957SOL     OW26332   4.135   3.306   1.587 -0.1388  0.4410  0.3254
 4957SOL    HW126333   4.227   3.292   1.609 -0.0760  0.3304 -0.0031
 4957SOL    HW226334   4.110   3.214   1.574 -1.3773  0.8773 -0.4320
 4958SOL     OW26335   1.815   0.039  13.050  0.4478  0.0071  0.4916
 4958SOL    HW126336   1.905   0.035  13.083 -0.1461  0.8678  2.2203
 4958SOL    HW226337   1.835   0.018  12.959 -0.9443  1.4228 -0.1275
 4959SOL     OW26338   4.206   4.370   7.306  0.3004 -0.5756  0.4298
 4959SOL    HW126339   4.111   4.358   7.295  0.0397  1.6308  0.1528
 4959SOL    HW226340   4.205   4.465   7.293  0.2678 -0.3833  1.7928
 4960SOL     OW26341   2.061   1.050   5.296 -0.7269 -0.2910 -0.4542
 4960SOL    HW126342   2.019   1.099   5.367 -1.0297 -0.8867 -0.2219
 4960SOL    HW226343   1.992   1.043   5.229 -1.0907  1.2368 -0.2478
 4961SOL     OW26344   2.062   1.996  16.512 -0.2938 -0.3836  0.4019
 4961SOL    HW126345   2.109   2.014  16.430 -1.2524  0.6013  0.0546
 4961SOL    HW226346   2.014   1.915  16.493  1.8777 -1.0849 -2.1866
 4962SOL     OW26347   1.786   1.180   6.817 -0.5680  0.2582  0.2333
 4962SOL    HW126348   1.736   1.230   6.752 -0.1393 -3.4544 -2.9909
 4962SOL    HW226349   1.725   1.181   6.890 -1.1487 -0.6648 -0.2373
 4963SOL     OW26350   2.713   3.093   9.334  0.0003  0.4507 -0.6105
 4963SOL    HW126351   2.623   3.060   9.328  0.8160 -1.6049 -1.6207
 4963SOL    HW226352   2.757   3.021   9.290 -2.6054 -1.3858 -0.2680
 4964SOL     OW26353   1.433   1.120  11.120 -0.2851 -0.0020  0.2276
 4964SOL    HW126354   1.481   1.090  11.043 -0.3110  0.0609  0.1872
 4964SOL    HW226355   1.407   1.204  11.082 -1.1827 -1.5376 -2.4831
 4965SOL     OW26356   1.920   1.653   4.759 -0.2673  0.1400 -0.5079
 4965SOL    HW126357   1.869   1.589   4.710  2.5520 -0.9524 -2.0312
 4965SOL    HW226358   1.949   1.710   4.687  4.2345 -0.9198  0.4961
 4966SOL     OW26359   1.656   2.728  16.390  0.0919 -0.3682  0.5712
 4966SOL    HW126360   1.579   2.671  16.387  1.1596 -1.7526 -0.6496
 4966SOL    HW226361   1.699   2.696  16.469 -0.4628 -0.9917  0.6227
 4967SOL     OW26362   2.597   2.352  14.111  0.4007  0.2737  0.1103
 4967SOL    HW126363   2.564   2.262  14.118 -0.9832  0.7642 -0.2356
 4967SOL    HW226364   2.525   2.411  14.132 -1.0774 -1.5965  0.2905
 4968SOL     OW26365   2.698   4.034  10.104 -0.0774  0.7276  0.0397
 4968SOL    HW126366   2.621   4.091  10.115 -0.4641 -0.4682  3.8141
 4968SOL    HW226367   2.685   3.987  10.187  0.6524 -1.8197 -1.2891
 4969SOL     OW26368   1.715   1.510   5.222 -0.2853 -0.2336 -1.3016
 4969SOL    HW126369   1.743   1.576   5.159 -0.0735 -1.1434 -2.1603
 4969SOL    HW226370   1.621   1.520   5.206 -0.5871  0.5719  0.9949
 4970SOL     OW26371   0.798   2.938   8.727  0.1746 -0.0366  0.2567
 4970SOL    HW126372   0.823   3.024   8.695  0.5951 -0.5097 -0.6711
 4970SOL    HW226373   0.833   2.940   8.816 -1.6346 -1.0562  0.9877
 4971SOL     OW26374   4.454   4.599   3.503 -0.2959 -0.3011 -0.2965
 4971SOL    HW126375   4.447   4.540   3.428  0.1498 -1.6613  0.7340
 4971SOL    HW226376   4.517   4.658   3.462 -1.9524  1.0864 -0.8373
 4972SOL     OW26377   2.047   0.476   4.954  0.0963 -0.4861 -0.6557
 4972SOL    HW126378   2.004   0.403   4.910 -0.1586 -0.2444 -0.8075
 4972SOL    HW226379   2.098   0.421   5.014 -0.3039  1.5959  1.6304
 4973SOL     OW26380   1.355   2.523   8.088 -0.5258  0.0811  1.0862
 4973SOL    HW126381   1.396   2.588   8.031  0.0542 -1.6088 -0.4134
 4973SOL    HW226382   1.355   2.445   8.032  0.0721  0.4119  0.6220
 4974SOL     OW26383   2.451   3.865   5.673  0.3134  0.1879  0.1339
 4974SOL    HW126384   2.420   3.943   5.627  0.4937 -0.1427 -0.5340
 4974SOL    HW226385   2.502   3.905   5.744 -0.9137 -0.7041  1.5278
 4975SOL     OW26386   0.717   2.459   4.262 -0.3542 -0.1793  0.4318
 4975SOL    HW126387   0.766   2.382   4.290  1.6892  0.4367 -1.4654
 4975SOL    HW226388   0.697   2.432   4.173 -0.5160 -0.8315  0.6672
 4976SOL     OW26389   3.963   2.341  13.215 -0.3128 -0.4418  0.4227
 4976SOL    HW126390   4.022   2.287  13.161  0.2630 -0.2270  0.8381
 4976SOL    HW226391   3.995   2.302  13.296 -0.6964 -2.2942 -0.3179
 4977SOL     OW26392   2.856   2.854   8.013  0.7230  0.0288  0.2145
 4977SOL    HW126393   2.816   2.897   8.089  0.6015  0.1282  0.0953
 4977SOL    HW226394   2.913   2.929   7.994 -1.7572  1.2832 -2.2984
 4978SOL     OW26395   2.405   2.569   4.217  0.0649  0.1451 -0.2350
 4978SOL    HW126396   2.349   2.605   4.149  1.1910 -0.7956 -1.6531
 4978SOL    HW226397   2.456   2.496   4.183  1.0382  1.5130 -1.6655
 4979SOL     OW26398   4.161   4.596  17.472 -0.2588 -0.0967  0.4933
 4979SOL    HW126399   4.238   4.555  17.513  0.8438  3.0167  1.4896
 4979SOL    HW226400   4.176   4.688  17.494  2.2082 -0.5741  0.7973
 4980SOL     OW26401   2.378   2.068   2.594 -0.0655 -0.3852  0.5768
 4980SOL    HW126402   2.432   2.020   2.532 -1.2789 -0.4517 -0.4451
 4980SOL    HW226403   2.331   2.112   2.523 -1.0806 -0.9063  0.9197
 4981SOL     OW26404   1.253   1.542  13.081  0.3299 -0.8405  0.4897
 4981SOL    HW126405   1.236   1.460  13.035 -1.3459 -1.9770  3.1507
 4981SOL    HW226406   1.303   1.510  13.156  1.5974  0.5575  0.2419
 4982SOL     OW26407   0.039   0.556   7.926  0.1433  0.5873 -0.0727
 4982SOL    HW126408   0.004   0.469   7.943 -1.3455  1.1292 -0.3163
 4982SOL    HW226409   4.691   0.615   7.946 -0.4726 -0.0014 -0.6216
 4983SOL     OW26410   2.629   4.424   7.413 -0.1433 -0.1588 -0.1949
 4983SOL    HW126411   2.550   4.461   7.375 -1.0491 -1.8232  0.0803
 4983SOL    HW226412   2.700   4.475   7.373 -0.5188  0.0570 -0.5912
 4984SOL     OW26413   1.657   2.638   9.187 -0.2966 -0.3724 -0.1889
 4984SOL    HW126414   1.564   2.660   9.198  0.0739  1.3383 -0.4828
 4984SOL    HW226415   1.670   2.674   9.099  1.0948 -0.2344  0.0757
 4985SOL     OW26416   2.702   2.804  17.055 -0.6078  0.1892  0.1642
 4985SOL    HW126417   2.695   2.831  16.964  0.6557 -2.4578 -0.7210
 4985SOL    HW226418   2.652   2.722  17.057  0.1489 -0.2916 -0.6974
 4986SOL     OW26419   0.623   0.148   6.629 -0.4699  0.2853  0.1155
 4986SOL    HW126420   0.704   0.112   6.593 -0.2519  0.3123  0.5706
 4986SOL    HW226421   0.602   0.085   6.697 -0.9482 -1.9247 -2.0913
 4987SOL     OW26422   3.074   0.266   0.313 -0.4038  0.0922 -0.4423
 4987SOL    HW126423   3.018   0.210   0.365  0.1624 -1.1345 -1.1456
 4987SOL    HW226424   3.147   0.282   0.374 -0.6175  0.1177 -0.1965
 4988SOL     OW26425   3.583   0.682   2.342  0.2375  0.1281 -0.2144
 4988SOL    HW126426   3.649   0.621   2.375  0.0265  0.1106  0.1710
 4988SOL    HW226427   3.625   0.714   2.261 -0.7078  2.9939  0.4325
 4989SOL     OW26428   4.594   3.425   3.819  0.5498  0.2455  0.2259
 4989SOL    HW126429   4.582   3.352   3.879  0.0067  0.4362  0.3518
 4989SOL    HW226430   4.679   3.461   3.843  0.0389  1.7962 -0.2200
 4990SOL     OW26431   1.143   0.702   4.406  0.2398  0.0796  0.2652
 4990SOL    HW126432   1.053   0.687   4.434 -0.2134 -0.7029 -1.6205
 4990SOL    HW226433   1.171   0.766   4.471 -2.8099  0.8278  0.8050
 4991SOL     OW26434   4.299   2.949   4.240 -0.2425  0.1940 -0.5496
 4991SOL    HW126435   4.360   3.020   4.261 -0.1182 -0.0030 -0.2374
 4991SOL    HW226436   4.232   2.960   4.308 -2.1644  2.1839 -2.7664
 4992SOL     OW26437   0.237   3.600  17.595 -0.1048  0.0436  0.4263
 4992SOL    HW126438   0.283   3.522  17.624 -0.1753 -0.9027 -2.0584
 4992SOL    HW226439   0.183   3.618  17.672 -0.1857  1.3300  0.0741
 4993SOL     OW26440   2.338   0.860   3.195 -0.2081  0.3040 -0.1473
 4993SOL    HW126441   2.266   0.912   3.159 -1.0803 -0.6879  0.1607
 4993SOL    HW226442   2.292   0.782   3.226  0.5641  0.7856  2.1684
 4994SOL     OW26443   1.636   2.755   6.839  0.4029  0.2348 -0.5972
 4994SOL    HW126444   1.694   2.831   6.847 -0.6380  1.0938 -1.3930
 4994SOL    HW226445   1.551   2.787   6.810 -0.0319 -0.6734 -0.3452
 4995SOL     OW26446   4.373   0.173   2.420 -0.4021  0.3022 -0.0382
 4995SOL    HW126447   4.346   0.159   2.511 -0.6717 -1.3068 -0.3676
 4995SOL    HW226448   4.464   0.196   2.437 -0.1824 -1.3672  0.9998
 4996SOL     OW26449   2.097   0.299   8.777  0.3512 -0.0872  0.2553
 4996SOL    HW126450   2.103   0.204   8.789 -1.9450 -0.4599 -1.5721
 4996SOL    HW226451   2.087   0.315   8.683  2.6193  1.1768  0.2208
 4997SOL     OW26452   1.689   3.432   2.930 -0.3100 -0.2428 -0.2980
 4997SOL    HW126453   1.687   3.527   2.921  0.0192 -0.1040  1.0689
 4997SOL    HW226454   1.766   3.412   2.876  0.9054  1.9482  0.6176
 4998SOL     OW26455   1.616   1.567   6.174  0.7636  0.7997  0.3555
 4998SOL    HW126456   1.567   1.649   6.181 -0.8105 -0.0758 -0.3296
 4998SOL    HW226457   1.555   1.493   6.178 -0.9853  2.1437 -1.1174
 4999SOL     OW26458   3.394   1.674   2.462  0.0842  0.3072  0.1789
 4999SOL    HW126459   3.342   1.746   2.425  0.8391  0.2344 -1.0343
 4999SOL    HW226460   3.480   1.715   2.457  0.5551 -0.8047 -0.7022
 5000SOL     OW26461   0.249   0.318   0.571  0.0723  0.3336  0.1670
 5000SOL    HW126462   0.263   0.397   0.622 -0.7684 -0.2526  1.3100
 5000SOL    HW226463   0.188   0.357   0.509  0.1752  1.7656  0.9627
 5001SOL     OW26464   1.420   3.198  11.974  0.7968 -0.1184  0.1271
 5001SOL    HW126465   1.511   3.215  11.948  1.0281 -1.5481  0.0384
 5001SOL    HW226466   1.437   3.197  12.069  2.1081 -2.6188 -0.1359
 5002SOL     OW26467   3.421   0.198   2.540 -0.2731 -0.4544  0.4565
 5002SOL    HW126468   3.395   0.146   2.463  1.6330  1.0653 -1.2169
 5002SOL    HW226469   3.333   0.230   2.558 -0.0577  0.9738 -1.0744
 5003SOL     OW26470   2.083   0.434   2.327  0.2152  0.2200 -0.1171
 5003SOL    HW126471   2.156   0.374   2.316  1.0411  1.7905 -3.3578
 5003SOL    HW226472   2.104   0.493   2.255 -0.7860  1.0044  0.2295
 5004SOL     OW26473   2.214   4.658   7.124 -1.3056 -0.0009 -0.2500
 5004SOL    HW126474   2.155   4.689   7.192 -0.1846 -0.0696  0.7477
 5004SOL    HW226475   2.273   0.006   7.106 -0.9303 -0.7321 -2.0326
 5005SOL     OW26476   1.984   4.544   1.715  0.4553 -1.0170  0.1201
 5005SOL    HW126477   1.935   4.494   1.650 -1.3573  0.2378  0.5034
 5005SOL    HW226478   2.028   4.473   1.761  1.6038 -0.5128 -0.1934
 5006SOL     OW26479   4.511   1.145  17.195 -0.5884  0.2416 -0.2559
 5006SOL    HW126480   4.529   1.213  17.260 -0.3422  0.4142 -0.5042
 5006SOL    HW226481   4.592   1.097  17.209 -0.0019  1.8815  1.9868
 5007SOL     OW26482   3.039   4.701  11.132 -0.3086 -0.3844 -0.1015
 5007SOL    HW126483   3.115   4.644  11.124  1.1896  1.3283  2.0974
 5007SOL    HW226484   3.071   0.053  11.086  0.6706  0.0727  1.3416
 5008SOL     OW26485   3.770   4.538  16.170 -0.2788  0.1933  0.5469
 5008SOL    HW126486   3.695   4.514  16.224  0.0113 -1.5566  0.1867
 5008SOL    HW226487   3.730   4.525  16.084 -0.5225 -0.5448  0.7755
 5009SOL     OW26488   3.635   0.984  14.091 -0.0683 -0.3349  0.3948
 5009SOL    HW126489   3.726   0.954  14.096 -0.1090 -0.5125  0.0405
 5009SOL    HW226490   3.589   0.908  14.056  1.4604  0.3691 -3.1486
 5010SOL     OW26491   3.270   1.221   9.108  0.6825  0.4884 -0.1236
 5010SOL    HW126492   3.361   1.248   9.103  1.8677 -3.1647  1.6032
 5010SOL    HW226493   3.270   1.181   9.195 -1.3263  0.2260 -0.2340
 5011SOL     OW26494   2.684   2.847  13.674  0.0633 -0.4033  0.3353
 5011SOL    HW126495   2.618   2.817  13.613  1.2104 -0.5451 -0.8289
 5011SOL    HW226496   2.619   2.849  13.744  0.5085  1.0088  0.7136
 5012SOL     OW26497   3.211   0.948   0.220  0.4514 -0.5974  0.3990
 5012SOL    HW126498   3.125   0.986   0.238  0.5325  0.8917 -2.4281
 5012SOL    HW226499   3.243   0.926   0.308  1.9421  0.3006  0.0615
 5013SOL     OW26500   0.509   2.450  17.388 -0.4458 -0.2405  0.7134
 5013SOL    HW126501   0.534   2.537  17.420 -2.4089  0.1419  1.1574
 5013SOL    HW226502   0.442   2.428  17.452 -0.7811 -1.0546  0.0855
 5014SOL     OW26503   3.192   2.139   3.762 -0.0999 -0.0008 -0.5712
 5014SOL    HW126504   3.136   2.216   3.755 -0.4857 -0.5521 -3.4819
 5014SOL    HW226505   3.202   2.123   3.668 -3.1488  0.8570 -1.0527
 5015SOL     OW26506   3.040   2.587  16.100  0.3003 -0.4100  0.1779
 5015SOL    HW126507   3.129   2.581  16.066  0.3316 -0.4670  0.2689
 5015SOL    HW226508   3.026   2.680  16.083 -0.2081 -0.2935  1.2240
 5016SOL     OW26509   2.969   1.380  10.602  0.6515 -0.0616 -0.0736
 5016SOL    HW126510   2.938   1.469  10.587 -0.5490 -0.5420 -0.4501
 5016SOL    HW226511   2.972   1.348  10.512 -0.2137  1.5362 -0.6775
 5017SOL     OW26512   3.500   3.439   4.703  0.0271 -0.0956 -0.8124
 5017SOL    HW126513   3.593   3.435   4.725  0.0019  0.8292 -0.5309
 5017SOL    HW226514   3.480   3.369   4.642  0.3932 -0.7569 -0.1689
 5018SOL     OW26515   2.959   2.382   9.722 -0.6148  0.5044 -0.2670
 5018SOL    HW126516   3.038   2.350   9.678 -0.6568  0.1551 -0.0881
 5018SOL    HW226517   2.989   2.369   9.812 -0.2012  1.5683 -0.2568
 5019SOL     OW26518   3.807   0.955  11.880  0.3121 -0.9816 -0.1646
 5019SOL    HW126519   3.726   0.960  11.828  0.5755 -2.1014 -0.6886
 5019SOL    HW226520   3.777   0.961  11.971 -2.9458 -0.3027 -1.2763
 5020SOL     OW26521   3.003   2.618   8.750  0.2800 -0.5502 -0.1711
 5020SOL    HW126522   2.970   2.699   8.787  0.0965  0.0185 -1.5949
 5020SOL    HW226523   2.984   2.556   8.822  1.7110 -2.4445 -1.4196
 5021SOL     OW26524   2.175   1.387   6.837 -0.0769  0.3810  0.4892
 5021SOL    HW126525   2.095   1.435   6.859 -0.9420 -0.2745 -1.2476
 5021SOL    HW226526   2.157   1.294   6.856 -0.5118  0.4630  0.4856
 5022SOL     OW26527   1.200   3.190   4.269  0.6229  0.0706  0.1860
 5022SOL    HW126528   1.284   3.211   4.311  1.5215 -0.2098 -1.4260
 5022SOL    HW226529   1.224   3.192   4.176  2.9316  2.5177  0.8375
 5023SOL     OW26530   4.403   3.238   3.401 -0.3178 -0.0124  0.2955
 5023SOL    HW126531   4.445   3.308   3.450  1.4479  0.2964 -1.6468
 5023SOL    HW226532   4.449   3.156   3.422  0.0047  0.1641  0.2844
 5024SOL     OW26533   0.777   1.346   6.133 -0.2441  0.3504 -0.4150
 5024SOL    HW126534   0.694   1.314   6.167  0.9820 -0.7859  1.5087
 5024SOL    HW226535   0.798   1.414   6.197 -0.2624  1.4966 -1.6358
 5025SOL     OW26536   1.563   0.412  17.675  0.8591 -0.1049  0.1201
 5025SOL    HW126537   1.575   0.351  17.602 -1.5973 -1.5394  0.8973
 5025SOL    HW226538   1.543   0.343   0.035  3.6704  0.8787  2.0507
 5026SOL     OW26539   0.959   0.994  14.611 -0.1584 -0.1874 -0.2000
 5026SOL    HW126540   1.014   0.998  14.689  2.7262  4.4508 -2.4938
 5026SOL    HW226541   1.028   0.997  14.545 -0.5204  1.0710 -0.5328
 5027SOL     OW26542   1.209   4.081   0.960 -0.4502 -0.4093 -0.2125
 5027SOL    HW126543   1.134   4.023   0.973 -0.2621 -1.4836 -3.9083
 5027SOL    HW226544   1.179   4.134   0.886 -1.1581  0.5421  0.7689
 5028SOL     OW26545   2.166   4.429   4.216 -0.8176 -0.1614  0.9774
 5028SOL    HW126546   2.137   4.520   4.220  0.3647  0.3467 -1.9675
 5028SOL    HW226547   2.090   4.372   4.225 -1.7192  0.3326 -3.5257
 5029SOL     OW26548   2.319   1.478   8.319 -0.0362 -0.2048  0.1282
 5029SOL    HW126549   2.232   1.507   8.293  0.4413  1.7591  0.7394
 5029SOL    HW226550   2.370   1.546   8.275 -0.3238 -0.1183 -0.0771
 5030SOL     OW26551   1.744   3.352  10.407  0.3883 -0.0916 -0.0882
 5030SOL    HW126552   1.704   3.305  10.334 -1.8706 -0.6003  1.4615
 5030SOL    HW226553   1.762   3.277  10.463 -0.6318 -0.6120 -0.4528
 5031SOL     OW26554   3.872   0.287   7.760 -0.2873  0.4653 -0.4724
 5031SOL    HW126555   3.854   0.198   7.790 -1.1247  1.9731  3.5088
 5031SOL    HW226556   3.788   0.332   7.755  0.2921  1.4817 -1.0252
 5032SOL     OW26557   3.856   0.531   6.650  0.3339  0.5128  0.3310
 5032SOL    HW126558   3.846   0.612   6.700 -0.0467 -0.1689  1.3498
 5032SOL    HW226559   3.868   0.465   6.718  0.4805 -0.1841 -0.3700
 5033SOL     OW26560   0.992   3.950   1.728 -0.3651  0.0024  0.2241
 5033SOL    HW126561   0.937   4.000   1.788  0.0919 -1.2564  1.6815
 5033SOL    HW226562   0.997   4.014   1.657  1.8792 -1.5666 -1.0312
 5034SOL     OW26563   0.217   4.459   5.975 -1.0803 -0.1051 -0.5206
 5034SOL    HW126564   0.288   4.399   5.950 -1.4238 -0.2340 -1.1573
 5034SOL    HW226565   0.150   4.397   6.001  0.1050 -1.6662 -1.1815
 5035SOL     OW26566   2.219   4.140  17.353 -0.5658 -0.2992  0.4025
 5035SOL    HW126567   2.193   4.077  17.420  1.2656 -1.8882 -0.3979
 5035SOL    HW226568   2.198   4.219  17.403 -0.9186 -0.0314 -0.1639
 5036SOL     OW26569   0.351   3.209  11.301 -0.1722  0.4909 -0.6378
 5036SOL    HW126570   0.398   3.178  11.223 -0.1724 -0.2419 -0.3413
 5036SOL    HW226571   0.314   3.291  11.266 -1.3520 -0.2250 -1.0633
 5037SOL     OW26572   4.511   0.362  10.796 -0.3166  0.3343  0.3226
 5037SOL    HW126573   4.445   0.292  10.791 -1.0512  0.9598  1.2757
 5037SOL    HW226574   4.487   0.405  10.877 -1.5510 -1.0727  0.7127
 5038SOL     OW26575   0.004   2.973  16.638 -0.0467  0.1509 -0.2416
 5038SOL    HW126576   4.674   2.969  16.560 -2.2872  2.3482  1.2805
 5038SOL    HW226577   4.684   2.915  16.698 -2.7884  2.3400 -0.2185
 5039SOL     OW26578   0.724   3.556  12.386 -0.2664 -0.0128 -0.0590
 5039SOL    HW126579   0.799   3.597  12.428 -0.5230  0.2921  0.0966
 5039SOL    HW226580   0.690   3.495  12.451  0.5625 -0.3793  0.0411
 5040SOL     OW26581   4.319   1.083   1.762  0.2537  0.5018  0.0500
 5040SOL    HW126582   4.369   1.096   1.843  1.3496  0.0772 -0.5651
 5040SOL    HW226583   4.295   0.990   1.760 -1.6561  1.0268 -1.4887
 5041SOL     OW26584   4.375   1.635   8.797 -0.0311 -0.1063  0.2637
 5041SOL    HW126585   4.355   1.625   8.890  2.4569  1.6362  0.9586
 5041SOL    HW226586   4.421   1.554   8.777  1.4947  0.8656 -0.1189
 5042SOL     OW26587   4.530   4.474   1.157 -0.3840 -0.7209  0.1724
 5042SOL    HW126588   4.615   4.487   1.115 -0.7679  1.7125  0.1443
 5042SOL    HW226589   4.545   4.463   1.251  2.2501  1.0053 -0.0311
 5043SOL     OW26590   4.335   1.237   6.466  0.0203 -0.0652  0.4440
 5043SOL    HW126591   4.335   1.237   6.370  2.9111 -1.3458  0.4575
 5043SOL    HW226592   4.423   1.208   6.489  0.0287  0.4459  1.0379
 5044SOL     OW26593   1.788   0.386   8.862 -0.5055 -0.3891 -0.6250
 5044SOL    HW126594   1.759   0.320   8.799  1.3424 -0.7675 -1.0927
 5044SOL    HW226595   1.830   0.330   8.928  0.7747  0.6713 -0.5443
 5045SOL     OW26596   4.699   4.278  13.026  0.3560 -0.2306 -0.5430
 5045SOL    HW126597   4.604   4.287  13.033  0.3132 -1.6333  0.8077
 5045SOL    HW226598   0.003   4.360  13.066 -3.2029 -0.1416  1.8811
 5046SOL     OW26599   0.633   0.883   9.385 -0.2664  0.3417  0.4175
 5046SOL    HW126600   0.572   0.921   9.447 -3.0936 -1.9254 -0.9849
 5046SOL    HW226601   0.685   0.837   9.451  1.6239  0.2517 -1.1190
 5047SOL     OW26602   0.193   4.355   5.040 -0.1888 -0.2671  0.0095
 5047SOL    HW126603   0.212   4.384   5.129 -0.4820 -0.0872  0.0155
 5047SOL    HW226604   0.097   4.363   5.042 -0.1941 -0.2797 -0.1528
 5048SOL     OW26605   4.088   2.381   8.915 -0.0919  0.3157 -0.3059
 5048SOL    HW126606   4.177   2.401   8.887  0.3969  1.9636  2.4734
 5048SOL    HW226607   4.106   2.297   8.957 -0.8445  0.3718  0.1269
 5049SOL     OW26608   0.316   1.896   1.590  0.2889  0.3437 -0.0054
 5049SOL    HW126609   0.409   1.910   1.570  1.5664 -1.9048  4.2731
 5049SOL    HW226610   0.281   1.946   1.516 -2.0718 -0.1653  0.7671
 5050SOL     OW26611   3.101   4.471   3.300 -0.4831 -0.1044  0.2611
 5050SOL    HW126612   3.047   4.395   3.277 -0.3585  0.0980 -0.7227
 5050SOL    HW226613   3.130   4.499   3.213 -1.8893  0.9314  0.1215
 5051SOL     OW26614   3.999   4.267   7.673 -0.1715  0.0202 -0.3648
 5051SOL    HW126615   3.957   4.344   7.711 -1.4200  0.7090 -3.1289
 5051SOL    HW226616   3.981   4.197   7.735  1.4084  2.0079  2.3200
 5052SOL     OW26617   2.611   3.493  16.209 -0.6192 -0.7798  0.1282
 5052SOL    HW126618   2.644   3.414  16.165 -0.5274 -1.0717  0.7143
 5052SOL    HW226619   2.526   3.461  16.239 -0.5169 -0.4208  0.8065
 5053SOL     OW26620   2.197   1.083  16.316 -0.2605 -0.2597 -0.4269
 5053SOL    HW126621   2.104   1.106  16.320 -0.4986 -1.3462  0.1890
 5053SOL    HW226622   2.189   1.064  16.223 -0.4354  0.4411 -0.5537
 5054SOL     OW26623   0.581   2.250  17.010  0.0775  0.0285 -0.1406
 5054SOL    HW126624   0.620   2.312  17.072 -2.0227  1.0606  0.1227
 5054SOL    HW226625   0.611   2.288  16.927  0.4915  2.6489  1.1924
 5055SOL     OW26626   2.372   3.739   6.210  0.3855 -0.3628 -0.3428
 5055SOL    HW126627   2.451   3.774   6.253  1.1979 -1.7397 -0.7235
 5055SOL    HW226628   2.382   3.746   6.115  2.8420  2.0092  0.0700
 5056SOL     OW26629   1.138   1.936  16.023  0.5548  0.4993  0.6964
 5056SOL    HW126630   1.061   1.904  16.069  0.4707 -0.6801 -0.2588
 5056SOL    HW226631   1.114   1.916  15.932  1.7162  1.1820  0.2422
 5057SOL     OW26632   0.033   2.434   6.099 -0.2486 -0.5304 -0.7390
 5057SOL    HW126633   0.035   2.516   6.149  2.1145 -0.6959 -0.5615
 5057SOL    HW226634   0.079   2.459   6.019  1.1982 -0.5539  0.0723
 5058SOL     OW26635   2.528   1.028   4.599  0.4167 -0.4792  0.0931
 5058SOL    HW126636   2.459   0.969   4.628 -0.6272  0.1597 -1.0894
 5058SOL    HW226637   2.508   1.108   4.649  0.7226 -0.6117  0.4227
 5059SOL     OW26638   1.405   3.747   7.610  0.4856  0.2589  0.2931
 5059SOL    HW126639   1.342   3.687   7.569 -0.3079 -0.0761  1.9955
 5059SOL    HW226640   1.453   3.761   7.529 -0.3889 -1.0487 -0.4534
 5060SOL     OW26641   0.711   1.117   7.725  0.0239  0.0783 -0.5594
 5060SOL    HW126642   0.672   1.134   7.639 -0.3599 -0.5298 -0.5101
 5060SOL    HW226643   0.755   1.039   7.692  0.2760  0.4687 -1.1565
 5061SOL     OW26644   1.475   4.583   1.128 -0.0393  0.1283  0.4941
 5061SOL    HW126645   1.569   4.597   1.143  0.3505 -1.1802 -0.7510
 5061SOL    HW226646   1.467   4.489   1.113 -0.5923  0.3879 -0.8611
 5062SOL     OW26647   1.437   1.795   7.486  0.2225  0.0074  0.0459
 5062SOL    HW126648   1.449   1.706   7.452 -1.5444 -0.1172 -0.2301
 5062SOL    HW226649   1.416   1.778   7.577  0.5433 -0.5277  0.0221
 5063SOL     OW26650   1.550   0.603   6.020  0.0620 -0.2042  0.3153
 5063SOL    HW126651   1.632   0.576   5.979  0.4725  1.8389 -0.2038
 5063SOL    HW226652   1.497   0.646   5.953 -1.9080  0.5785  2.3722
 5064SOL     OW26653   0.443   0.141  17.455 -0.2315  0.5605 -0.4865
 5064SOL    HW126654   0.461   0.214  17.395  0.4771  0.5179 -0.3194
 5064SOL    HW226655   0.476   0.070  17.400 -1.1469 -0.0348 -0.2664
 5065SOL     OW26656   4.046   2.911   2.788 -0.1633 -0.4137  0.2638
 5065SOL    HW126657   4.079   2.835   2.837 -0.0032 -1.0447 -0.8415
 5065SOL    HW226658   4.087   2.889   2.705  1.5741 -0.0869  1.0171
 5066SOL     OW26659   0.638   3.186   7.178  0.0191 -0.4360 -0.0311
 5066SOL    HW126660   0.598   3.271   7.164  0.6859 -0.3179 -1.1864
 5066SOL    HW226661   0.598   3.128   7.114  0.4721 -0.2181 -0.5116
 5067SOL     OW26662   1.963   3.452   8.430 -0.2723  0.3945  0.0672
 5067SOL    HW126663   1.932   3.408   8.350  2.1214  0.3892 -0.8688
 5067SOL    HW226664   1.880   3.476   8.472  0.6861  1.7304  1.1963
 5068SOL     OW26665   3.440   0.259   8.623 -0.1750 -0.1308 -0.5469
 5068SOL    HW126666   3.522   0.306   8.638  1.7364 -3.3279 -0.9646
 5068SOL    HW226667   3.416   0.315   8.550 -3.1977 -0.5779  0.1044
 5069SOL     OW26668   3.294   1.370   5.002 -0.2678  0.2700 -0.2183
 5069SOL    HW126669   3.289   1.434   4.932 -0.2058 -0.0898 -0.5500
 5069SOL    HW226670   3.249   1.412   5.076  2.8474 -0.8490  2.3187
 5070SOL     OW26671   2.583   1.958  16.274  0.2463  0.0480 -0.1724
 5070SOL    HW126672   2.570   1.866  16.295 -0.6373 -0.1442 -1.5758
 5070SOL    HW226673   2.633   1.957  16.192  0.7106  2.4857  0.0654
 5071SOL     OW26674   0.213   0.032   8.144 -0.2711 -0.3074  0.0878
 5071SOL    HW126675   0.229   0.122   8.115 -1.6351  0.1896  0.9170
 5071SOL    HW226676   0.189   0.045   8.235 -1.0251 -2.2285  0.1618
 5072SOL     OW26677   1.253   0.373   7.851 -0.3998 -0.0209 -0.2921
 5072SOL    HW126678   1.174   0.383   7.797 -1.0470 -0.8771  0.4998
 5072SOL    HW226679   1.325   0.359   7.789  0.8677  2.2248  0.6849
 5073SOL     OW26680   4.666   2.520   6.722  0.2321 -0.1113  0.4172
 5073SOL    HW126681   4.710   2.508   6.638 -0.4982 -0.0483  0.0191
 5073SOL    HW226682   4.652   2.615   6.721  0.9032 -0.0154  0.6240
 5074SOL     OW26683   2.683   2.499  16.749 -0.4668  0.0499  0.2239
 5074SOL    HW126684   2.641   2.561  16.808  0.4031  0.8424  0.0123
 5074SOL    HW226685   2.617   2.430  16.743 -0.6514  0.1952  0.5422
 5075SOL     OW26686   3.878   1.402   5.577 -0.1164 -0.5061  0.2842
 5075SOL    HW126687   3.809   1.360   5.628  0.5080 -2.0384 -0.1398
 5075SOL    HW226688   3.894   1.336   5.510 -1.9591 -0.0704 -0.5757
 5076SOL     OW26689   4.150   1.291   5.441  0.6108 -0.3183  0.0790
 5076SOL    HW126690   4.068   1.251   5.413  1.3920 -2.5834  1.0776
 5076SOL    HW226691   4.210   1.226   5.406 -0.0942 -1.1055  0.3459
 5077SOL     OW26692   4.343   1.252  14.430 -0.1616  1.0197  1.4273
 5077SOL    HW126693   4.290   1.202  14.492 -0.1990 -0.9818 -0.2165
 5077SOL    HW226694   4.429   1.261  14.471 -0.2637  1.0413  1.6386
 5078SOL     OW26695   0.071   0.567   7.641  0.0207 -0.2978 -0.3432
 5078SOL    HW126696   0.094   0.475   7.624  0.5430 -0.0396 -1.0270
 5078SOL    HW226697   0.095   0.564   7.733  0.2692  4.5197 -0.2836
 5079SOL     OW26698   4.234   0.217   6.810 -0.1419  0.2627 -0.1363
 5079SOL    HW126699   4.260   0.230   6.901 -1.9417 -1.2198  0.5789
 5079SOL    HW226700   4.252   0.125   6.793 -0.4847  0.6277 -2.4344
 5080SOL     OW26701   0.723   4.387   0.173  0.1730 -0.2573  0.0266
 5080SOL    HW126702   0.795   4.333   0.141  1.2756  0.2352  1.6652
 5080SOL    HW226703   0.658   4.317   0.179 -1.1308  0.7649 -2.3057
 5081SOL     OW26704   2.187   3.696   4.761  0.3424  0.0983  0.3540
 5081SOL    HW126705   2.228   3.623   4.714 -1.6456 -0.6947 -0.1833
 5081SOL    HW226706   2.215   3.767   4.703 -2.7989 -1.2567 -2.8731
 5082SOL     OW26707   0.780   0.416   6.609 -0.3012 -0.0195  0.6781
 5082SOL    HW126708   0.724   0.350   6.650  0.8693 -0.9310  0.7953
 5082SOL    HW226709   0.816   0.375   6.530  0.2607  1.0769  0.3555
 5083SOL     OW26710   1.177   2.420   8.528 -0.0564  0.2448  0.4998
 5083SOL    HW126711   1.134   2.423   8.442  0.8235  1.6752  0.1117
 5083SOL    HW226712   1.102   2.437   8.585 -0.6125  5.4658 -1.7131
 5084SOL     OW26713   1.736   1.181   2.743 -0.1958 -0.0328  0.0042
 5084SOL    HW126714   1.805   1.243   2.717  0.8802 -1.0624  0.4322
 5084SOL    HW226715   1.780   1.129   2.809 -0.1662  0.9077  0.7376
 5085SOL     OW26716   0.046   2.540   5.398 -0.5288  0.2213  0.1087
 5085SOL    HW126717   0.087   2.540   5.311 -0.3048  1.1349  0.2120
 5085SOL    HW226718   0.047   2.628   5.436 -1.4696  0.3929 -0.2548
 5086SOL     OW26719   1.084   2.139   5.583  0.2563  0.3446 -0.1210
 5086SOL    HW126720   1.178   2.132   5.599  0.0703 -0.5560  0.6170
 5086SOL    HW226721   1.066   2.219   5.632 -1.0740 -0.6766  1.0745
 5087SOL     OW26722   1.151   4.245  13.079  0.8033 -0.2485 -0.0135
 5087SOL    HW126723   1.227   4.284  13.037  0.0615 -0.1323 -1.2398
 5087SOL    HW226724   1.080   4.278  13.024 -0.4828 -0.4916  1.4853
 5088SOL     OW26725   1.358   3.342   3.449 -0.1700 -0.6012 -0.8076
 5088SOL    HW126726   1.363   3.291   3.368 -0.9175 -2.2362  0.1667
 5088SOL    HW226727   1.431   3.401   3.431 -0.4856  0.2854  0.8293
 5089SOL     OW26728   3.269   4.071   8.933  0.5209 -0.1073  0.3675
 5089SOL    HW126729   3.300   4.161   8.942 -0.7847  0.2055  1.5908
 5089SOL    HW226730   3.327   4.023   8.992 -1.1507 -2.0615  0.3982
 5090SOL     OW26731   3.314   0.505  13.342  0.0236 -0.2650 -0.5819
 5090SOL    HW126732   3.403   0.534  13.320 -0.6492  2.7469  0.6164
 5090SOL    HW226733   3.313   0.528  13.435  0.4576  0.8697 -0.8600
 5091SOL     OW26734   3.367   4.711  17.607  0.7434 -0.1603  0.0697
 5091SOL    HW126735   3.366   4.685  17.699  1.4913 -2.4836 -0.5702
 5091SOL    HW226736   3.354   0.077  17.633  0.6826  0.1136 -0.9307
 5092SOL     OW26737   0.248   1.198  16.753  0.1249 -0.1287 -0.3572
 5092SOL    HW126738   0.337   1.201  16.789 -0.2142  0.4570  0.4557
 5092SOL    HW226739   0.244   1.142  16.676  0.4883 -0.8948  0.1779
 5093SOL     OW26740   1.510   2.279   4.033 -0.1809  0.0057  0.7059
 5093SOL    HW126741   1.515   2.245   4.122  0.3733 -0.9611  0.3055
 5093SOL    HW226742   1.457   2.358   4.050 -0.2768  0.5801 -2.2921
 5094SOL     OW26743   3.024   3.707  15.866 -0.4534 -0.3351 -0.0912
 5094SOL    HW126744   2.981   3.677  15.945 -0.8610 -2.7821 -1.2653
 5094SOL    HW226745   2.950   3.754  15.827  0.2150  0.7842 -0.0110
 5095SOL     OW26746   1.705   0.195   6.642 -0.0372 -0.1773  0.5153
 5095SOL    HW126747   1.700   0.104   6.671 -1.8985  0.9404  3.6732
 5095SOL    HW226748   1.758   0.240   6.709  1.1783 -1.9625  0.7473
 5096SOL     OW26749   3.951   2.518   6.947 -0.4271 -0.4753  0.7828
 5096SOL    HW126750   4.043   2.528   6.922 -0.7265  1.3330  0.3973
 5096SOL    HW226751   3.957   2.476   7.032 -0.7437 -2.1123 -0.0085
 5097SOL     OW26752   2.911   4.583  12.993 -0.4418 -0.1641 -0.3818
 5097SOL    HW126753   2.967   4.632  12.932 -0.4112  0.6935  0.3235
 5097SOL    HW226754   2.856   4.654  13.027  3.5246  1.6880  2.2294
 5098SOL     OW26755   2.779   0.604  17.537 -0.1590 -0.3962 -0.1914
 5098SOL    HW126756   2.797   0.643  17.452 -0.1443 -1.0078 -0.4677
 5098SOL    HW226757   2.749   0.518  17.506 -1.6381 -0.3224  1.0193
 5099SOL     OW26758   1.209   4.702   3.289  0.8252 -0.1144 -0.3955
 5099SOL    HW126759   1.284   0.006   3.238  2.8607 -2.6171  1.1237
 5099SOL    HW226760   1.150   4.684   3.216 -1.1594  2.0516  0.6860
 5100SOL     OW26761   3.343   1.540   8.391 -0.2628 -0.2315 -0.6778
 5100SOL    HW126762   3.307   1.454   8.370  1.1553 -0.9978  0.0305
 5100SOL    HW226763   3.268   1.582   8.434  0.1349  0.6441 -0.8301
 5101SOL     OW26764   1.500   0.854   5.644  0.3936  0.5327  0.2853
 5101SOL    HW126765   1.533   0.932   5.600  1.9455 -0.7848 -0.8627
 5101SOL    HW226766   1.494   0.891   5.732  1.2957 -1.7938  1.3030
 5102SOL     OW26767   3.768   0.924   4.469  0.2818  0.0984  0.0180
 5102SOL    HW126768   3.735   0.868   4.399  2.3139 -0.2503 -0.6648
 5102SOL    HW226769   3.859   0.935   4.439  0.4336 -1.1613  0.0140
 5103SOL     OW26770   2.610   4.482   5.416 -0.1852  0.3388 -0.1519
 5103SOL    HW126771   2.546   4.460   5.348 -1.9109  0.2959  1.4683
 5103SOL    HW226772   2.572   4.434   5.490  3.6044 -0.5980  1.1398
 5104SOL     OW26773   1.168   3.676   4.196  0.3999 -0.5693 -0.1262
 5104SOL    HW126774   1.128   3.590   4.182  0.5729 -0.5865 -0.5271
 5104SOL    HW226775   1.146   3.696   4.287  0.8014  0.0618 -0.1639
 5105SOL     OW26776   3.579   3.529   1.027 -0.1279  0.0204 -0.5420
 5105SOL    HW126777   3.542   3.591   1.089  1.5356 -0.3726  0.8316
 5105SOL    HW226778   3.521   3.564   0.959  0.5190  0.7566 -0.7145
 5106SOL     OW26779   2.083   2.565   7.455 -0.3334 -0.3287 -0.4083
 5106SOL    HW126780   2.140   2.641   7.442 -1.1937  0.6734  1.7409
 5106SOL    HW226781   2.134   2.501   7.504 -1.1816 -0.2050  0.6260
 5107SOL     OW26782   1.976   4.097   8.715 -0.0611 -0.4805  0.4749
 5107SOL    HW126783   1.944   4.145   8.639 -0.3836 -0.7070  0.4690
 5107SOL    HW226784   1.897   4.044   8.728  0.1242 -0.3478  2.2068
 5108SOL     OW26785   4.582   1.375   1.888 -0.2851 -0.1746 -0.4530
 5108SOL    HW126786   4.653   1.432   1.919 -2.9850  2.5658  0.6187
 5108SOL    HW226787   4.509   1.434   1.870 -0.5318  0.2080  1.7728
 5109SOL     OW26788   1.896   0.875   3.917 -0.0316  0.0982  0.2003
 5109SOL    HW126789   1.853   0.801   3.874  0.6691  1.8195 -3.5202
 5109SOL    HW226790   1.888   0.931   3.839 -0.1533 -0.9122 -0.5194
 5110SOL     OW26791   0.352   0.164   0.006  0.2697  0.4526  0.3796
 5110SOL    HW126792   0.391   0.249   0.027  0.0124  0.1876  1.8743
 5110SOL    HW226793   0.394   0.153  17.624 -0.7972 -0.5409 -0.0020
 5111SOL     OW26794   3.902   2.941   2.238  0.0097  0.1019 -0.1154
 5111SOL    HW126795   3.878   3.029   2.208  0.8929  0.1104 -0.8162
 5111SOL    HW226796   3.823   2.892   2.216 -0.6324  0.1169  2.1593
 5112SOL     OW26797   3.873   1.418   4.622 -0.4709  0.3193  0.8912
 5112SOL    HW126798   3.835   1.337   4.587 -1.1387  0.0358  2.2658
 5112SOL    HW226799   3.966   1.417   4.602 -0.8511  2.8550 -0.8949
 5113SOL     OW26800   1.485   3.511  12.232 -0.2120  0.2103  0.1481
 5113SOL    HW126801   1.517   3.570  12.300 -0.0995  1.0314 -0.6153
 5113SOL    HW226802   1.563   3.483  12.185 -1.6136 -3.1897 -0.0825
 5114SOL     OW26803   1.541   1.231   1.553  0.4276 -0.5976 -0.4733
 5114SOL    HW126804   1.542   1.136   1.548 -0.6901 -0.6986  1.2436
 5114SOL    HW226805   1.450   1.243   1.581  0.8107  3.9614 -1.0675
 5115SOL     OW26806   3.319   3.597   8.586  0.2331  0.3823 -0.0357
 5115SOL    HW126807   3.234   3.598   8.541  0.6647  4.7278 -0.7552
 5115SOL    HW226808   3.311   3.547   8.667 -0.7743  1.9177  0.8030
 5116SOL     OW26809   0.708   3.502   7.255 -0.1406  0.1623 -0.2394
 5116SOL    HW126810   0.629   3.490   7.309  0.2647 -2.2170 -0.1647
 5116SOL    HW226811   0.743   3.579   7.300  0.7130 -0.3035 -0.1030
 5117SOL     OW26812   2.448   2.311   9.763 -0.0397  0.3499 -0.2249
 5117SOL    HW126813   2.504   2.234   9.777 -0.2355  0.0790 -0.9096
 5117SOL    HW226814   2.507   2.385   9.755  1.3719 -0.8824 -1.2219
 5118SOL     OW26815   0.746   3.849   7.098  0.5563 -0.0783 -0.1168
 5118SOL    HW126816   0.763   3.854   7.004  0.1184 -2.6538 -0.3116
 5118SOL    HW226817   0.727   3.941   7.118  0.3398 -0.6330  2.2171
 5119SOL     OW26818   3.798   4.017  12.067 -0.2774 -0.2688 -0.4684
 5119SOL    HW126819   3.805   3.922  12.068  1.1031 -0.1839 -1.3370
 5119SOL    HW226820   3.759   4.033  11.982  0.6013 -0.7882 -0.9668
 5120SOL     OW26821   4.528   2.490   4.380  0.4552 -0.4550  0.1358
 5120SOL    HW126822   4.550   2.540   4.302  1.3447  2.0128  1.9801
 5120SOL    HW226823   4.598   2.426   4.389 -0.0437 -1.0387 -0.1357
 5121SOL     OW26824   2.186   3.086   4.370  0.2964 -0.1255 -0.3282
 5121SOL    HW126825   2.098   3.068   4.338  0.4602 -1.8444  0.1529
 5121SOL    HW226826   2.228   3.009   4.331 -0.3996 -1.0333  0.7013
 5122SOL     OW26827   3.503   0.624   7.024 -0.8759 -0.5487 -0.4339
 5122SOL    HW126828   3.582   0.643   7.074 -1.1854 -2.0520  0.6499
 5122SOL    HW226829   3.536   0.602   6.937  0.6555 -0.4055  0.1148
 5123SOL     OW26830   0.825   2.890   6.598 -0.4664 -0.3388  0.2640
 5123SOL    HW126831   0.893   2.936   6.647 -1.4585  0.1740  1.1650
 5123SOL    HW226832   0.772   2.848   6.666 -1.1129 -0.2560 -0.1891
 5124SOL     OW26833   2.005   0.743   9.240  0.0958  0.0821  0.2794
 5124SOL    HW126834   2.089   0.715   9.202  0.0137 -0.5626  0.5682
 5124SOL    HW226835   1.955   0.731   9.159  0.0587 -0.8665  0.4346
 5125SOL     OW26836   2.454   2.010   5.738 -0.0716  0.3610  0.1555
 5125SOL    HW126837   2.519   2.033   5.804 -0.8883  1.9244  0.4138
 5125SOL    HW226838   2.374   2.008   5.790  0.1439 -2.6031  0.4147
 5126SOL     OW26839   3.449   4.553  13.576  0.0641  0.3023  0.0474
 5126SOL    HW126840   3.493   4.540  13.492  1.5805  1.6067  0.6458
 5126SOL    HW226841   3.364   4.583  13.544  0.8452  1.4897 -0.8778
 5127SOL     OW26842   1.993   0.876   2.269  0.4308  0.2921  0.2199
 5127SOL    HW126843   2.032   0.899   2.185  0.2008 -0.7877 -0.1789
 5127SOL    HW226844   2.033   0.946   2.320  1.4654 -0.4419  0.4167
 5128SOL     OW26845   4.671   4.518   4.509  0.0997  0.1641 -0.4011
 5128SOL    HW126846   4.653   4.531   4.602  0.9448 -3.5504  0.2520
 5128SOL    HW226847   0.040   4.511   4.499  0.1595  0.6441 -0.1754
 5129SOL     OW26848   1.379   4.106   6.597 -0.1949 -0.6225 -0.3079
 5129SOL    HW126849   1.370   4.019   6.559 -0.4539 -0.8502  0.2757
 5129SOL    HW226850   1.310   4.102   6.663  1.0941  2.1957  1.2184
 5130SOL     OW26851   0.427   2.148   5.219 -0.4426  0.5167 -0.0256
 5130SOL    HW126852   0.439   2.214   5.151 -0.5133  0.8171  0.2496
 5130SOL    HW226853   0.357   2.186   5.273 -1.4395 -0.5298 -0.5845
 5131SOL     OW26854   1.812   1.976   8.815  0.0372 -0.4181 -0.1939
 5131SOL    HW126855   1.889   2.030   8.834  0.1846 -0.3542 -0.9580
 5131SOL    HW226856   1.789   1.986   8.722 -1.8191  0.7135  0.3911
 5132SOL     OW26857   0.926   3.470   4.626 -0.6079 -0.0325 -0.0797
 5132SOL    HW126858   0.923   3.431   4.713  1.2058  0.1415  0.0599
 5132SOL    HW226859   0.866   3.420   4.571  0.0864  2.4441 -3.0866
 5133SOL     OW26860   3.177   1.581   9.710 -0.5103 -0.0930  0.5577
 5133SOL    HW126861   3.175   1.675   9.731  0.7841  0.0236  0.1870
 5133SOL    HW226862   3.161   1.550   9.799 -2.0467  0.9444  0.6477
 5134SOL     OW26863   0.900   4.541   2.366 -0.2768  0.2296 -0.6073
 5134SOL    HW126864   0.850   4.553   2.285 -0.2754  1.6664 -0.3962
 5134SOL    HW226865   0.970   4.480   2.341 -0.6738 -0.7336  0.6352
 5135SOL     OW26866   3.419   1.962   3.171  0.1719  0.2755 -0.1236
 5135SOL    HW126867   3.506   1.960   3.210 -0.3676  1.8857  1.1859
 5135SOL    HW226868   3.411   1.867   3.165  2.0444  0.1992 -1.3041
 5136SOL     OW26869   2.860   3.408   8.249  0.2734 -0.1627  0.1842
 5136SOL    HW126870   2.896   3.406   8.161  1.8961 -1.5290  0.8967
 5136SOL    HW226871   2.858   3.315   8.271 -1.1397 -0.1058  0.3395
 5137SOL     OW26872   4.637   0.968   3.891  0.1902  0.1868  0.0858
 5137SOL    HW126873   4.701   0.898   3.899 -1.6057 -1.4465  0.0218
 5137SOL    HW226874   4.555   0.924   3.915  0.8883  0.0716  2.2242
 5138SOL     OW26875   1.794   0.008   7.268  0.0339 -0.6216 -0.0218
 5138SOL    HW126876   1.890   0.011   7.272 -0.0786 -0.3327  2.4316
 5138SOL    HW226877   1.782   0.071   7.197  1.5526 -0.3850 -0.0625
 5139SOL     OW26878   0.779   3.169  17.257 -0.0524 -0.2799 -0.0042
 5139SOL    HW126879   0.758   3.095  17.200 -3.1421  1.0478 -0.6220
 5139SOL    HW226880   0.699   3.222  17.254  0.7875  0.8783 -1.8805
 5140SOL     OW26881   4.088   3.202   8.037  0.2016 -0.3345 -0.3629
 5140SOL    HW126882   4.073   3.233   7.948 -0.2257 -0.0975 -0.2073
 5140SOL    HW226883   4.179   3.172   8.028  0.2532 -0.4731  0.6383
 5141SOL     OW26884   1.935   1.409   8.010 -0.0120  0.0268  0.3466
 5141SOL    HW126885   1.847   1.434   8.037 -0.2841  0.9575 -1.4461
 5141SOL    HW226886   1.942   1.435   7.919  1.1896 -0.0950  0.4042
 5142SOL     OW26887   0.138   1.304  11.166 -0.5093 -0.0011  0.1630
 5142SOL    HW126888   0.068   1.239  11.152 -0.3928 -0.0079 -0.3908
 5142SOL    HW226889   0.132   1.365  11.093 -0.2666  1.2708  1.2181
 5143SOL     OW26890   4.293   3.590   3.020  0.8114  0.4401  0.2756
 5143SOL    HW126891   4.229   3.584   2.950 -2.0969  0.7888  2.9243
 5143SOL    HW226892   4.246   3.548   3.092 -0.0898  1.5571  0.3217
 5144SOL     OW26893   4.379   3.936   3.513 -0.3452 -0.3623 -0.0267
 5144SOL    HW126894   4.430   3.859   3.487  1.6655  1.0168 -0.1600
 5144SOL    HW226895   4.362   3.964   3.422  0.8276 -0.1923 -0.1936
 5145SOL     OW26896   3.073   3.385  13.835  0.5833 -0.1800 -0.3039
 5145SOL    HW126897   2.992   3.344  13.866  2.3142 -2.3824  1.2899
 5145SOL    HW226898   3.035   3.468  13.807 -0.1266 -0.3574  0.1314
 5146SOL     OW26899   4.611   2.670   7.130 -0.3626 -0.1644 -0.5996
 5146SOL    HW126900   4.586   2.754   7.090 -1.7045 -0.7389 -0.9537
 5146SOL    HW226901   4.596   2.693   7.222 -0.6057  0.3998 -0.7783
 5147SOL     OW26902   1.996   2.975   2.248  0.1747 -0.4468 -0.3129
 5147SOL    HW126903   1.901   2.969   2.239  0.1694 -2.3636  1.1524
 5147SOL    HW226904   2.009   3.046   2.311 -1.2816 -0.8342  0.4167
 5148SOL     OW26905   1.793   0.844   7.375 -0.8071 -0.1596 -0.8600
 5148SOL    HW126906   1.733   0.801   7.313 -0.5761 -0.3231 -0.9720
 5148SOL    HW226907   1.872   0.820   7.326 -0.2455  0.2507 -0.1443
 5149SOL     OW26908   1.140   2.425   4.791  0.0087  0.1526  0.2672
 5149SOL    HW126909   1.049   2.413   4.766  0.6270 -0.6312 -1.5878
 5149SOL    HW226910   1.183   2.382   4.717  1.1867  0.1164  0.9672
 5150SOL     OW26911   0.080   4.302   2.190 -0.1574  0.0290  0.0379
 5150SOL    HW126912   0.169   4.330   2.172 -0.1168  0.0298  0.2463
 5150SOL    HW226913   0.095   4.220   2.237  0.0858 -1.3104 -2.3683
 5151SOL     OW26914   0.988   0.489  15.262 -0.8061 -0.5090 -0.1543
 5151SOL    HW126915   0.980   0.397  15.285  1.2129  0.1558  3.1734
 5151SOL    HW226916   1.082   0.503  15.269 -0.7906 -1.0735  0.7801
 5152SOL     OW26917   4.121   3.614  15.881  0.1598  0.1006  0.4733
 5152SOL    HW126918   4.170   3.694  15.863 -1.5856  1.0768  0.0934
 5152SOL    HW226919   4.148   3.599  15.971 -1.2172 -0.8084  0.7366
 5153SOL     OW26920   1.060   4.505  14.257  0.1757 -0.2546  0.5573
 5153SOL    HW126921   1.111   4.533  14.181 -2.0998 -0.1559 -0.9060
 5153SOL    HW226922   1.135   4.474  14.309  1.2188  0.8465 -0.2802
 5154SOL     OW26923   1.729   1.922   5.724  0.4265  0.3743 -0.1239
 5154SOL    HW126924   1.648   1.871   5.728  0.6530  0.0163 -0.0941
 5154SOL    HW226925   1.793   1.850   5.722  1.6520  1.3968  2.0985
 5155SOL     OW26926   1.829   3.443   9.870  0.0343 -0.0213 -0.1484
 5155SOL    HW126927   1.841   3.492   9.951  0.2739 -0.6467  0.1966
 5155SOL    HW226928   1.805   3.522   9.822  0.5083 -0.7371 -1.5599
 5156SOL     OW26929   1.755   1.475   9.554  0.4254  0.1073  0.3609
 5156SOL    HW126930   1.731   1.388   9.523 -3.0629  0.2999  2.4582
 5156SOL    HW226931   1.826   1.464   9.617 -1.4195 -2.1969  2.0689
 5157SOL     OW26932   2.712   3.651   5.307 -0.2848  0.2125  0.3145
 5157SOL    HW126933   2.766   3.623   5.233 -2.9698  2.1633 -2.3888
 5157SOL    HW226934   2.619   3.656   5.284 -0.7373  1.0808  2.3808
 5158SOL     OW26935   4.698   3.945   8.218 -0.1284  0.0665  0.3523
 5158SOL    HW126936   4.662   3.954   8.130 -0.9932  1.7620  0.8906
 5158SOL    HW226937   0.066   3.935   8.200 -0.5651 -1.6165 -0.9305
 5159SOL     OW26938   4.464   3.260   4.541  0.6936 -0.1663  0.5641
 5159SOL    HW126939   4.406   3.246   4.616 -1.3931 -0.3287 -1.0849
 5159SOL    HW226940   4.486   3.353   4.550 -0.4929 -0.0193  1.8322
 5160SOL     OW26941   0.741   0.281   6.101  0.2680  0.1050  0.0290
 5160SOL    HW126942   0.754   0.354   6.041 -0.3299  1.6672  1.7967
 5160SOL    HW226943   0.813   0.230   6.063  1.4312  0.2318  2.0040
 5161SOL     OW26944   2.942   4.514   9.361 -0.1719 -0.1120  0.2658
 5161SOL    HW126945   2.989   4.458   9.299 -2.5959  0.0512 -1.7226
 5161SOL    HW226946   2.942   4.452   9.434 -0.7219 -0.0673  0.3007
 5162SOL     OW26947   4.685   2.613  13.067 -0.3916  0.3113  0.0092
 5162SOL    HW126948   4.714   2.550  13.001  1.1020 -0.4064  1.3352
 5162SOL    HW226949   4.600   2.571  13.080 -1.3556  1.5554 -2.4522
 5163SOL     OW26950   1.458   2.439   7.556  0.1383  0.1832  0.4820
 5163SOL    HW126951   1.423   2.528   7.561 -2.3087 -0.7552  0.3301
 5163SOL    HW226952   1.380   2.388   7.580 -0.2808  0.3522 -0.5086
 5164SOL     OW26953   2.862   0.628   2.317  0.6302  0.3254 -0.8022
 5164SOL    HW126954   2.778   0.672   2.302  1.5461  2.2688 -0.2192
 5164SOL    HW226955   2.841   0.558   2.378  0.5433  0.5425 -0.5849
 5165SOL     OW26956   3.770   1.579   8.250  0.1918 -0.2912 -0.3785
 5165SOL    HW126957   3.681   1.550   8.229  2.1071 -5.3065 -1.5865
 5165SOL    HW226958   3.780   1.575   8.345 -1.0028 -1.2574 -0.2895
 5166SOL     OW26959   1.281   0.881   1.668  0.4642 -0.1943 -0.4857
 5166SOL    HW126960   1.214   0.831   1.622  1.3636 -1.8726 -0.0031
 5166SOL    HW226961   1.227   0.941   1.719 -0.1017 -2.3150  1.4028
 5167SOL     OW26962   2.070   1.108   6.594  0.1916  0.4245 -0.0960
 5167SOL    HW126963   2.041   1.128   6.683  0.2318 -1.0517  0.2540
 5167SOL    HW226964   2.043   1.187   6.547 -1.4983  0.1316  0.3904
 5168SOL     OW26965   4.467   4.693   0.377  0.4048  0.0877  0.0132
 5168SOL    HW126966   4.373   4.704   0.362  0.3062 -1.5996 -0.6320
 5168SOL    HW226967   4.489   4.625   0.313  1.5218  0.3047  0.1592
 5169SOL     OW26968   0.182   4.546   7.788 -0.1846  0.0146 -0.1116
 5169SOL    HW126969   0.163   4.640   7.791 -0.1485  0.0967 -2.7213
 5169SOL    HW226970   0.212   4.546   7.698 -1.2633 -2.0206 -0.4688
 5170SOL     OW26971   2.239   3.224   6.219  0.2961 -0.2230 -0.0673
 5170SOL    HW126972   2.185   3.147   6.200 -0.3334  0.0668  0.5519
 5170SOL    HW226973   2.213   3.279   6.145  1.3648 -2.7291 -2.3409
 5171SOL     OW26974   3.923   0.362   8.738  0.1834  0.2345  0.3969
 5171SOL    HW126975   3.870   0.404   8.806  0.0460  0.7001  0.0040
 5171SOL    HW226976   3.951   0.277   8.772 -1.6210 -0.8786 -0.8849
 5172SOL     OW26977   1.385   1.086   2.293 -0.0211 -0.5994 -0.1596
 5172SOL    HW126978   1.316   1.024   2.271 -0.7917  0.2555 -0.1632
 5172SOL    HW226979   1.417   1.046   2.374 -0.3640 -1.2770 -0.3606
 5173SOL     OW26980   4.338   2.449   6.444  0.7710 -0.0685  0.2941
 5173SOL    HW126981   4.407   2.422   6.505 -2.3866 -1.8017  3.1084
 5173SOL    HW226982   4.348   2.390   6.369  0.5906  1.5115 -0.9624
 5174SOL     OW26983   2.832   3.139   7.563 -0.3642 -0.9113 -0.0929
 5174SOL    HW126984   2.815   3.175   7.651  0.4482  0.2817 -0.4232
 5174SOL    HW226985   2.913   3.188   7.549 -0.8652 -0.7949 -2.4607
 5175SOL     OW26986   0.878   2.522  15.487  0.0629 -0.1947  0.7469
 5175SOL    HW126987   0.807   2.545  15.546  1.1851 -0.3787  2.1791
 5175SOL    HW226988   0.949   2.580  15.513  0.8342 -1.2955  1.1353
 5176SOL     OW26989   0.820   4.300   8.387  0.7059 -0.1465  0.3115
 5176SOL    HW126990   0.795   4.208   8.388  0.8682 -0.1744  3.2418
 5176SOL    HW226991   0.915   4.303   8.376  1.0080 -1.5172  2.6435
 5177SOL     OW26992   0.085   1.430   0.418  0.4115  0.1588  0.3751
 5177SOL    HW126993   0.080   1.422   0.514  0.4739 -0.2407  0.3415
 5177SOL    HW226994   0.177   1.431   0.392  0.4216  0.7713  0.4167
 5178SOL     OW26995   1.082   1.364   8.671  0.0011 -0.3651 -0.2523
 5178SOL    HW126996   1.033   1.424   8.727  0.5421 -0.2834  0.1242
 5178SOL    HW226997   1.170   1.389   8.699 -0.5691 -0.1830  1.3491
 5179SOL     OW26998   1.757   1.378   7.466  0.6668 -0.6131 -0.3570
 5179SOL    HW126999   1.770   1.443   7.397 -2.2705 -2.1356 -2.3737
 5179SOL    HW227000   1.814   1.305   7.443  0.4062 -0.3838 -1.7360
 5180SOL     OW27001   3.853   2.758   8.508 -0.0851  0.1747  0.3508
 5180SOL    HW127002   3.764   2.784   8.532 -0.2183  0.9383 -0.9604
 5180SOL    HW227003   3.842   2.733   8.416  0.3603 -1.6232  0.7831
 5181SOL     OW27004   1.843   0.531  10.164  0.4043 -0.2680 -0.5674
 5181SOL    HW127005   1.911   0.464  10.154 -0.6623 -1.8835  2.9541
 5181SOL    HW227006   1.846   0.583  10.084 -2.3306  0.9337  0.1049
 5182SOL     OW27007   3.628   4.443   8.905 -0.0525  0.3315  0.0049
 5182SOL    HW127008   3.692   4.513   8.919  0.0112  0.6441 -1.7863
 5182SOL    HW227009   3.629   4.427   8.810 -1.2421 -0.5687  0.1451
 5183SOL     OW27010   0.687   0.450  15.465  0.2376  0.2112  0.3234
 5183SOL    HW127011   0.748   0.426  15.396 -0.4439 -0.3353 -0.0819
 5183SOL    HW227012   0.638   0.368  15.468  0.6442 -0.0274  0.4784
 5184SOL     OW27013   0.442   3.609   6.230  0.2968 -0.6108 -0.0656
 5184SOL    HW127014   0.431   3.570   6.144  0.3854 -0.5607 -0.0990
 5184SOL    HW227015   0.535   3.587   6.233  0.1612 -1.1721 -0.0723
 5185SOL     OW27016   1.505   4.696   0.898 -0.3650 -0.4360 -0.1554
 5185SOL    HW127017   1.489   4.657   0.984 -0.0847 -1.3726 -0.5242
 5185SOL    HW227018   1.569   0.040   0.912 -1.2878  0.1123  1.2791
 5186SOL     OW27019   3.265   0.284   0.516 -0.3605  0.4820 -0.0437
 5186SOL    HW127020   3.192   0.300   0.575 -0.0583 -1.1254  0.7603
 5186SOL    HW227021   3.321   0.227   0.569  0.5000 -0.2064 -1.6722
 5187SOL     OW27022   0.113   4.566   6.404  0.1296  0.0996 -0.4532
 5187SOL    HW127023   0.083   4.614   6.481 -0.5784 -0.0195 -0.6494
 5187SOL    HW227024   0.176   4.634   6.382 -1.3503  1.3992 -0.7387
 5188SOL     OW27025   2.749   0.615   5.768  0.3635 -0.0611  0.5249
 5188SOL    HW127026   2.727   0.686   5.707 -0.9427 -0.6037  0.3660
 5188SOL    HW227027   2.663   0.581   5.793 -1.2635  3.1633 -0.5829
 5189SOL     OW27028   2.103   0.989  16.071 -0.1613 -0.2297  0.3315
 5189SOL    HW127029   2.150   1.014  15.992  1.3150  1.3425  1.6974
 5189SOL    HW227030   2.110   0.893  16.067 -1.5068 -0.2513 -1.5393
 5190SOL     OW27031   4.524   3.542   9.590 -0.0636  0.0708 -0.4078
 5190SOL    HW127032   4.496   3.592   9.666  1.9013 -0.8186  0.9142
 5190SOL    HW227033   4.591   3.603   9.558 -0.8330  1.1895  0.1299
 5191SOL     OW27034   4.402   3.840  12.206  0.9711  0.0708  1.0183
 5191SOL    HW127035   4.377   3.827  12.298 -2.0767  2.0495  0.4580
 5191SOL    HW227036   4.416   3.749  12.182 -3.3743 -0.3963  0.2450
 5192SOL     OW27037   3.883   0.337  14.230  0.2126  0.0614 -0.0553
 5192SOL    HW127038   3.862   0.355  14.321  1.1328  0.2593  0.1102
 5192SOL    HW227039   3.803   0.362  14.184 -0.0556 -2.5712 -1.0262
 5193SOL     OW27040   2.203   2.418  14.608 -0.7240 -0.0830 -0.1321
 5193SOL    HW127041   2.136   2.487  14.616 -0.6563 -0.2735  2.0536
 5193SOL    HW227042   2.285   2.467  14.614 -0.4172 -0.6763  0.5645
 5194SOL     OW27043   1.734   1.935   1.393  0.0472 -0.2264 -0.3710
 5194SOL    HW127044   1.640   1.930   1.382 -0.0352  1.3974 -0.4745
 5194SOL    HW227045   1.741   2.010   1.453 -0.3304 -1.7941  1.6377
 5195SOL     OW27046   4.645   0.651   7.231 -0.3835 -0.2149  0.6559
 5195SOL    HW127047   0.004   0.625   7.195 -0.5758  0.7974 -0.5399
 5195SOL    HW227048   4.674   0.712   7.299 -0.7696 -1.6529  2.0890
 5196SOL     OW27049   1.560   0.582   6.296 -0.1981 -0.0262  0.7404
 5196SOL    HW127050   1.623   0.513   6.275 -0.3982  0.1026 -0.2865
 5196SOL    HW227051   1.519   0.606   6.213 -0.1323 -0.8892  0.4544
 5197SOL     OW27052   3.853   4.145   7.946 -0.0033 -0.5554 -0.5550
 5197SOL    HW127053   3.819   4.071   7.897 -1.3212 -0.7339  0.6303
 5197SOL    HW227054   3.784   4.146   8.012  0.1357  1.2006 -0.4293
 5198SOL     OW27055   2.237   4.419   9.396 -0.1135  0.6796 -0.9139
 5198SOL    HW127056   2.222   4.506   9.360 -0.5153  0.5091 -1.1523
 5198SOL    HW227057   2.174   4.370   9.344 -0.3074  0.7411 -0.7390
 5199SOL     OW27058   2.621   3.801   8.169 -0.0175  0.6528  0.7010
 5199SOL    HW127059   2.708   3.781   8.204  0.7083  0.7085 -1.0425
 5199SOL    HW227060   2.577   3.801   8.254 -0.0539  1.0699  0.6804
 5200SOL     OW27061   1.145   1.565   3.662  0.1053 -0.2069 -0.1225
 5200SOL    HW127062   1.228   1.589   3.620 -0.8034  1.7941 -0.8008
 5200SOL    HW227063   1.086   1.633   3.629  2.1430  1.8742  0.5197
 5201SOL     OW27064   0.533   0.725  13.859 -0.3927  0.0354 -0.6539
 5201SOL    HW127065   0.452   0.743  13.812 -0.2640 -0.5912 -1.1199
 5201SOL    HW227066   0.549   0.630  13.853 -1.8924 -0.3434  1.5213
 5202SOL     OW27067   3.507   2.405   9.380  0.5416  0.2861 -0.1342
 5202SOL    HW127068   3.549   2.491   9.389  2.2194 -0.4860 -0.5464
 5202SOL    HW227069   3.565   2.356   9.438 -1.0801  1.1325  2.1654
 5203SOL     OW27070   2.413   0.346   8.261  0.0854 -0.2653 -0.0789
 5203SOL    HW127071   2.321   0.362   8.283  0.4303 -0.6495  1.6400
 5203SOL    HW227072   2.445   0.436   8.253 -1.7745  0.2498 -1.8239
 5204SOL     OW27073   2.327   1.657   8.032 -0.3535  0.3385 -0.3423
 5204SOL    HW127074   2.257   1.696   8.085  0.9580  0.8023  1.0764
 5204SOL    HW227075   2.388   1.649   8.106  0.0074 -2.4734 -0.9527
 5205SOL     OW27076   1.641   2.750   5.807  0.3469 -0.0778  0.2571
 5205SOL    HW127077   1.653   2.657   5.788 -0.5182 -0.1587  0.0972
 5205SOL    HW227078   1.548   2.735   5.789  0.4259  1.7231 -1.6608
 5206SOL     OW27079   1.894   3.135   1.834  0.5719 -0.0484  0.0278
 5206SOL    HW127080   1.954   3.081   1.783 -1.0137 -1.0800 -0.7505
 5206SOL    HW227081   1.827   3.069   1.850  3.2211 -2.2547  2.1122
 5207SOL     OW27082   3.937   1.341   9.515  0.5169 -0.0883 -0.3908
 5207SOL    HW127083   3.911   1.425   9.478 -1.6294  0.0561  1.3800
 5207SOL    HW227084   3.930   1.273   9.448 -1.8278 -2.3958  2.1791
 5208SOL     OW27085   2.665   4.720   7.686 -0.2940  0.1417 -0.6893
 5208SOL    HW127086   2.580   4.687   7.656 -0.5988 -0.3482  0.7002
 5208SOL    HW227087   2.713   4.643   7.717 -0.4836  0.6380  0.8060
 5209SOL     OW27088   1.161   0.158   0.318 -0.6839 -0.0093 -0.1874
 5209SOL    HW127089   1.110   0.077   0.315 -0.3853 -0.1832 -0.6028
 5209SOL    HW227090   1.248   0.118   0.324 -0.5651  0.4829  1.5670
 5210SOL     OW27091   1.936   4.450  17.443  0.4530 -0.4335 -0.1929
 5210SOL    HW127092   1.888   4.532  17.452  0.6799 -0.5525  2.1056
 5210SOL    HW227093   2.020   4.465  17.486  1.2606 -0.8564 -1.6635
 5211SOL     OW27094   1.005   0.342   2.030 -0.5795  0.1437 -0.3088
 5211SOL    HW127095   0.973   0.368   2.117  1.6457  0.8399  0.2996
 5211SOL    HW227096   1.097   0.326   2.052 -1.1713 -0.8674  1.4854
 5212SOL     OW27097   0.415   1.968   6.756 -0.5171 -0.0434  0.2562
 5212SOL    HW127098   0.359   1.890   6.753  0.4916 -0.8219  1.8425
 5212SOL    HW227099   0.478   1.939   6.821  0.5436 -1.8249 -1.5606
 5213SOL     OW27100   4.719   3.721  10.886 -0.0025  0.3764 -0.0397
 5213SOL    HW127101   4.694   3.812  10.875 -1.4126 -0.2768 -2.0525
 5213SOL    HW227102   0.025   3.696  10.799 -0.6728 -0.8329  0.0704
 5214SOL     OW27103   0.422   1.718   5.590  0.2995 -0.2013  0.0087
 5214SOL    HW127104   0.471   1.750   5.666  2.2292 -2.3037 -0.3269
 5214SOL    HW227105   0.426   1.789   5.527 -0.5413 -0.2489 -0.0927
 5215SOL     OW27106   3.500   3.629   0.609  0.2391 -0.4961 -0.0403
 5215SOL    HW127107   3.436   3.558   0.613 -1.3165  0.8651 -0.9014
 5215SOL    HW227108   3.456   3.697   0.558  0.1097 -0.8298 -0.3723
 5216SOL     OW27109   1.057   3.226  14.612  0.3712 -0.2507 -0.1157
 5216SOL    HW127110   1.055   3.283  14.689  1.5375  1.5866 -1.4334
 5216SOL    HW227111   1.151   3.205  14.617  0.6557  0.9708 -0.2080
 5217SOL     OW27112   0.397   0.758   3.717  0.0660 -0.0707 -0.4994
 5217SOL    HW127113   0.459   0.814   3.764  0.7702 -0.9546 -0.3640
 5217SOL    HW227114   0.364   0.815   3.648  0.7919  2.8437  1.5596
 5218SOL     OW27115   4.409   4.020   4.501  0.6357 -0.0694  0.5245
 5218SOL    HW127116   4.388   4.024   4.408 -1.4797 -1.1654  0.9613
 5218SOL    HW227117   4.440   4.108   4.521  1.8542 -0.6691  1.2484
 5219SOL     OW27118   1.492   2.865   6.246 -0.1609  0.3878  0.2495
 5219SOL    HW127119   1.576   2.853   6.291 -0.4462 -0.0648  0.6659
 5219SOL    HW227120   1.523   2.848   6.157  0.4342  0.9620  0.3430
 5220SOL     OW27121   0.512   1.780   4.960  0.4895  0.2523 -0.5371
 5220SOL    HW127122   0.569   1.778   4.883  2.0348  1.8996  0.5374
 5220SOL    HW227123   0.528   1.868   4.996  2.1247 -0.1810 -0.1901
 5221SOL     OW27124   3.785   3.634   5.427 -0.5377 -0.0047 -0.2747
 5221SOL    HW127125   3.850   3.692   5.387  0.0009  1.2618  2.4764
 5221SOL    HW227126   3.834   3.555   5.452  0.0852  0.9343  1.4767
 5222SOL     OW27127   2.542   2.415   0.423  0.6121  0.1510  0.0947
 5222SOL    HW127128   2.550   2.409   0.518  2.0350  0.9018  0.0188
 5222SOL    HW227129   2.499   2.332   0.401  0.9987 -0.1562  0.5181
 5223SOL     OW27130   4.250   1.303   5.956 -0.2751  0.2137 -0.4151
 5223SOL    HW127131   4.205   1.249   5.892  0.0366 -0.9088  0.3145
 5223SOL    HW227132   4.290   1.375   5.907  0.7277 -0.2827 -0.3237
 5224SOL     OW27133   2.964   0.989   9.913  0.0145  0.1859 -0.4315
 5224SOL    HW127134   2.901   0.942   9.968 -0.9669  0.9166 -0.9254
 5224SOL    HW227135   3.049   0.970   9.951 -0.4553 -1.0817  0.0098
 5225SOL     OW27136   0.823   4.031   3.325  0.4902 -0.6721 -0.1667
 5225SOL    HW127137   0.812   4.077   3.242 -0.9336  1.3085  1.1412
 5225SOL    HW227138   0.736   3.993   3.334 -0.2776  1.7940  2.7438
 5226SOL     OW27139   1.467   3.402   9.190 -0.0760 -0.0939  0.0219
 5226SOL    HW127140   1.408   3.339   9.231  1.1427  0.0215  1.9460
 5226SOL    HW227141   1.416   3.481   9.203 -1.1829 -0.3411 -2.7540
 5227SOL     OW27142   4.515   2.515   5.247 -0.0890 -0.2919 -0.0230
 5227SOL    HW127143   4.552   2.454   5.184  3.1783 -0.2442  1.8321
 5227SOL    HW227144   4.580   2.508   5.317  0.6669  3.5269 -0.3292
 5228SOL     OW27145   0.002   3.788   1.803 -0.0373 -0.1204 -0.3855
 5228SOL    HW127146   4.702   3.838   1.725  0.3106  0.2953 -0.2341
 5228SOL    HW227147   4.663   3.815   1.867 -0.3242 -0.0551 -0.7019
 5229SOL     OW27148   0.633   3.050   5.366  0.1576 -0.0446  0.2639
 5229SOL    HW127149   0.667   3.139   5.379  1.5340 -0.3241 -1.3545
 5229SOL    HW227150   0.580   3.064   5.288 -1.1750 -1.5608  0.8876
 5230SOL     OW27151   0.978   2.780   4.645  0.3880  0.9187 -0.6249
 5230SOL    HW127152   0.972   2.872   4.671 -0.3705  0.5621  0.5036
 5230SOL    HW227153   1.036   2.778   4.569  2.2714 -0.2741  0.8019
 5231SOL     OW27154   0.795   2.356  17.503  0.4888  0.6973 -0.7172
 5231SOL    HW127155   0.764   2.265  17.510  1.9945  0.2177 -0.3636
 5231SOL    HW227156   0.735   2.385  17.434 -1.1299  3.0017  1.6782
 5232SOL     OW27157   3.187   4.344   5.385  0.1293 -0.1303 -0.6219
 5232SOL    HW127158   3.237   4.284   5.329  1.7958 -0.4403  1.2189
 5232SOL    HW227159   3.143   4.278   5.438 -1.3103  1.9483  0.7603
 5233SOL     OW27160   0.257   3.499   3.236 -0.0678 -0.5614 -0.1431
 5233SOL    HW127161   0.206   3.546   3.302 -0.6006  2.6692 -2.8445
 5233SOL    HW227162   0.333   3.555   3.222 -0.8425  0.1148 -1.6556
 5234SOL     OW27163   1.545   2.501   6.455 -0.0350 -0.0598  0.0145
 5234SOL    HW127164   1.551   2.582   6.505 -0.2115  0.1101 -0.2328
 5234SOL    HW227165   1.526   2.536   6.367 -2.3889 -1.7344 -0.1380
 5235SOL     OW27166   2.396   2.463   8.120  0.1602  0.2655 -0.0498
 5235SOL    HW127167   2.485   2.431   8.107  0.6704  1.6804  0.0211
 5235SOL    HW227168   2.352   2.384   8.087 -0.8362  0.8004 -0.0124
 5236SOL     OW27169   1.303   1.262   1.913 -0.6127 -0.6936  0.4397
 5236SOL    HW127170   1.257   1.180   1.934 -2.4671 -0.4346 -2.4987
 5236SOL    HW227171   1.288   1.324   1.984  1.6952 -0.7700  0.9994
 5237SOL     OW27172   3.779   2.843  11.762 -0.3340  0.0697 -0.1564
 5237SOL    HW127173   3.795   2.937  11.767 -0.5095  0.0562  0.6691
 5237SOL    HW227174   3.785   2.818  11.854 -2.8617 -2.7600 -0.7499
 5238SOL     OW27175   2.079   0.055   7.304  0.2994 -0.2560  0.4191
 5238SOL    HW127176   2.129   0.046   7.386  0.3016 -2.0465  0.2262
 5238SOL    HW227177   2.095   0.146   7.277  0.5297 -0.1776  0.8123
 5239SOL     OW27178   1.795   0.913   6.080  0.4065 -0.0234  0.3388
 5239SOL    HW127179   1.842   0.907   5.997  1.8676 -1.5525  1.2835
 5239SOL    HW227180   1.868   0.903   6.141  0.8290  2.0380  0.1975
 5240SOL     OW27181   1.097   1.891   6.842 -0.1899  0.0637  0.0866
 5240SOL    HW127182   1.036   1.914   6.912 -2.2831 -1.1038 -1.3386
 5240SOL    HW227183   1.136   1.978   6.828  0.3929 -0.2649 -0.2978
 5241SOL     OW27184   4.346   3.822   3.838  0.0728 -0.0764 -0.5189
 5241SOL    HW127185   4.261   3.829   3.881  0.4576 -1.6206  0.4819
 5241SOL    HW227186   4.327   3.773   3.758 -2.8878  0.7976 -0.3479
 5242SOL     OW27187   2.758   1.791   6.810 -0.9756 -0.0868  0.2288
 5242SOL    HW127188   2.707   1.729   6.864 -0.3006 -0.5888  0.2916
 5242SOL    HW227189   2.768   1.735   6.734 -0.5966  0.9205 -0.4541
 5243SOL     OW27190   2.662   1.549   9.248 -0.7225  0.0120  0.7541
 5243SOL    HW127191   2.726   1.489   9.287 -1.6739 -3.0389 -2.4482
 5243SOL    HW227192   2.677   1.632   9.293  0.3327  0.0509  0.3295
 5244SOL     OW27193   0.761   3.059   9.303  0.0407 -0.1144  0.2489
 5244SOL    HW127194   0.853   3.038   9.316  0.5161  0.7713 -1.6467
 5244SOL    HW227195   0.734   2.983   9.251  1.3118  0.3329 -1.0716
 5245SOL     OW27196   4.676   3.705  15.076 -0.1283 -0.1042  0.2608
 5245SOL    HW127197   0.030   3.683  15.026 -0.3729  1.9515 -1.0156
 5245SOL    HW227198   4.642   3.773  15.019 -2.5204 -0.1102  1.6993
 5246SOL     OW27199   3.841   1.305  11.813  0.2222  0.7623 -0.1344
 5246SOL    HW127200   3.821   1.214  11.833  0.9554  0.3630 -1.2263
 5246SOL    HW227201   3.894   1.328  11.889  1.9918  0.0348 -1.1419
 5247SOL     OW27202   2.103   4.055   3.124 -0.0091 -0.4257  0.3519
 5247SOL    HW127203   2.153   4.006   3.059 -2.0520 -0.5313 -1.1385
 5247SOL    HW227204   2.173   4.091   3.179 -1.8267  1.2745  1.5722
 5248SOL     OW27205   2.908   3.919   7.469  0.0972 -0.1707 -0.4266
 5248SOL    HW127206   2.876   3.906   7.558  1.1677  0.4928  0.0553
 5248SOL    HW227207   2.828   3.893   7.423 -0.3642 -1.3642  1.0305
 5249SOL     OW27208   0.370   0.429   3.677  0.1777  0.1569  0.1317
 5249SOL    HW127209   0.346   0.505   3.730 -1.1518  0.2675 -0.6235
 5249SOL    HW227210   0.465   0.435   3.677  0.2565 -1.2228  0.2928
 5250SOL     OW27211   0.912   1.843   7.500 -0.8626  0.3939  0.2784
 5250SOL    HW127212   0.946   1.756   7.479 -0.3695  0.5964  0.2227
 5250SOL    HW227213   0.854   1.826   7.574 -2.2189  2.2526 -0.3600
 5251SOL     OW27214   1.428   0.848  12.533  0.1129  0.2494  0.0394
 5251SOL    HW127215   1.412   0.840  12.439  0.9196  1.4505 -0.2007
 5251SOL    HW227216   1.522   0.836  12.532 -0.0878 -1.4227  2.7331
 5252SOL     OW27217   1.195   0.262   6.164  0.4094 -0.4019 -0.2131
 5252SOL    HW127218   1.130   0.315   6.117 -1.0903 -3.4593 -1.6280
 5252SOL    HW227219   1.276   0.283   6.117  1.0493 -0.2874  0.9430
 5253SOL     OW27220   4.232   2.911  10.774  0.0083 -0.2983 -0.6350
 5253SOL    HW127221   4.169   2.894  10.843 -0.8250 -0.9349 -1.5575
 5253SOL    HW227222   4.171   2.901  10.701  0.5184 -0.6859 -1.0042
 5254SOL     OW27223   1.117   0.236  12.306  0.0868  0.0443  0.0674
 5254SOL    HW127224   1.042   0.188  12.271 -0.4972  1.6498 -0.8782
 5254SOL    HW227225   1.100   0.232  12.400  2.8116 -0.3272  0.5409
 5255SOL     OW27226   2.707   4.522   0.926  0.0392 -0.4489 -0.7955
 5255SOL    HW127227   2.802   4.517   0.912 -0.2553 -2.7571 -1.9783
 5255SOL    HW227228   2.707   4.587   0.996 -2.2084 -1.8279  0.4767
 5256SOL     OW27229   2.348   0.974   6.243 -0.5840 -0.6461 -0.2329
 5256SOL    HW127230   2.349   0.938   6.154 -0.7827  0.1846 -0.5656
 5256SOL    HW227231   2.284   1.044   6.237  1.0701  0.9760  0.9907
 5257SOL     OW27232   1.738   0.722  11.717  0.0381  0.1496  0.5988
 5257SOL    HW127233   1.826   0.759  11.721 -0.3375  0.9975  1.1287
 5257SOL    HW227234   1.767   0.642  11.674 -0.6602 -0.5046  1.3300
 5258SOL     OW27235   3.564   2.612   2.737  0.1643  0.0173  0.4070
 5258SOL    HW127236   3.509   2.680   2.698  0.0083  0.4746  1.4175
 5258SOL    HW227237   3.650   2.648   2.715 -0.3462  0.7097 -0.4326
 5259SOL     OW27238   1.007   3.148   7.704  0.1955  0.0574  0.2359
 5259SOL    HW127239   0.976   3.236   7.679  1.7419 -0.4500 -3.4531
 5259SOL    HW227240   0.967   3.095   7.635  1.0270  0.9551 -0.9392
 5260SOL     OW27241   4.232   3.586   5.946 -0.8027 -0.4088 -0.1300
 5260SOL    HW127242   4.215   3.501   5.989 -2.4793 -0.0362 -0.0346
 5260SOL    HW227243   4.147   3.629   5.942 -1.0335 -0.6594  2.0434
 5261SOL     OW27244   3.784   1.750   6.431 -0.4967 -0.2138 -0.6242
 5261SOL    HW127245   3.817   1.660   6.436 -1.4680 -0.5294  0.1978
 5261SOL    HW227246   3.829   1.776   6.351  0.2057  0.3289 -0.0600
 5262SOL     OW27247   4.032   0.672   2.986  0.6477  0.5491  0.7515
 5262SOL    HW127248   4.023   0.633   2.898 -1.7961 -1.9594  2.1197
 5262SOL    HW227249   4.102   0.622   3.028  0.9276 -0.0842 -0.4612
 5263SOL     OW27250   3.009   0.486   5.729 -0.0764 -0.3467 -0.3676
 5263SOL    HW127251   2.922   0.511   5.761 -0.0366 -1.9476  0.9901
 5263SOL    HW227252   2.994   0.448   5.642  0.6001  3.0758 -1.9891
 5264SOL     OW27253   3.459   1.986  15.904 -0.9607  0.0189  0.6505
 5264SOL    HW127254   3.392   1.955  15.965  0.3217 -0.9208  1.5959
 5264SOL    HW227255   3.403   2.022  15.836 -1.3142  1.2670  1.6035
 5265SOL     OW27256   1.275   0.806   8.640  0.9060 -0.6606 -0.2083
 5265SOL    HW127257   1.304   0.897   8.645 -0.3508 -0.3030  0.7448
 5265SOL    HW227258   1.240   0.812   8.551 -0.1455 -0.6498  0.2070
 5266SOL     OW27259   3.577   3.871   2.928  0.2728  0.5620  0.2723
 5266SOL    HW127260   3.618   3.914   2.853 -0.1618  0.9610  0.2676
 5266SOL    HW227261   3.484   3.888   2.912  0.3017 -0.5784 -1.1664
 5267SOL     OW27262   4.329   0.789   5.800  0.1161 -0.0198 -0.6748
 5267SOL    HW127263   4.353   0.771   5.891  0.4214 -1.5811 -1.0737
 5267SOL    HW227264   4.412   0.808   5.756 -1.3176  0.8176 -3.0134
 5268SOL     OW27265   1.255   4.559   5.377  0.2782  0.0206 -0.3765
 5268SOL    HW127266   1.273   4.608   5.297 -0.2502 -0.6634 -0.9050
 5268SOL    HW227267   1.168   4.523   5.362  1.3540 -2.4892 -0.7213
 5269SOL     OW27268   2.438   3.455   2.255  0.0872 -0.0231  0.1053
 5269SOL    HW127269   2.492   3.401   2.197 -0.7518 -0.0974 -0.6097
 5269SOL    HW227270   2.500   3.525   2.276 -0.7018  1.3818 -2.1436
 5270SOL     OW27271   2.416   3.993   7.039  0.5051  0.1251 -0.6535
 5270SOL    HW127272   2.361   3.967   7.112  1.6143 -0.9880 -0.2155
 5270SOL    HW227273   2.494   3.937   7.038  0.6330  0.3117 -1.6653
 5271SOL     OW27274   1.271   1.235   5.951 -0.1835  0.0819  0.0157
 5271SOL    HW127275   1.282   1.190   5.868 -1.2576 -1.3446  0.6418
 5271SOL    HW227276   1.181   1.266   5.952 -0.4707 -0.7489 -1.6911
 5272SOL     OW27277   2.577   2.078   3.702  0.2475 -0.1477 -0.2459
 5272SOL    HW127278   2.523   2.113   3.631  0.4026  1.4690  0.4541
 5272SOL    HW227279   2.666   2.078   3.668  0.0874 -1.4630 -0.6558
 5273SOL     OW27280   1.999   4.180   7.250  0.1082  0.1151  0.6818
 5273SOL    HW127281   1.984   4.138   7.165 -0.9143 -1.3678  1.5939
 5273SOL    HW227282   1.963   4.106   7.299  0.5634 -0.8137 -0.3904
 5274SOL     OW27283   1.223   0.571   7.674 -0.1510 -0.5748 -0.2734
 5274SOL    HW127284   1.216   0.542   7.765 -0.6726  0.5061  0.0346
 5274SOL    HW227285   1.318   0.583   7.671  0.1536 -3.6803 -2.0640
 5275SOL     OW27286   3.861   3.243   2.233  0.3116  0.8068 -0.9743
 5275SOL    HW127287   3.905   3.327   2.242  0.1306  0.6281  1.5781
 5275SOL    HW227288   3.849   3.221   2.325 -0.4147  0.9408 -1.0353
 5276SOL     OW27289   1.804   1.355   5.441  0.2301 -0.8211 -0.5107
 5276SOL    HW127290   1.756   1.415   5.498  0.4251 -0.1429 -1.0596
 5276SOL    HW227291   1.804   1.406   5.361 -0.8378 -0.2472 -0.1322
 5277SOL     OW27292   1.738   2.776  12.781 -0.2515 -0.1653 -0.0234
 5277SOL    HW127293   1.817   2.822  12.809  0.0187 -0.2046 -0.7215
 5277SOL    HW227294   1.693   2.793  12.864 -0.1717  0.0648 -0.0256
 5278SOL     OW27295   1.547   1.066   0.979  0.0960  0.0052  0.6400
 5278SOL    HW127296   1.592   1.006   1.038  1.8192  0.3271 -0.3524
 5278SOL    HW227297   1.479   1.010   0.942  1.0507  0.7533 -2.2830
 5279SOL     OW27298   0.957   2.276   8.176 -0.0177 -0.5438 -0.5387
 5279SOL    HW127299   0.935   2.254   8.085  0.4157  0.4049 -0.8668
 5279SOL    HW227300   0.870   2.285   8.214  0.6158  0.6556  0.6216
 5280SOL     OW27301   2.417   1.543   5.132 -0.4178  0.2200  0.1007
 5280SOL    HW127302   2.383   1.617   5.182 -2.9644 -1.3235  0.6572
 5280SOL    HW227303   2.475   1.589   5.072 -1.4874 -0.3700 -1.4043
 5281SOL     OW27304   0.869   0.082   3.320  0.2146  0.1580  0.0924
 5281SOL    HW127305   0.910   0.064   3.235  1.1225  0.3591  0.4784
 5281SOL    HW227306   0.798   0.019   3.313  0.5598  0.1419 -3.0670
 5282SOL     OW27307   3.762   2.865   4.253 -0.0671 -0.0574 -0.2565
 5282SOL    HW127308   3.842   2.816   4.234 -1.9447 -2.2288 -2.4568
 5282SOL    HW227309   3.690   2.839   4.197  0.4043  0.1479 -0.9568
 5283SOL     OW27310   0.568   2.588   8.871 -0.1735  0.1614  0.7993
 5283SOL    HW127311   0.487   2.543   8.896  1.6852 -2.8751  1.3169
 5283SOL    HW227312   0.623   2.587   8.950 -1.8605  0.4023  1.9751
 5284SOL     OW27313   1.321   2.798   1.106 -0.3120  0.0009 -0.0214
 5284SOL    HW127314   1.380   2.862   1.066  0.6679  0.5537  2.2952
 5284SOL    HW227315   1.367   2.784   1.189 -0.2107  0.1750 -0.0470
 5285SOL     OW27316   0.838   4.119   8.140  0.3322 -0.3890 -0.2837
 5285SOL    HW127317   0.768   4.106   8.204  0.2145 -0.5381 -0.4407
 5285SOL    HW227318   0.785   4.093   8.064 -0.9083  1.5127 -0.0449
 5286SOL     OW27319   2.318   3.882   4.199 -0.0845  0.5401 -0.0450
 5286SOL    HW127320   2.301   3.788   4.201  2.4965  0.0595 -0.4860
 5286SOL    HW227321   2.255   3.920   4.261  0.4765 -0.5489  1.1728
 5287SOL     OW27322   2.938   1.740  10.084  0.1870 -0.0810 -0.0478
 5287SOL    HW127323   2.936   1.717  10.177 -3.5120 -1.0007 -0.3711
 5287SOL    HW227324   2.951   1.834  10.092 -0.2110  0.1907 -2.7313
 5288SOL     OW27325   1.740   1.795   5.373 -0.3919  0.3556  0.3025
 5288SOL    HW127326   1.695   1.717   5.407 -0.8614  0.4871 -0.0210
 5288SOL    HW227327   1.818   1.740   5.367  0.7281  1.8730  0.7809
 5289SOL     OW27328   2.245   4.235   0.618  0.5826 -0.4407 -0.2079
 5289SOL    HW127329   2.182   4.185   0.671 -1.4805  2.1943 -0.1606
 5289SOL    HW227330   2.312   4.169   0.601  1.1409  0.3471 -1.0361
 5290SOL     OW27331   0.043   3.319   6.535  0.3273  0.1930  0.1100
 5290SOL    HW127332   4.689   3.319   6.587  0.0042 -1.0413 -0.3823
 5290SOL    HW227333   0.047   3.412   6.510 -0.6758  0.3531  0.5547
 5291SOL     OW27334   3.897   1.300   3.160  0.1759  0.5925 -0.0465
 5291SOL    HW127335   3.976   1.256   3.190 -0.9253 -1.2889  0.0968
 5291SOL    HW227336   3.937   1.364   3.101 -2.0811  2.4012  0.3592
 5292SOL     OW27337   1.610   0.760  17.364  0.3268  0.1886  0.3246
 5292SOL    HW127338   1.533   0.724  17.408  0.1135 -0.0309 -0.2343
 5292SOL    HW227339   1.691   0.729  17.405 -0.3525 -0.2845  1.2941
 5293SOL     OW27340   4.054   0.116   7.100  0.5290 -0.2628 -0.4358
 5293SOL    HW127341   4.090   0.198   7.136  0.0394  1.0783 -2.9999
 5293SOL    HW227342   4.029   0.069   7.179 -0.0764 -1.7526 -1.5253
 5294SOL     OW27343   2.928   2.123   7.834 -0.9949  0.6431 -0.2665
 5294SOL    HW127344   2.908   2.198   7.779  1.0954  0.2185 -1.6108
 5294SOL    HW227345   2.845   2.077   7.843 -1.0843  0.7614 -0.4999
 5295SOL     OW27346   2.569   0.192   1.864 -0.1337  0.3082  0.4836
 5295SOL    HW127347   2.604   0.253   1.928 -1.1597 -1.2403  2.5104
 5295SOL    HW227348   2.551   0.250   1.790  0.2823  0.8889  0.8459
 5296SOL     OW27349   0.243   1.369  15.459 -0.0790 -0.4175 -0.0941
 5296SOL    HW127350   0.201   1.453  15.481 -0.5240 -0.5791 -0.3315
 5296SOL    HW227351   0.271   1.348  15.548 -0.1425  2.4757  0.6178
 5297SOL     OW27352   1.505   1.058   6.825  0.0599  0.0570  0.1595
 5297SOL    HW127353   1.437   1.070   6.758  0.3055 -0.6445 -0.2172
 5297SOL    HW227354   1.472   1.110   6.898  1.0993 -0.3463  0.9075
 5298SOL     OW27355   1.877   0.557  14.445  0.1933  0.5647  0.2724
 5298SOL    HW127356   1.860   0.481  14.389  2.2511  0.4872 -0.2604
 5298SOL    HW227357   1.931   0.529  14.519 -0.5500 -0.0081  0.5919
 5299SOL     OW27358   4.291   1.891  17.557  0.9645  0.2090 -0.2847
 5299SOL    HW127359   4.337   1.969  17.527  0.0237  0.4061 -1.2072
 5299SOL    HW227360   4.206   1.888  17.513  1.1711 -1.3229 -0.5986
 5300SOL     OW27361   2.252   2.718   3.203  0.3576 -0.2384 -0.3185
 5300SOL    HW127362   2.322   2.768   3.163  0.1075  0.9693  0.7604
 5300SOL    HW227363   2.189   2.725   3.131 -1.6282  1.3968  1.5876
 5301SOL     OW27364   4.478   2.716  17.412  0.3560  0.1789 -0.2554
 5301SOL    HW127365   4.394   2.724  17.366  1.6327  2.8242 -2.1026
 5301SOL    HW227366   4.476   2.789  17.474 -0.9256 -0.0286 -0.0358
 5302SOL     OW27367   2.785   1.389  12.752 -0.2939  0.4263 -0.6541
 5302SOL    HW127368   2.733   1.309  12.744 -1.4713  1.2874 -1.5951
 5302SOL    HW227369   2.719   1.449  12.717 -0.7358  1.0091  1.1907
 5303SOL     OW27370   1.662   2.123  14.184  0.2248  0.2220  0.4461
 5303SOL    HW127371   1.594   2.089  14.242 -0.5627 -0.5297 -0.9104
 5303SOL    HW227372   1.686   2.202  14.233  0.5241  0.7347 -0.5333
 5304SOL     OW27373   3.924   1.383   6.854 -0.0661 -0.0700  0.5555
 5304SOL    HW127374   3.880   1.407   6.772 -1.1538 -1.4294  0.7518
 5304SOL    HW227375   3.844   1.390   6.906  0.0127 -0.2238  0.6973
 5305SOL     OW27376   1.426   2.662  12.529  0.0809 -0.1883 -0.7480
 5305SOL    HW127377   1.377   2.716  12.591 -0.0808 -0.5941 -0.5251
 5305SOL    HW227378   1.499   2.623  12.577 -0.6667  0.4075  0.8676
 5306SOL     OW27379   1.088   2.365  12.615  0.1828 -0.1209  0.2404
 5306SOL    HW127380   0.997   2.350  12.638  0.3236 -1.6203 -0.2438
 5306SOL    HW227381   1.136   2.294  12.658 -1.3912 -1.9224 -0.9922
 5307SOL     OW27382   1.432   2.585   8.688  0.0213  0.0935 -0.4645
 5307SOL    HW127383   1.397   2.530   8.618 -0.7799  0.6758 -0.5230
 5307SOL    HW227384   1.353   2.583   8.743  0.2222 -2.8343 -0.2822
 5308SOL     OW27385   1.298   4.052  12.929  0.9112  0.3368 -0.0188
 5308SOL    HW127386   1.289   4.115  12.857  0.1830  0.4907  0.2068
 5308SOL    HW227387   1.255   4.093  13.005  0.3010 -1.4476  0.6030
 5309SOL     OW27388   0.901   3.862   6.743 -0.4339  0.3816  0.1912
 5309SOL    HW127389   0.863   3.784   6.702 -0.3156  0.1124  0.5946
 5309SOL    HW227390   0.994   3.837   6.744 -0.2519  1.0736  0.5515
 5310SOL     OW27391   1.873   3.099   2.800 -0.3236 -0.1009 -0.5872
 5310SOL    HW127392   1.844   3.058   2.718  0.4732 -0.0736 -0.8760
 5310SOL    HW227393   1.789   3.100   2.846  0.1600 -3.2936  0.3503
 5311SOL     OW27394   0.567   2.067  10.769 -0.5686 -0.8584 -0.5120
 5311SOL    HW127395   0.556   2.004  10.697 -0.7423 -0.6560 -0.6628
 5311SOL    HW227396   0.485   2.062  10.818 -0.6082  0.8964 -0.3962
 5312SOL     OW27397   1.314   3.893   4.148  0.7201  0.2616 -0.3572
 5312SOL    HW127398   1.276   3.819   4.196  0.4249  0.6952  0.0814
 5312SOL    HW227399   1.285   3.960   4.209  0.4179 -0.4427  0.2632
 5313SOL     OW27400   0.989   3.643  11.359 -0.3431 -0.5105  0.3637
 5313SOL    HW127401   0.898   3.647  11.388  0.2878 -1.1326  2.4464
 5313SOL    HW227402   1.037   3.674  11.436  1.8886  0.7488 -1.4980
 5314SOL     OW27403   4.149   0.064   5.139  0.0989 -0.3030 -0.5249
 5314SOL    HW127404   4.192   0.127   5.080 -1.5624  0.1800 -1.2365
 5314SOL    HW227405   4.068   0.113   5.158  2.3939  2.1369  2.8790
 5315SOL     OW27406   1.036   3.716   3.917  0.7895 -0.2676  0.1558
 5315SOL    HW127407   1.088   3.752   3.845  2.0672 -1.3511  0.5466
 5315SOL    HW227408   1.094   3.718   3.992  0.7997  0.7414  0.1179
 5316SOL     OW27409   4.036   0.097   7.506  0.3302 -0.3584 -0.2717
 5316SOL    HW127410   3.942   0.095   7.491  0.2362 -1.3388  0.4302
 5316SOL    HW227411   4.045   0.186   7.472 -0.5484  1.1967  3.6417
 5317SOL     OW27412   1.010   2.081  16.841 -0.1960  0.1968  0.8981
 5317SOL    HW127413   0.963   1.997  16.838  0.4962 -0.1460 -0.5776
 5317SOL    HW227414   1.022   2.094  16.747  0.2357 -1.6367  0.7009
 5318SOL     OW27415   4.688   2.638   9.447  0.6720 -0.1114 -0.6699
 5318SOL    HW127416   4.701   2.559   9.395  0.4020  0.0761 -1.0217
 5318SOL    HW227417   4.657   2.588   9.523 -2.4331  0.7516 -1.3718
 5319SOL     OW27418   0.190   0.276   6.470 -0.0192  0.8983  0.2606
 5319SOL    HW127419   0.259   0.249   6.531 -1.8706 -0.8747  1.5850
 5319SOL    HW227420   0.130   0.317   6.533 -1.8857 -0.2666 -0.7627
 5320SOL     OW27421   1.140   4.065   3.135  0.2300  0.0753 -0.6226
 5320SOL    HW127422   1.158   3.983   3.088 -0.5597 -0.2438 -0.3745
 5320SOL    HW227423   1.105   4.117   3.062  1.3555 -0.3764 -1.4869
 5321SOL     OW27424   4.081   2.592  11.142 -0.1248 -0.5363 -0.8447
 5321SOL    HW127425   4.016   2.522  11.136 -0.7779  0.3344 -3.6184
 5321SOL    HW227426   4.023   2.660  11.175  0.6426 -0.8419  1.1328
 5322SOL     OW27427   1.870   3.156   5.989  0.0429 -0.1936  0.2028
 5322SOL    HW127428   1.894   3.093   5.921  1.1047  2.6755 -2.0805
 5322SOL    HW227429   1.897   3.241   5.954  2.3355 -1.2955 -0.7724
 5323SOL     OW27430   1.736   0.593   4.826  0.3949  0.3335 -0.5210
 5323SOL    HW127431   1.705   0.683   4.840 -1.0004 -0.3973  1.0828
 5323SOL    HW227432   1.791   0.582   4.903  2.9673 -0.4524 -2.4805
 5324SOL     OW27433   2.386   4.253  15.237 -0.2395  0.0981 -0.0270
 5324SOL    HW127434   2.469   4.278  15.277  0.3247  1.0008 -1.7689
 5324SOL    HW227435   2.337   4.231  15.316 -2.7545  1.7261 -1.1590
 5325SOL     OW27436   4.460   0.542   6.547  0.1613  0.2219  0.5980
 5325SOL    HW127437   4.545   0.559   6.588  0.9427  0.0364 -0.9301
 5325SOL    HW227438   4.410   0.605   6.598  0.7056  0.2908  1.0462
 5326SOL     OW27439   4.656   3.912  16.231 -0.4893  0.2315  0.7901
 5326SOL    HW127440   4.578   3.909  16.286  0.4190  0.4887  2.0755
 5326SOL    HW227441   4.641   3.836  16.175 -1.6585  1.3568 -0.4468
 5327SOL     OW27442   1.451   0.522   7.029  0.2103 -0.4232 -0.2506
 5327SOL    HW127443   1.366   0.556   7.000  1.3287  1.2080 -1.5963
 5327SOL    HW227444   1.465   0.474   6.947 -0.3071  0.8022 -1.0660
 5328SOL     OW27445   3.957   3.619   2.446 -0.6863 -0.4272 -0.2810
 5328SOL    HW127446   3.885   3.615   2.510 -1.8025  2.0474 -1.3869
 5328SOL    HW227447   3.956   3.712   2.424 -3.3674 -0.1454  0.9667
 5329SOL     OW27448   4.690   2.040   9.076  0.3907  0.2511  0.3737
 5329SOL    HW127449   4.685   2.027   8.981  0.2491  0.5543  0.3366
 5329SOL    HW227450   0.016   2.121   9.084 -1.4978  1.5194 -0.1782
 5330SOL     OW27451   3.353   2.191   4.470 -0.3959 -0.4564 -0.2865
 5330SOL    HW127452   3.310   2.274   4.493  0.8083  0.0483  0.1215
 5330SOL    HW227453   3.445   2.214   4.457 -1.3397  2.7734 -1.4801
 5331SOL     OW27454   0.974   0.715   3.995  0.5421  0.0978 -0.0343
 5331SOL    HW127455   0.904   0.720   4.061  0.0760  0.5023 -0.5567
 5331SOL    HW227456   1.026   0.788   4.028  0.1602  0.4097 -0.1136
 5332SOL     OW27457   2.475   1.628   8.881  0.0075  0.3551  0.7538
 5332SOL    HW127458   2.510   1.566   8.817  1.7425  0.9583  1.1287
 5332SOL    HW227459   2.446   1.707   8.836 -2.7095  0.1236  2.1029
 5333SOL     OW27460   3.436   1.788  13.788 -0.3379 -0.1972  0.0326
 5333SOL    HW127461   3.350   1.765  13.754 -1.3214  0.3049  2.1859
 5333SOL    HW227462   3.463   1.820  13.701  0.9175  0.8757  0.8175
 5334SOL     OW27463   3.719   2.257   8.451 -1.2892  0.3271 -0.3801
 5334SOL    HW127464   3.646   2.213   8.407 -1.8927 -0.0175  0.9616
 5334SOL    HW227465   3.689   2.257   8.541  3.0836 -0.3240  1.0948
 5335SOL     OW27466   1.238   4.640   3.550 -0.0993  0.8002 -0.0179
 5335SOL    HW127467   1.219   4.644   3.457  2.4018  0.6863 -0.5165
 5335SOL    HW227468   1.284   4.556   3.552 -0.5529  0.5529  0.0845
 5336SOL     OW27469   4.689   1.521   9.303 -0.4628 -0.0539 -0.2698
 5336SOL    HW127470   4.625   1.457   9.271  0.1772 -0.7492 -0.1517
 5336SOL    HW227471   4.624   1.563   9.360  0.5854  1.4149 -0.1598
 5337SOL     OW27472   1.813   0.227  17.066 -0.7587  0.3400 -0.2965
 5337SOL    HW127473   1.835   0.141  17.028  0.9303  0.1778  1.0189
 5337SOL    HW227474   1.849   0.221  17.155  0.9413 -1.0837 -1.0639
 5338SOL     OW27475   0.523   2.321   4.629 -0.2996  0.1045  0.1354
 5338SOL    HW127476   0.574   2.386   4.580  1.4416 -0.2499  1.4569
 5338SOL    HW227477   0.435   2.346   4.601 -0.4098 -0.5000 -0.0623
 5339SOL     OW27478   1.634   1.808  13.178  0.0113  0.5608  0.4910
 5339SOL    HW127479   1.618   1.714  13.172  0.8690  0.4349  0.2087
 5339SOL    HW227480   1.568   1.838  13.114 -0.8410 -1.1887  0.5477
 5340SOL     OW27481   2.664   4.402   8.462 -0.7163  0.1311 -0.1246
 5340SOL    HW127482   2.716   4.453   8.524 -0.4758 -0.5378  0.2211
 5340SOL    HW227483   2.576   4.440   8.469 -0.9448 -1.0098  2.9876
 5341SOL     OW27484   0.463   1.071   0.450  0.0024  0.3370  0.0460
 5341SOL    HW127485   0.369   1.075   0.467 -0.0191  1.7267 -0.4033
 5341SOL    HW227486   0.469   1.014   0.373  1.4076  1.8534 -0.9429
 5342SOL     OW27487   1.820   2.542  16.263 -0.2206  0.6525  0.4032
 5342SOL    HW127488   1.768   2.620  16.280  1.7542  1.7553  1.3530
 5342SOL    HW227489   1.776   2.495  16.193 -0.7806  1.3966  0.2655
 5343SOL     OW27490   3.008   3.214  12.140 -0.2695 -0.0171 -0.4249
 5343SOL    HW127491   2.957   3.252  12.211 -0.3596 -1.1440  0.1144
 5343SOL    HW227492   3.033   3.292  12.091  1.0563 -0.4778 -0.4854
 5344SOL     OW27493   4.061   2.039   6.502  0.4756  0.0078 -0.5912
 5344SOL    HW127494   4.148   2.011   6.472 -0.3076  0.1645 -2.9909
 5344SOL    HW227495   4.051   1.974   6.572  0.0001 -0.2949 -0.9430
 5345SOL     OW27496   1.908   0.563   8.551 -0.0806 -0.3693  0.2362
 5345SOL    HW127497   1.948   0.626   8.491 -2.4777  0.2067 -0.7582
 5345SOL    HW227498   1.830   0.530   8.506 -0.8739  1.7049  0.0956
 5346SOL     OW27499   0.968   1.135   8.749 -0.0751  0.0302  0.0746
 5346SOL    HW127500   1.026   1.208   8.728 -1.1339  1.1277  0.9925
 5346SOL    HW227501   0.885   1.176   8.774 -0.2032 -0.1952  0.0247
 5347SOL     OW27502   0.559   1.048   1.739 -0.5267  0.0638  0.8489
 5347SOL    HW127503   0.471   1.074   1.710 -0.8308 -0.1163  1.5991
 5347SOL    HW227504   0.544   1.036   1.833 -0.3915 -1.5658  0.6695
 5348SOL     OW27505   4.491   3.992   9.048  0.7986 -0.9009  0.0283
 5348SOL    HW127506   4.560   3.945   9.095  0.1395 -2.2978 -0.3982
 5348SOL    HW227507   4.437   3.919   9.017  0.7744 -1.0842  0.4995
 5349SOL     OW27508   3.110   4.610   5.353  0.0106 -0.3262  0.2980
 5349SOL    HW127509   3.149   4.523   5.357  0.3266 -0.2299 -0.6581
 5349SOL    HW227510   3.022   4.598   5.388  0.5557  1.9435  2.4668
 5350SOL     OW27511   3.477   3.131   5.479  0.0494 -0.4750  0.3318
 5350SOL    HW127512   3.558   3.081   5.470 -0.6241 -1.3069 -1.0756
 5350SOL    HW227513   3.490   3.181   5.560 -1.5894 -0.7803  0.7917
 5351SOL     OW27514   2.247   1.543   7.169 -1.0947  0.0337 -0.4990
 5351SOL    HW127515   2.285   1.461   7.200  1.3330  0.2150 -3.0575
 5351SOL    HW227516   2.158   1.536   7.206 -0.3063  0.5287  1.5341
 5352SOL     OW27517   0.182   3.100   2.435 -0.5198 -0.4398 -0.2075
 5352SOL    HW127518   0.169   3.015   2.477  0.2653  0.0567  1.0303
 5352SOL    HW227519   0.149   3.161   2.502 -0.8742 -2.6289  1.6088
 5353SOL     OW27520   2.549   2.685   7.648  0.0035  0.0248  0.1704
 5353SOL    HW127521   2.586   2.760   7.600  0.1288  0.1191  0.4162
 5353SOL    HW227522   2.610   2.680   7.722  0.6538  0.3090 -0.3416
 5354SOL     OW27523   1.898   0.594   7.996  0.2392 -0.2751 -0.2977
 5354SOL    HW127524   1.929   0.623   7.910  1.5282  1.4396  0.7523
 5354SOL    HW227525   1.946   0.649   8.058  1.1210 -0.2690 -0.9823
 5355SOL     OW27526   1.577   0.863   7.542 -0.1983 -0.2891 -0.0920
 5355SOL    HW127527   1.562   0.890   7.633  1.9178 -0.7152  0.3760
 5355SOL    HW227528   1.671   0.855   7.527 -0.1956  1.1898 -0.8580
 5356SOL     OW27529   3.202   1.314   8.399  0.2276  0.4088 -0.1545
 5356SOL    HW127530   3.192   1.278   8.487 -0.5300  3.3473  0.9974
 5356SOL    HW227531   3.110   1.326   8.375  0.4304 -0.4741 -1.3408
 5357SOL     OW27532   0.943   2.665   4.248 -0.0347  0.1848 -0.3340
 5357SOL    HW127533   1.015   2.604   4.262  0.6301  0.7021 -1.4571
 5357SOL    HW227534   0.873   2.600   4.253  0.1414  0.1091  0.9876
 5358SOL     OW27535   4.578   0.942   4.200 -1.0845 -0.6245  0.0127
 5358SOL    HW127536   4.560   0.945   4.107 -3.0936  0.8505  0.4474
 5358SOL    HW227537   4.563   0.848   4.198  0.2686 -0.8298 -0.2944
 5359SOL     OW27538   3.332   2.271   7.188  0.3887 -0.0126  0.0064
 5359SOL    HW127539   3.324   2.190   7.136  4.8921 -1.7160  1.9413
 5359SOL    HW227540   3.240   2.294   7.199  0.4407  0.5302 -0.7345
 5360SOL     OW27541   1.758   0.668   3.820 -0.4529  0.0804 -0.4498
 5360SOL    HW127542   1.667   0.662   3.791 -0.5525 -0.8030  0.0693
 5360SOL    HW227543   1.806   0.671   3.737  3.0092  1.8385  1.6242
 5361SOL     OW27544   3.526   2.244   0.659 -0.0583 -0.4053 -0.4351
 5361SOL    HW127545   3.569   2.210   0.737 -0.8308  0.8741  0.5494
 5361SOL    HW227546   3.512   2.334   0.691 -0.4317 -0.2492 -1.0241
 5362SOL     OW27547   1.436   0.642  12.712 -0.1646 -0.0899  0.4947
 5362SOL    HW127548   1.367   0.655  12.777 -1.0626  1.2361 -0.7317
 5362SOL    HW227549   1.445   0.731  12.678  1.3301 -0.2257  0.5369
 5363SOL     OW27550   0.533   4.333   2.347  0.0070  0.0205  0.1862
 5363SOL    HW127551   0.601   4.289   2.399  0.2060 -1.5909 -1.4085
 5363SOL    HW227552   0.465   4.271   2.374 -0.3803 -0.5512 -2.0330
 5364SOL     OW27553   1.849   2.103  11.403  0.1049 -0.3492 -0.0365
 5364SOL    HW127554   1.910   2.064  11.465  0.6022  0.6626  0.0971
 5364SOL    HW227555   1.896   2.174  11.360 -3.1406  1.1366 -1.1492
 5365SOL     OW27556   4.423   0.125   8.945 -0.0847  0.0908 -0.0853
 5365SOL    HW127557   4.499   0.183   8.936  0.2974 -0.2348  1.0051
 5365SOL    HW227558   4.453   0.073   9.019  0.7739  0.9129  0.1519
 5366SOL     OW27559   1.348   1.047  13.292 -0.0513 -0.2814 -0.1588
 5366SOL    HW127560   1.326   1.009  13.207 -0.3363  0.5598 -0.4593
 5366SOL    HW227561   1.295   1.000  13.355 -1.8532 -0.4752 -1.8085
 5367SOL     OW27562   4.023   1.143   8.208 -0.4307 -0.2354  0.2751
 5367SOL    HW127563   3.937   1.102   8.219 -1.4899  1.8762 -0.2193
 5367SOL    HW227564   4.004   1.236   8.211 -0.2934 -0.1843 -0.3764
 5368SOL     OW27565   0.942   0.322   0.373 -0.0161 -0.0471  0.3027
 5368SOL    HW127566   0.977   0.404   0.337 -0.2667 -0.0236  0.1093
 5368SOL    HW227567   1.020   0.268   0.363 -1.1476 -1.6275  0.0451
 5369SOL     OW27568   2.694   1.909   9.858 -0.1261 -0.1896  0.1385
 5369SOL    HW127569   2.628   1.847   9.826 -0.5290  0.7048 -0.7956
 5369SOL    HW227570   2.774   1.886   9.811 -1.1846 -1.7776 -0.8741
 5370SOL     OW27571   1.175   3.773   6.822  0.6380 -0.8899 -0.5407
 5370SOL    HW127572   1.246   3.784   6.884 -0.7599 -0.0100  0.9116
 5370SOL    HW227573   1.170   3.868   6.807  2.0329 -0.8199 -0.5062
 5371SOL     OW27574   2.913   2.942  14.208  0.5437 -0.1641  0.2599
 5371SOL    HW127575   2.846   2.875  14.222 -1.9415  2.7198  2.2335
 5371SOL    HW227576   2.942   2.917  14.121 -1.7402  1.0813 -0.8523
 5372SOL     OW27577   2.194   1.435   8.930 -0.3029 -0.4084  0.2428
 5372SOL    HW127578   2.220   1.483   8.851 -1.2759  1.2575  0.9295
 5372SOL    HW227579   2.253   1.465   8.999 -0.0336 -0.9128  0.2296
 5373SOL     OW27580   3.772   1.894   3.551  0.4756 -0.7546  0.8049
 5373SOL    HW127581   3.786   1.816   3.605  0.3228 -0.6785  0.9551
 5373SOL    HW227582   3.679   1.878   3.539  0.0827  0.8153  1.6877
 5374SOL     OW27583   3.453   3.245  15.398 -0.1920 -0.0433  0.5293
 5374SOL    HW127584   3.506   3.305  15.345  0.9876 -1.9677 -0.4927
 5374SOL    HW227585   3.502   3.245  15.480 -0.2930 -0.1480  0.5885
 5375SOL     OW27586   0.920   1.024   8.055 -0.2159 -0.9002 -0.3518
 5375SOL    HW127587   0.908   0.997   8.146 -2.7731  0.8276 -0.1717
 5375SOL    HW227588   0.855   1.095   8.051  2.8916  1.9228 -1.2636
 5376SOL     OW27589   3.191   1.708  13.685 -0.0346 -0.0129 -0.4301
 5376SOL    HW127590   3.154   1.660  13.611 -2.4618  0.7127  0.2943
 5376SOL    HW227591   3.112   1.757  13.708  0.4024 -0.8902  2.9374
 5377SOL     OW27592   1.542   0.048   6.857 -0.2583  0.0339  0.1960
 5377SOL    HW127593   1.522   0.142   6.860  0.6513  0.2308  0.1116
 5377SOL    HW227594   1.473   0.014   6.799 -2.5430  2.3535  1.5525
 5378SOL     OW27595   1.809   3.955   0.946 -0.3511 -0.1927 -0.0965
 5378SOL    HW127596   1.832   3.888   0.881  1.1155  1.2511 -1.0616
 5378SOL    HW227597   1.747   4.007   0.895  0.8952  0.0434 -1.3832
 5379SOL     OW27598   1.468   0.307   7.688 -0.0461  0.7487 -0.0811
 5379SOL    HW127599   1.490   0.216   7.668 -0.1934  0.9189 -0.9987
 5379SOL    HW227600   1.487   0.348   7.604 -2.6900 -0.6236 -1.3832
 5380SOL     OW27601   1.206   4.354   8.025 -0.2870  0.4422 -0.1284
 5380SOL    HW127602   1.268   4.350   7.953 -0.9771 -0.6335 -0.6624
 5380SOL    HW227603   1.176   4.263   8.021  0.0561  0.2605  1.3275
 5381SOL     OW27604   1.799   1.836  11.354 -0.0702  0.3516  0.4230
 5381SOL    HW127605   1.736   1.822  11.424  2.2401 -1.5262  2.1388
 5381SOL    HW227606   1.817   1.929  11.367 -2.2870  1.1191 -2.0031
 5382SOL     OW27607   0.492   0.263  15.774  0.2893  0.1133  0.1993
 5382SOL    HW127608   0.411   0.237  15.731  0.6104 -0.6659  0.0665
 5382SOL    HW227609   0.456   0.312  15.849  0.9100  3.2395 -1.5339
 5383SOL     OW27610   1.434   3.275   4.395 -0.4534 -0.6406  0.2157
 5383SOL    HW127611   1.500   3.340   4.371  0.4087 -1.6139 -0.0323
 5383SOL    HW227612   1.426   3.295   4.488 -1.1708  0.2582 -0.0331
 5384SOL     OW27613   4.223   4.395   9.485 -0.1456 -0.3501  0.2945
 5384SOL    HW127614   4.128   4.397   9.472 -0.0858  0.6331 -0.0018
 5384SOL    HW227615   4.252   4.483   9.507 -1.1006 -0.0192  0.2558
 5385SOL     OW27616   2.445   0.578   5.774 -0.3533  0.2222  0.6411
 5385SOL    HW127617   2.399   0.498   5.797  0.4268 -0.7868 -1.2642
 5385SOL    HW227618   2.393   0.641   5.824 -1.3064 -0.2555  0.2489
 5386SOL     OW27619   0.039   1.031   0.232 -0.2313 -0.2881  0.3798
 5386SOL    HW127620   0.073   1.103   0.179 -0.0302  0.1183  1.0570
 5386SOL    HW227621   4.685   1.069   0.269 -0.3119 -0.8588  0.7874
 5387SOL     OW27622   4.029   4.484   1.555  0.2626 -0.5315 -0.4634
 5387SOL    HW127623   4.007   4.473   1.462 -0.2844  0.7230 -0.4705
 5387SOL    HW227624   3.997   4.572   1.573 -1.4538 -1.3385  0.3960
 5388SOL     OW27625   3.131   4.703   9.671 -0.4262  1.0167  0.0294
 5388SOL    HW127626   3.220   4.670   9.685  0.5747  3.7548  0.0511
 5388SOL    HW227627   3.090   4.617   9.659  2.5947 -0.1432 -1.9228
 5389SOL     OW27628   3.936   2.056   7.539  0.0141 -0.0239 -0.3301
 5389SOL    HW127629   3.907   1.991   7.603 -0.0312  0.4534  0.1308
 5389SOL    HW227630   3.853   2.065   7.492 -0.5060 -0.1842  0.5522
 5390SOL     OW27631   0.809   3.436   6.818 -0.3556  0.1180  0.1509
 5390SOL    HW127632   0.810   3.482   6.734  2.2565 -0.8889 -0.3721
 5390SOL    HW227633   0.749   3.492   6.867  0.2325  1.7972 -1.0893
 5391SOL     OW27634   1.727   0.576   2.007  0.0341  0.1994 -0.3469
 5391SOL    HW127635   1.635   0.552   2.009  0.1027 -0.0118  0.5462
 5391SOL    HW227636   1.718   0.661   2.050  2.3357  0.3807 -0.1902
 5392SOL     OW27637   2.937   2.427   3.254  0.7063 -0.4202 -0.0424
 5392SOL    HW127638   2.857   2.405   3.206  0.4337 -0.4405  0.4198
 5392SOL    HW227639   2.988   2.460   3.180  0.9401  0.1087  0.3599
 5393SOL     OW27640   2.483   4.417  11.295 -0.3389  0.2419 -0.1828
 5393SOL    HW127641   2.486   4.413  11.391  0.9648 -1.5704 -0.3074
 5393SOL    HW227642   2.565   4.379  11.264 -0.3803 -0.3411  0.4298
 5394SOL     OW27643   1.601   0.966   3.040 -0.0980  0.4047 -0.2162
 5394SOL    HW127644   1.510   0.995   3.031  0.0256  0.5794 -0.9194
 5394SOL    HW227645   1.614   0.932   2.951 -0.4408 -2.5281  0.8670
 5395SOL     OW27646   1.379   4.703   0.285 -0.7538 -0.6115 -0.1223
 5395SOL    HW127647   1.342   4.621   0.251  0.3128 -2.8079  4.0238
 5395SOL    HW227648   1.455   0.003   0.234 -1.4081 -2.8590 -2.2676
 5396SOL     OW27649   1.179   2.500   3.378  0.2198 -0.4015 -0.2049
 5396SOL    HW127650   1.258   2.459   3.412 -1.5613 -2.0525  1.8815
 5396SOL    HW227651   1.187   2.487   3.283  0.5564 -0.6600 -0.1376
 5397SOL     OW27652   2.932   1.254  10.837  0.0010  0.1325  0.3732
 5397SOL    HW127653   2.934   1.274  10.744 -0.2088  0.4942  0.4483
 5397SOL    HW227654   2.840   1.238  10.856 -0.4818 -0.6213 -2.5440
 5398SOL     OW27655   4.002   2.106   1.961 -0.3418  0.2300  0.1604
 5398SOL    HW127656   3.993   2.110   1.866 -2.0984 -4.9278  0.1064
 5398SOL    HW227657   4.097   2.102   1.963 -0.1185  5.2575 -1.3430
 5399SOL     OW27658   1.699   3.536   9.115  0.1695 -0.4230 -0.2653
 5399SOL    HW127659   1.725   3.521   9.206 -0.2808  1.4692  0.1857
 5399SOL    HW227660   1.604   3.546   9.123  0.1654  1.7127 -2.7288
 5400SOL     OW27661   0.188   0.963   0.463 -0.0670 -0.1758  0.3058
 5400SOL    HW127662   0.108   0.951   0.513 -0.6273 -1.4792 -0.8852
 5400SOL    HW227663   0.149   0.980   0.377 -0.2288  2.6959  0.9523
 5401SOL     OW27664   2.405   0.127   7.085  0.2369 -0.2006  0.1852
 5401SOL    HW127665   2.436   0.217   7.079 -2.0491  0.6062  0.2249
 5401SOL    HW227666   2.452   0.082   7.015 -1.3123  0.0703 -1.0385
 5402SOL     OW27667   3.816   1.877   6.021 -0.3929 -0.0193 -1.0257
 5402SOL    HW127668   3.828   1.886   6.115  3.3090 -2.4051 -1.2529
 5402SOL    HW227669   3.908   1.875   5.995  0.4086 -0.2122  1.8324
 5403SOL     OW27670   0.893   1.471  13.867  0.2127 -0.2200  0.3062
 5403SOL    HW127671   0.986   1.448  13.876 -0.0060 -2.0185 -2.1148
 5403SOL    HW227672   0.870   1.514  13.950  2.1717  0.8309  0.3220
 5404SOL     OW27673   0.861   0.812   0.923 -0.4416 -0.1425  0.1289
 5404SOL    HW127674   0.937   0.800   0.865 -0.5955  0.6456 -0.2426
 5404SOL    HW227675   0.903   0.844   1.003  0.7856  2.5887 -1.5918
 5405SOL     OW27676   1.556   4.270   4.213  0.2856  0.3658 -0.0494
 5405SOL    HW127677   1.596   4.190   4.247 -0.0503  1.1099  2.0493
 5405SOL    HW227678   1.527   4.238   4.127  2.5621 -1.3031 -0.2188
 5406SOL     OW27679   1.399   3.289   6.757  0.6189 -0.0061 -0.5007
 5406SOL    HW127680   1.339   3.263   6.687  1.8001 -1.0996 -1.1150
 5406SOL    HW227681   1.483   3.300   6.712  0.9930 -1.5167 -0.1878
 5407SOL     OW27682   4.444   0.510   5.595 -0.1786  0.2142 -0.0791
 5407SOL    HW127683   4.433   0.524   5.689  0.2992  0.8551 -0.1159
 5407SOL    HW227684   4.356   0.500   5.558  0.1987  1.1789 -1.2324
 5408SOL     OW27685   1.447   2.548   4.377 -0.1594  0.1413 -0.1922
 5408SOL    HW127686   1.394   2.527   4.454  0.9978 -2.1045 -0.0084
 5408SOL    HW227687   1.482   2.461   4.355 -1.1602  0.2593 -2.2599
 5409SOL     OW27688   4.705   4.306  14.636 -0.2389 -0.3166  0.0958
 5409SOL    HW127689   4.722   4.237  14.699 -1.8324 -0.8349 -0.0388
 5409SOL    HW227690   0.070   4.329  14.614  0.3431 -0.7769  2.0255
 5410SOL     OW27691   1.848   3.394   4.596  0.3790  0.4826 -0.0589
 5410SOL    HW127692   1.918   3.335   4.624  0.2954  0.9984  1.2472
 5410SOL    HW227693   1.819   3.451   4.667 -1.2600  0.3806 -0.6535
 5411SOL     OW27694   2.614   1.158   5.468 -0.2162  0.0142 -0.2488
 5411SOL    HW127695   2.669   1.195   5.399 -0.0549  0.9955  0.4094
 5411SOL    HW227696   2.525   1.168   5.435  0.4255  0.3519 -1.8441
 5412SOL     OW27697   2.205   0.092  10.441  0.1662  0.5227 -0.1790
 5412SOL    HW127698   2.232   0.134  10.522 -1.6009  2.6056 -0.6517
 5412SOL    HW227699   2.151   0.017  10.469  0.4236  0.6277  0.5899
 5413SOL     OW27700   1.191   2.472   2.716 -0.1972 -0.0635 -0.5920
 5413SOL    HW127701   1.127   2.480   2.646  1.9069  2.1286 -2.2469
 5413SOL    HW227702   1.239   2.410   2.661  0.3606 -1.4832  1.4889
 5414SOL     OW27703   0.849   4.342   6.308 -0.0591 -0.7871 -0.1728
 5414SOL    HW127704   0.908   4.392   6.366  0.6838  0.3044 -1.8591
 5414SOL    HW227705   0.915   4.305   6.250  1.3484  1.1221  0.1993
 5415SOL     OW27706   1.118   0.178  17.373  0.0478 -0.7090  0.0305
 5415SOL    HW127707   1.145   0.152  17.285  2.9103 -0.8158  0.9443
 5415SOL    HW227708   1.202   0.196  17.415 -1.0153 -1.0694  2.2819
 5416SOL     OW27709   3.618   1.916   9.157 -0.0529  0.6511  0.3327
 5416SOL    HW127710   3.689   1.920   9.093 -0.5110  2.0005 -0.0948
 5416SOL    HW227711   3.614   2.009   9.183  2.1631  0.8653 -0.0284
 5417SOL     OW27712   0.137   4.327   9.144  0.3540  0.0625  0.1417
 5417SOL    HW127713   0.093   4.373   9.073  2.2321  0.7176 -0.6007
 5417SOL    HW227714   0.217   4.379   9.142 -1.6879  3.2182  0.6561
 5418SOL     OW27715   0.156   1.315  12.110 -0.0949 -0.6914 -0.2792
 5418SOL    HW127716   0.195   1.228  12.102 -1.0836 -1.0387 -1.2878
 5418SOL    HW227717   0.085   1.306  12.047 -1.8396 -1.6875  1.8258
 5419SOL     OW27718   4.174   4.162   3.870  0.2548 -0.0527  0.0413
 5419SOL    HW127719   4.183   4.215   3.949 -0.5445  1.1874 -0.6862
 5419SOL    HW227720   4.261   4.160   3.830  0.0634  0.7563 -0.4204
 5420SOL     OW27721   0.251   3.679   4.669 -0.2681  0.9715 -0.2551
 5420SOL    HW127722   0.226   3.714   4.584 -2.5387 -0.1259 -0.0590
 5420SOL    HW227723   0.341   3.655   4.648  0.3809  3.0051  0.2793
 5421SOL     OW27724   3.039   2.605   3.425  0.1150 -0.6548 -0.0915
 5421SOL    HW127725   2.977   2.574   3.359  0.3197 -0.6732 -0.2717
 5421SOL    HW227726   3.022   2.547   3.500 -1.3553 -0.8630 -0.5911
 5422SOL     OW27727   0.303   4.317   6.662 -0.7848 -0.5712  0.0601
 5422SOL    HW127728   0.308   4.306   6.757 -0.0844  6.4665  0.8193
 5422SOL    HW227729   0.261   4.402   6.659  1.3943  0.5824  1.9098
 5423SOL     OW27730   4.471   3.666  13.421 -0.3914 -0.0134 -0.8953
 5423SOL    HW127731   4.413   3.595  13.451 -0.0165  0.6372  1.3953
 5423SOL    HW227732   4.408   3.703  13.360 -0.8655 -0.1997 -0.5205
 5424SOL     OW27733   3.319   2.002   0.082  0.1165  0.1482 -0.4401
 5424SOL    HW127734   3.244   1.987   0.140  0.3840  2.6441  0.5648
 5424SOL    HW227735   3.283   2.068   0.022  0.0625 -0.4601 -1.0636
 5425SOL     OW27736   3.522   1.417   6.261 -0.4575 -0.0861  0.1372
 5425SOL    HW127737   3.488   1.370   6.185 -0.5982 -2.1734  1.4596
 5425SOL    HW227738   3.577   1.485   6.223 -0.3180 -0.3519 -0.1331
 5426SOL     OW27739   2.641   1.993   7.152 -0.3772  0.5869  0.0682
 5426SOL    HW127740   2.571   2.059   7.153 -1.3235 -0.4434  2.0634
 5426SOL    HW227741   2.607   1.923   7.208  0.2521  3.5163  4.1499
 5427SOL     OW27742   3.791   3.564   7.646 -0.8778  0.3016  0.0446
 5427SOL    HW127743   3.767   3.637   7.589  1.8813  0.3650 -0.9956
 5427SOL    HW227744   3.763   3.593   7.733 -0.4008  1.5975 -0.2363
 5428SOL     OW27745   1.994   0.517   1.984  0.2446  0.2945  0.3009
 5428SOL    HW127746   1.901   0.517   2.004  0.4528  0.1128  1.3024
 5428SOL    HW227747   2.009   0.428   1.951 -0.4839 -0.5606  2.2465
 5429SOL     OW27748   2.799   1.647   5.782  0.0723 -0.0886 -0.4932
 5429SOL    HW127749   2.735   1.588   5.823  0.1630 -0.5152 -0.9679
 5429SOL    HW227750   2.752   1.657   5.699 -1.2642  1.4309  0.4460
 5430SOL     OW27751   2.519   0.465   3.244 -0.2678  0.9491 -0.3016
 5430SOL    HW127752   2.459   0.392   3.229  1.1714 -0.3869  0.4800
 5430SOL    HW227753   2.603   0.419   3.234 -0.6956 -0.3261  1.9926
 5431SOL     OW27754   2.157   3.103   0.223 -0.2085 -0.3966  0.2511
 5431SOL    HW127755   2.194   3.123   0.310 -0.9795  0.6705  0.3351
 5431SOL    HW227756   2.230   3.054   0.185 -0.5971 -1.5429  0.9898
 5432SOL     OW27757   2.197   0.476   2.590  0.1757 -0.1249  0.0585
 5432SOL    HW127758   2.127   0.463   2.526  0.0575 -0.9983  0.3652
 5432SOL    HW227759   2.272   0.445   2.538  0.2298  0.1860 -0.0509
 5433SOL     OW27760   1.697   4.583   1.781 -0.5550  0.3875 -0.6144
 5433SOL    HW127761   1.784   4.622   1.787 -0.0519 -0.5262 -2.0017
 5433SOL    HW227762   1.715   4.489   1.777 -0.8706  0.2229  1.9614
 5434SOL     OW27763   1.124   2.245   9.327 -0.0500  0.1505  0.2161
 5434SOL    HW127764   1.173   2.174   9.367  0.9318  1.2337  0.9475
 5434SOL    HW227765   1.042   2.199   9.317 -0.7168  1.3565  0.0861
 5435SOL     OW27766   0.392   2.049   4.485 -0.1190  0.0332  0.1197
 5435SOL    HW127767   0.321   2.070   4.546  0.7052 -0.1366  1.1353
 5435SOL    HW227768   0.463   2.094   4.531  0.2749 -1.8789  1.3366
 5436SOL     OW27769   4.230   1.699   2.818 -0.4686 -0.1190  0.0433
 5436SOL    HW127770   4.306   1.750   2.789  0.2764 -1.0167  0.4199
 5436SOL    HW227771   4.259   1.692   2.909 -2.0765  0.0025  0.5624
 5437SOL     OW27772   3.807   1.876   7.728 -0.0817  0.2241  0.5342
 5437SOL    HW127773   3.761   1.825   7.794  1.0911 -0.4463  0.8421
 5437SOL    HW227774   3.814   1.812   7.656  0.5787 -1.2308  1.8965
 5438SOL     OW27775   2.099   3.601   9.029  0.2760  0.9571  0.1065
 5438SOL    HW127776   2.180   3.570   9.069  2.3356  2.2214 -3.0504
 5438SOL    HW227777   2.045   3.533   9.069  2.0721 -1.1726 -1.0338
 5439SOL     OW27778   2.238   4.185  15.003 -0.0142 -0.0402  0.2131
 5439SOL    HW127779   2.322   4.204  14.961 -0.9527  0.3993 -1.4314
 5439SOL    HW227780   2.256   4.211  15.093  2.0208 -0.4657 -0.0603
 5440SOL     OW27781   0.436   3.313   2.119 -0.1513 -0.4762  0.1584
 5440SOL    HW127782   0.465   3.403   2.130  0.9444 -0.5844 -1.8867
 5440SOL    HW227783   0.431   3.280   2.209 -0.3480 -1.0074 -0.0473
 5441SOL     OW27784   2.996   0.562   6.915  0.7529  0.3416 -0.0150
 5441SOL    HW127785   2.983   0.504   6.840 -1.1260  2.1786 -1.1044
 5441SOL    HW227786   3.087   0.544   6.939  1.0190 -3.0975 -3.8098
 5442SOL     OW27787   0.796   2.916   4.357  0.2011  0.0070  0.0207
 5442SOL    HW127788   0.863   2.982   4.378  0.8904 -0.7661  0.2210
 5442SOL    HW227789   0.840   2.843   4.313  0.4848  0.0972  0.1525
 5443SOL     OW27790   2.508   1.807  15.591  0.3966 -0.2437  0.0758
 5443SOL    HW127791   2.508   1.777  15.682 -3.0111  2.1799  0.8491
 5443SOL    HW227792   2.418   1.786  15.568  1.8297 -4.4979 -1.7936
 5444SOL     OW27793   1.855   0.997  11.877 -0.3910  0.0414 -0.1767
 5444SOL    HW127794   1.875   1.060  11.808 -0.5139  0.0190 -0.2335
 5444SOL    HW227795   1.923   0.931  11.862 -0.1617 -0.2435  2.0202
 5445SOL     OW27796   3.619   2.909   7.105 -0.1539  0.2300  0.4782
 5445SOL    HW127797   3.548   2.954   7.152  0.5885  1.8901  0.0397
 5445SOL    HW227798   3.667   2.863   7.173  0.1209 -2.2960 -1.4529
 5446SOL     OW27799   0.521   4.453   5.994  0.1362  0.4870 -0.1241
 5446SOL    HW127800   0.533   4.385   6.060  0.1683  1.9898  1.4187
 5446SOL    HW227801   0.498   4.530   6.045  0.9912  0.4043  0.3924
 5447SOL     OW27802   1.181   0.563   8.735  0.4860 -0.2110 -0.0220
 5447SOL    HW127803   1.224   0.646   8.714 -0.1800  0.4213  1.1740
 5447SOL    HW227804   1.187   0.524   8.647  1.8473 -0.3594  0.1281
 5448SOL     OW27805   4.221   2.983   6.388  0.4046  0.3785 -0.5474
 5448SOL    HW127806   4.143   2.932   6.411 -0.6563  1.5919 -1.4431
 5448SOL    HW227807   4.266   2.997   6.472  1.9915 -3.4578 -0.7593
 5449SOL     OW27808   2.276   0.790   5.840 -0.2300 -0.0996 -0.1632
 5449SOL    HW127809   2.306   0.870   5.884  2.7919 -0.7885 -0.9805
 5449SOL    HW227810   2.184   0.783   5.867 -0.2745 -1.3983 -0.6818
 5450SOL     OW27811   1.189   3.626  14.656  0.0354  0.0985 -0.1774
 5450SOL    HW127812   1.100   3.644  14.684  0.1735 -1.8232  1.4786
 5450SOL    HW227813   1.205   3.545  14.705 -0.7411 -0.6121 -1.0838
 5451SOL     OW27814   3.857   4.275   5.655  0.3072 -0.0527 -0.4468
 5451SOL    HW127815   3.841   4.366   5.679  1.2910  0.2606 -0.9924
 5451SOL    HW227816   3.775   4.232   5.681 -1.7684  1.4125 -4.5177
 5452SOL     OW27817   4.496   3.751  16.411 -0.7732 -0.0229  0.6568
 5452SOL    HW127818   4.554   3.698  16.466  1.5905  0.4902 -1.3189
 5452SOL    HW227819   4.408   3.736  16.445  0.0189 -1.4714  2.0857
 5453SOL     OW27820   3.850   0.679   7.730  0.5064 -0.2143  0.5333
 5453SOL    HW127821   3.803   0.664   7.812  0.6883  1.9880  1.0499
 5453SOL    HW227822   3.800   0.756   7.700  2.9824  0.4017 -2.0443
 5454SOL     OW27823   3.494   0.447   3.664  0.3099 -0.7034  0.2731
 5454SOL    HW127824   3.468   0.419   3.577 -0.2071  0.4135  0.0674
 5454SOL    HW227825   3.433   0.518   3.685  1.8478  0.5519  0.4949
 5455SOL     OW27826   3.679   2.249   4.783  0.7037  0.0635  0.5111
 5455SOL    HW127827   3.731   2.289   4.853 -2.5144  2.0453  1.7238
 5455SOL    HW227828   3.593   2.244   4.824 -0.3467 -0.2786 -1.7027
 5456SOL     OW27829   4.512   2.766   4.229  0.4790  0.1839 -0.0340
 5456SOL    HW127830   4.430   2.805   4.257 -0.1022 -0.6734 -0.5565
 5456SOL    HW227831   4.525   2.815   4.147 -1.0942  0.0164 -0.3741
 5457SOL     OW27832   1.690   0.177   9.607 -0.3477  0.0678  0.1612
 5457SOL    HW127833   1.630   0.124   9.658  1.3420 -1.7758  0.2508
 5457SOL    HW227834   1.634   0.209   9.536  0.5318  0.9526 -0.1272
 5458SOL     OW27835   1.942   0.529   5.599 -0.0988 -0.3814  0.3212
 5458SOL    HW127836   1.898   0.562   5.521  0.5998 -0.9110 -0.3020
 5458SOL    HW227837   2.035   0.537   5.580 -0.2670 -2.1313 -1.2563
 5459SOL     OW27838   2.803   2.523   6.043  0.5985 -0.0517  0.1166
 5459SOL    HW127839   2.833   2.445   6.089  1.1334 -0.5686 -1.1201
 5459SOL    HW227840   2.868   2.589   6.068  0.6030  0.4182 -1.1377
 5460SOL     OW27841   2.843   2.287  17.663  0.1156  0.0412  0.0120
 5460SOL    HW127842   2.851   2.193  17.680  0.9295  0.4710  1.9485
 5460SOL    HW227843   2.803   2.317   0.040 -2.6716 -1.3744 -0.8218
 5461SOL     OW27844   0.082   2.882   6.636  0.1499  0.3300  0.1557
 5461SOL    HW127845   0.110   2.972   6.649  0.4455  0.4933 -1.5718
 5461SOL    HW227846   0.161   2.829   6.644 -0.4560 -0.6844 -0.5467
 5462SOL     OW27847   3.764   2.358   3.854  0.2055  0.1716 -0.5438
 5462SOL    HW127848   3.777   2.264   3.861 -1.3419  0.0523  0.6889
 5462SOL    HW227849   3.751   2.380   3.761 -4.3355  0.0009  0.0503
 5463SOL     OW27850   1.032   3.908   3.461 -0.4068 -0.4156 -0.0447
 5463SOL    HW127851   1.110   3.954   3.430 -1.2231  1.0729  0.0660
 5463SOL    HW227852   0.975   3.971   3.416  1.0087  0.8725 -0.0415
 5464SOL     OW27853   2.462   0.124   8.399  0.3995 -0.0265 -0.0889
 5464SOL    HW127854   2.370   0.099   8.395  0.2553  0.5892 -0.5957
 5464SOL    HW227855   2.458   0.200   8.341 -1.0199  0.5030  0.7040
 5465SOL     OW27856   2.017   2.288   7.077 -0.2931  0.2295 -0.4558
 5465SOL    HW127857   1.949   2.285   7.144 -2.5622  1.0557 -2.6787
 5465SOL    HW227858   1.964   2.270   6.999 -0.9605 -1.3457  0.3698
 5466SOL     OW27859   0.721   3.605  10.178  0.2864 -0.1991  0.3906
 5466SOL    HW127860   0.710   3.519  10.218  0.5751 -0.2159  0.4357
 5466SOL    HW227861   0.711   3.582  10.085 -1.7493 -3.0192  1.3231
 5467SOL     OW27862   2.179   0.937  15.392  0.1509 -0.1011  0.0237
 5467SOL    HW127863   2.111   0.939  15.325 -0.0705  2.7477  0.3696
 5467SOL    HW227864   2.136   0.994  15.456  0.7988 -0.0634  0.4259
 5468SOL     OW27865   1.192   1.165   8.221  0.0039  0.0512  0.4912
 5468SOL    HW127866   1.114   1.216   8.197 -0.1488  0.1765  1.2472
 5468SOL    HW227867   1.195   1.180   8.316 -2.8010 -1.0682  0.7743
 5469SOL     OW27868   3.393   0.406  15.801 -0.7649 -0.4183 -0.5293
 5469SOL    HW127869   3.482   0.373  15.798 -0.7623 -0.6306  2.6064
 5469SOL    HW227870   3.342   0.331  15.769 -3.5714  0.9195  0.8198
 5470SOL     OW27871   4.099   2.882   5.237 -0.1722 -0.4475  0.2787
 5470SOL    HW127872   4.077   2.813   5.175 -1.1341 -0.9017  1.1155
 5470SOL    HW227873   4.056   2.842   5.314 -2.3036 -0.0919 -0.7166
 5471SOL     OW27874   3.973   0.286   5.140  0.1815 -0.3827  0.5861
 5471SOL    HW127875   4.008   0.354   5.083 -2.3122  1.2105  0.9676
 5471SOL    HW227876   3.885   0.281   5.102 -0.0187  0.8605  0.8949
 5472SOL     OW27877   2.643   3.449   4.767 -0.4273 -0.2425 -0.0630
 5472SOL    HW127878   2.726   3.464   4.721  0.5259 -1.3987  1.2793
 5472SOL    HW227879   2.665   3.364   4.806 -1.6797 -0.3639  0.3828
 5473SOL     OW27880   0.516   0.621   3.067  0.0334  0.9101 -0.4480
 5473SOL    HW127881   0.512   0.527   3.047  1.3081  1.4533 -3.2574
 5473SOL    HW227882   0.593   0.649   3.018  1.3540 -0.7050  0.7282
 5474SOL     OW27883   0.246   4.592  15.495 -0.1540  0.0641  0.6894
 5474SOL    HW127884   0.276   4.570  15.584  0.0763 -0.2247  0.5421
 5474SOL    HW227885   0.186   4.523  15.467  0.5005  0.2541 -1.1534
 5475SOL     OW27886   4.681   0.594   6.178 -0.2324 -0.1260 -0.3041
 5475SOL    HW127887   0.036   0.632   6.215  0.3478  0.6825 -2.3831
 5475SOL    HW227888   4.673   0.637   6.093 -1.1576 -0.1932 -0.2437
 5476SOL     OW27889   4.547   4.182   6.612  0.4895  0.3552  0.5863
 5476SOL    HW127890   4.468   4.210   6.566  2.6571  2.4683 -1.8806
 5476SOL    HW227891   4.558   4.263   6.662  0.2903  0.2191  0.8465
 5477SOL     OW27892   0.644   1.681  14.407 -0.0024 -0.3239  0.1548
 5477SOL    HW127893   0.551   1.696  14.392  0.2426  1.1225  0.0495
 5477SOL    HW227894   0.662   1.596  14.367  0.3481  0.6214 -1.6638
 5478SOL     OW27895   4.175   2.338   2.106 -0.5727 -0.0086 -0.2728
 5478SOL    HW127896   4.104   2.375   2.053  0.9756  1.8408 -1.0856
 5478SOL    HW227897   4.170   2.246   2.080 -2.5443 -0.4971  1.8302
 5479SOL     OW27898   2.051   2.589  12.879 -0.3561 -0.1803 -0.4334
 5479SOL    HW127899   1.965   2.613  12.913  0.0691  0.2493  0.3663
 5479SOL    HW227900   2.093   2.675  12.873  1.7048 -0.9368  3.1923
 5480SOL     OW27901   2.525   3.893   7.341 -0.4184 -0.4139 -0.1248
 5480SOL    HW127902   2.521   3.894   7.437 -1.2908  0.9790 -0.1727
 5480SOL    HW227903   2.565   3.974   7.309 -0.2704 -1.3309 -2.2440
 5481SOL     OW27904   2.304   4.559   4.498  0.2963 -0.0287 -0.1152
 5481SOL    HW127905   2.343   4.632   4.449  1.8839  0.1150  1.3159
 5481SOL    HW227906   2.212   4.579   4.483  0.2562  0.5662  0.9164
 5482SOL     OW27907   4.441   2.782   2.452 -0.5667  0.0024  0.2055
 5482SOL    HW127908   4.472   2.707   2.402  0.6851  0.8195 -0.2385
 5482SOL    HW227909   4.347   2.781   2.435 -0.7904  2.7597  1.1801
 5483SOL     OW27910   3.623   2.116   7.691  0.2492 -0.2299 -0.5364
 5483SOL    HW127911   3.646   2.120   7.598 -0.1450 -0.5297 -0.6436
 5483SOL    HW227912   3.663   2.036   7.726 -2.0062 -0.4283  1.5813
 5484SOL     OW27913   3.857   4.464   6.398 -0.6659 -0.1601  0.5691
 5484SOL    HW127914   3.837   4.391   6.339 -0.8560 -0.3640  0.8873
 5484SOL    HW227915   3.953   4.466   6.390 -0.9510  0.3908 -2.6583
 5485SOL     OW27916   1.158   2.007   3.380  0.0304  0.5777  0.6096
 5485SOL    HW127917   1.140   1.917   3.352  1.4759 -0.0546  1.6608
 5485SOL    HW227918   1.161   1.988   3.474  0.5607  0.3912  0.5595
 5486SOL     OW27919   1.162   1.066   9.490  0.0342  0.0733 -0.3896
 5486SOL    HW127920   1.109   1.032   9.417  1.3841  0.0740 -1.3656
 5486SOL    HW227921   1.101   1.061   9.563 -0.3227 -1.1300 -0.7723
 5487SOL     OW27922   0.868   1.482   3.924  0.5542  0.3097  0.1982
 5487SOL    HW127923   0.811   1.516   3.855  1.3858 -1.2132 -1.2587
 5487SOL    HW227924   0.919   1.424   3.867  1.2743  1.6447 -0.5181
 5488SOL     OW27925   3.859   2.645   5.569  0.0958 -0.1879 -0.7999
 5488SOL    HW127926   3.786   2.685   5.522  1.3514  1.8080 -1.0856
 5488SOL    HW227927   3.932   2.658   5.508  1.4816 -0.9918  0.6708
 5489SOL     OW27928   1.357   0.414   9.609  0.5783  1.0067  0.1722
 5489SOL    HW127929   1.300   0.363   9.667  0.9998  1.9475  1.4079
 5489SOL    HW227930   1.301   0.425   9.532  2.0402  2.2770 -0.7114
 5490SOL     OW27931   4.411   2.473  17.203  0.2046 -0.1731  0.8950
 5490SOL    HW127932   4.328   2.522  17.206  1.1310  1.5124 -0.7817
 5490SOL    HW227933   4.390   2.405  17.139  1.3776 -1.7444  2.1877
 5491SOL     OW27934   3.421   4.379   6.409 -0.3063 -0.1893 -0.1350
 5491SOL    HW127935   3.491   4.427   6.453 -0.3038 -0.4728  0.1695
 5491SOL    HW227936   3.410   4.436   6.333 -1.5866  1.6924  1.4383
 5492SOL     OW27937   3.357   1.438   9.557 -0.3734 -0.2468 -0.4029
 5492SOL    HW127938   3.296   1.490   9.610 -1.3470 -1.6432 -0.1488
 5492SOL    HW227939   3.313   1.353   9.567 -1.5470  0.0045 -3.3611
 5493SOL     OW27940   4.679   0.300  13.128  0.4248 -0.1061 -0.5705
 5493SOL    HW127941   4.667   0.353  13.049 -2.3291 -0.1706 -0.1948
 5493SOL    HW227942   0.016   0.363  13.164 -0.6970  1.1693 -0.8458
 5494SOL     OW27943   2.746   0.774   2.006 -1.1554 -0.5304  0.3709
 5494SOL    HW127944   2.728   0.710   1.938  1.1692 -3.1186  2.1811
 5494SOL    HW227945   2.689   0.757   2.081  0.8099 -2.0377  1.5317
 5495SOL     OW27946   4.159   3.692  12.422  0.9250 -0.2400  0.0339
 5495SOL    HW127947   4.151   3.653  12.509  0.3640  0.4867  0.3035
 5495SOL    HW227948   4.245   3.731  12.439  0.1576  1.3331  0.3726
 5496SOL     OW27949   0.317   0.042   0.246  0.0871  0.0788 -0.0632
 5496SOL    HW127950   0.236   0.091   0.261 -0.5398 -0.5828 -1.3291
 5496SOL    HW227951   0.331   0.081   0.160 -1.0430 -1.8756 -1.1402
 5497SOL     OW27952   3.692   0.973  17.608  0.0862 -0.1909  0.2969
 5497SOL    HW127953   3.778   1.009  17.588 -0.4077  0.1455 -1.2145
 5497SOL    HW227954   3.725   0.885  17.624 -0.0097 -0.6918 -2.1775
 5498SOL     OW27955   3.244   3.251  14.454  0.7856 -0.4119 -0.2549
 5498SOL    HW127956   3.197   3.217  14.378  0.5897  1.0724 -0.7904
 5498SOL    HW227957   3.167   3.288  14.498  2.0416  1.0806  0.6818
 5499SOL     OW27958   4.547   1.995   8.272 -0.0036 -0.5251  0.5413
 5499SOL    HW127959   4.567   1.951   8.355  0.1612  1.5482  1.6003
 5499SOL    HW227960   4.601   1.945   8.211  1.2238 -1.1628  2.1405
 5500SOL     OW27961   3.787   0.356   3.886 -0.0819 -0.0792 -1.1358
 5500SOL    HW127962   3.784   0.430   3.825  0.3411  0.2192 -0.7985
 5500SOL    HW227963   3.692   0.352   3.891 -0.0330 -0.3087 -0.3807
 5501SOL     OW27964   1.918   1.936   5.219  0.4184 -0.2391 -0.5805
 5501SOL    HW127965   1.847   1.893   5.267  0.6989 -0.0847 -0.0235
 5501SOL    HW227966   1.951   1.863   5.167 -1.1397  0.0522 -1.9677
 5502SOL     OW27967   1.889   0.899   7.621 -0.1208  0.3507 -0.2563
 5502SOL    HW127968   1.838   0.976   7.647  0.3498  0.7039 -0.3754
 5502SOL    HW227969   1.858   0.897   7.530  1.8054  2.6986 -0.9683
 5503SOL     OW27970   0.511   0.076   5.597 -0.3532  0.2271  0.5508
 5503SOL    HW127971   0.456   0.009   5.637 -0.5209 -0.0121 -0.0750
 5503SOL    HW227972   0.568   0.081   5.673 -1.0591 -0.2401  1.1064
 5504SOL     OW27973   2.622   4.600   6.163 -0.4287  0.6107 -0.0020
 5504SOL    HW127974   2.546   4.657   6.152  1.1395  2.8494  0.6374
 5504SOL    HW227975   2.584   4.514   6.147  0.9286 -0.0100  0.0769
 5505SOL     OW27976   0.859   0.271  16.660  0.6241 -0.5981  0.4900
 5505SOL    HW127977   0.822   0.202  16.715 -2.4833  0.4366 -0.2600
 5505SOL    HW227978   0.943   0.232  16.638  0.0379  0.7831 -4.3902
 5506SOL     OW27979   4.571   2.098  13.166  0.5229 -0.5925  0.2218
 5506SOL    HW127980   4.615   2.093  13.081  1.9213 -3.4168  1.0977
 5506SOL    HW227981   4.621   2.046  13.230  0.7686  0.7032  1.0719
 5507SOL     OW27982   0.408   0.931  17.000  0.4749 -0.4507 -0.3527
 5507SOL    HW127983   0.500   0.907  17.008  0.4189 -0.7777 -0.6615
 5507SOL    HW227984   0.366   0.845  16.997 -0.0628 -0.1858 -0.5328
 5508SOL     OW27985   1.434   4.717   1.780 -0.6949 -0.1319  0.3042
 5508SOL    HW127986   1.511   4.660   1.774 -0.5281  0.2365 -0.9402
 5508SOL    HW227987   1.451   0.040   1.699  1.1832 -1.2404  0.0286
 5509SOL     OW27988   0.893   0.982   5.170 -0.1130  0.2270 -0.4946
 5509SOL    HW127989   0.931   0.960   5.085  0.2563 -0.0343 -0.2600
 5509SOL    HW227990   0.842   1.057   5.140  1.0587  1.0635 -0.3753
 5510SOL     OW27991   1.428   1.380   0.944  0.4562  0.4850  0.1398
 5510SOL    HW127992   1.396   1.437   1.014 -2.9032 -0.3486 -0.6975
 5510SOL    HW227993   1.481   1.319   0.996 -1.0276 -0.1621  0.9157
 5511SOL     OW27994   4.388   1.606   6.796  0.0622  0.0245 -0.0673
 5511SOL    HW127995   4.420   1.520   6.825  0.2284  0.9196  2.3995
 5511SOL    HW227996   4.403   1.608   6.702  3.1668  0.4293  0.4053
 5512SOL     OW27997   3.521   4.490  10.580  0.0016  0.3369 -0.0807
 5512SOL    HW127998   3.528   4.585  10.576 -0.5520  0.2996 -2.1462
 5512SOL    HW227999   3.613   4.475  10.605 -0.8975 -3.2928  1.0796
 5513SOL     OW28000   4.677   3.891   2.438 -0.5572  0.5978 -0.2763
 5513SOL    HW128001   4.667   3.846   2.522  1.5625  0.5979 -0.0271
 5513SOL    HW228002   4.598   3.860   2.395  0.4014  0.1346 -1.7121
 5514SOL     OW28003   2.393   0.969   7.810 -0.8863 -0.4348 -0.4752
 5514SOL    HW128004   2.404   1.064   7.821  0.9839 -1.0062  2.7098
 5514SOL    HW228005   2.352   0.964   7.724  2.4709  0.4485 -2.1062
 5515SOL     OW28006   1.510   1.743  14.842 -0.2480 -0.0839  0.0614
 5515SOL    HW128007   1.424   1.712  14.814 -0.2691  0.9753 -1.0705
 5515SOL    HW228008   1.524   1.830  14.804 -2.1567 -0.4190 -1.4101
 5516SOL     OW28009   0.118   3.836  11.478  0.3381  0.2251  0.2912
 5516SOL    HW128010   0.043   3.778  11.493  0.7060 -0.3065  0.0870
 5516SOL    HW228011   0.071   3.918  11.460 -1.7241 -1.1923 -0.7958
 5517SOL     OW28012   2.950   0.093   4.665  0.6974 -0.0035  0.4527
 5517SOL    HW128013   3.007   0.035   4.617  0.7878 -1.1535  1.9606
 5517SOL    HW228014   2.923   0.148   4.591  0.3858 -0.2607  0.3759
 5518SOL     OW28015   3.182   2.210  17.655  0.3813 -0.6354 -0.0627
 5518SOL    HW128016   3.178   2.207  17.560  1.0857  0.9129 -0.1373
 5518SOL    HW228017   3.166   2.301  17.680  2.3820  0.5372 -3.0979
 5519SOL     OW28018   2.989   4.082   8.589 -0.3634 -0.7570 -0.0144
 5519SOL    HW128019   2.999   4.057   8.498  0.6209 -0.3312 -0.0224
 5519SOL    HW228020   3.075   4.059   8.626  1.0896 -1.0607 -3.6167
 5520SOL     OW28021   2.909   4.700  13.266 -0.4643 -0.1430  0.0418
 5520SOL    HW128022   2.995   0.014  13.257 -0.9215  0.6746 -0.7028
 5520SOL    HW228023   2.920   4.638  13.194 -0.5547 -0.7172  0.5151
 5521SOL     OW28024   2.138   3.740   0.907 -0.7401 -0.4217  0.1529
 5521SOL    HW128025   2.212   3.798   0.888 -0.2392 -1.3984 -0.9447
 5521SOL    HW228026   2.104   3.787   0.982 -1.6647 -0.2995 -0.3528
 5522SOL     OW28027   2.978   1.838   1.896 -0.3357  0.5833  0.6668
 5522SOL    HW128028   3.020   1.923   1.899  1.7312 -0.3123 -3.0890
 5522SOL    HW228029   3.020   1.809   1.815  0.5068 -0.0854  1.3378
 5523SOL     OW28030   2.598   3.893  11.999  0.4658  0.9735  0.3236
 5523SOL    HW128031   2.617   3.984  11.978  0.4285  1.3850  2.0073
 5523SOL    HW228032   2.627   3.854  11.917 -0.7813 -1.0723  0.8480
 5524SOL     OW28033   3.747   1.003   2.829 -0.5717  0.1669 -0.2529
 5524SOL    HW128034   3.696   1.034   2.754  0.6584 -0.4507 -1.3280
 5524SOL    HW228035   3.716   0.915   2.847 -1.3019  0.7920  1.5147
 5525SOL     OW28036   2.686   0.571  17.022  0.9508  0.7838  0.1701
 5525SOL    HW128037   2.612   0.537  16.971 -0.0531  1.6058  1.0827
 5525SOL    HW228038   2.674   0.666  17.015  1.5998  0.8382 -0.1921
 5526SOL     OW28039   2.446   4.251   2.006  0.4856  0.3591  0.0884
 5526SOL    HW128040   2.447   4.295   2.091 -2.8271  0.2763  0.1840
 5526SOL    HW228041   2.513   4.303   1.963 -1.1554  1.5620 -1.0006
 5527SOL     OW28042   0.805   2.856   3.006  0.6384 -0.2554 -0.4938
 5527SOL    HW128043   0.831   2.947   3.019  1.7173 -0.7289  0.7039
 5527SOL    HW228044   0.855   2.843   2.925 -0.5152  2.6093 -1.6649
 5528SOL     OW28045   2.468   1.435   0.122  0.8730  0.2600  0.1521
 5528SOL    HW128046   2.491   1.347   0.094 -1.0430 -0.3938  0.6458
 5528SOL    HW228047   2.418   1.417   0.201  1.4100  0.4870  0.5413
 5529SOL     OW28048   3.165   1.091   5.582  0.1675  0.1844 -0.0559
 5529SOL    HW128049   3.165   1.034   5.505  0.2449  1.1035 -0.7380
 5529SOL    HW228050   3.142   1.171   5.535  2.4206  0.3857 -0.8053
 5530SOL     OW28051   4.563   3.711   5.629 -0.1193  0.1050  0.0440
 5530SOL    HW128052   4.528   3.680   5.713  0.8640 -2.1678 -0.4110
 5530SOL    HW228053   4.654   3.721   5.657  0.3112  0.6254 -1.5529
 5531SOL     OW28054   4.525   4.289   8.939  0.2149  0.4518 -0.0576
 5531SOL    HW128055   4.524   4.205   8.985  0.4704  0.0072 -0.8608
 5531SOL    HW228056   4.579   4.339   8.999 -2.0133  0.3227  2.0602
 5532SOL     OW28057   1.318   1.373   2.252  0.8844 -0.2650 -0.1194
 5532SOL    HW128058   1.399   1.393   2.205  0.6778 -1.3817 -0.9424
 5532SOL    HW228059   1.332   1.280   2.270 -0.7884 -0.5098 -0.1241
 5533SOL     OW28060   1.954   0.579   6.610 -0.0039  0.3627  0.1891
 5533SOL    HW128061   1.961   0.673   6.596  0.1509 -0.0264 -2.3915
 5533SOL    HW228062   1.869   0.574   6.653 -0.5051 -0.0334 -0.8411
 5534SOL     OW28063   4.271   4.237   8.826  0.3183 -0.1751 -0.0116
 5534SOL    HW128064   4.221   4.166   8.865  0.5955 -0.4538 -0.1581
 5534SOL    HW228065   4.353   4.242   8.876 -0.1030 -1.5687  0.8111
 5535SOL     OW28066   3.506   4.045   4.425 -0.0790 -0.3505 -0.1930
 5535SOL    HW128067   3.514   4.140   4.416 -2.9260 -0.1956 -1.0420
 5535SOL    HW228068   3.415   4.043   4.397  0.3759 -0.0445 -1.6735
 5536SOL     OW28069   2.138   4.719   3.226 -0.5309  0.0003  0.1902
 5536SOL    HW128070   2.161   4.626   3.229 -0.2478  0.0777  0.3782
 5536SOL    HW228071   2.092   4.725   3.142  0.3146  0.9140 -0.2007
 5537SOL     OW28072   0.659   3.120   6.066 -0.4718 -0.2661 -0.1805
 5537SOL    HW128073   0.619   3.068   5.996  0.6302  0.4157 -1.3245
 5537SOL    HW228074   0.720   3.166   6.009  0.0501  1.0265  1.4137
 5538SOL     OW28075   2.330   0.416  12.344  0.8683 -0.2596  0.3742
 5538SOL    HW128076   2.366   0.362  12.274 -0.4487 -0.3287 -0.2546
 5538SOL    HW228077   2.382   0.496  12.337 -2.1067  1.6028 -0.5417
 5539SOL     OW28078   4.362   2.215  13.040  0.1865  0.3789 -0.1446
 5539SOL    HW128079   4.316   2.236  13.121 -0.7161 -0.4452 -0.4456
 5539SOL    HW228080   4.446   2.178  13.068 -0.9309 -0.9576  1.4888
 5540SOL     OW28081   3.819   0.348   3.057 -0.6623 -0.2413 -0.2966
 5540SOL    HW128082   3.753   0.280   3.041  3.8435 -5.5847  3.7223
 5540SOL    HW228083   3.902   0.301   3.046  0.1912  1.4914 -1.1758
 5541SOL     OW28084   0.568   0.919   3.836 -0.1601  0.4953 -0.4232
 5541SOL    HW128085   0.609   0.969   3.766 -0.2577  1.6524  0.3458
 5541SOL    HW228086   0.607   0.965   3.911  0.2266 -1.2314  0.4537
 5542SOL     OW28087   3.949   3.217   6.691 -0.2100 -0.1604  0.1656
 5542SOL    HW128088   4.014   3.169   6.742  0.8194  0.0522 -0.9361
 5542SOL    HW228089   3.914   3.160   6.623 -1.7413 -1.0494  1.7119
 5543SOL     OW28090   0.766   1.738   3.193  0.5516 -0.0491 -0.0520
 5543SOL    HW128091   0.775   1.648   3.225 -0.1890 -0.2286 -0.3621
 5543SOL    HW228092   0.689   1.726   3.138  1.8496  1.3382 -2.1717
 5544SOL     OW28093   1.697   1.171   6.000  0.1462  0.3542 -0.0645
 5544SOL    HW128094   1.670   1.217   6.080 -2.3589 -0.3779 -0.5017
 5544SOL    HW228095   1.731   1.092   6.043 -2.6773 -1.2669 -0.8123
 5545SOL     OW28096   1.362   0.092  15.998  0.5003 -0.0423  0.6471
 5545SOL    HW128097   1.299   0.104  16.069  0.0323  1.3771  0.0125
 5545SOL    HW228098   1.410   0.175  16.008  1.4088 -0.9587  3.6424
 5546SOL     OW28099   3.657   2.598   8.737  0.5763 -0.0995 -0.0722
 5546SOL    HW128100   3.676   2.575   8.828  0.1611 -1.3524 -0.3053
 5546SOL    HW228101   3.704   2.523   8.699  1.1768  1.3821 -2.2590
 5547SOL     OW28102   3.129   0.633   4.422  0.4716  0.1297  0.0627
 5547SOL    HW128103   3.209   0.583   4.438  0.9232  0.4862 -1.0415
 5547SOL    HW228104   3.060   0.570   4.401  1.1784 -0.4501 -0.5395
 5548SOL     OW28105   4.598   3.414   1.666 -0.1209 -0.3129  0.0401
 5548SOL    HW128106   4.668   3.351   1.684  0.3380  0.0138 -0.5857
 5548SOL    HW228107   4.592   3.448   1.756 -1.6397  0.3061 -0.2990
 5549SOL     OW28108   3.091   0.637  17.335  0.1636 -0.3066 -0.0394
 5549SOL    HW128109   3.029   0.709  17.336 -0.8248 -1.1750  0.5662
 5549SOL    HW228110   3.094   0.622  17.429  1.7209  0.8632  0.0976
 5550SOL     OW28111   0.981   1.569   4.184 -0.1965  0.1296  0.0198
 5550SOL    HW128112   0.950   1.548   4.095 -0.6149  3.3654 -0.6144
 5550SOL    HW228113   0.900   1.578   4.234 -0.5411  2.7564 -0.9960
 5551SOL     OW28114   0.406   1.313   0.737  0.5187  0.1737  0.0803
 5551SOL    HW128115   0.480   1.312   0.676  0.2757 -0.3940 -0.2029
 5551SOL    HW228116   0.394   1.224   0.769 -0.5680 -0.7337 -2.8889
 5552SOL     OW28117   2.849   3.927   3.615 -0.5902  0.3539 -0.1502
 5552SOL    HW128118   2.848   3.836   3.647 -0.2484 -0.2852 -1.9268
 5552SOL    HW228119   2.797   3.915   3.536 -0.6040  1.5943 -0.3280
 5553SOL     OW28120   3.279   1.688   4.531 -0.5455  0.2659  0.4063
 5553SOL    HW128121   3.307   1.768   4.575  1.4218 -0.2867  0.1965
 5553SOL    HW228122   3.185   1.693   4.546 -0.3227 -2.5431  2.8417
 5554SOL     OW28123   3.332   3.772  16.505 -0.6535  0.9296 -0.1402
 5554SOL    HW128124   3.394   3.754  16.575  0.7457  0.6441 -1.4288
 5554SOL    HW228125   3.332   3.698  16.445 -0.5435 -0.6260  1.7959
 5555SOL     OW28126   2.525   4.100   6.287 -0.2091 -0.6404  0.6340
 5555SOL    HW128127   2.593   4.041   6.254  0.4243  0.7786 -0.5888
 5555SOL    HW228128   2.543   4.108   6.381 -0.0831 -1.5924  0.6951
 5556SOL     OW28129   3.283   1.431   6.398 -0.3496  0.5942  0.0219
 5556SOL    HW128130   3.328   1.433   6.314 -2.0540  0.0720 -0.8899
 5556SOL    HW228131   3.333   1.498   6.445 -0.8222  0.0155  1.3618
 5557SOL     OW28132   4.435   2.982   5.150  0.4117 -0.3485 -0.2646
 5557SOL    HW128133   4.527   2.975   5.175  0.6636  0.4210 -1.0148
 5557SOL    HW228134   4.413   2.895   5.115 -2.1277  0.8303 -1.5618
 5558SOL     OW28135   2.928   3.130   4.264  0.8039  0.2423  0.1560
 5558SOL    HW128136   2.867   3.119   4.191  0.7725 -1.1842  0.3978
 5558SOL    HW228137   2.964   3.041   4.264 -2.4180 -1.0790  0.7950
 5559SOL     OW28138   2.303   2.822  17.403 -0.2421  0.0414 -0.3478
 5559SOL    HW128139   2.260   2.789  17.482  0.2413  0.7015  0.1833
 5559SOL    HW228140   2.381   2.852  17.450 -0.7154  1.7445 -0.6558
 5560SOL     OW28141   0.250   0.201  11.127 -0.1809 -0.4330  0.0671
 5560SOL    HW128142   0.272   0.129  11.186 -0.7502 -1.2470 -0.7219
 5560SOL    HW228143   0.192   0.156  11.065  0.8774  0.0210 -1.2642
 5561SOL     OW28144   2.946   0.615  14.248  0.2590 -0.0755  0.4994
 5561SOL    HW128145   2.886   0.668  14.197 -1.8850  0.0232  3.1504
 5561SOL    HW228146   2.984   0.682  14.304  0.4350  0.4642 -0.2672
 5562SOL     OW28147   3.806   2.297   9.195 -0.3055 -0.3010 -0.0011
 5562SOL    HW128148   3.855   2.316   9.275  0.2291 -1.0082 -0.1600
 5562SOL    HW228149   3.861   2.233   9.150 -3.0086 -3.4045  1.1451
 5563SOL     OW28150   1.472   0.610   7.821  0.1631 -0.1225  0.2261
 5563SOL    HW128151   1.428   0.692   7.843  1.7278  0.3389  1.6430
 5563SOL    HW228152   1.537   0.601   7.890 -0.6274 -1.8510  0.7273
 5564SOL     OW28153   2.458   0.966   0.300 -0.1708 -0.5065 -0.2512
 5564SOL    HW128154   2.550   0.957   0.276  0.0579 -3.8196  1.7228
 5564SOL    HW228155   2.449   0.880   0.341 -0.5154 -1.0579 -1.5040
 5565SOL     OW28156   4.717   3.727   9.420 -0.1962  0.0032  0.3424
 5565SOL    HW128157   0.080   3.762   9.427  0.6108 -1.7315 -1.2048
 5565SOL    HW228158   4.667   3.806   9.438 -1.5234 -1.1070  1.5169
 5566SOL     OW28159   3.610   0.130   7.005 -0.4098  0.5236 -0.4315
 5566SOL    HW128160   3.704   0.130   6.988  0.0416 -0.3582  2.1156
 5566SOL    HW228161   3.586   0.187   6.931 -0.7866  2.3139  1.0651
 5567SOL     OW28162   3.339   4.009   8.245  0.3706 -0.0885  0.0122
 5567SOL    HW128163   3.293   4.079   8.198 -1.7963 -0.1513  2.0299
 5567SOL    HW228164   3.267   3.954   8.278  0.6869 -0.7788 -0.4483
 5568SOL     OW28165   1.301   2.795   7.026  0.2866 -0.2037  0.2852
 5568SOL    HW128166   1.305   2.831   6.937  0.0335 -0.8341  0.0197
 5568SOL    HW228167   1.393   2.778   7.045  0.0087 -2.3118 -0.2762
 5569SOL     OW28168   4.719   4.490  13.182  0.7896  0.2036 -0.3412
 5569SOL    HW128169   0.040   4.573  13.168  2.9269 -1.7431 -5.0307
 5569SOL    HW228170   4.722   4.480  13.277 -0.2212  3.5293  0.0452
 5570SOL     OW28171   2.091   1.115   8.545  0.3700  0.4000  0.4551
 5570SOL    HW128172   2.145   1.191   8.524  0.2792  0.0194 -1.1811
 5570SOL    HW228173   2.155   1.043   8.544  0.7955  0.7817  0.0716
 5571SOL     OW28174   2.084   2.594  17.006 -0.5430 -0.0360 -0.0310
 5571SOL    HW128175   2.018   2.660  17.026 -0.7196 -1.0252  2.5801
 5571SOL    HW228176   2.031   2.514  17.013  1.3564 -1.3172 -0.0956
 5572SOL     OW28177   3.822   0.869   8.431  0.3339 -0.1429 -0.0264
 5572SOL    HW128178   3.763   0.834   8.499  0.3744 -2.4474 -1.1621
 5572SOL    HW228179   3.907   0.831   8.455  1.0734  1.3127 -0.3573
 5573SOL     OW28180   3.328   1.959   2.795  0.2103  0.0991 -0.0718
 5573SOL    HW128181   3.274   1.995   2.865 -0.0716 -2.2041  0.8723
 5573SOL    HW228182   3.354   1.875   2.833  0.4749  0.9360  1.5834
 5574SOL     OW28183   1.731   3.049   6.910 -0.4109  0.4964 -0.1378
 5574SOL    HW128184   1.773   3.026   6.993 -2.3034 -0.9334  0.4300
 5574SOL    HW228185   1.790   3.118   6.879  0.3198 -0.2608 -0.4360
 5575SOL     OW28186   1.033   0.630  14.546 -0.0866 -0.1091  0.0552
 5575SOL    HW128187   1.070   0.640  14.459 -1.4247 -2.6662 -0.8077
 5575SOL    HW228188   1.106   0.578  14.579  0.2971  1.7305  2.0973
 5576SOL     OW28189   2.436   3.021   1.821  0.3140  0.1770  0.2896
 5576SOL    HW128190   2.410   3.047   1.733  0.8783  0.4873  0.2138
 5576SOL    HW228191   2.505   2.959   1.798  0.9029  0.5974  0.9301
 5577SOL     OW28192   0.756   3.255   6.329 -0.5771 -0.0340  0.1208
 5577SOL    HW128193   0.679   3.247   6.386 -0.0789  2.0704  1.0648
 5577SOL    HW228194   0.717   3.211   6.254 -0.3638  1.8974 -1.0987
 5578SOL     OW28195   2.263   2.413   6.217 -0.0204 -0.3887  0.5544
 5578SOL    HW128196   2.240   2.504   6.198  2.9874  0.4470  1.0067
 5578SOL    HW228197   2.352   2.429   6.247  0.8992 -1.5125 -1.6033
 5579SOL     OW28198   0.055   3.969   3.449 -0.3736 -0.4894  0.0634
 5579SOL    HW128199   0.128   3.965   3.387  0.2823 -0.7585  0.8433
 5579SOL    HW228200   4.715   4.020   3.401 -1.1579  0.8203  2.5612
 5580SOL     OW28201   2.014   1.570   1.369 -0.5193  0.2077  0.0913
 5580SOL    HW128202   2.003   1.623   1.289 -2.7334 -0.8864 -0.3344
 5580SOL    HW228203   1.938   1.512   1.357 -1.7349  1.6276  0.8703
 5581SOL     OW28204   1.883   2.995   7.817 -0.1092  0.1199 -0.1100
 5581SOL    HW128205   1.961   2.987   7.762 -0.9624 -1.9522 -1.0190
 5581SOL    HW228206   1.909   2.944   7.893  2.0938  0.3025 -0.7497
 5582SOL     OW28207   2.286   0.986   5.065 -0.5966  0.0811 -0.2509
 5582SOL    HW128208   2.344   0.914   5.088 -0.0861  0.7743  0.6346
 5582SOL    HW228209   2.231   0.986   5.143 -1.1146  2.3878 -0.6079
 5583SOL     OW28210   1.408   1.490  13.840  0.3405 -0.1911 -0.7209
 5583SOL    HW128211   1.313   1.494  13.850  0.6915 -0.3512  2.7600
 5583SOL    HW228212   1.433   1.568  13.890 -0.7473 -0.5090  0.3079
 5584SOL     OW28213   0.160   0.839  16.312 -0.4278 -0.4083 -0.2358
 5584SOL    HW128214   0.183   0.748  16.294  0.8347  0.1418 -1.3919
 5584SOL    HW228215   0.143   0.862  16.220 -1.3835 -0.0688  0.0214
 5585SOL     OW28216   2.349   2.667   6.428 -0.6279  0.1106  0.2670
 5585SOL    HW128217   2.330   2.760   6.433  1.0642  0.4919 -0.2524
 5585SOL    HW228218   2.281   2.641   6.491 -0.8405  1.2538  0.4990
 5586SOL     OW28219   0.278   3.312  14.947  0.1320  0.2085 -0.0732
 5586SOL    HW128220   0.273   3.365  15.027 -1.5732  1.2681 -0.8732
 5586SOL    HW228221   0.206   3.251  14.962 -0.1613  0.0077 -2.3470
 5587SOL     OW28222   0.154   3.252   4.361  0.6620 -0.2544 -0.2131
 5587SOL    HW128223   0.114   3.240   4.448  0.7288 -0.2324 -0.1793
 5587SOL    HW228224   0.147   3.158   4.349 -3.8850  0.0178  0.1976
 5588SOL     OW28225   1.393   2.873   8.665 -0.0056 -0.5459 -0.1969
 5588SOL    HW128226   1.361   2.880   8.575 -2.1215  0.3803  0.6231
 5588SOL    HW228227   1.436   2.787   8.659 -0.5563 -0.8227 -0.2295
 5589SOL     OW28228   0.808   2.825   3.526  0.2613  0.2217  0.2670
 5589SOL    HW128229   0.826   2.758   3.461  0.6729  2.2324 -1.6819
 5589SOL    HW228230   0.813   2.775   3.607  1.4812 -0.4990 -0.2635
 5590SOL     OW28231   2.645   0.373   0.819 -0.2674 -0.3391 -0.1863
 5590SOL    HW128232   2.639   0.309   0.889  3.0313  1.2519  1.5532
 5590SOL    HW228233   2.591   0.439   0.863  2.2434  1.5215  0.1581
 5591SOL     OW28234   0.667   3.561   6.990 -0.0176  0.5003 -0.2792
 5591SOL    HW128235   0.630   3.509   7.061  0.7691  3.2334  2.1082
 5591SOL    HW228236   0.730   3.612   7.040  0.4471 -1.0234  0.6890
 5592SOL     OW28237   1.804   1.427  13.435  0.5254  0.4320 -0.2588
 5592SOL    HW128238   1.754   1.430  13.516  1.2900  0.4231  0.2184
 5592SOL    HW228239   1.884   1.464  13.473  0.3677  0.8991 -0.3795
 5593SOL     OW28240   3.150   2.058   9.812  0.6257 -0.1410 -0.0346
 5593SOL    HW128241   3.199   2.125   9.860  0.2250 -0.3782  0.6999
 5593SOL    HW228242   3.203   1.980   9.825  0.6890 -0.3442 -1.4827
 5594SOL     OW28243   4.609   4.492   5.772 -0.0529  0.0089  0.1220
 5594SOL    HW128244   4.600   4.411   5.821 -0.1093 -0.5768 -0.8497
 5594SOL    HW228245   4.517   4.517   5.778  0.1103  0.7798 -0.4954
 5595SOL     OW28246   4.631   1.151   3.310  0.0828  0.5615 -0.3269
 5595SOL    HW128247   4.621   1.231   3.361 -0.1433  0.4893 -0.2553
 5595SOL    HW228248   4.606   1.081   3.371 -0.5705  1.4585  0.4415
 5596SOL     OW28249   2.875   1.870   2.973  0.3389 -0.2199 -0.0162
 5596SOL    HW128250   2.806   1.822   2.928  0.5327 -0.4936 -0.0268
 5596SOL    HW228251   2.944   1.868   2.907  0.1446 -0.9500 -0.1899
 5597SOL     OW28252   3.767   0.071   7.469 -0.8105  0.2544 -1.1438
 5597SOL    HW128253   3.703   0.140   7.451  1.3131  2.4305 -0.3643
 5597SOL    HW228254   3.716   4.721   7.497  0.4463  0.5700  1.9984
 5598SOL     OW28255   2.707   1.807   8.691 -0.5672 -0.9311 -0.4144
 5598SOL    HW128256   2.757   1.725   8.686 -1.1971 -1.4080  0.9756
 5598SOL    HW228257   2.627   1.764   8.659 -2.0659  0.5814  1.3183
 5599SOL     OW28258   0.137   3.766   4.900 -0.3941  0.1171  0.0521
 5599SOL    HW128259   0.215   3.783   4.952  1.6051  0.3498 -2.9798
 5599SOL    HW228260   0.186   3.731   4.825 -0.2417 -1.1364  0.7501
 5600SOL     OW28261   3.910   2.277   8.244  0.1386 -0.6227  0.0219
 5600SOL    HW128262   3.847   2.305   8.311 -0.9357  2.8650 -2.4655
 5600SOL    HW228263   3.977   2.230   8.294  0.8986  0.0640 -0.3466
 5601SOL     OW28264   1.233   1.561   2.834  0.5284  0.2242 -0.4074
 5601SOL    HW128265   1.232   1.644   2.787  2.5288 -1.4366 -3.3806
 5601SOL    HW228266   1.300   1.515   2.785  1.4538 -0.0593  1.1313
 5602SOL     OW28267   3.069   0.145   5.853  0.2143  0.1365 -0.2108
 5602SOL    HW128268   3.136   0.099   5.803  2.2837  1.2306  1.5497
 5602SOL    HW228269   3.025   0.183   5.777  0.1762 -1.2772 -0.8897
 5603SOL     OW28270   4.394   3.780  11.111 -0.3381  0.1590  0.5925
 5603SOL    HW128271   4.478   3.802  11.150 -0.8089 -1.0009  2.3083
 5603SOL    HW228272   4.397   3.809  11.020  1.7859 -0.6058  0.4056
 5604SOL     OW28273   3.021   4.640   8.413  0.0691  0.2591 -0.0846
 5604SOL    HW128274   2.999   4.547   8.414 -1.7093  0.7141  1.9627
 5604SOL    HW228275   2.937   4.686   8.410 -0.7319 -1.2204 -0.0040
 5605SOL     OW28276   2.595   0.312  11.085 -0.4662  0.0093 -0.0554
 5605SOL    HW128277   2.646   0.262  11.150 -1.1876  1.1589  1.3958
 5605SOL    HW228278   2.633   0.285  11.002 -0.6601 -1.9349  0.4867
 5606SOL     OW28279   4.032   3.439   9.443  0.7929  0.3800 -0.1081
 5606SOL    HW128280   3.954   3.475   9.486  1.3850  1.2946  0.2014
 5606SOL    HW228281   4.093   3.512   9.438  2.3549 -0.9610 -0.7264
 5607SOL     OW28282   0.822   0.203   5.724  0.2623 -0.5624  0.7228
 5607SOL    HW128283   0.891   0.270   5.722 -1.2573  0.9634  0.0274
 5607SOL    HW228284   0.755   0.249   5.673  2.5639 -0.8863 -2.6370
 5608SOL     OW28285   1.869   0.471   9.329 -0.3141  0.3472  0.9096
 5608SOL    HW128286   1.855   0.427   9.413  0.2820 -0.4571  0.5931
 5608SOL    HW228287   1.964   0.486   9.331 -0.3089  0.5340 -0.7064
 5609SOL     OW28288   1.738   2.324  13.148  0.3628  0.0447 -0.0740
 5609SOL    HW128289   1.745   2.418  13.132  1.4181 -0.1195 -0.5967
 5609SOL    HW228290   1.830   2.301  13.135  0.5167 -0.6875  2.2541
 5610SOL     OW28291   1.277   4.567   2.747  0.6145  0.1349  0.0293
 5610SOL    HW128292   1.240   4.654   2.761 -1.2654 -0.6352 -0.1255
 5610SOL    HW228293   1.239   4.540   2.663  0.7165 -2.7103  0.9067
 5611SOL     OW28294   3.529   0.100   5.430 -0.3887 -0.2604 -0.2532
 5611SOL    HW128295   3.460   0.156   5.465  1.3599 -0.1472  3.0355
 5611SOL    HW228296   3.486   0.023   5.392 -0.2471  0.3842 -1.7184
 5612SOL     OW28297   4.139   0.976   5.528  0.3935  0.0441  0.5467
 5612SOL    HW128298   4.141   0.895   5.579 -2.5620 -0.1034  0.4077
 5612SOL    HW228299   4.045   0.979   5.511 -0.0293 -2.3210  2.4606
 5613SOL     OW28300   2.537   0.851   7.520  0.0355  0.0307  0.6014
 5613SOL    HW128301   2.603   0.920   7.509 -0.0531 -0.2468 -1.5935
 5613SOL    HW228302   2.460   0.896   7.555 -0.0026 -0.7717  1.5376
 5614SOL     OW28303   3.540   1.222   3.990 -0.2774  0.7726  0.3297
 5614SOL    HW128304   3.582   1.158   3.932 -1.8387 -0.4296  0.5222
 5614SOL    HW228305   3.482   1.156   4.028 -3.2524  1.7507 -2.5281
 5615SOL     OW28306   1.387   0.678   1.815  0.1593 -0.1094 -0.0878
 5615SOL    HW128307   1.360   0.767   1.793 -0.8576  0.3100  2.9196
 5615SOL    HW228308   1.454   0.658   1.750 -0.3415 -0.6260 -0.4438
 5616SOL     OW28309   0.832   4.691   4.348  0.0256  0.1219  0.0716
 5616SOL    HW128310   0.918   0.005   4.360  0.3246 -1.2499  2.4892
 5616SOL    HW228311   0.824   4.640   4.428  1.1949 -0.0081  0.1076
 5617SOL     OW28312   0.114   2.860   7.987 -0.3083  0.4432  0.8087
 5617SOL    HW128313   0.104   2.848   8.081  0.9615 -0.1894  0.8595
 5617SOL    HW228314   0.173   2.786   7.969  1.9078  2.4711 -0.3306
 5618SOL     OW28315   3.379   2.514   8.168 -0.2048  0.0400 -0.1222
 5618SOL    HW128316   3.438   2.447   8.134  0.7926 -0.0131  1.6996
 5618SOL    HW228317   3.307   2.461   8.201  0.2995  0.4207  1.5943
 5619SOL     OW28318   3.111   0.494   6.027  0.3991 -0.0935  0.7155
 5619SOL    HW128319   3.076   0.470   5.942  1.2746  1.4764 -0.1012
 5619SOL    HW228320   3.177   0.558   5.999  0.8825 -0.9540 -0.0763
 5620SOL     OW28321   1.887   4.134  16.874  0.1116 -0.0141 -0.0737
 5620SOL    HW128322   1.803   4.112  16.915  0.2786  2.4242  1.5559
 5620SOL    HW228323   1.908   4.058  16.819  0.7042  0.1771 -0.1115
 5621SOL     OW28324   0.855   0.488   7.572 -0.2870 -0.2003  0.1253
 5621SOL    HW128325   0.822   0.515   7.487 -1.4699 -0.5487  0.4727
 5621SOL    HW228326   0.850   0.572   7.618 -1.5856  1.1871 -2.5780
 5622SOL     OW28327   0.841   0.638  13.024 -0.3865 -0.2794 -0.0081
 5622SOL    HW128328   0.926   0.631  13.067 -0.3513  4.2442  0.6884
 5622SOL    HW228329   0.792   0.614  13.103 -0.9781  1.2497  0.1000
 5623SOL     OW28330   4.208   3.809   7.915  0.0539 -0.0088  0.1423
 5623SOL    HW128331   4.208   3.714   7.911  0.6234 -0.0455  1.1410
 5623SOL    HW228332   4.122   3.832   7.949  0.1379 -1.4504  1.2908
 5624SOL     OW28333   0.825   2.696  17.215 -0.3964  0.0718 -0.3675
 5624SOL    HW128334   0.877   2.757  17.267 -1.6253 -0.3304  1.3159
 5624SOL    HW228335   0.794   2.761  17.152 -0.9074  0.2918  0.1066
 5625SOL     OW28336   4.327   3.623  10.848 -0.1200  0.4553  0.6413
 5625SOL    HW128337   4.282   3.545  10.815  0.5059  0.0006  0.8828
 5625SOL    HW228338   4.290   3.696  10.798 -0.1344  0.0476  0.0536
 5626SOL     OW28339   0.640   4.611   3.294  0.3646  0.0735 -0.0993
 5626SOL    HW128340   0.642   4.577   3.383 -0.1729  0.3363  0.0109
 5626SOL    HW228341   0.565   4.565   3.257 -1.0745  0.8117  1.9234
 5627SOL     OW28342   0.799   3.718   5.855  0.2613 -0.4417  0.5288
 5627SOL    HW128343   0.864   3.653   5.830  0.0533 -1.4966  2.8316
 5627SOL    HW228344   0.731   3.697   5.790  1.3391 -1.4172 -0.2870
 5628SOL     OW28345   3.648   0.091  16.489 -0.3153 -0.1322 -0.6403
 5628SOL    HW128346   3.661   0.180  16.521 -1.6065 -0.7639  1.6399
 5628SOL    HW228347   3.558   0.094  16.459  0.2393  0.6746 -2.2068
 5629SOL     OW28348   3.777   2.724  17.354 -0.5953 -0.6898  0.2476
 5629SOL    HW128349   3.754   2.634  17.332  2.5034 -1.2532 -0.7458
 5629SOL    HW228350   3.694   2.770  17.363 -0.0066  0.1159  1.6856
 5630SOL     OW28351   0.061   3.537   7.619  0.1474  0.3130  0.1423
 5630SOL    HW128352   0.030   3.592   7.692 -1.0420  0.5934 -0.5723
 5630SOL    HW228353   0.156   3.532   7.627  0.1985 -0.9133 -1.3681
 5631SOL     OW28354   3.064   0.209  14.125  0.4386  0.6284  0.1925
 5631SOL    HW128355   3.021   0.139  14.175  0.5587 -0.8317 -1.7291
 5631SOL    HW228356   3.100   0.171  14.044 -1.2018 -1.2839  0.3577
 5632SOL     OW28357   3.398   2.934   4.312 -0.2031  0.7689 -0.2977
 5632SOL    HW128358   3.393   3.019   4.268 -2.3108 -0.2420 -2.0360
 5632SOL    HW228359   3.492   2.922   4.326 -0.4372 -0.2008  0.5087
 5633SOL     OW28360   4.379   3.909   3.233  0.3765  0.6963  0.1240
 5633SOL    HW128361   4.348   3.938   3.147 -1.5613 -0.2488  0.5162
 5633SOL    HW228362   4.298   3.868   3.263  0.6670  1.5960  2.1979
 5634SOL     OW28363   1.932   3.732   4.588 -0.3459  0.8053  0.1764
 5634SOL    HW128364   2.015   3.690   4.608  1.4020  3.4828 -1.4416
 5634SOL    HW228365   1.939   3.735   4.493 -0.5125  0.2844  0.1520
 5635SOL     OW28366   1.879   2.184   2.684  0.5320 -0.6808  0.3395
 5635SOL    HW128367   1.931   2.106   2.666  0.6699 -0.4542 -0.2555
 5635SOL    HW228368   1.885   2.232   2.601 -0.9579 -1.3485 -0.1616
 5636SOL     OW28369   0.820   3.398  16.707 -0.2423 -0.3601 -0.4072
 5636SOL    HW128370   0.887   3.343  16.747 -1.2578 -1.1689  0.1948
 5636SOL    HW228371   0.869   3.450  16.644 -1.0343 -0.5294 -1.1742
 5637SOL     OW28372   1.154   4.032   6.340  0.2626 -0.7414 -0.1729
 5637SOL    HW128373   1.102   4.066   6.413  0.7036  0.8698 -0.5963
 5637SOL    HW228374   1.214   3.971   6.382  2.3622  1.7420  0.4501
 5638SOL     OW28375   3.209   3.419   0.220  0.3757 -0.0484 -0.0828
 5638SOL    HW128376   3.222   3.416   0.126 -2.4782 -3.1931 -0.3816
 5638SOL    HW228377   3.151   3.342   0.224  0.1381  0.1913  1.1262
 5639SOL     OW28378   1.292   3.049   1.315 -0.6371  0.0524  0.1022
 5639SOL    HW128379   1.318   3.007   1.233 -0.3818  1.0026 -0.3122
 5639SOL    HW228380   1.362   3.017   1.371 -2.3846  1.7748  3.2488
 5640SOL     OW28381   2.692   2.967   4.564 -0.1084  0.3189  0.0690
 5640SOL    HW128382   2.642   2.908   4.508  0.4957  2.1837 -2.4327
 5640SOL    HW228383   2.783   2.962   4.533  0.1691  0.5890  0.8226
 5641SOL     OW28384   0.423   4.648   4.888 -0.0737 -0.5829 -0.8150
 5641SOL    HW128385   0.494   4.589   4.911  1.2250  2.0751  1.9507
 5641SOL    HW228386   0.465   0.006   4.905  2.9913 -1.6612 -3.2321
 5642SOL     OW28387   4.276   3.855   8.388  0.2941  0.4572  0.0642
 5642SOL    HW128388   4.222   3.786   8.348  0.6059  0.0997  0.2648
 5642SOL    HW228389   4.204   3.905   8.426  0.9629 -0.6671  2.7575
 5643SOL     OW28390   1.836   2.591  16.571 -0.0444 -0.0508  0.1502
 5643SOL    HW128391   1.830   2.497  16.557 -0.3939 -0.0110  0.0230
 5643SOL    HW228392   1.891   2.613  16.496  0.3435 -0.8356  0.2021
 5644SOL     OW28393   0.855   3.031   6.977  0.2406  0.1787 -0.2453
 5644SOL    HW128394   0.913   3.082   7.034 -0.1520 -0.0324  0.3338
 5644SOL    HW228395   0.888   2.944   6.998  0.5683  0.6496  1.1947
 5645SOL     OW28396   1.627   1.646   8.272  0.4124  0.2043 -0.5302
 5645SOL    HW128397   1.608   1.558   8.305  4.0670 -0.6095 -0.5849
 5645SOL    HW228398   1.564   1.646   8.200 -0.8053  1.8657  0.5665
 5646SOL     OW28399   0.552   4.399   4.959  0.1269 -0.3840  0.1637
 5646SOL    HW128400   0.476   4.362   4.915 -0.0044 -0.6231  0.5901
 5646SOL    HW228401   0.524   4.420   5.048  1.4809  1.9493  0.0520
 5647SOL     OW28402   2.199   0.264   2.797  0.3139 -0.1410  0.2792
 5647SOL    HW128403   2.207   0.344   2.744 -0.4417 -0.9754 -1.1171
 5647SOL    HW228404   2.184   0.199   2.728  0.9770  0.7266 -0.6823
 5648SOL     OW28405   0.097   4.388   3.131 -0.6044  0.2781  0.5653
 5648SOL    HW128406   0.006   4.368   3.153 -0.2757 -1.9678 -0.1279
 5648SOL    HW228407   0.129   4.442   3.204 -0.8040  0.4995  0.4872
 5649SOL     OW28408   3.630   2.749   5.446  0.4171  0.1119  0.1578
 5649SOL    HW128409   3.558   2.767   5.387  1.1585  0.9720 -0.4824
 5649SOL    HW228410   3.664   2.835   5.469 -0.0527  0.3597 -0.0878
 5650SOL     OW28411   2.527   2.562   7.129  0.2790 -0.0545 -0.1024
 5650SOL    HW128412   2.590   2.490   7.129 -0.9262 -1.1149 -1.3148
 5650SOL    HW228413   2.470   2.536   7.202  1.2633 -2.5197 -0.2019
 5651SOL     OW28414   4.434   1.601   6.051 -0.7481  0.1430  0.0668
 5651SOL    HW128415   4.427   1.661   5.976  0.1181  2.2827  1.6846
 5651SOL    HW228416   4.480   1.651   6.120  0.4308  0.0360 -0.6339
 5652SOL     OW28417   3.523   1.879   6.821  0.0758 -0.0530  0.3289
 5652SOL    HW128418   3.584   1.942   6.783  0.8810  0.3289  2.2678
 5652SOL    HW228419   3.528   1.910   6.911 -1.5922  1.3345 -0.0651
 5653SOL     OW28420   1.574   2.575  11.155 -0.0724 -0.3505  0.3275
 5653SOL    HW128421   1.588   2.659  11.200  1.3722 -0.6412  0.4050
 5653SOL    HW228422   1.545   2.520  11.228 -1.3140  0.0237  0.1197
 5654SOL     OW28423   2.189   2.233  16.596  0.4204 -0.0816  0.7225
 5654SOL    HW128424   2.140   2.161  16.559 -0.1020 -0.8147  2.8287
 5654SOL    HW228425   2.255   2.187  16.649  1.2359 -1.1566 -1.2494
 5655SOL     OW28426   1.035   4.266   4.384  0.5310 -0.2362 -0.3730
 5655SOL    HW128427   1.007   4.264   4.292  0.2793 -0.2717 -0.2937
 5655SOL    HW228428   0.952   4.230   4.415  2.1612 -2.7422  1.0902
 5656SOL     OW28429   2.097   4.491   2.340  0.0977 -0.2438 -0.2757
 5656SOL    HW128430   2.032   4.554   2.309 -2.6368 -3.4106 -0.9299
 5656SOL    HW228431   2.044   4.438   2.399 -0.1718  0.8409  0.4678
 5657SOL     OW28432   1.628   1.602  12.851  0.2166  0.4090 -0.1004
 5657SOL    HW128433   1.637   1.528  12.911 -1.1421 -0.1213 -0.5549
 5657SOL    HW228434   1.535   1.595  12.831  0.3637  0.1466 -0.6982
 5658SOL     OW28435   4.219   0.894   3.300  0.1721  0.3720 -0.4823
 5658SOL    HW128436   4.204   0.959   3.231 -0.5061 -1.6889 -2.2536
 5658SOL    HW228437   4.298   0.847   3.273  1.0633  0.3949  2.0583
 5659SOL     OW28438   3.333   1.714  10.459 -0.5973  0.3084 -0.6896
 5659SOL    HW128439   3.412   1.765  10.473  0.6822 -0.9626 -3.3408
 5659SOL    HW228440   3.305   1.689  10.547  0.5074  1.8896  0.1042
 5660SOL     OW28441   2.126   3.548   4.520  0.8127 -0.1344 -0.0560
 5660SOL    HW128442   2.059   3.537   4.452  0.8468  1.4741 -0.3500
 5660SOL    HW228443   2.204   3.560   4.466  1.6453 -1.2188  0.9042
 5661SOL     OW28444   2.375   1.522   6.864  0.6870  0.0414 -0.0965
 5661SOL    HW128445   2.311   1.455   6.839 -0.4515  1.3179 -0.6039
 5661SOL    HW228446   2.413   1.475   6.938 -1.1530 -1.7961 -0.3241
 5662SOL     OW28447   4.555   1.810   0.339 -0.2133 -0.4318 -0.4141
 5662SOL    HW128448   4.598   1.746   0.282  0.8427  0.2828 -0.4118
 5662SOL    HW228449   4.539   1.886   0.282  2.0249  0.4157  0.0936
 5663SOL     OW28450   2.335   3.097   1.574 -0.3379 -0.0536  0.0001
 5663SOL    HW128451   2.253   3.145   1.560  0.6240  1.1548 -1.4398
 5663SOL    HW228452   2.397   3.160   1.539 -1.5325 -0.1692 -2.3410
 5664SOL     OW28453   0.052   2.071   3.072  0.2049  0.7352 -0.4232
 5664SOL    HW128454   0.136   2.026   3.081  0.6685  1.9149  1.1517
 5664SOL    HW228455   0.038   2.117   3.155 -3.7801 -1.9041  0.3765
 5665SOL     OW28456   1.166   3.195   1.097 -0.1855  0.2351  0.1860
 5665SOL    HW128457   1.184   3.146   1.177  0.4839  0.7345  0.3470
 5665SOL    HW228458   1.235   3.262   1.096  0.3790 -0.3334  0.9638
 5666SOL     OW28459   0.572   2.473   2.685  0.8267 -0.0281  0.1807
 5666SOL    HW128460   0.635   2.543   2.669  1.1244 -0.1383  0.8527
 5666SOL    HW228461   0.490   2.517   2.663  1.2892  0.5919 -0.2911
 5667SOL     OW28462   1.764   0.551  17.483 -0.2908 -0.0851  0.1891
 5667SOL    HW128463   1.724   0.470  17.515 -0.2538 -0.7180 -1.3560
 5667SOL    HW228464   1.790   0.525  17.395  1.8018  1.0808  0.4564
 5668SOL     OW28465   0.436   3.537  14.863 -0.2368 -0.3223  0.4712
 5668SOL    HW128466   0.412   3.445  14.877  0.9985 -0.8621 -0.9029
 5668SOL    HW228467   0.521   3.538  14.819  0.2070 -1.6396  1.3007
 5669SOL     OW28468   1.898   3.842   0.651 -0.0162  0.4033 -0.0216
 5669SOL    HW128469   1.929   3.869   0.565 -0.8668 -0.0948 -0.4852
 5669SOL    HW228470   1.805   3.824   0.637  0.0008  0.2207  0.0834
 5670SOL     OW28471   4.512   2.761  10.869 -0.0689  0.0868 -0.3675
 5670SOL    HW128472   4.456   2.764  10.946 -1.6920  2.3787 -1.6191
 5670SOL    HW228473   4.594   2.734  10.911 -0.6514  0.2237  0.8482
 5671SOL     OW28474   1.781   1.373   5.827 -0.0629  0.0956 -0.0816
 5671SOL    HW128475   1.749   1.313   5.894 -0.0703  0.5675  0.3368
 5671SOL    HW228476   1.704   1.395   5.775  0.2418 -1.5723 -1.2512
 5672SOL     OW28477   1.015   2.751   7.066  0.0572 -0.2614  0.8252
 5672SOL    HW128478   1.005   2.712   6.978 -0.3125 -1.9123  1.5951
 5672SOL    HW228479   1.103   2.788   7.066  0.1808 -0.5546  1.0162
 5673SOL     OW28480   4.630   4.524   5.087  0.1197 -0.1042  0.0252
 5673SOL    HW128481   4.694   4.594   5.082 -1.1200  0.8655 -1.9267
 5673SOL    HW228482   4.552   4.579   5.086  0.7979  0.8584  0.1224
 5674SOL     OW28483   3.828   3.101  11.699  0.4701 -0.0834 -0.1672
 5674SOL    HW128484   3.885   3.138  11.766  0.9310  0.2209 -0.7260
 5674SOL    HW228485   3.747   3.149  11.717  2.1790  2.0369  1.7957
 5675SOL     OW28486   0.521   2.637   8.610  0.2442 -0.0512 -0.0302
 5675SOL    HW128487   0.556   2.557   8.571 -1.2987 -0.6434 -0.2199
 5675SOL    HW228488   0.518   2.617   8.704  1.5069  1.4927  0.3466
 5676SOL     OW28489   0.122   1.155  17.023  0.1341  0.2408  0.1730
 5676SOL    HW128490   0.056   1.225  17.027  1.1339  1.2642 -1.1511
 5676SOL    HW228491   0.127   1.148  16.928  2.2874  0.3035  0.2868
 5677SOL     OW28492   1.547   3.150   5.464  0.6296 -0.0430  0.0882
 5677SOL    HW128493   1.573   3.066   5.502  1.9415 -0.4714 -1.7590
 5677SOL    HW228494   1.594   3.147   5.381 -0.4808  2.7597 -0.6475
 5678SOL     OW28495   1.044   0.817   2.908 -0.3161 -0.2734  0.6351
 5678SOL    HW128496   1.076   0.753   2.971  2.2323  2.7776  2.3951
 5678SOL    HW228497   1.109   0.883   2.927  0.0934  0.3040 -2.7196
 5679SOL     OW28498   2.920   2.697   7.506  0.2721 -0.5768 -0.3370
 5679SOL    HW128499   2.946   2.719   7.596 -1.2363  1.7260 -0.4651
 5679SOL    HW228500   3.000   2.656   7.474  0.9647 -0.4688  1.2173
 5680SOL     OW28501   0.880   0.199  15.264 -0.0606 -0.0003 -0.1821
 5680SOL    HW128502   0.791   0.178  15.292 -0.0710  0.4776  0.1359
 5680SOL    HW228503   0.934   0.170  15.338 -0.0592  1.9236  0.5530
 5681SOL     OW28504   1.450   4.324  16.294 -0.0620  0.0300 -0.0923
 5681SOL    HW128505   1.368   4.275  16.303  1.2059 -2.3966 -1.7923
 5681SOL    HW228506   1.414   4.411  16.277 -2.1875 -1.0874 -1.3658
 5682SOL     OW28507   0.983   3.913   5.087  0.4023  0.1882  0.4704
 5682SOL    HW128508   0.982   4.006   5.108  2.3283  0.0931  1.0035
 5682SOL    HW228509   1.047   3.910   5.016 -0.7202  1.7481 -0.5921
 5683SOL     OW28510   1.001   2.215   3.268 -0.0453 -0.2567 -0.6355
 5683SOL    HW128511   1.048   2.139   3.302  0.2433  0.6191  0.9524
 5683SOL    HW228512   0.943   2.172   3.206  0.0133  0.9111 -1.5030
 5684SOL     OW28513   1.603   4.195   8.467  0.2759  0.5059  0.2381
 5684SOL    HW128514   1.692   4.162   8.481 -1.2703 -3.4905  0.6271
 5684SOL    HW228515   1.594   4.188   8.372 -1.0948 -2.0863  0.5692
 5685SOL     OW28516   0.672   4.133   7.925  0.2735 -0.0553  0.1042
 5685SOL    HW128517   0.621   4.065   7.880 -3.4052  2.0780  1.0095
 5685SOL    HW228518   0.706   4.186   7.853 -0.1569 -0.0942 -0.1309
 5686SOL     OW28519   0.295   0.707  17.200 -0.5725 -0.0406  0.3016
 5686SOL    HW128520   0.375   0.757  17.218 -0.9699  0.8827 -0.5661
 5686SOL    HW228521   0.300   0.676  17.110  0.8313 -0.4622  0.5106
 5687SOL     OW28522   0.574   0.063   8.564  0.2647  0.0136 -0.5025
 5687SOL    HW128523   0.519   0.095   8.492 -1.5283 -0.2185  0.7403
 5687SOL    HW228524   0.616   4.722   8.511 -0.3810 -1.2649  0.5908
 5688SOL     OW28525   2.903   0.757   7.057 -0.5199  0.2104  0.5780
 5688SOL    HW128526   2.811   0.733   7.042 -0.2796 -0.0572 -0.5230
 5688SOL    HW228527   2.942   0.703   6.988  0.5210  3.2076 -1.1571
 5689SOL     OW28528   2.940   3.901   8.065 -0.7689  0.5312 -0.4576
 5689SOL    HW128529   3.031   3.895   8.039 -0.7019  0.0060 -0.0849
 5689SOL    HW228530   2.936   3.830   8.129  0.6715  0.5879 -0.3012
 5690SOL     OW28531   3.455   2.466   0.776  0.3389 -0.2409  0.1788
 5690SOL    HW128532   3.423   2.550   0.743 -2.1535 -0.0535  3.0617
 5690SOL    HW228533   3.389   2.447   0.843  1.3104  0.0962  1.2432
 5691SOL     OW28534   2.727   4.475   3.119  0.4259 -0.0683  0.0999
 5691SOL    HW128535   2.804   4.502   3.068 -0.3428 -1.1900 -1.6477
 5691SOL    HW228536   2.770   4.430   3.192  0.2815 -0.6829 -0.1991
 5692SOL     OW28537   3.395   0.507  12.487 -0.0482  0.2232 -0.0070
 5692SOL    HW128538   3.388   0.581  12.547  0.7777  0.3692 -0.0956
 5692SOL    HW228539   3.327   0.447  12.518 -0.1522 -1.0370 -2.7125
 5693SOL     OW28540   3.323   2.170   0.483  0.1392  0.7417 -0.1452
 5693SOL    HW128541   3.383   2.180   0.557  0.0418  0.6280 -0.0498
 5693SOL    HW228542   3.382   2.157   0.409 -2.6984 -0.9826 -2.0970
 5694SOL     OW28543   1.393   2.554   4.043  0.0555 -0.3282  0.1924
 5694SOL    HW128544   1.351   2.639   4.032 -1.7995 -1.3173 -0.4371
 5694SOL    HW228545   1.369   2.514   3.959 -2.2769  0.1342  0.6330
 5695SOL     OW28546   3.204   3.460   3.996 -0.3392 -0.0617  0.4138
 5695SOL    HW128547   3.208   3.375   3.954  1.1510 -0.4336  1.3238
 5695SOL    HW228548   3.296   3.486   3.999 -0.4218 -0.1279  3.2701
 5696SOL     OW28549   2.918   1.068   5.720  0.2120  0.1340 -0.0448
 5696SOL    HW128550   2.972   0.990   5.721  1.7262  1.1805 -0.0469
 5696SOL    HW228551   2.979   1.120   5.667 -1.2778 -0.0107 -1.8930
 5697SOL     OW28552   4.016   2.122   5.328  0.2233  1.0630 -0.4757
 5697SOL    HW128553   4.036   2.197   5.385  1.7488 -0.2386  0.7227
 5697SOL    HW228554   3.921   2.122   5.335  0.1562 -0.4974 -1.3910
 5698SOL     OW28555   2.342   3.110   2.499 -0.1479  0.0491 -0.1477
 5698SOL    HW128556   2.417   3.132   2.554  0.9604 -0.3901 -1.4811
 5698SOL    HW228557   2.371   3.125   2.409 -0.0446  0.3520 -0.0645
 5699SOL     OW28558   1.875   4.514  16.270 -0.4159  0.4823 -0.0047
 5699SOL    HW128559   1.843   4.604  16.273 -0.1443  0.5664  0.2953
 5699SOL    HW228560   1.858   4.500  16.363  0.2161 -2.1415 -0.2711
 5700SOL     OW28561   1.894   1.100   4.398  0.3593 -0.7655  0.7446
 5700SOL    HW128562   1.952   1.164   4.358  0.4951 -0.8815  0.7571
 5700SOL    HW228563   1.886   1.044   4.321  0.9174  0.4895 -0.2139
 5701SOL     OW28564   1.588   1.099   3.472  0.6740 -0.1575 -0.1110
 5701SOL    HW128565   1.557   1.010   3.485  2.4924 -1.2905 -3.5931
 5701SOL    HW228566   1.542   1.151   3.538  1.7258  0.4745  0.1280
 5702SOL     OW28567   4.661   3.853   2.952  0.2248  0.1279  0.5456
 5702SOL    HW128568   4.600   3.790   2.989  1.2810 -0.3713  1.4578
 5702SOL    HW228569   4.648   3.929   3.009 -3.4917 -1.1290  1.3587
 5703SOL     OW28570   2.661   1.677   6.546 -0.3316  0.1995  0.2140
 5703SOL    HW128571   2.633   1.592   6.513 -0.3958  0.0396  0.6843
 5703SOL    HW228572   2.663   1.727   6.464  1.1196 -2.5487 -1.3887
 5704SOL     OW28573   4.168   0.372   3.696 -0.0769 -0.2041 -0.2684
 5704SOL    HW128574   4.105   0.433   3.658  0.7134 -0.6073 -2.2162
 5704SOL    HW228575   4.213   0.348   3.615  0.1825  0.7694 -0.4115
 5705SOL     OW28576   2.669   0.717   6.577  1.6728  0.0254  0.7329
 5705SOL    HW128577   2.645   0.626   6.591  1.0397  0.1974  0.7709
 5705SOL    HW228578   2.761   0.710   6.553  1.6410  0.5297  0.4644
 5706SOL     OW28579   1.345   4.238   3.190  0.1568  0.1349  0.3145
 5706SOL    HW128580   1.324   4.167   3.130  0.0264  0.0310  0.4810
 5706SOL    HW228581   1.360   4.315   3.136  3.5117  0.2654  1.4310
 5707SOL     OW28582   0.355   0.511   0.288 -0.4126 -0.5159  0.1084
 5707SOL    HW128583   0.357   0.602   0.318  0.7948  0.2884 -2.4472
 5707SOL    HW228584   0.268   0.505   0.249 -1.5288  0.4620  2.4413
 5708SOL     OW28585   1.663   3.011   6.636  0.1887  0.0793  0.2886
 5708SOL    HW128586   1.677   3.106   6.634  1.0704 -0.0698 -1.1091
 5708SOL    HW228587   1.686   2.990   6.726  0.7083 -0.1357  0.1083
 5709SOL     OW28588   2.280   1.970  16.055 -0.3200  0.8635  0.0124
 5709SOL    HW128589   2.214   1.965  15.987 -0.3935 -0.1041  0.1563
 5709SOL    HW228590   2.353   1.925  16.012  0.8794  0.6767  2.2208
 5710SOL     OW28591   1.899   4.627   6.486 -0.8454  0.2912 -0.2396
 5710SOL    HW128592   1.905   4.695   6.554  0.2818 -0.7693  0.7350
 5710SOL    HW228593   1.833   4.577   6.533  2.3287 -2.4199  1.3473
 5711SOL     OW28594   2.300   4.663   8.688  0.2856  1.2489 -0.2924
 5711SOL    HW128595   2.220   4.611   8.692  0.3253  1.1247 -1.1337
 5711SOL    HW228596   2.284   4.706   8.604 -0.4717  2.5420  0.5182
 5712SOL     OW28597   1.185   2.516  12.428  0.1451 -0.0921  0.3620
 5712SOL    HW128598   1.127   2.476  12.493 -1.1438  1.3425  0.0923
 5712SOL    HW228599   1.262   2.538  12.480 -0.6961  0.7070  1.2743
 5713SOL     OW28600   4.306   1.169   9.330 -0.1623 -0.7124  0.0140
 5713SOL    HW128601   4.224   1.185   9.284 -0.7735  2.2424  2.1628
 5713SOL    HW228602   4.284   1.193   9.420  3.0657  0.4802  0.5102
 5714SOL     OW28603   2.819   0.606   7.896 -0.3211 -0.3502  0.2544
 5714SOL    HW128604   2.760   0.619   7.822  1.5737 -3.5547 -1.8273
 5714SOL    HW228605   2.806   0.689   7.941  1.5157 -0.0103  0.1956
 5715SOL     OW28606   3.703   1.637  10.258 -0.4074 -0.2856  0.1960
 5715SOL    HW128607   3.729   1.561  10.206  2.1530  0.3031  0.5953
 5715SOL    HW228608   3.737   1.619  10.345 -0.3869 -2.3978 -0.2417
 5716SOL     OW28609   0.946   4.188  14.806  0.3543  0.7140 -0.1862
 5716SOL    HW128610   1.041   4.178  14.810  0.5005  2.4391  0.5551
 5716SOL    HW228611   0.947   4.282  14.822  1.1282  0.3630  1.8482
 5717SOL     OW28612   3.738   1.587  15.056  0.3145 -0.1044  0.2708
 5717SOL    HW128613   3.797   1.658  15.081  0.8061 -0.9184  1.4083
 5717SOL    HW228614   3.651   1.624  15.041  0.3642  0.2487  0.8637
 5718SOL     OW28615   4.716   1.173   2.829  0.1994  0.3199 -0.4354
 5718SOL    HW128616   4.651   1.156   2.760  0.3797 -0.5870 -0.3843
 5718SOL    HW228617   4.661   1.144   2.901 -0.8534 -2.3900 -2.3286
 5719SOL     OW28618   2.997   4.510  16.480 -0.4947  0.0361 -0.5111
 5719SOL    HW128619   2.956   4.593  16.504 -1.9740 -0.6158 -0.7778
 5719SOL    HW228620   3.057   4.484  16.550  0.4420  1.0227 -0.9372
 5720SOL     OW28621   2.129   3.983   0.065  0.2483 -0.1198 -0.0847
 5720SOL    HW128622   2.122   3.969  17.674 -1.4277  0.4099 -0.0322
 5720SOL    HW228623   2.093   4.071   0.073 -0.5718 -0.7085  2.6779
 5721SOL     OW28624   2.135   2.961   1.775 -0.2749  0.1429 -0.1733
 5721SOL    HW128625   2.161   2.986   1.864 -3.6876  0.9774  0.5796
 5721SOL    HW228626   2.221   2.988   1.741 -0.7198 -0.9769 -2.1952
 5722SOL     OW28627   2.913   0.484   0.835 -0.0840  0.1891 -0.4121
 5722SOL    HW128628   2.828   0.442   0.836  0.5986 -1.1999 -0.8277
 5722SOL    HW228629   2.936   0.471   0.927 -1.6594 -1.3341 -0.2448
 5723SOL     OW28630   1.886   4.724  12.792  0.3825  0.2331  0.0714
 5723SOL    HW128631   1.980   0.005  12.773  0.6434 -3.4521  0.2120
 5723SOL    HW228632   1.851   4.713  12.703  0.2116 -0.9346  0.2870
 5724SOL     OW28633   0.996   1.239  14.265  0.0800 -0.4324 -0.0518
 5724SOL    HW128634   1.006   1.145  14.253  1.4095 -0.2184 -0.6217
 5724SOL    HW228635   1.017   1.245  14.358  1.7836 -2.8156 -0.3033
 5725SOL     OW28636   3.616   4.010  17.073  0.5230 -0.0097 -0.1253
 5725SOL    HW128637   3.574   3.944  17.018 -0.6016 -0.2115  0.9745
 5725SOL    HW228638   3.683   4.051  17.019  1.8669 -1.6931  0.2768
 5726SOL     OW28639   0.833   4.055   4.715  0.1864 -0.4221 -0.1239
 5726SOL    HW128640   0.782   3.982   4.752 -0.9957  0.7182  0.5017
 5726SOL    HW228641   0.918   4.026   4.747 -0.9320 -0.4860  2.8263
 5727SOL     OW28642   2.502   3.584  14.017 -0.1316  0.1187  0.0600
 5727SOL    HW128643   2.535   3.641  13.947  0.8077  0.4069  0.7376
 5727SOL    HW228644   2.486   3.509  13.960  0.5847  1.1314 -1.4770
 5728SOL     OW28645   1.438   3.182   3.685  0.0756 -0.5336 -0.4995
 5728SOL    HW128646   1.455   3.259   3.739 -0.5571 -0.2377 -0.7304
 5728SOL    HW228647   1.411   3.218   3.601 -0.9133  0.5626  0.2902
 5729SOL     OW28648   1.205   0.471  14.905 -0.0624 -0.2541 -0.4438
 5729SOL    HW128649   1.125   0.420  14.908 -0.0024 -0.2760  0.7169
 5729SOL    HW228650   1.260   0.421  14.965  2.1238  1.3125 -1.0945
 5730SOL     OW28651   0.246   0.915   7.118 -0.7689  0.4802 -0.2496
 5730SOL    HW128652   0.163   0.922   7.071 -1.0584 -2.1620 -0.1509
 5730SOL    HW228653   0.248   1.007   7.143  0.7816  0.5914 -0.7883
 5731SOL     OW28654   0.656   3.772   4.673 -0.2575 -0.1547  0.1545
 5731SOL    HW128655   0.731   3.789   4.617 -1.1400  4.1425  0.2820
 5731SOL    HW228656   0.699   3.770   4.758  0.1666 -3.1032 -0.1361
 5732SOL     OW28657   2.419   0.063   4.412  0.2724  0.5014 -0.0062
 5732SOL    HW128658   2.426   0.069   4.317  0.6795 -0.2640 -0.0202
 5732SOL    HW228659   2.500   0.110   4.435 -0.5387  1.7924  0.2462
 5733SOL     OW28660   1.337   1.346   0.704  0.1663  0.0384 -0.0968
 5733SOL    HW128661   1.372   1.361   0.792  2.0778  0.1065 -0.8795
 5733SOL    HW228662   1.392   1.401   0.649  0.0842  1.1783  0.9516
 5734SOL     OW28663   1.767   2.859   3.032  0.1032 -0.0506 -0.2557
 5734SOL    HW128664   1.752   2.938   2.980 -0.2893  0.3796  0.5025
 5734SOL    HW228665   1.682   2.819   3.047 -0.3403  1.1990  0.5865
 5735SOL     OW28666   4.630   0.417   0.590 -0.1867 -0.1912 -0.5953
 5735SOL    HW128667   4.592   0.330   0.579 -0.6044 -0.1605  0.6807
 5735SOL    HW228668   4.662   0.432   0.501 -0.7603  0.7408 -0.6409
 5736SOL     OW28669   2.579   0.013   6.912 -0.7361  0.4733  0.2235
 5736SOL    HW128670   2.597   4.655   6.954 -0.4219 -1.0091 -2.8242
 5736SOL    HW228671   2.553   4.720   6.822 -1.1919 -0.1474  0.4876
 5737SOL     OW28672   2.674   2.426   5.447  0.1671 -0.2601  0.7324
 5737SOL    HW128673   2.586   2.396   5.426 -0.0152 -0.1403  1.3305
 5737SOL    HW228674   2.687   2.510   5.404  1.0540 -0.2985  0.9142
 5738SOL     OW28675   2.489   3.759   9.067 -0.0660 -0.2046  0.6847
 5738SOL    HW128676   2.422   3.691   9.066  0.9845 -1.2300  1.0222
 5738SOL    HW228677   2.453   3.784   8.982  0.2267  2.0740  1.2073
 5739SOL     OW28678   2.406   1.745   6.708 -0.0548 -0.0697 -0.3038
 5739SOL    HW128679   2.481   1.744   6.648 -0.1069  1.0426 -0.3806
 5739SOL    HW228680   2.413   1.669   6.766  0.5484 -0.4508 -0.8727
 5740SOL     OW28681   0.760   2.484   7.845 -0.2904  0.3630 -0.2406
 5740SOL    HW128682   0.725   2.530   7.768 -2.1477 -0.9302 -0.1837
 5740SOL    HW228683   0.713   2.533   7.912 -0.2628 -0.8223  0.6381
 5741SOL     OW28684   1.092   3.857  15.424  0.2908 -0.0248  0.5381
 5741SOL    HW128685   1.130   3.770  15.434  0.2661 -0.0691  0.2529
 5741SOL    HW228686   1.016   3.838  15.479  1.2345  0.7746  2.1204
 5742SOL     OW28687   2.029   4.204  17.622 -0.1354  0.1146 -0.6008
 5742SOL    HW128688   1.978   4.280  17.595  0.4275  0.0153 -1.9462
 5742SOL    HW228689   2.119   4.235  17.618  0.1666 -0.5359  1.0060
 5743SOL     OW28690   2.693   1.106  15.091  0.6341 -0.4618 -0.1720
 5743SOL    HW128691   2.722   1.037  15.150  1.8798  1.5847  1.6471
 5743SOL    HW228692   2.603   1.110  15.122  0.4639 -0.2666 -0.6811
 5744SOL     OW28693   1.594   0.647   5.256  0.3137  0.2049  0.1671
 5744SOL    HW128694   1.584   0.576   5.193 -1.2883  0.2587  0.3455
 5744SOL    HW228695   1.572   0.719   5.196 -0.7678  0.5079  0.9107
 5745SOL     OW28696   2.524   1.234   9.389  0.6764  0.5048  0.0619
 5745SOL    HW128697   2.601   1.284   9.363  0.5803  0.9518  0.6442
 5745SOL    HW228698   2.554   1.213   9.478 -0.0883  1.4087  0.5259
 5746SOL     OW28699   3.247   0.032   5.710  0.2212 -0.3846  0.5977
 5746SOL    HW128700   3.257   0.054   5.618 -3.9659 -0.3432  0.1876
 5746SOL    HW228701   3.296   4.676   5.721  0.9321  0.0906  0.9556
 5747SOL     OW28702   0.141   0.110   3.373 -0.0586  0.0798  0.4998
 5747SOL    HW128703   0.220   0.156   3.344 -0.0175 -0.9860 -1.0854
 5747SOL    HW228704   0.125   0.146   3.460  0.9835 -0.5988  0.9699
 5748SOL     OW28705   2.334   2.551   2.574 -0.3148  0.3252 -0.5292
 5748SOL    HW128706   2.302   2.461   2.583 -1.5644  0.8325  0.0898
 5748SOL    HW228707   2.288   2.596   2.645 -1.8037 -1.9109 -0.0999
 5749SOL     OW28708   4.351   0.945  16.352 -0.1555 -0.2598 -0.3617
 5749SOL    HW128709   4.426   0.980  16.399  0.0011  2.1948 -2.4587
 5749SOL    HW228710   4.335   1.023  16.300  0.4515  0.8114  1.0764
 5750SOL     OW28711   3.589   0.594   3.398  0.1515 -0.2070 -0.2526
 5750SOL    HW128712   3.540   0.512   3.394  0.1181 -0.2688  1.4295
 5750SOL    HW228713   3.652   0.586   3.326  1.2931 -1.3528  0.8699
 5751SOL     OW28714   1.863   2.600   7.665  0.2318 -0.0873  0.5982
 5751SOL    HW128715   1.939   2.575   7.614  0.5899 -0.2283  1.2041
 5751SOL    HW228716   1.809   2.642   7.597  1.3901 -0.4758 -0.5660
 5752SOL     OW28717   2.291   2.474   4.783  0.3155  0.0435 -0.1165
 5752SOL    HW128718   2.299   2.496   4.690  1.0784  4.5398  1.0242
 5752SOL    HW228719   2.199   2.447   4.777  0.5378 -0.2806 -2.0287
 5753SOL     OW28720   3.834   4.700   1.897 -0.4544  0.4813  0.0510
 5753SOL    HW128721   3.884   4.627   1.933 -1.9645  1.4289  4.1565
 5753SOL    HW228722   3.852   0.037   1.968 -0.9764  0.4574  0.2076
 5754SOL     OW28723   1.188   4.639  16.954 -0.4867 -0.4881 -0.0453
 5754SOL    HW128724   1.141   4.563  16.919 -0.7492 -0.0322 -0.6919
 5754SOL    HW228725   1.263   4.649  16.895 -0.2478 -0.5231  0.2548
 5755SOL     OW28726   1.845   3.697  13.275  0.4184 -0.1366  0.4388
 5755SOL    HW128727   1.917   3.643  13.243  0.4341 -0.3984  0.9126
 5755SOL    HW228728   1.769   3.650  13.240  0.0954 -1.0684  2.3953
 5756SOL     OW28729   2.595   3.324   6.712 -0.1007 -0.1511 -0.1070
 5756SOL    HW128730   2.617   3.256   6.648  2.4044 -0.3007  0.9306
 5756SOL    HW228731   2.671   3.381   6.719 -0.8555  0.6057  2.0265
 5757SOL     OW28732   2.824   0.777  16.242  0.4876  0.0251  0.1685
 5757SOL    HW128733   2.814   0.682  16.241 -0.8077  0.1745 -0.8177
 5757SOL    HW228734   2.857   0.797  16.154  2.8729 -4.2333  0.1207
 5758SOL     OW28735   1.739   2.467  15.998 -0.1435  0.2487  0.4528
 5758SOL    HW128736   1.681   2.397  15.970  1.2299  0.1896 -2.2228
 5758SOL    HW228737   1.811   2.458  15.936 -0.2988 -3.0532  0.7626
 5759SOL     OW28738   3.854   3.691   7.899  0.0617  0.0412 -0.1488
 5759SOL    HW128739   3.810   3.686   7.984 -1.6500 -0.6695 -1.0694
 5759SOL    HW228740   3.939   3.648   7.911 -0.1074 -0.6593 -1.4614
 5760SOL     OW28741   4.703   1.338  11.868  0.0444 -0.6170  0.7591
 5760SOL    HW128742   4.643   1.411  11.885  1.3285  0.4753  0.5636
 5760SOL    HW228743   0.012   1.382  11.790 -0.8259  1.0298  1.3009
 5761SOL     OW28744   2.201   0.345  16.497  0.2466  0.1752 -0.2591
 5761SOL    HW128745   2.144   0.290  16.550  1.1489  1.1803  1.7645
 5761SOL    HW228746   2.174   0.432  16.526  0.7936  0.4354 -0.5400
 5762SOL     OW28747   2.032   2.144   6.691 -0.5330 -0.0175  0.0979
 5762SOL    HW128748   1.940   2.117   6.689 -0.3913 -0.5388  0.4863
 5762SOL    HW228749   2.072   2.080   6.750 -2.1046  1.1164  2.4138
 5763SOL     OW28750   2.971   2.435  12.456 -0.0313 -0.0226  1.0397
 5763SOL    HW128751   3.021   2.394  12.385 -0.4248  1.3562 -0.0324
 5763SOL    HW228752   3.035   2.499  12.486  1.1889 -1.7145  2.0522
 5764SOL     OW28753   3.050   1.786  14.207  0.1481 -0.4017  0.0703
 5764SOL    HW128754   3.008   1.700  14.204  0.1150 -0.4359  1.5380
 5764SOL    HW228755   3.002   1.824  14.133 -1.4520 -0.8222  0.8881
 5765SOL     OW28756   2.229   1.794   3.205 -0.6743  0.1878  0.6774
 5765SOL    HW128757   2.169   1.851   3.158  0.1259 -0.0552 -0.6346
 5765SOL    HW228758   2.213   1.832   3.291 -1.0178  3.7624 -0.9892
 5766SOL     OW28759   1.171   0.646   6.036  0.4205 -0.1742  0.0534
 5766SOL    HW128760   1.209   0.586   5.972 -0.8366  0.0074 -0.8564
 5766SOL    HW228761   1.196   0.730   5.999  1.2216 -0.2039  0.5099
 5767SOL     OW28762   4.599   2.301   8.793  0.5310  0.3621  0.7655
 5767SOL    HW128763   4.659   2.363   8.835  0.1076  0.1079  1.7650
 5767SOL    HW228764   4.634   2.292   8.705 -1.0392  3.0573 -0.1421
 5768SOL     OW28765   3.221   2.819   5.480  0.8728  0.2030 -0.0428
 5768SOL    HW128766   3.275   2.762   5.426 -0.0275 -0.2564 -0.4692
 5768SOL    HW228767   3.249   2.905   5.450 -2.5485  1.0491 -0.7919
 5769SOL     OW28768   4.436   1.799   9.198 -0.3218 -0.1104 -0.1423
 5769SOL    HW128769   4.451   1.765   9.287 -1.2840  0.4105  0.2078
 5769SOL    HW228770   4.447   1.715   9.153  1.4573 -0.5331  1.0694
 5770SOL     OW28771   2.977   0.736   3.388 -0.4232  0.3093  0.4077
 5770SOL    HW128772   2.899   0.786   3.365 -0.4244 -0.1656 -0.5977
 5770SOL    HW228773   2.927   0.660   3.420 -0.5299  0.3297  0.2896
 5771SOL     OW28774   1.256   0.168  15.258 -0.4915  0.2021 -0.3114
 5771SOL    HW128775   1.302   0.250  15.272 -1.0120 -0.0852  3.1527
 5771SOL    HW228776   1.317   0.103  15.294 -2.1862 -1.5801 -0.6592
 5772SOL     OW28777   2.180   2.671   6.143  0.1831 -0.2573 -0.4169
 5772SOL    HW128778   2.106   2.699   6.088 -0.3499 -2.1491 -0.6671
 5772SOL    HW228779   2.241   2.742   6.123 -0.8697  0.8384  0.3302
 5773SOL     OW28780   3.262   4.233   7.049 -0.1492  0.2525 -0.0011
 5773SOL    HW128781   3.271   4.258   6.957 -0.7475  2.4074  0.5400
 5773SOL    HW228782   3.171   4.256   7.068 -0.5535 -0.3095 -1.2598
 5774SOL     OW28783   0.546   0.048   7.007  0.0790  0.4886  0.7348
 5774SOL    HW128784   0.482   0.082   6.944 -0.2442 -0.2551  0.6598
 5774SOL    HW228785   0.543   4.685   6.972 -2.7109  1.1238 -0.6395
 5775SOL     OW28786   0.387   2.238   8.007 -0.2454 -0.1788  0.0316
 5775SOL    HW128787   0.432   2.163   7.968  0.0389 -1.0191  1.9977
 5775SOL    HW228788   0.442   2.258   8.082  1.4589  1.7676 -1.7460
 5776SOL     OW28789   0.229   0.534   3.917  0.0451  0.4041  0.1614
 5776SOL    HW128790   0.156   0.473   3.906  1.4428 -1.0923 -0.7676
 5776SOL    HW228791   0.205   0.601   3.981  1.9478  0.4753  0.8042
 5777SOL     OW28792   0.788   4.288   7.707 -0.1224  0.7269  0.4985
 5777SOL    HW128793   0.785   4.328   7.620  4.5053 -0.2226 -0.0690
 5777SOL    HW228794   0.850   4.217   7.691  1.3851  2.5363 -1.7243
 5778SOL     OW28795   2.050   2.416   4.702 -0.0984 -0.3053  0.6417
 5778SOL    HW128796   1.973   2.374   4.740 -1.1510  0.4083 -0.7004
 5778SOL    HW228797   2.065   2.376   4.617  0.9681  1.3542  0.0500
 5779SOL     OW28798   3.315   0.926   9.116  0.0927 -0.2021 -0.7800
 5779SOL    HW128799   3.406   0.941   9.142  0.2552  0.7793 -1.8961
 5779SOL    HW228800   3.272   0.946   9.198 -0.8381 -1.6840 -0.9061
 5780SOL     OW28801   2.067   0.105   5.431 -0.0122  0.3167 -0.2027
 5780SOL    HW128802   2.127   0.053   5.377 -0.4575  1.3032 -1.6514
 5780SOL    HW228803   2.109   0.145   5.507  1.4329  1.9618 -1.8602
 5781SOL     OW28804   4.651   3.320  16.225 -0.0154  0.1515  0.2584
 5781SOL    HW128805   4.696   3.395  16.263 -1.4420  0.5769  1.1373
 5781SOL    HW228806   4.689   3.332  16.138  0.2332  0.5471  0.4247
 5782SOL     OW28807   3.765   0.265   5.485  0.2152 -0.0085 -0.5859
 5782SOL    HW128808   3.707   0.194   5.458 -0.9853  0.2007  1.4554
 5782SOL    HW228809   3.702   0.330   5.516 -0.2633 -0.9116  0.3326
 5783SOL     OW28810   2.117   1.507   9.299 -0.1596 -0.0190 -0.0483
 5783SOL    HW128811   2.134   1.414   9.286  0.0207  0.3752 -2.6602
 5783SOL    HW228812   2.208   1.535   9.291 -0.2793  0.4309  0.1505
 5784SOL     OW28813   1.657   3.666   4.128  0.0284 -0.5711 -0.3057
 5784SOL    HW128814   1.709   3.586   4.127 -1.5268 -1.5975 -0.7108
 5784SOL    HW228815   1.584   3.658   4.189  0.1979 -0.6067 -0.1109
 5785SOL     OW28816   3.024   3.255   7.215 -0.2134 -0.2815 -0.0768
 5785SOL    HW128817   3.063   3.236   7.300  0.4544  2.1654  0.1686
 5785SOL    HW228818   2.931   3.258   7.233 -0.1794  0.4086 -0.0107
 5786SOL     OW28819   1.472   3.226  16.277  0.3125  0.0467  0.4254
 5786SOL    HW128820   1.393   3.278  16.262  0.8378  0.3822 -1.1195
 5786SOL    HW228821   1.530   3.298  16.252  0.2837 -0.4227 -0.9399
 5787SOL     OW28822   3.683   1.768   7.953  0.2992 -0.1976  0.1210
 5787SOL    HW128823   3.628   1.812   8.019 -0.4324 -0.4776 -0.3086
 5787SOL    HW228824   3.737   1.713   8.009  2.0772 -0.0317 -1.4522
 5788SOL     OW28825   2.688   0.393   7.278  0.1397  0.4036  0.0841
 5788SOL    HW128826   2.690   0.334   7.354  0.8959 -0.0007 -0.2448
 5788SOL    HW228827   2.773   0.437   7.283  0.1557  0.2372  1.1209
 5789SOL     OW28828   0.078   4.123   2.985  0.2474  0.2169 -0.6058
 5789SOL    HW128829   0.146   4.190   2.981  0.4828  0.1355  2.4203
 5789SOL    HW228830   0.029   4.163   3.057 -1.3771 -2.3168 -0.2870
 5790SOL     OW28831   0.006   2.962  16.164  0.3440  0.2687 -0.4635
 5790SOL    HW128832   0.074   3.005  16.215 -1.7610  1.6823  1.1912
 5790SOL    HW228833   0.028   3.006  16.082  1.7655 -1.0366 -0.7799
 5791SOL     OW28834   4.459   3.363  15.433 -0.5037 -0.3502 -0.2484
 5791SOL    HW128835   4.466   3.455  15.408  0.1553 -0.7702 -1.5799
 5791SOL    HW228836   4.378   3.323  15.401 -0.8473 -1.4503  2.0043
 5792SOL     OW28837   0.298   3.852   5.976 -0.3272  0.1512  1.1456
 5792SOL    HW128838   0.382   3.884   6.009 -0.2011 -0.6689  1.6343
 5792SOL    HW228839   0.330   3.824   5.891  0.4129  4.0366  0.1762
 5793SOL     OW28840   1.287   3.999   0.255 -0.1148  0.1746 -0.0397
 5793SOL    HW128841   1.375   3.998   0.294 -0.0401  1.8364 -0.1818
 5793SOL    HW228842   1.299   3.922   0.199  2.9627 -0.1756  1.0852
 5794SOL     OW28843   2.995   1.806   1.205  0.2075  0.0063  0.2848
 5794SOL    HW128844   2.983   1.820   1.299 -0.6497  2.1488 -0.1304
 5794SOL    HW228845   3.039   1.882   1.167 -1.2858  1.3565  1.2451
 5795SOL     OW28846   3.176   2.528   6.697 -0.2615 -0.4343 -1.3007
 5795SOL    HW128847   3.186   2.505   6.605 -0.7592 -0.9227 -1.2349
 5795SOL    HW228848   3.264   2.555   6.722 -1.4132  1.8692  0.2786
 5796SOL     OW28849   0.860   0.144   7.022 -0.3021 -0.1032 -0.1726
 5796SOL    HW128850   0.768   0.119   7.037 -0.2891  0.1354  0.3270
 5796SOL    HW228851   0.858   0.230   6.980 -1.7737  0.1988  0.4994
 5797SOL     OW28852   4.359   1.004   0.412  0.7694 -0.0644  0.1438
 5797SOL    HW128853   4.360   0.936   0.479  1.6983 -0.0003  0.1900
 5797SOL    HW228854   4.411   1.071   0.456 -0.1242  0.3540  0.5528
 5798SOL     OW28855   0.086   0.536   0.981  0.1637 -0.2107  0.7823
 5798SOL    HW128856   0.026   0.607   1.004 -1.1965 -1.8643  2.2269
 5798SOL    HW228857   0.165   0.586   0.959 -1.1532  0.4983 -2.2737
 5799SOL     OW28858   0.513   2.504   6.905 -0.3486  0.3261  0.0905
 5799SOL    HW128859   0.459   2.528   6.981  0.9855  1.3009  0.7403
 5799SOL    HW228860   0.550   2.421   6.934  0.9670  0.6043 -0.7979
 5800SOL     OW28861   4.558   0.732   7.972 -0.4283  0.1990 -0.0287
 5800SOL    HW128862   4.475   0.755   7.931 -0.5119 -2.9991 -1.6462
 5800SOL    HW228863   4.546   0.759   8.063 -1.2269  1.4725 -0.5075
 5801SOL     OW28864   0.635   0.877   8.027 -0.3420  0.1164 -0.4076
 5801SOL    HW128865   0.710   0.845   7.976  0.3038 -1.1983  1.3520
 5801SOL    HW228866   0.672   0.952   8.072 -1.0056 -0.3052  0.8271
 5802SOL     OW28867   3.616   1.787  15.767 -0.5161  0.4992 -0.0719
 5802SOL    HW128868   3.665   1.841  15.704 -0.6675  0.2446 -0.4087
 5802SOL    HW228869   3.553   1.848  15.806  0.2158  0.8678  0.5351
 5803SOL     OW28870   2.533   0.408   5.386 -0.6662  0.3708 -0.3998
 5803SOL    HW128871   2.588   0.369   5.318  0.0855  2.6662 -1.0849
 5803SOL    HW228872   2.532   0.343   5.457 -1.7912  0.8092 -0.0224
 5804SOL     OW28873   0.416   4.217  16.565 -0.3955  0.3743 -0.6814
 5804SOL    HW128874   0.347   4.155  16.540 -1.0676  0.2033  1.5199
 5804SOL    HW228875   0.429   4.262  16.482 -2.0671 -1.1390 -1.7701
 5805SOL     OW28876   1.522   0.234   3.291  0.3241  0.2573 -0.6932
 5805SOL    HW128877   1.581   0.165   3.260 -0.5846 -0.3003 -1.1829
 5805SOL    HW228878   1.437   0.192   3.273  0.2424  0.5038 -0.8792
 5806SOL     OW28879   1.665   0.092   5.642 -0.2339  0.4306 -0.3123
 5806SOL    HW128880   1.612   0.016   5.618  0.8876 -0.7512  0.9751
 5806SOL    HW228881   1.754   0.059   5.654 -0.0804  0.0299 -2.4114
 5807SOL     OW28882   0.556   2.728   2.174 -0.3527  0.2625 -0.2301
 5807SOL    HW128883   0.510   2.807   2.203  0.7153  1.1263 -0.8879
 5807SOL    HW228884   0.487   2.673   2.136  0.2538  0.4284 -1.5990
 5808SOL     OW28885   3.719   4.255   7.574  0.0566 -0.1974 -0.4021
 5808SOL    HW128886   3.627   4.274   7.556 -0.5074 -0.9643  1.7146
 5808SOL    HW228887   3.721   4.166   7.608  0.6898  0.1229  0.3938
 5809SOL     OW28888   1.008   3.158   6.389  0.1102 -0.7281 -0.1777
 5809SOL    HW128889   0.915   3.179   6.390 -0.7779 -4.5417 -0.9327
 5809SOL    HW228890   1.019   3.124   6.300  0.6913  0.6023 -0.6110
 5810SOL     OW28891   4.099   0.504   0.834 -0.5563  0.4396 -0.2743
 5810SOL    HW128892   4.170   0.515   0.896 -1.4961 -0.9036  1.0368
 5810SOL    HW228893   4.111   0.413   0.809  0.0280  0.6703 -0.8318
 5811SOL     OW28894   1.256   1.825  16.492 -0.8875  0.0375  0.5868
 5811SOL    HW128895   1.348   1.804  16.509 -1.0422 -1.7991 -0.8815
 5811SOL    HW228896   1.225   1.742  16.457 -0.9579 -0.0868  0.9518
 5812SOL     OW28897   4.065   3.426   8.252 -0.2706  0.1330  0.2006
 5812SOL    HW128898   4.063   3.390   8.341 -3.4102  0.2411  0.1880
 5812SOL    HW228899   4.055   3.348   8.197 -0.9412  0.2152  0.2066
 5813SOL     OW28900   1.114   3.760   6.232  0.2899  0.5178  0.4350
 5813SOL    HW128901   1.137   3.851   6.216 -0.8279  0.4121 -1.7951
 5813SOL    HW228902   1.030   3.781   6.273 -0.4084 -0.8772 -0.2746
 5814SOL     OW28903   3.519   2.143  16.564 -0.2640 -0.2901  0.1873
 5814SOL    HW128904   3.504   2.164  16.472 -0.1755 -1.0085  0.0082
 5814SOL    HW228905   3.565   2.059  16.568 -2.0494 -1.2067  1.2990
 5815SOL     OW28906   4.234   2.713   3.650 -0.2486  0.1832  0.1886
 5815SOL    HW128907   4.271   2.696   3.563  0.8864  0.2094  0.6572
 5815SOL    HW228908   4.233   2.809   3.639  0.5129  0.0359 -1.2701
 5816SOL     OW28909   1.164   3.800   5.608  0.0261  0.2808 -0.1516
 5816SOL    HW128910   1.087   3.793   5.552 -0.8201 -3.3362  1.4561
 5816SOL    HW228911   1.118   3.815   5.691 -2.1515 -2.2753 -0.8882
 5817SOL     OW28912   3.121   3.370   3.268 -0.6931  0.0260  0.2657
 5817SOL    HW128913   3.131   3.390   3.361  1.8702 -2.2705  0.4975
 5817SOL    HW228914   3.026   3.357   3.265 -0.7010  0.2525 -0.4941
 5818SOL     OW28915   3.821   3.158   8.650 -0.0580 -0.3231 -0.5440
 5818SOL    HW128916   3.876   3.079   8.645  1.0812  0.3537  1.2261
 5818SOL    HW228917   3.836   3.189   8.739  0.6556 -2.4877  0.0936
 5819SOL     OW28918   1.117   0.788   8.411 -0.1038 -0.5141  0.1885
 5819SOL    HW128919   1.103   0.823   8.323  1.0540  0.4610  0.3919
 5819SOL    HW228920   1.030   0.786   8.449 -0.6299 -0.8041 -1.0194
 5820SOL     OW28921   3.084   1.091   2.729 -0.6248  0.0092  0.4375
 5820SOL    HW128922   3.077   1.001   2.697  2.3242 -0.5032  1.1411
 5820SOL    HW228923   3.166   1.093   2.779  0.3925  0.9340 -1.2780
 5821SOL     OW28924   1.449   3.811   3.353 -0.1533 -0.3480 -0.2928
 5821SOL    HW128925   1.458   3.874   3.282 -0.9362 -0.7397 -0.7430
 5821SOL    HW228926   1.542   3.793   3.369  0.1792  1.5580 -0.0163
 5822SOL     OW28927   3.565   0.843   9.262 -0.0666 -0.1228 -0.0279
 5822SOL    HW128928   3.647   0.838   9.312 -0.8288  1.8555  1.4490
 5822SOL    HW228929   3.495   0.839   9.327  2.8993  1.0598  3.2354
 5823SOL     OW28930   1.400   4.704   5.173 -0.3218  0.0821 -0.0639
 5823SOL    HW128931   1.459   0.053   5.165  0.5509 -0.5972  0.0974
 5823SOL    HW228932   1.468   4.637   5.175 -1.6625 -1.2636  1.0845
 5824SOL     OW28933   3.517   0.117  10.393 -0.2018  0.8757  0.1539
 5824SOL    HW128934   3.481   0.192  10.345 -2.4402 -0.9505 -1.0219
 5824SOL    HW228935   3.447   0.113  10.458 -0.6363 -0.3795 -0.4009
 5825SOL     OW28936   1.335   4.678   8.273  0.2601  0.1913 -0.4669
 5825SOL    HW128937   1.301   4.604   8.322  1.3246  0.7388  1.1285
 5825SOL    HW228938   1.292   4.656   8.191 -0.2041 -1.9330  0.3463
 5826SOL     OW28939   1.411   3.602   3.747  0.4897 -0.3266  0.8767
 5826SOL    HW128940   1.325   3.615   3.705  1.1204  2.8635  0.5184
 5826SOL    HW228941   1.435   3.691   3.775  0.5279  0.3825 -1.3606
 5827SOL     OW28942   3.870   0.517   4.858 -0.4783  0.3220  0.3477
 5827SOL    HW128943   3.868   0.611   4.839  0.8930  0.3637  0.4651
 5827SOL    HW228944   3.943   0.481   4.807  0.2717  3.6515 -0.9061
 5828SOL     OW28945   1.381   4.659  14.416 -0.1257 -0.0803 -0.0413
 5828SOL    HW128946   1.377   4.611  14.334 -1.8414  0.3336 -0.2131
 5828SOL    HW228947   1.286   4.671  14.426  0.3143  2.0390  1.6212
 5829SOL     OW28948   0.132   3.326   2.635  0.2160 -0.0296 -0.2838
 5829SOL    HW128949   0.098   3.357   2.719 -0.7498  0.2278 -0.7694
 5829SOL    HW228950   0.127   3.402   2.578  2.5688  0.0772 -0.3430
 5830SOL     OW28951   2.432   3.314   5.658 -0.2500 -0.1514  0.6212
 5830SOL    HW128952   2.342   3.303   5.688 -0.6513  0.2263 -0.4380
 5830SOL    HW228953   2.426   3.405   5.628 -0.0478 -1.6192 -3.9682
 5831SOL     OW28954   3.974   0.702   6.957 -0.7511  0.4765  0.5240
 5831SOL    HW128955   3.979   0.769   6.889 -2.5229  1.7817  1.6792
 5831SOL    HW228956   4.059   0.717   6.998 -0.2067  2.2546 -1.2775
 5832SOL     OW28957   3.788   0.663   7.129 -0.7505  0.2433 -0.1507
 5832SOL    HW128958   3.859   0.675   7.065 -0.6436  1.0079  0.1183
 5832SOL    HW228959   3.798   0.751   7.163 -1.3387  0.3548 -0.2619
 5833SOL     OW28960   2.355   3.242   6.468  0.5973  0.1873  0.2870
 5833SOL    HW128961   2.300   3.268   6.394  0.5827 -0.8431 -0.0616
 5833SOL    HW228962   2.388   3.326   6.498  0.9670 -0.5981  2.0913
 5834SOL     OW28963   2.722   2.179   9.008 -0.3439 -0.1202  0.0549
 5834SOL    HW128964   2.751   2.110   8.947  2.4443 -0.1680  1.4251
 5834SOL    HW228965   2.729   2.143   9.096 -1.7001 -0.9306 -0.1630
 5835SOL     OW28966   1.279   3.505   5.532 -0.1014 -0.3699  0.2583
 5835SOL    HW128967   1.259   3.592   5.569  0.9531 -0.1708  0.3396
 5835SOL    HW228968   1.257   3.438   5.597  2.1484 -0.9173  0.4425
 5836SOL     OW28969   0.012   2.945   7.245  0.8156 -0.2053 -0.4654
 5836SOL    HW128970   4.687   3.022   7.221 -3.2857 -1.9032  2.5289
 5836SOL    HW228971   0.019   2.962   7.339  1.2639  1.5595 -0.8348
 5837SOL     OW28972   2.076   4.296  16.137 -0.5784  0.0551 -0.2311
 5837SOL    HW128973   2.124   4.218  16.109 -0.2946  0.5221 -1.0588
 5837SOL    HW228974   2.049   4.268  16.225 -2.7282 -2.8775 -1.8205
 5838SOL     OW28975   1.018   3.273  15.389  0.3065  0.5787 -0.4586
 5838SOL    HW128976   1.023   3.178  15.399  2.1222  0.7663  0.4839
 5838SOL    HW228977   0.969   3.310  15.463  1.3656  0.5196  0.2804
 5839SOL     OW28978   4.037   0.122   8.809  0.7369  0.0692 -0.2676
 5839SOL    HW128979   4.122   0.107   8.769 -0.6785 -0.6065 -2.9676
 5839SOL    HW228980   4.059   0.094   8.898 -0.4259  0.1084  0.0323
 5840SOL     OW28981   1.890   0.295   7.999 -0.1989 -0.0830  0.1218
 5840SOL    HW128982   1.899   0.388   7.981  0.6272 -0.1579  0.1680
 5840SOL    HW228983   1.801   0.274   7.971 -0.9632  0.4065  2.1624
 5841SOL     OW28984   3.699   0.240   6.082 -0.0700 -0.5411  0.3173
 5841SOL    HW128985   3.748   0.159   6.073  1.0842  0.2109 -0.1297
 5841SOL    HW228986   3.612   0.205   6.101  0.1882 -0.8933  0.8331
 5842SOL     OW28987   4.523   0.730   2.941  0.5656 -0.0988  0.4849
 5842SOL    HW128988   4.526   0.805   2.882  0.6294  0.1810  0.8427
 5842SOL    HW228989   4.436   0.697   2.918  0.8930  0.9527 -2.2257
 5843SOL     OW28990   3.892   4.026   7.317  0.3632 -0.2703  0.2100
 5843SOL    HW128991   3.968   3.989   7.363 -0.3679 -0.6714  1.0906
 5843SOL    HW228992   3.911   4.118   7.338  3.8653 -0.7292 -0.8632
 5844SOL     OW28993   3.812   2.678   4.647  0.4664  0.4481 -0.0253
 5844SOL    HW128994   3.744   2.611   4.658  1.5345 -0.6632 -0.1403
 5844SOL    HW228995   3.774   2.764   4.666  0.4076  0.5260 -0.5039
 5845SOL     OW28996   0.948   3.137   8.682  0.9524 -0.4707  0.8294
 5845SOL    HW128997   0.995   3.128   8.599  1.2368  1.1061  0.8114
 5845SOL    HW228998   0.960   3.230   8.703 -3.0306  0.3801 -0.6930
 5846SOL     OW28999   3.505   0.109   2.809  0.3932 -0.2129  0.7223
 5846SOL    HW129000   3.581   0.051   2.814  0.5816 -0.3782 -3.4290
 5846SOL    HW229001   3.492   0.136   2.718  1.8596 -0.7794  0.3469
 5847SOL     OW29002   3.892   4.487   3.579 -0.2659  0.0231  0.1693
 5847SOL    HW129003   3.965   4.468   3.637 -0.3460 -0.9644 -0.0575
 5847SOL    HW229004   3.834   4.421   3.617  0.2675  0.1313  1.1488
 5848SOL     OW29005   1.394   2.948   7.677  0.0102  0.7684  0.1801
 5848SOL    HW129006   1.340   3.003   7.734  1.5809  0.1554  2.2108
 5848SOL    HW229007   1.353   2.968   7.592  0.0256  1.1035  0.2553
 5849SOL     OW29008   1.216   1.306  14.745 -0.3083 -0.1423  0.3456
 5849SOL    HW129009   1.308   1.293  14.719 -0.5775 -0.2122 -0.5783
 5849SOL    HW229010   1.175   1.225  14.713 -0.1053 -1.0316  2.3495
 5850SOL     OW29011   0.945   0.609   8.932 -0.5334  0.4304  0.0204
 5850SOL    HW129012   1.023   0.574   8.889 -0.2743  2.4830 -1.1754
 5850SOL    HW229013   0.922   0.684   8.878 -2.1414  0.5454  0.8833
 5851SOL     OW29014   0.669   2.560   7.144  0.2756  0.4004  0.3439
 5851SOL    HW129015   0.627   2.633   7.190 -0.2048  0.7799 -0.6885
 5851SOL    HW229016   0.642   2.486   7.198  0.7641 -0.3347 -0.4145
 5852SOL     OW29017   0.851   1.769   8.892  0.3487 -0.5266  0.1525
 5852SOL    HW129018   0.879   1.857   8.868 -1.6097  1.0635  3.5687
 5852SOL    HW229019   0.825   1.774   8.984 -1.6910 -0.8494 -0.3986
 5853SOL     OW29020   4.400   0.409  10.500  0.8020  0.1885 -0.5624
 5853SOL    HW129021   4.400   0.488  10.554  0.8837  2.0289 -3.2181
 5853SOL    HW229022   4.489   0.423  10.466  0.2724  0.0142 -2.0118
 5854SOL     OW29023   0.567   2.236  15.159  0.5520  0.3877  0.7653
 5854SOL    HW129024   0.634   2.198  15.102  1.4954  1.9621  0.8017
 5854SOL    HW229025   0.566   2.182  15.238 -3.1640 -0.8487 -0.1479
 5855SOL     OW29026   2.091   1.744  13.419  0.0164  0.0847  0.7758
 5855SOL    HW129027   2.136   1.826  13.401 -0.7476 -0.0657 -1.6976
 5855SOL    HW229028   2.039   1.775  13.494 -0.9074 -0.1801  0.2356
 5856SOL     OW29029   1.552   0.388   7.980  0.2417 -0.8546 -0.2777
 5856SOL    HW129030   1.476   0.330   7.992 -0.8453  1.3116  3.1474
 5856SOL    HW229031   1.535   0.400   7.887  3.0207 -1.3672 -0.8556
 5857SOL     OW29032   1.856   3.137   5.375  0.7466  0.2556  0.1957
 5857SOL    HW129033   1.788   3.204   5.367 -0.1409 -0.5700  0.8104
 5857SOL    HW229034   1.922   3.203   5.395  0.6215 -0.3438  2.6159
 5858SOL     OW29035   2.055   4.664   4.388  0.4726  0.4267  0.6549
 5858SOL    HW129036   2.104   4.715   4.324 -2.0790  2.5646  0.3987
 5858SOL    HW229037   1.975   4.648   4.337  1.3288 -1.2389 -0.1864
 5859SOL     OW29038   1.843   4.199   6.702 -0.1145  0.1644  0.2897
 5859SOL    HW129039   1.885   4.249   6.772  3.3931 -0.1365 -1.5926
 5859SOL    HW229040   1.760   4.189   6.749 -0.4536  2.4404  0.1682
 5860SOL     OW29041   0.249   1.918   3.227  0.2501  0.6864  0.2240
 5860SOL    HW129042   0.224   1.922   3.320 -0.1769 -3.9167  0.3009
 5860SOL    HW229043   0.343   1.936   3.229  0.2203  0.8527  0.1664
 5861SOL     OW29044   1.307   4.642  13.074  0.2302  0.3763  0.1710
 5861SOL    HW129045   1.302   0.010  13.096  2.3870  0.8833 -1.4793
 5861SOL    HW229046   1.330   4.597  13.155  2.6101 -0.9099 -1.2358
 5862SOL     OW29047   3.772   2.982  15.027  0.7548 -0.0113 -0.0995
 5862SOL    HW129048   3.753   3.072  15.054 -2.7248 -1.0044  0.7515
 5862SOL    HW229049   3.857   2.966  15.068 -0.1013 -0.5681  1.4707
 5863SOL     OW29050   1.896   0.322  12.973  0.1663  0.0715  0.4523
 5863SOL    HW129051   1.984   0.289  12.993  0.4750  0.2078 -0.6501
 5863SOL    HW229052   1.843   0.242  12.973 -2.6791  1.9404 -1.3948
 5864SOL     OW29053   2.732   3.579  16.449 -0.4342  0.3312  0.0092
 5864SOL    HW129054   2.675   3.563  16.374  1.1631  0.3229 -1.2076
 5864SOL    HW229055   2.720   3.490  16.482  0.0241  0.0537 -0.5786
 5865SOL     OW29056   3.641   4.198   4.054  0.3212  0.2086 -0.4287
 5865SOL    HW129057   3.587   4.268   4.090  2.2479  1.7700 -0.5641
 5865SOL    HW229058   3.625   4.200   3.960 -2.1885 -0.0592  0.0006
 5866SOL     OW29059   1.209   0.378  14.175  0.5863  0.2668 -0.2911
 5866SOL    HW129060   1.140   0.340  14.120 -2.0630  1.2807  2.3559
 5866SOL    HW229061   1.265   0.438  14.126 -0.0839 -1.3815 -3.0773
 5867SOL     OW29062   3.742   3.769  10.088  0.3128  0.1112 -0.3579
 5867SOL    HW129063   3.835   3.793  10.088  0.2420  0.3861  0.1643
 5867SOL    HW229064   3.743   3.695  10.149  1.5253 -1.5259 -2.3599
 5868SOL     OW29065   1.228   2.345   4.539 -0.3890  0.2101  0.4957
 5868SOL    HW129066   1.275   2.262   4.532 -0.9346  0.2313 -3.3317
 5868SOL    HW229067   1.201   2.361   4.448 -0.1452 -2.1206  0.0203
 5869SOL     OW29068   0.521   1.623   3.000  0.5116 -0.3740 -0.6616
 5869SOL    HW129069   0.514   1.692   2.934 -1.6031 -1.3162 -1.4175
 5869SOL    HW229070   0.436   1.629   3.044 -0.2550 -0.4620 -2.1386
 5870SOL     OW29071   0.977   4.374   1.835 -0.0631  0.4857  0.3585
 5870SOL    HW129072   0.934   4.407   1.914 -1.3560 -1.4251  0.4696
 5870SOL    HW229073   1.055   4.429   1.834  0.5319 -0.3527  0.2731
 5871SOL     OW29074   1.191   0.229  15.841  0.0849  0.0882  0.5990
 5871SOL    HW129075   1.260   0.167  15.864  0.2140 -0.3879 -1.0243
 5871SOL    HW229076   1.195   0.217  15.746  0.9570  0.8121  0.5500
 5872SOL     OW29077   3.317   1.029   1.803  0.0034 -0.0386 -0.2212
 5872SOL    HW129078   3.296   0.939   1.779 -2.0781  0.5297 -0.5832
 5872SOL    HW229079   3.379   1.010   1.873 -0.8334 -1.1170  0.2232
 5873SOL     OW29080   0.934   1.042   4.386  0.0622  0.0048  0.5761
 5873SOL    HW129081   0.866   0.990   4.431 -0.4532 -0.1372 -0.3755
 5873SOL    HW229082   0.901   1.131   4.398  1.1660  0.6448 -1.2085
 5874SOL     OW29083   4.651   2.896   4.693  0.2458 -0.9694 -0.4093
 5874SOL    HW129084   4.565   2.891   4.652 -2.7083  1.2671  5.5525
 5874SOL    HW229085   4.694   2.973   4.656 -1.1189  0.5416  1.1443
 5875SOL     OW29086   3.525   2.620   4.470  0.4418  0.9777  0.1248
 5875SOL    HW129087   3.531   2.572   4.552 -0.8942  0.9310  0.1888
 5875SOL    HW229088   3.556   2.563   4.399  0.1737 -0.3496  1.0876
 5876SOL     OW29089   4.279   2.648   4.050  0.0377 -0.3556  0.0280
 5876SOL    HW129090   4.295   2.733   4.009 -0.9153 -0.0489  0.2898
 5876SOL    HW229091   4.219   2.608   3.988 -2.2333  1.8303  0.8277
 5877SOL     OW29092   3.941   0.012   2.957 -0.0521  0.0118  0.2748
 5877SOL    HW129093   3.923   0.091   3.007  2.7983  1.1243 -0.4485
 5877SOL    HW229094   3.860   4.686   2.951 -1.7744  2.8325 -0.9438
 5878SOL     OW29095   2.573   3.232  10.053  0.4142 -0.6268  0.4234
 5878SOL    HW129096   2.622   3.202   9.976 -1.4253  0.6215 -1.2446
 5878SOL    HW229097   2.627   3.195  10.123  0.6278 -1.2779 -0.0781
 5879SOL     OW29098   0.518   2.442   0.911 -0.1119  0.0821 -0.0790
 5879SOL    HW129099   0.535   2.425   1.004  0.1698  0.2447 -0.1021
 5879SOL    HW229100   0.429   2.475   0.925  0.2114  0.9760 -0.1424
 5880SOL     OW29101   0.687   3.178  14.239 -0.1537  0.6460 -0.1274
 5880SOL    HW129102   0.612   3.232  14.215 -0.3927 -0.2701 -1.4370
 5880SOL    HW229103   0.732   3.241  14.296  0.3460 -0.6924  0.9717
 5881SOL     OW29104   1.689   1.250   0.330  0.0568  0.2323  0.0051
 5881SOL    HW129105   1.649   1.165   0.349 -0.5497  0.6725  0.7098
 5881SOL    HW229106   1.645   1.309   0.392 -0.3731  0.2342 -0.3052
 5882SOL     OW29107   3.438   1.420  11.589  0.5112 -0.3524  0.4704
 5882SOL    HW129108   3.469   1.444  11.676 -4.6062 -1.0904  2.5100
 5882SOL    HW229109   3.396   1.335  11.599 -0.1535  0.1291  1.7154
 5883SOL     OW29110   0.996   2.377  16.427 -0.3672 -0.3894 -0.2660
 5883SOL    HW129111   1.055   2.448  16.403 -0.9593  0.1146 -0.2149
 5883SOL    HW229112   0.912   2.419  16.445 -0.2561 -0.6510  0.8649
 5884SOL     OW29113   2.375   3.959   3.616 -0.0282 -0.4100  0.0234
 5884SOL    HW129114   2.437   3.927   3.681  0.0923 -0.9353 -0.3513
 5884SOL    HW229115   2.422   3.963   3.533 -3.7713 -0.9679 -2.1558
 5885SOL     OW29116   1.012   3.637   2.320 -0.0256 -0.1621 -0.3785
 5885SOL    HW129117   1.081   3.704   2.314  0.9910 -1.2051 -0.3195
 5885SOL    HW229118   1.013   3.628   2.415 -1.2562  2.7677 -0.0984
 5886SOL     OW29119   3.946   1.881   4.218  0.0305  0.0853  0.5146
 5886SOL    HW129120   3.903   1.897   4.134  1.6333 -0.3094 -0.3904
 5886SOL    HW229121   3.945   1.786   4.212 -0.6657 -0.0430  2.6242
 5887SOL     OW29122   3.492   1.466   0.428  0.6389 -0.8362 -0.2866
 5887SOL    HW129123   3.470   1.390   0.481 -1.4904 -0.0762 -0.0847
 5887SOL    HW229124   3.564   1.436   0.373  0.1960 -2.9270  0.3064
 5888SOL     OW29125   3.363   3.817  10.823 -0.5298 -0.2247  0.1214
 5888SOL    HW129126   3.387   3.887  10.884 -0.0680 -0.4394  0.1878
 5888SOL    HW229127   3.427   3.751  10.848 -1.6722 -0.3918  2.6358
 5889SOL     OW29128   1.226   4.036   0.639 -0.7436  0.4075  0.0077
 5889SOL    HW129129   1.164   4.100   0.677  0.2633  0.6958  1.1707
 5889SOL    HW229130   1.171   3.992   0.574 -0.6330  0.9523 -0.4527
 5890SOL     OW29131   1.627   2.141   3.649 -0.1203  0.3120 -0.0761
 5890SOL    HW129132   1.535   2.137   3.625 -0.0361 -3.0294  0.2143
 5890SOL    HW229133   1.662   2.208   3.589  0.9416 -0.5968 -0.4718
 5891SOL     OW29134   1.963   2.259  12.521  0.0421  0.0656 -0.3080
 5891SOL    HW129135   2.056   2.282  12.519 -0.0725  0.4805 -0.7310
 5891SOL    HW229136   1.955   2.257  12.617  1.8468 -0.5910 -0.1585
 5892SOL     OW29137   2.306   3.926   5.075  0.1171 -0.4498  0.5581
 5892SOL    HW129138   2.297   4.021   5.065  0.8008 -0.2685  1.6671
 5892SOL    HW229139   2.335   3.904   5.163  0.2494  3.1620  1.4333
 5893SOL     OW29140   1.985   1.667   5.377  0.3877  0.4703 -0.0805
 5893SOL    HW129141   2.028   1.582   5.368  1.4149  1.0582 -0.7850
 5893SOL    HW229142   2.058   1.726   5.397  2.0435 -1.0959 -1.4498
 5894SOL     OW29143   2.191   1.372   1.644  0.6881 -0.0587 -0.2935
 5894SOL    HW129144   2.110   1.423   1.650 -0.5370 -2.3146  2.2399
 5894SOL    HW229145   2.164   1.317   1.571  1.5954 -0.9501  0.0496
 5895SOL     OW29146   3.838   1.822   7.046  0.2066 -0.2509  0.3087
 5895SOL    HW129147   3.888   1.790   6.970  0.1523 -0.3583  0.3183
 5895SOL    HW229148   3.860   1.915   7.038  0.8721 -0.4672 -0.4497
 5896SOL     OW29149   3.570   3.253   8.187  0.2291 -0.3474  0.1056
 5896SOL    HW129150   3.614   3.271   8.270  0.1074  0.6201 -0.0350
 5896SOL    HW229151   3.486   3.211   8.209 -1.8189  2.3378 -2.5055
 5897SOL     OW29152   1.809   2.287  15.624  0.5160  0.6286  0.3065
 5897SOL    HW129153   1.879   2.295  15.560  2.3076 -1.5008  2.0029
 5897SOL    HW229154   1.746   2.348  15.587  1.3123 -0.6045 -3.0591
 5898SOL     OW29155   3.527   1.501   7.788  1.1890  0.1256  0.3285
 5898SOL    HW129156   3.605   1.454   7.817  1.8747 -0.5097 -2.4725
 5898SOL    HW229157   3.549   1.581   7.835 -1.2540  0.5245  0.7968
 5899SOL     OW29158   0.932   2.200  10.992 -0.9747 -0.1614  0.3627
 5899SOL    HW129159   0.897   2.125  10.943  0.9861 -0.6465 -0.3159
 5899SOL    HW229160   1.003   2.230  10.935  0.2210  0.5983  2.2442
 5900SOL     OW29161   4.683   3.729  10.509  0.1977  0.6111  0.4706
 5900SOL    HW129162   4.709   3.672  10.437 -0.7033  0.8440 -0.0347
 5900SOL    HW229163   4.639   3.665  10.565 -1.0462  0.2173 -0.9527
 5901SOL     OW29164   2.931   0.055   0.823 -0.5548 -0.5566 -0.4109
 5901SOL    HW129165   2.922   4.686   0.813  0.8953 -0.6765 -0.5599
 5901SOL    HW229166   2.986   0.045   0.901 -0.1703 -1.7794 -0.8440
 5902SOL     OW29167   0.720   3.939  17.169  0.5530 -0.0156 -0.4330
 5902SOL    HW129168   0.643   3.883  17.179  0.6948 -0.4788 -1.9940
 5902SOL    HW229169   0.675   4.020  17.143 -1.5439 -1.2279 -0.6452
 5903SOL     OW29170   1.071   0.103   4.355  0.1011  0.6873  0.0503
 5903SOL    HW129171   1.065   0.168   4.425 -1.4377 -2.5516  2.9157
 5903SOL    HW229172   1.120   0.148   4.286  2.4602 -1.3633  0.3837
 5904SOL     OW29173   1.329   0.820   5.059  1.0118 -0.0348 -0.2704
 5904SOL    HW129174   1.289   0.779   4.982 -0.5093  1.0395 -0.0462
 5904SOL    HW229175   1.294   0.763   5.128  1.5239  0.7225  0.6061
 5905SOL     OW29176   1.147   2.516   7.417 -0.0764  0.2885 -0.0671
 5905SOL    HW129177   1.140   2.608   7.443 -0.0579  0.6996 -1.5275
 5905SOL    HW229178   1.054   2.499   7.433  0.4027 -1.2537  1.1081
 5906SOL     OW29179   3.310   0.678   2.722  0.2688 -0.4280 -0.0893
 5906SOL    HW129180   3.346   0.659   2.635 -0.0278 -0.0773 -0.2914
 5906SOL    HW229181   3.375   0.631   2.773  1.7055 -2.2250 -3.5488
 5907SOL     OW29182   3.879   4.256   4.126 -0.6746  0.1123  0.3602
 5907SOL    HW129183   3.788   4.244   4.097 -0.9319  1.4285  0.6438
 5907SOL    HW229184   3.906   4.169   4.158  2.8006  0.9348 -0.3569
 5908SOL     OW29185   3.826   3.710   1.979 -0.5209 -0.0825  0.3088
 5908SOL    HW129186   3.836   3.805   1.972  0.5627 -0.2265  0.0212
 5908SOL    HW229187   3.894   3.702   2.045  0.1137  1.0506 -0.1983
 5909SOL     OW29188   3.347   3.129   3.227 -0.5566 -0.1803 -0.4838
 5909SOL    HW129189   3.341   3.057   3.290 -0.6540 -1.1403 -1.5992
 5909SOL    HW229190   3.260   3.168   3.226 -0.0971  0.9296  1.4275
 5910SOL     OW29191   1.708   3.199   0.795 -0.1842  0.5928 -0.1705
 5910SOL    HW129192   1.720   3.130   0.861  1.7286 -0.3785 -1.5468
 5910SOL    HW229193   1.770   3.258   0.838  0.4986 -0.3827  0.1900
 5911SOL     OW29194   0.959   1.194  16.518 -0.3842 -0.5291 -0.1681
 5911SOL    HW129195   1.022   1.132  16.553 -0.4669 -0.0669  0.7838
 5911SOL    HW229196   1.006   1.277  16.505  1.8419 -1.8547 -0.5318
 5912SOL     OW29197   3.656   1.407   6.878 -0.6154  0.1944  0.1399
 5912SOL    HW129198   3.601   1.470   6.832 -0.0987  0.0924 -0.6259
 5912SOL    HW229199   3.603   1.329   6.894 -0.1025 -0.2207 -0.1750
 5913SOL     OW29200   1.029   1.322   8.063  0.3472 -0.9369 -0.4125
 5913SOL    HW129201   1.021   1.309   7.969  1.8066 -3.0920 -0.2333
 5913SOL    HW229202   0.953   1.379   8.079  1.2501 -0.0213  0.6490
 5914SOL     OW29203   0.201   4.549   6.734  0.1975  0.2665 -0.2640
 5914SOL    HW129204   0.176   4.641   6.733 -0.8953 -0.0557 -2.7953
 5914SOL    HW229205   0.132   4.519   6.794 -0.5023  3.1542  0.4007
 5915SOL     OW29206   1.784   1.709  17.574 -0.0026  0.6784  0.7625
 5915SOL    HW129207   1.875   1.729  17.551  0.0241  0.8278  1.0094
 5915SOL    HW229208   1.792   1.648  17.647 -2.2331 -0.8715 -0.2943
 5916SOL     OW29209   3.700   4.197   7.090  0.4184 -0.2174 -0.4642
 5916SOL    HW129210   3.743   4.133   7.033 -1.0144 -0.8064 -0.8830
 5916SOL    HW229211   3.610   4.176   7.062 -0.3959  0.4632  1.6426
 5917SOL     OW29212   4.371   0.586   6.878 -0.6101 -0.2863 -0.3020
 5917SOL    HW129213   4.300   0.650   6.892 -0.0421  0.3085 -0.1350
 5917SOL    HW229214   4.337   0.503   6.913  1.7455 -2.2708 -2.8192
 5918SOL     OW29215   0.843   4.307  17.040 -0.0849 -0.2176 -0.3969
 5918SOL    HW129216   0.754   4.291  17.069  0.0616 -2.7895 -1.3612
 5918SOL    HW229217   0.868   4.229  16.991 -0.7650 -1.8327  1.8367
 5919SOL     OW29218   0.174   3.149  12.852  0.1639  0.5937 -0.0974
 5919SOL    HW129219   0.090   3.122  12.891 -0.6943  0.3320 -2.0925
 5919SOL    HW229220   0.159   3.120  12.762 -0.2972 -1.4095  0.6070
 5920SOL     OW29221   2.164   4.653   9.302  0.2794 -0.0046 -0.3871
 5920SOL    HW129222   2.254   4.665   9.273 -0.3950  2.3037 -1.5377
 5920SOL    HW229223   2.123   4.665   9.216  1.5662 -0.6229 -1.0796
 5921SOL     OW29224   3.930   0.403   4.161  0.0618  0.2089 -0.2240
 5921SOL    HW129225   3.920   0.327   4.104  1.5252 -2.7987  3.5013
 5921SOL    HW229226   4.020   0.396   4.194  0.6669  4.1141 -1.0495
 5922SOL     OW29227   0.071   0.005   5.464 -0.1126 -0.1505 -0.1546
 5922SOL    HW129228   0.047   0.030   5.553  0.0810  0.0606 -0.1651
 5922SOL    HW229229   0.141   0.065   5.440  0.7449 -0.5440  1.4052
 5923SOL     OW29230   3.329   1.608  16.348 -0.3321 -0.1398 -0.3871
 5923SOL    HW129231   3.265   1.632  16.414  0.0736 -1.1501  0.3749
 5923SOL    HW229232   3.361   1.525  16.383 -1.9584 -0.6854 -0.2331
 5924SOL     OW29233   3.564   3.668   6.545 -0.3866 -0.0816 -0.3204
 5924SOL    HW129234   3.522   3.688   6.628  1.0756 -2.9133  1.0818
 5924SOL    HW229235   3.491   3.623   6.503 -1.1579  2.4216 -1.7020
 5925SOL     OW29236   0.815   2.696   8.641 -0.2166 -0.6547  0.2205
 5925SOL    HW129237   0.728   2.662   8.661 -0.1875 -1.7926 -1.6119
 5925SOL    HW229238   0.809   2.789   8.663  0.2883 -0.2982 -1.1124
 5926SOL     OW29239   0.412   2.439  11.819 -0.3037  0.3673 -0.2550
 5926SOL    HW129240   0.440   2.353  11.788  1.5376  0.9432 -0.2334
 5926SOL    HW229241   0.498   2.480  11.806  1.2219 -2.6392  0.2866
 5927SOL     OW29242   1.822   0.849   9.805 -0.4705 -0.2562  0.1274
 5927SOL    HW129243   1.907   0.855   9.762  1.2084 -0.6320  3.4034
 5927SOL    HW229244   1.762   0.856   9.731  0.4418  0.3665 -0.5492
 5928SOL     OW29245   4.152   3.849  14.393  0.4069 -0.0194 -0.3605
 5928SOL    HW129246   4.160   3.940  14.364  1.3692 -0.0361 -0.1414
 5928SOL    HW229247   4.062   3.828  14.371 -0.3062 -0.3808  2.8619
 5929SOL     OW29248   0.997   3.459   7.205  0.0924  0.4775 -0.3263
 5929SOL    HW129249   0.911   3.447   7.166  0.2315 -0.4431 -0.3473
 5929SOL    HW229250   1.000   3.555   7.206 -1.2444  0.5270 -1.2491
 5930SOL     OW29251   3.413   4.012   6.876  0.1702 -0.0269 -0.2283
 5930SOL    HW129252   3.371   4.028   6.791  1.2588  0.2127 -0.7199
 5930SOL    HW229253   3.466   4.091   6.866  0.7845 -0.6216 -1.5812
 5931SOL     OW29254   2.172   2.941   2.044 -0.1103 -0.0225  0.1719
 5931SOL    HW129255   2.232   3.003   2.084  0.2371 -0.1602 -0.1331
 5931SOL    HW229256   2.099   2.936   2.105 -0.1319 -0.5392  0.1091
 5932SOL     OW29257   4.569   0.204   5.944 -0.6295 -0.5014 -0.3176
 5932SOL    HW129258   4.639   0.139   5.949 -0.9060 -0.7099  0.9482
 5932SOL    HW229259   4.520   0.188   6.025  2.4400  3.0469  2.1967
 5933SOL     OW29260   0.786   0.033   0.630 -0.3216 -0.1010 -0.5779
 5933SOL    HW129261   0.869   0.037   0.581 -1.2130 -1.5115 -2.2129
 5933SOL    HW229262   0.761   0.125   0.641  1.2525  0.6643 -3.2156
 5934SOL     OW29263   0.829   3.127   7.931  0.4369  0.1170  0.1220
 5934SOL    HW129264   0.919   3.106   7.904 -0.2038 -1.7358 -0.6000
 5934SOL    HW229265   0.789   3.151   7.847  1.3387 -1.9037 -0.8989
 5935SOL     OW29266   4.633   0.562  14.420  0.3346  0.0604 -0.5035
 5935SOL    HW129267   4.661   0.635  14.365 -1.6481 -1.2223 -3.2286
 5935SOL    HW229268   4.718   0.526  14.446  1.5070  1.9675 -1.7091
 5936SOL     OW29269   1.897   2.744   2.575  0.3669  0.2276  0.6174
 5936SOL    HW129270   1.879   2.720   2.484  0.7732  0.1196  0.5632
 5936SOL    HW229271   1.841   2.819   2.595  0.9340  0.5207  1.1157
 5937SOL     OW29272   4.316   1.732   1.478 -0.4998 -0.2685  0.6263
 5937SOL    HW129273   4.370   1.684   1.414 -0.3516  1.4673 -0.5719
 5937SOL    HW229274   4.256   1.774   1.416  0.9735  0.9320  0.0054
 5938SOL     OW29275   1.577   4.463   3.260  0.0921  0.3037 -0.4061
 5938SOL    HW129276   1.611   4.377   3.234  1.0374  0.9325 -1.2442
 5938SOL    HW229277   1.510   4.463   3.192  0.2688 -0.4301 -0.5799
 5939SOL     OW29278   2.895   3.789   6.003 -0.6078 -0.8144  0.4365
 5939SOL    HW129279   2.899   3.694   5.990 -1.4058 -0.7339 -0.4168
 5939SOL    HW229280   2.825   3.808   5.941  0.7048 -1.5284 -1.2695
 5940SOL     OW29281   4.294   0.359  12.308  0.1872  0.4336  0.1824
 5940SOL    HW129282   4.285   0.442  12.262 -0.8749 -0.5181 -1.3362
 5940SOL    HW229283   4.292   0.295  12.237  0.3985  1.3841 -0.6764
 5941SOL     OW29284   2.502   1.315  10.741 -0.2053  0.0964  0.0361
 5941SOL    HW129285   2.545   1.324  10.655 -3.5722  2.3776 -1.4120
 5941SOL    HW229286   2.568   1.276  10.798 -0.6751 -0.5395  0.1342
 5942SOL     OW29287   1.553   3.712   4.438 -0.5679 -0.6355 -0.5188
 5942SOL    HW129288   1.459   3.709   4.451 -0.2537  0.7930  2.1108
 5942SOL    HW229289   1.572   3.780   4.502  0.9274 -1.0097 -0.5605
 5943SOL     OW29290   0.100   0.809  17.373  0.3041  0.1680  0.3444
 5943SOL    HW129291   0.148   0.754  17.311  1.8009  1.1750  0.6077
 5943SOL    HW229292   0.058   0.875  17.318  0.0963 -0.3315 -0.1007
 5944SOL     OW29293   3.658   2.104   4.547 -0.0432  0.2920 -0.0185
 5944SOL    HW129294   3.634   2.041   4.614  1.0050  0.0568  0.1317
 5944SOL    HW229295   3.665   2.187   4.595  1.5143  0.9998 -1.4149
 5945SOL     OW29296   0.212   0.635   3.520 -0.2806 -0.3861 -0.4186
 5945SOL    HW129297   0.250   0.564   3.572 -0.0282  0.2808  0.3006
 5945SOL    HW229298   0.248   0.612   3.434 -0.2768 -0.6572 -0.3443
 5946SOL     OW29299   3.083   0.376  14.333  0.0841 -0.1812  0.1593
 5946SOL    HW129300   3.065   0.309  14.267 -0.6332  0.4378 -0.2790
 5946SOL    HW229301   3.048   0.456  14.292  0.9651 -1.0966 -2.3870
 5947SOL     OW29302   2.905   0.151  17.033  0.1345  0.5739 -0.5021
 5947SOL    HW129303   2.899   0.243  17.059 -0.2602 -0.2057  2.1833
 5947SOL    HW229304   2.998   0.140  17.055 -0.0685  2.9905  1.4927
 5948SOL     OW29305   0.945   3.832   8.120 -0.0466  0.4075  0.5382
 5948SOL    HW129306   1.026   3.844   8.170  0.8409  1.3277 -1.1347
 5948SOL    HW229307   0.891   3.909   8.134 -1.5187 -0.4889 -0.3021
 5949SOL     OW29308   3.549   2.058   1.133  0.5778  0.0964 -0.2559
 5949SOL    HW129309   3.638   2.027   1.116  1.1957 -0.7775  4.4906
 5949SOL    HW229310   3.497   1.978   1.138  2.4705 -1.1664 -0.5008
 5950SOL     OW29311   0.253   4.078   9.032 -0.6646  0.1796 -0.2220
 5950SOL    HW129312   0.221   4.010   9.090 -2.0673  1.9852  1.1104
 5950SOL    HW229313   0.226   4.154   9.083  0.7414  0.7334 -0.3023
 5951SOL     OW29314   1.137   4.262   0.242 -0.2324 -0.3265 -0.6835
 5951SOL    HW129315   1.051   4.261   0.198  0.3781  0.1062 -1.8860
 5951SOL    HW229316   1.158   4.169   0.245 -2.8115 -0.7482  3.6201
 5952SOL     OW29317   0.159   1.294  17.334  0.0087  0.1974  0.4145
 5952SOL    HW129318   0.221   1.366  17.326 -1.7380  1.5524 -0.9277
 5952SOL    HW229319   0.194   1.245  17.409  3.7388 -0.2224 -1.5996
 5953SOL     OW29320   0.935   1.082  12.866 -0.2075  0.3124 -0.2319
 5953SOL    HW129321   0.991   1.075  12.788  0.9545  0.2197  0.6092
 5953SOL    HW229322   0.902   1.171  12.853 -1.0338 -0.2830 -2.2543
 5954SOL     OW29323   0.512   0.432  13.975  0.2871  0.1631 -0.3265
 5954SOL    HW129324   0.491   0.339  13.965 -0.7353  0.2915  0.5917
 5954SOL    HW229325   0.429   0.480  13.985  1.8038  2.0133  3.2561
 5955SOL     OW29326   2.986   4.177   9.051 -0.2429  0.0909 -0.1492
 5955SOL    HW129327   2.957   4.216   8.969 -0.4194 -1.2367 -0.7187
 5955SOL    HW229328   3.021   4.092   9.024 -0.4192  0.5567 -1.8114
 5956SOL     OW29329   3.660   2.295   1.229  0.9995 -0.8756 -0.0174
 5956SOL    HW129330   3.645   2.213   1.182 -1.3736 -1.4330  1.7063
 5956SOL    HW229331   3.722   2.339   1.171  0.5630 -2.4521 -1.6872
 5957SOL     OW29332   3.887   4.579   5.846 -0.0521 -0.2105 -0.1946
 5957SOL    HW129333   3.966   4.605   5.799 -0.6643 -0.6765 -1.5053
 5957SOL    HW229334   3.822   4.625   5.792 -0.3828  0.1851  0.5468
 5958SOL     OW29335   0.408   3.512   3.843 -0.0997  0.2569  0.1204
 5958SOL    HW129336   0.470   3.448   3.877 -2.6077 -1.4152  1.4891
 5958SOL    HW229337   0.449   3.594   3.870  0.0047  0.4241 -0.5377
 5959SOL     OW29338   1.978   1.713   7.414  0.7899  0.0032  0.2031
 5959SOL    HW129339   2.041   1.745   7.478 -1.5985  0.2514  2.4057
 5959SOL    HW229340   1.908   1.777   7.425  0.6143  0.1541 -1.7913
 5960SOL     OW29341   3.997   1.034   8.635  0.4297  0.1717 -0.1001
 5960SOL    HW129342   4.006   1.045   8.541  2.4268 -1.6040 -0.1020
 5960SOL    HW229343   4.005   0.941   8.656 -1.0036  0.3697  1.3265
 5961SOL     OW29344   3.205   4.712   6.298 -0.3172 -0.0265 -0.1303
 5961SOL    HW129345   3.139   0.056   6.300  0.8491  0.9974  2.9960
 5961SOL    HW229346   3.168   4.666   6.223 -3.1995 -1.1936  2.0284
 5962SOL     OW29347   2.550   1.953   2.421 -0.5658 -0.5771 -0.5620
 5962SOL    HW129348   2.625   1.958   2.361 -1.7338 -0.9147 -2.0412
 5962SOL    HW229349   2.551   1.860   2.444 -0.5313 -0.2493  0.7466
 5963SOL     OW29350   3.388   2.742   8.364 -0.6837  0.9359  0.0876
 5963SOL    HW129351   3.402   2.723   8.456  0.3887 -1.2444 -0.5290
 5963SOL    HW229352   3.354   2.658   8.334 -0.0964  0.2403  1.3919
 5964SOL     OW29353   2.751   3.834   5.786  0.3054 -0.0867 -0.5861
 5964SOL    HW129354   2.691   3.764   5.811  0.5094  0.4817  1.4719
 5964SOL    HW229355   2.754   3.822   5.691 -0.3707 -3.1893 -0.2116
 5965SOL     OW29356   1.878   0.348  16.344 -0.2954  0.2521  0.4407
 5965SOL    HW129357   1.819   0.276  16.322 -0.3299  0.2821  0.4340
 5965SOL    HW229358   1.837   0.386  16.422 -1.6141  0.0622 -0.1586
 5966SOL     OW29359   3.542   1.555   7.531 -0.1787 -0.4168 -0.4328
 5966SOL    HW129360   3.614   1.617   7.523 -0.2708 -0.3674 -0.9080
 5966SOL    HW229361   3.535   1.542   7.626  1.0709  0.3959 -0.2346
 5967SOL     OW29362   0.206   2.360   7.273  0.1944 -0.2924  0.1480
 5967SOL    HW129363   0.143   2.299   7.234  1.4740 -0.3451 -1.8337
 5967SOL    HW229364   0.182   2.429   7.211  1.0830 -1.3940 -1.4371
 5968SOL     OW29365   0.886   2.147   5.384 -0.4889 -0.5440 -0.1980
 5968SOL    HW129366   0.915   2.136   5.475 -3.2798  2.6911  1.0797
 5968SOL    HW229367   0.919   2.236   5.370  0.9045 -0.7394  1.8395
 5969SOL     OW29368   1.136   2.722   6.575 -0.1150 -0.1865  0.6002
 5969SOL    HW129369   1.082   2.732   6.496 -1.5517 -0.7103  1.5091
 5969SOL    HW229370   1.222   2.732   6.535 -0.5313  2.1053  0.3021
 5970SOL     OW29371   2.429   1.143   6.581 -0.3489 -0.1914 -0.1436
 5970SOL    HW129372   2.355   1.084   6.591  0.1137 -0.8336 -0.5091
 5970SOL    HW229373   2.460   1.133   6.491  1.6806  3.3759  0.1514
 5971SOL     OW29374   3.716   4.554  11.680  0.2790  0.4769  0.6127
 5971SOL    HW129375   3.636   4.528  11.725 -1.6582  1.2936 -2.2918
 5971SOL    HW229376   3.779   4.553  11.752 -1.5061 -0.7676  2.1318
 5972SOL     OW29377   2.830   3.518   5.901  0.2370  0.3179 -0.1254
 5972SOL    HW129378   2.755   3.538   5.846 -1.3913  0.3133  2.0763
 5972SOL    HW229379   2.795   3.444   5.951 -0.4629  0.2542 -0.7112
 5973SOL     OW29380   3.264   1.962   4.329  0.4864 -0.2110  0.0364
 5973SOL    HW129381   3.261   2.051   4.364 -0.6462 -0.7456  1.3211
 5973SOL    HW229382   3.283   1.908   4.405 -0.4095  1.5620  1.5367
 5974SOL     OW29383   3.184   3.557   1.900  0.1810 -0.1159 -0.7011
 5974SOL    HW129384   3.270   3.525   1.872  1.0233 -1.0634  3.0069
 5974SOL    HW229385   3.135   3.558   1.817 -3.3207 -1.3284  1.3713
 5975SOL     OW29386   3.822   3.321   7.682  0.0102  0.0160  0.2488
 5975SOL    HW129387   3.762   3.360   7.746 -0.0968 -1.2431  0.9039
 5975SOL    HW229388   3.813   3.397   7.624  1.5285  1.7550  2.3148
 5976SOL     OW29389   0.167   3.328   4.658  0.7270  0.5723  0.1451
 5976SOL    HW129390   0.183   3.422   4.645  1.7359  0.4613  0.5831
 5976SOL    HW229391   0.250   3.296   4.694  0.5678  0.1801  0.1596
 5977SOL     OW29392   2.981   2.566   4.029  0.0240  0.0665 -0.0393
 5977SOL    HW129393   2.988   2.604   3.941 -0.9974  0.2104 -0.0536
 5977SOL    HW229394   3.065   2.520   4.033 -0.4529 -0.7891  0.0377
 5978SOL     OW29395   0.516   0.390   2.069 -0.0451 -0.9018 -0.3250
 5978SOL    HW129396   0.477   0.302   2.074 -1.8452 -0.0462  0.7989
 5978SOL    HW229397   0.471   0.434   2.142 -0.1648 -0.0572 -0.9126
 5979SOL     OW29398   1.725   3.004   4.088 -0.5297  0.2700  0.0722
 5979SOL    HW129399   1.663   3.035   4.153  0.6610  0.0826  1.2992
 5979SOL    HW229400   1.683   2.922   4.061  3.3276 -2.1827  1.4996
 5980SOL     OW29401   2.204   2.491  16.637  0.3592  0.1501 -0.0452
 5980SOL    HW129402   2.149   2.550  16.585  0.9469 -0.8704 -1.8279
 5980SOL    HW229403   2.173   2.403  16.615  1.6959 -0.3289 -0.0239
 5981SOL     OW29404   3.099   2.911   6.740 -0.3600  0.3636 -0.3263
 5981SOL    HW129405   3.132   2.969   6.809  1.9738 -1.2284 -0.1256
 5981SOL    HW229406   3.041   2.974   6.696 -2.5982 -2.0976 -0.8760
 5982SOL     OW29407   0.536   2.573   5.010 -0.0873  0.0322  0.0351
 5982SOL    HW129408   0.466   2.627   4.972 -1.3332 -0.8445  1.0622
 5982SOL    HW229409   0.549   2.628   5.087  0.9395  1.4667 -1.1924
 5983SOL     OW29410   3.208   0.221   7.241  0.1442 -0.8904 -0.3840
 5983SOL    HW129411   3.214   0.275   7.320 -2.5861 -1.9103  0.5179
 5983SOL    HW229412   3.265   0.260   7.175  1.1444  1.8197  2.0607
 5984SOL     OW29413   4.057   0.681  16.798 -0.2325 -0.1624  0.0443
 5984SOL    HW129414   4.118   0.681  16.725 -1.8885  0.3521 -1.3426
 5984SOL    HW229415   4.067   0.770  16.831 -1.6993  0.7675 -2.0169
 5985SOL     OW29416   2.433   1.720  14.773  0.0706  0.7339 -0.2451
 5985SOL    HW129417   2.381   1.650  14.813  2.0094 -0.4586  0.1420
 5985SOL    HW229418   2.444   1.700  14.680 -1.2522 -1.5609  0.1012
 5986SOL     OW29419   2.269   2.961   5.756 -0.3535 -0.8268 -0.2075
 5986SOL    HW129420   2.317   2.886   5.721  0.5838 -0.1952 -0.2814
 5986SOL    HW229421   2.232   3.007   5.681  3.8984  2.9613 -0.0026
 5987SOL     OW29422   0.189   3.436   8.688 -0.1794  0.3457  0.5386
 5987SOL    HW129423   0.194   3.379   8.764 -1.8403 -1.7556 -0.9205
 5987SOL    HW229424   0.276   3.477   8.692  0.3850 -0.7349 -0.5024
 5988SOL     OW29425   1.018   2.391   7.813  0.5530  0.2410 -0.4046
 5988SOL    HW129426   0.971   2.473   7.826 -0.9159 -0.2915 -2.3029
 5988SOL    HW229427   0.938   2.344   7.789  0.4798 -1.1585  2.5158
 5989SOL     OW29428   3.752   2.100   4.300  0.6727  0.6382  0.1654
 5989SOL    HW129429   3.713   2.105   4.387  0.0831  2.3915 -0.2073
 5989SOL    HW229430   3.781   2.009   4.309 -1.1802  0.0649  0.3867
 5990SOL     OW29431   3.478   2.933   6.071 -0.2755  0.2204 -0.0785
 5990SOL    HW129432   3.429   2.900   6.146  2.1838 -0.6052  1.1819
 5990SOL    HW229433   3.555   2.962   6.120 -0.3901  1.3483 -0.5769
 5991SOL     OW29434   0.360   2.767  14.411  0.0223 -0.2969  0.5609
 5991SOL    HW129435   0.390   2.791  14.323  0.4856  0.7887  1.0077
 5991SOL    HW229436   0.407   2.833  14.462 -1.0076  1.0794 -0.2842
 5992SOL     OW29437   1.370   1.311   2.902 -0.1422 -0.2049 -0.4483
 5992SOL    HW129438   1.281   1.323   2.934  0.6845 -1.0503  2.1489
 5992SOL    HW229439   1.373   1.220   2.933 -0.3670  0.0048  0.1810
 5993SOL     OW29440   1.475   3.996  13.249 -0.3639  0.2424 -0.0705
 5993SOL    HW129441   1.531   4.047  13.307 -0.1151 -0.7333  0.5434
 5993SOL    HW229442   1.423   3.943  13.310  0.0171 -1.7710 -1.5140
 5994SOL     OW29443   2.459   3.575   7.746  0.1794  0.4337  0.5126
 5994SOL    HW129444   2.499   3.492   7.718  1.0019  1.6949 -2.0586
 5994SOL    HW229445   2.457   3.585   7.841 -2.9303  0.3655  0.4537
 5995SOL     OW29446   4.722   2.514  17.189 -0.1629 -0.1746  0.2496
 5995SOL    HW129447   0.068   2.456  17.164 -0.5196  1.2790 -4.0422
 5995SOL    HW229448   4.695   2.563  17.111 -2.9037  0.6100  1.7109
 5996SOL     OW29449   0.090   4.106   9.548 -0.0888 -0.4718 -0.6518
 5996SOL    HW129450   0.172   4.079   9.506  0.3403 -1.5924  0.8910
 5996SOL    HW229451   0.104   4.096   9.642 -0.1548 -0.3046 -0.6249
 5997SOL     OW29452   3.843   0.871   6.503 -0.9906  0.2607 -0.1454
 5997SOL    HW129453   3.857   0.903   6.414 -1.0751 -0.2319 -0.3354
 5997SOL    HW229454   3.933   0.859   6.533 -0.8885  2.8535  0.6011
 5998SOL     OW29455   2.311   3.532   2.479 -0.4354  0.0645 -0.1935
 5998SOL    HW129456   2.341   3.502   2.393 -1.1450 -0.4335 -0.2680
 5998SOL    HW229457   2.369   3.608   2.487 -0.2534 -0.3022  2.0219
 5999SOL     OW29458   1.900   3.620   1.037  0.3836 -0.3435 -0.6864
 5999SOL    HW129459   1.935   3.705   1.064  1.2502 -0.6306 -0.9318
 5999SOL    HW229460   1.827   3.652   0.983 -1.1872 -2.5370  0.1497
 6000SOL     OW29461   0.710   1.098  13.838  0.2165 -0.0806  0.1558
 6000SOL    HW129462   0.762   1.103  13.918 -1.0028  1.3357  0.8607
 6000SOL    HW229463   0.723   1.182  13.794  0.6573 -0.0287  0.3813
 6001SOL     OW29464   2.947   0.265  14.593  0.3193  0.4581  0.1700
 6001SOL    HW129465   2.926   0.350  14.553 -0.2858 -0.2354 -0.9797
 6001SOL    HW229466   2.857   0.251  14.623  0.5442 -0.1727  0.5489
 6002SOL     OW29467   4.475   0.193   0.856 -0.2119  0.4339  0.3623
 6002SOL    HW129468   4.450   0.280   0.887  0.3722  0.2617  1.3359
 6002SOL    HW229469   4.568   0.203   0.878  0.0594 -1.7492  0.1708
 6003SOL     OW29470   0.248   1.254   3.593 -0.0440  0.3162  0.2588
 6003SOL    HW129471   0.196   1.246   3.672 -1.6301 -0.5355 -0.8728
 6003SOL    HW229472   0.195   1.302   3.529 -1.4375  0.3092  1.4179
 6004SOL     OW29473   4.256   4.556   0.105 -0.4854 -0.6541 -0.7277
 6004SOL    HW129474   4.243   4.511   0.188  0.5088  1.7421  0.7089
 6004SOL    HW229475   4.332   4.507   0.072  0.6220  1.2456 -0.9726
 6005SOL     OW29476   2.693   2.825   8.254 -0.0795  0.0264  0.1970
 6005SOL    HW129477   2.641   2.777   8.189  0.7203 -0.4939 -0.0581
 6005SOL    HW229478   2.646   2.907   8.270  0.2367  0.3296 -0.3733
 6006SOL     OW29479   3.688   3.924  14.959  0.0093 -0.3659 -0.4226
 6006SOL    HW129480   3.721   3.835  14.969 -0.9332 -0.6962 -0.3245
 6006SOL    HW229481   3.656   3.936  15.048  2.3971 -0.5861  0.4839
 6007SOL     OW29482   3.889   2.384  11.058 -0.3778 -0.5280  0.1262
 6007SOL    HW129483   3.887   2.404  10.964 -0.3113 -0.5108  0.1278
 6007SOL    HW229484   3.801   2.411  11.083 -0.5695 -1.5906  0.5928
 6008SOL     OW29485   1.863   1.104  15.987  0.1910  0.4357  0.1409
 6008SOL    HW129486   1.938   1.082  16.042 -0.0928 -0.5830  0.1276
 6008SOL    HW229487   1.899   1.077  15.903 -3.0189  0.0091 -1.0980
 6009SOL     OW29488   0.901   2.376  11.237 -0.0636 -0.0320 -0.7591
 6009SOL    HW129489   0.936   2.312  11.175  3.0468 -1.9230  2.9617
 6009SOL    HW229490   0.807   2.377  11.215 -0.5582  1.1108  1.4344
 6010SOL     OW29491   1.581   2.098  13.085  0.2901  0.3115  0.2312
 6010SOL    HW129492   1.632   2.028  13.043 -0.4437 -0.0241 -0.0953
 6010SOL    HW229493   1.647   2.167  13.084  0.2124  0.4186  1.9066
 6011SOL     OW29494   2.223   1.196   7.388 -0.4636  0.0737 -0.6595
 6011SOL    HW129495   2.238   1.176   7.296  1.2444 -0.2178 -0.3063
 6011SOL    HW229496   2.263   1.282   7.380 -0.4790  0.0435 -1.0572
 6012SOL     OW29497   2.848   2.287   0.801 -0.2707  0.2446  0.5782
 6012SOL    HW129498   2.777   2.315   0.744  1.1633  2.6031 -0.0258
 6012SOL    HW229499   2.882   2.212   0.751 -0.1685 -0.3418  1.5331
 6013SOL     OW29500   3.966   1.775   9.957  0.3698 -0.5474  0.5538
 6013SOL    HW129501   3.872   1.793   9.957  0.9212  2.3301 -1.7486
 6013SOL    HW229502   3.987   1.721  10.034  1.8248 -2.3836 -1.1505
 6014SOL     OW29503   3.263   0.419   2.123  0.2063  0.3936 -0.0218
 6014SOL    HW129504   3.177   0.460   2.109  0.8484  1.3150 -1.2358
 6014SOL    HW229505   3.246   0.386   2.211 -3.6463 -0.2234 -1.0029
 6015SOL     OW29506   1.773   2.026   3.221  0.2333 -0.1797  0.0815
 6015SOL    HW129507   1.703   2.091   3.209  0.0033 -0.2358  1.1114
 6015SOL    HW229508   1.744   1.957   3.160 -2.5486  1.4985 -0.4953
 6016SOL     OW29509   0.476   2.014   9.302 -0.0586  0.0655 -0.4232
 6016SOL    HW129510   0.437   1.945   9.249  1.6089  0.6415 -2.3866
 6016SOL    HW229511   0.412   2.084   9.295 -1.1883 -0.7562  1.6948
 6017SOL     OW29512   4.436   3.694  14.724  0.2253 -0.2366  0.1162
 6017SOL    HW129513   4.487   3.750  14.783 -1.2593  2.6093 -1.2787
 6017SOL    HW229514   4.360   3.751  14.714 -1.0420 -1.9548  0.0788
 6018SOL     OW29515   3.635   2.198   0.914  0.5180  0.5169  0.4509
 6018SOL    HW129516   3.723   2.173   0.889  1.2832  2.6570  0.9578
 6018SOL    HW229517   3.603   2.122   0.962 -2.6263  0.2542 -2.0398
 6019SOL     OW29518   2.592   0.394   7.618 -0.1135  0.8666  0.7203
 6019SOL    HW129519   2.576   0.352   7.703 -1.5023 -1.9011 -0.9405
 6019SOL    HW229520   2.544   0.329   7.567 -0.2752  0.3489  1.5351
 6020SOL     OW29521   2.409   2.287   4.939  0.1325  0.1394 -0.2089
 6020SOL    HW129522   2.406   2.343   4.861  0.3825 -0.1840 -0.4515
 6020SOL    HW229523   2.316   2.279   4.962  0.2606 -0.8993 -0.0419
 6021SOL     OW29524   1.261   2.698   8.339  0.4427 -0.3795 -0.0559
 6021SOL    HW129525   1.276   2.611   8.303  0.1678 -0.8970  1.0818
 6021SOL    HW229526   1.203   2.685   8.415 -0.7183 -2.6079 -1.3348
 6022SOL     OW29527   2.236   4.607   3.845  0.2622 -0.1952  0.2149
 6022SOL    HW129528   2.290   4.535   3.876  1.2699  0.5543  0.2016
 6022SOL    HW229529   2.156   4.566   3.812 -0.3018  1.5776 -0.5893
 6023SOL     OW29530   0.590   3.298   3.797 -0.2345  0.3397  0.1868
 6023SOL    HW129531   0.649   3.265   3.865  1.7335  0.0609 -1.6524
 6023SOL    HW229532   0.553   3.215   3.767 -1.5943  1.1673 -0.4389
 6024SOL     OW29533   2.329   3.972   7.758 -0.0207  0.3526 -0.0928
 6024SOL    HW129534   2.389   3.920   7.705  1.8026  1.4467  0.9072
 6024SOL    HW229535   2.393   4.037   7.787  1.4777 -1.0056 -0.3524
 6025SOL     OW29536   2.472   3.242   9.553 -0.7922 -0.4029  0.3519
 6025SOL    HW129537   2.414   3.288   9.613 -2.7739  0.7800 -2.4606
 6025SOL    HW229538   2.561   3.254   9.584 -1.1901 -0.0249  1.3408
 6026SOL     OW29539   4.454   0.044   8.143  0.0441 -0.4328  0.3041
 6026SOL    HW129540   4.465   4.702   8.211  2.4344  0.3995  0.7582
 6026SOL    HW229541   4.418   4.718   8.071 -0.5370  1.3320 -0.6708
 6027SOL     OW29542   1.988   1.219   4.914  0.0953  0.6982  0.3344
 6027SOL    HW129543   1.976   1.188   4.825 -0.8713 -2.1219  1.4252
 6027SOL    HW229544   2.083   1.229   4.922  0.0495  3.0431 -2.1278
 6028SOL     OW29545   1.991   1.188   5.773  0.0751 -0.1849 -0.1052
 6028SOL    HW129546   2.066   1.183   5.833 -1.0168  0.4369  1.3129
 6028SOL    HW229547   1.941   1.256   5.817 -1.4905 -0.5272 -1.3463
 6029SOL     OW29548   1.892   2.682  10.879  0.0069  0.1007  0.2663
 6029SOL    HW129549   1.945   2.761  10.894  0.0572  0.4003 -1.4086
 6029SOL    HW229550   1.943   2.642  10.809  0.9413  1.7555 -0.0125
 6030SOL     OW29551   2.511   1.090   6.946  0.0533 -0.5121 -0.2436
 6030SOL    HW129552   2.574   1.066   6.877  1.3672 -1.6001  1.3186
 6030SOL    HW229553   2.452   1.015   6.937  1.3022 -1.4749 -0.6169
 6031SOL     OW29554   4.100   3.332   5.813 -0.0266  0.2718 -0.5186
 6031SOL    HW129555   4.195   3.330   5.802 -0.0160 -1.1461 -0.1977
 6031SOL    HW229556   4.089   3.265   5.881  1.1184 -0.3111 -0.9147
 6032SOL     OW29557   1.029   0.294   8.614  0.0583 -0.1530  0.3395
 6032SOL    HW129558   0.934   0.289   8.612  0.0272  1.0807 -0.8130
 6032SOL    HW229559   1.045   0.287   8.520 -1.3822  1.4764 -0.0232
 6033SOL     OW29560   3.628   2.407   4.324 -0.2791 -0.2965  0.4394
 6033SOL    HW129561   3.628   2.463   4.246 -1.5601 -0.6521  0.1806
 6033SOL    HW229562   3.620   2.325   4.276 -1.3738  0.3199 -0.4532
 6034SOL     OW29563   1.773   3.621   6.523 -0.2383 -0.1546  0.0192
 6034SOL    HW129564   1.819   3.540   6.503 -1.5209 -0.6541 -0.8907
 6034SOL    HW229565   1.702   3.620   6.459  1.4982 -1.2122 -1.9032
 6035SOL     OW29566   3.624   4.034   7.393  0.0668 -0.0737 -0.5787
 6035SOL    HW129567   3.693   4.033   7.327  0.8572  0.9018  0.2177
 6035SOL    HW229568   3.554   4.081   7.348  0.8160  0.5025 -1.1470
 6036SOL     OW29569   4.133   0.718   3.662  0.2850 -0.0422  0.0496
 6036SOL    HW129570   4.140   0.675   3.577 -0.1182 -1.6786  0.8205
 6036SOL    HW229571   4.129   0.810   3.637 -0.6967  0.4126  1.8356
 6037SOL     OW29572   1.630   3.862   0.410 -0.3882 -0.3783 -0.5535
 6037SOL    HW129573   1.634   3.854   0.315  3.1078 -1.4367 -0.3038
 6037SOL    HW229574   1.570   3.936   0.420  0.9037  0.8182 -1.7976
 6038SOL     OW29575   0.135   1.363   8.652 -0.0445  0.2526  0.0299
 6038SOL    HW129576   0.118   1.286   8.598 -2.2850  0.1760  0.8241
 6038SOL    HW229577   0.230   1.362   8.643 -0.0590 -1.1947  0.0740
 6039SOL     OW29578   2.261   3.051  17.254 -0.0573  0.0960 -0.2078
 6039SOL    HW129579   2.279   3.129  17.307  0.0866 -1.2108  1.6562
 6039SOL    HW229580   2.287   2.980  17.313 -1.6360 -0.7271 -0.5182
 6040SOL     OW29581   0.514   1.356   6.688  0.3630  0.2896  0.5171
 6040SOL    HW129582   0.597   1.313   6.666  0.0888 -0.6909  1.4331
 6040SOL    HW229583   0.514   1.424   6.620 -3.4417  2.9325  3.1519
 6041SOL     OW29584   4.292   4.623   1.171 -0.1578 -0.2001 -0.3649
 6041SOL    HW129585   4.372   4.571   1.160  1.1364  1.6533  0.1890
 6041SOL    HW229586   4.321   4.677   1.245  1.6251  0.0569 -1.2453
 6042SOL     OW29587   3.389   0.180   3.195 -0.1668 -0.3168  0.5397
 6042SOL    HW129588   3.401   0.111   3.260  0.9044 -0.4956  0.1511
 6042SOL    HW229589   3.326   0.140   3.134 -0.1842 -1.8921  1.5834
 6043SOL     OW29590   3.944   4.656   7.294 -0.3112 -0.4085 -0.3562
 6043SOL    HW129591   3.887   4.586   7.261 -0.6673 -0.6026  0.6655
 6043SOL    HW229592   3.883   4.710   7.345 -0.1838 -1.0009  0.4055
 6044SOL     OW29593   2.317   4.386  14.662  0.3556  0.0204  0.1252
 6044SOL    HW129594   2.367   4.366  14.741 -0.2552  1.6261  0.9245
 6044SOL    HW229595   2.224   4.390  14.686  0.9617  0.8105  2.3226
 6045SOL     OW29596   3.559   3.880   3.209 -0.5364 -0.4137  0.2439
 6045SOL    HW129597   3.537   3.789   3.231 -0.2074 -0.3642  0.7607
 6045SOL    HW229598   3.578   3.878   3.115  0.3822 -0.3633  0.4268
 6046SOL     OW29599   0.379   3.157   9.174 -0.0853 -0.2518 -0.3750
 6046SOL    HW129600   0.428   3.229   9.135 -0.7646  1.0942  1.2296
 6046SOL    HW229601   0.301   3.190   9.219 -0.2494  0.1741 -0.9814
 6047SOL     OW29602   2.137   1.222   8.013 -0.2274  0.6621 -0.0480
 6047SOL    HW129603   2.064   1.276   8.044 -0.3596  0.5197 -0.1163
 6047SOL    HW229604   2.117   1.216   7.920 -1.9579  2.9358  0.1803
 6048SOL     OW29605   1.179   3.665   7.442 -0.1215  0.1758 -0.3247
 6048SOL    HW129606   1.108   3.611   7.406  1.4551 -2.2335  0.1791
 6048SOL    HW229607   1.127   3.701   7.513  0.6472  0.0024  0.3202
 6049SOL     OW29608   2.908   4.449   1.731 -0.1937  0.0473  0.2770
 6049SOL    HW129609   2.877   4.539   1.717  3.1753  1.1699 -0.0713
 6049SOL    HW229610   2.964   4.440   1.653  0.2629 -0.8794  0.7124
 6050SOL     OW29611   0.475   0.635  10.312  0.3457  0.1450  0.1459
 6050SOL    HW129612   0.542   0.692  10.349  0.5812 -1.9007  2.8366
 6050SOL    HW229613   0.451   0.694  10.240  2.8412  0.2033 -0.6482
 6051SOL     OW29614   2.876   0.213   6.057 -0.2387 -0.1990 -0.2673
 6051SOL    HW129615   2.941   0.193   5.990 -0.4988 -1.6669 -0.0805
 6051SOL    HW229616   2.920   0.277   6.111  0.0781  0.3732 -1.1983
 6052SOL     OW29617   1.723   0.969   8.388  0.0668  0.4714 -0.4324
 6052SOL    HW129618   1.735   0.874   8.381 -0.7123  0.4678 -1.6565
 6052SOL    HW229619   1.636   0.975   8.349  0.3818  0.2166 -1.1908
 6053SOL     OW29620   1.532   4.102  11.273 -0.0497  0.2196 -0.2408
 6053SOL    HW129621   1.488   4.183  11.246 -0.2779  0.9343  2.2490
 6053SOL    HW229622   1.527   4.052  11.192  0.7331  1.4779 -1.0659
 6054SOL     OW29623   0.837   0.427   7.012  0.2534 -0.3553 -0.0052
 6054SOL    HW129624   0.848   0.498   6.948  1.8368 -0.5299  0.0917
 6054SOL    HW229625   0.907   0.458   7.069 -0.3539  2.1997 -0.6387
 6055SOL     OW29626   2.985   3.440  11.797 -0.1088 -0.2237 -0.2761
 6055SOL    HW129627   3.058   3.409  11.743 -0.9057 -2.3522 -0.1518
 6055SOL    HW229628   2.912   3.413  11.741 -0.8973  1.7060 -0.1462
 6056SOL     OW29629   3.255   0.891   8.843  0.0063  0.4224 -0.0067
 6056SOL    HW129630   3.328   0.844   8.805 -0.2499  0.1911 -0.2114
 6056SOL    HW229631   3.294   0.905   8.930  0.1912  2.6806 -0.4595
 6057SOL     OW29632   0.174   3.847   0.900  0.3351 -0.4323  0.5474
 6057SOL    HW129633   0.260   3.851   0.858 -0.0199 -4.6728 -0.5244
 6057SOL    HW229634   0.197   3.900   0.977 -3.9470  3.8763 -1.1145
 6058SOL     OW29635   4.155   2.000  16.201  0.1126 -0.0264  0.2549
 6058SOL    HW129636   4.128   1.944  16.273  1.1844 -2.3321 -1.1213
 6058SOL    HW229637   4.147   1.939  16.127 -1.0076  0.7377 -0.2626
 6059SOL     OW29638   2.415   1.251   1.955 -0.0067 -0.2111  0.3177
 6059SOL    HW129639   2.447   1.183   2.015  1.6329  1.2220  1.0716
 6059SOL    HW229640   2.449   1.333   1.989  0.6869 -0.1244 -0.5838
 6060SOL     OW29641   1.177   3.844  10.313  0.0692 -0.2109 -0.2160
 6060SOL    HW129642   1.189   3.793  10.232  1.7340  0.3671 -0.3383
 6060SOL    HW229643   1.082   3.856  10.308  0.3801  1.8747 -1.0685
 6061SOL     OW29644   1.669   4.000   4.386  0.3154 -0.0832  0.0732
 6061SOL    HW129645   1.756   3.962   4.396  1.3628  1.4677 -3.3019
 6061SOL    HW229646   1.661   3.976   4.294  0.5515  0.7915 -0.1757
 6062SOL     OW29647   1.867   3.338   6.517  0.0397 -0.2431 -0.0564
 6062SOL    HW129648   1.902   3.302   6.436 -0.4917  0.2963 -0.5264
 6062SOL    HW229649   1.926   3.292   6.577  0.9704 -1.9915 -2.2819
 6063SOL     OW29650   0.229   3.969  11.815 -0.0080  0.3731 -0.3089
 6063SOL    HW129651   0.182   4.009  11.741 -1.0311  0.8119  0.5592
 6063SOL    HW229652   0.200   4.034  11.880  1.3585  2.5066 -1.8080
 6064SOL     OW29653   3.876   1.653   8.672 -0.4925  0.0038 -0.7028
 6064SOL    HW129654   3.910   1.636   8.584 -0.4882 -1.6218 -0.3686
 6064SOL    HW229655   3.835   1.739   8.660  2.3909  1.3053 -1.1975
 6065SOL     OW29656   3.467   0.577   1.996  0.2515 -0.0805  0.2529
 6065SOL    HW129657   3.402   0.520   2.036  0.1642 -0.0997  0.0836
 6065SOL    HW229658   3.432   0.571   1.907  0.1556 -0.8627  0.3442
 6066SOL     OW29659   1.554   2.462   5.747  0.1909  0.1760 -0.3375
 6066SOL    HW129660   1.603   2.381   5.756 -0.0790  0.0127 -0.3277
 6066SOL    HW229661   1.538   2.477   5.654 -0.7503 -0.6847 -0.3123
 6067SOL     OW29662   3.301   2.082   5.138  0.1325 -0.1750 -0.4057
 6067SOL    HW129663   3.230   2.019   5.147 -0.1263  0.0255 -1.0778
 6067SOL    HW229664   3.352   2.058   5.215 -0.5303 -2.1504 -0.5847
 6068SOL     OW29665   4.279   1.567  10.627  0.1430  0.4523 -0.3336
 6068SOL    HW129666   4.293   1.516  10.706 -0.1934 -0.6540 -0.9879
 6068SOL    HW229667   4.345   1.633  10.647  1.3982 -0.2180 -2.2735
 6069SOL     OW29668   1.133   4.170  17.307  0.8020  0.2748 -0.3765
 6069SOL    HW129669   1.069   4.147  17.375 -0.7206  1.6498 -1.3345
 6069SOL    HW229670   1.171   4.086  17.282  1.9871  0.1251  1.9348
 6070SOL     OW29671   0.386   1.464  12.531  0.6054 -0.1977  0.1377
 6070SOL    HW129672   0.442   1.493  12.603  2.1318 -1.2288 -0.6152
 6070SOL    HW229673   0.452   1.418  12.478  1.4719  0.8662  0.2922
 6071SOL     OW29674   2.797   0.491   2.721 -0.6216 -0.5870 -0.7689
 6071SOL    HW129675   2.783   0.584   2.735 -0.5790 -0.2104 -3.1549
 6071SOL    HW229676   2.892   0.504   2.716 -0.9027  1.8268  0.3033
 6072SOL     OW29677   4.585   0.268   5.548  0.2146  0.1268  0.1618
 6072SOL    HW129678   4.525   0.340   5.536 -1.5520 -1.7078 -1.9774
 6072SOL    HW229679   4.664   0.314   5.577  0.4737 -0.0606 -0.2434
 6073SOL     OW29680   2.363   1.978   7.743  0.0326  0.8269  0.2400
 6073SOL    HW129681   2.322   2.002   7.826 -0.7759  3.9194 -1.0642
 6073SOL    HW229682   2.339   1.886   7.736  0.4088  0.5974  1.9993
 6074SOL     OW29683   0.488   0.743   7.667 -0.6230 -0.1471  0.4577
 6074SOL    HW129684   0.577   0.756   7.634  0.1004  1.2983  3.0044
 6074SOL    HW229685   0.447   0.768   7.583 -1.7287 -0.9022  0.7764
 6075SOL     OW29686   0.401   2.772   0.881  0.4354 -0.4886 -0.0245
 6075SOL    HW129687   0.476   2.830   0.894 -0.2555  0.4502 -0.2393
 6075SOL    HW229688   0.322   2.824   0.893  0.3395 -1.2087  2.4839
 6076SOL     OW29689   2.759   2.076   2.213 -0.1344  0.3645  0.4949
 6076SOL    HW129690   2.805   2.106   2.134 -0.5420 -0.3460 -0.0154
 6076SOL    HW229691   2.699   2.151   2.221  0.1376  0.8660 -2.1481
 6077SOL     OW29692   1.052   3.667  10.076  0.6481  0.2087 -0.0545
 6077SOL    HW129693   1.041   3.617  10.157 -0.9791 -3.8655 -2.7358
 6077SOL    HW229694   1.048   3.596  10.012  1.2768  1.1978 -1.1845
 6078SOL     OW29695   4.409   0.085   6.125  0.2291 -0.1803  0.1355
 6078SOL    HW129696   4.327   0.079   6.077  0.6547 -1.8158 -0.3843
 6078SOL    HW229697   4.387   0.027   6.198 -0.1405 -0.0995  0.0875
 6079SOL     OW29698   3.735   3.026   5.496  0.2474 -0.4070 -0.2065
 6079SOL    HW129699   3.738   3.061   5.585 -0.3734  0.7931 -0.6584
 6079SOL    HW229700   3.827   3.046   5.482  0.0648 -0.2017 -1.1121
 6080SOL     OW29701   4.512   2.536   5.927  0.6541  0.3431  0.3538
 6080SOL    HW129702   4.508   2.465   5.863  0.9847  1.4511 -0.8955
 6080SOL    HW229703   4.608   2.545   5.929  0.6298  0.7675 -0.4515
 6081SOL     OW29704   0.425   1.044  13.833 -0.3560  0.4145  0.0751
 6081SOL    HW129705   0.400   1.136  13.823  1.3438  0.8972  0.1826
 6081SOL    HW229706   0.515   1.040  13.799  0.1662 -0.6050  1.5388
 6082SOL     OW29707   2.757   4.481   9.163 -0.0887  0.6176 -0.3323
 6082SOL    HW129708   2.717   4.395   9.166  2.3317 -0.5470 -1.8321
 6082SOL    HW229709   2.788   4.485   9.254 -3.2592 -0.6310  0.8125
 6083SOL     OW29710   0.857   3.060   3.413 -0.4037 -0.0151 -0.4330
 6083SOL    HW129711   0.831   2.994   3.477  0.5690  0.0355  0.0113
 6083SOL    HW229712   0.818   3.012   3.340 -2.8600  0.3661  0.6397
 6084SOL     OW29713   1.047   3.118   2.672 -0.0643 -0.1578 -0.2068
 6084SOL    HW129714   1.055   3.074   2.587 -1.4680 -0.0991 -0.3730
 6084SOL    HW229715   1.141   3.124   2.688  0.1597 -0.5465 -1.3393
 6085SOL     OW29716   0.682   1.928   4.240 -0.1344 -0.1308 -0.4885
 6085SOL    HW129717   0.612   1.990   4.220  0.2471  1.0129  1.6148
 6085SOL    HW229718   0.696   1.892   4.153 -0.9488  0.7207 -0.9657
 6086SOL     OW29719   3.216   4.484   4.122  0.1043  0.2241 -0.2589
 6086SOL    HW129720   3.226   4.405   4.068 -1.1366  1.3196 -2.0955
 6086SOL    HW229721   3.199   4.445   4.208  0.5829  0.4534 -0.0615
 6087SOL     OW29722   2.337   1.705   5.344  0.3880 -0.1292 -1.3707
 6087SOL    HW129723   2.328   1.687   5.438  2.2686  2.7593 -0.6391
 6087SOL    HW229724   2.347   1.800   5.344 -3.1087  0.2749  1.0653
 6088SOL     OW29725   0.215   2.496  14.038 -0.2935 -0.8744 -0.2483
 6088SOL    HW129726   0.164   2.430  14.083 -0.0503 -1.5399 -0.9461
 6088SOL    HW229727   0.158   2.512  13.962 -0.9232  0.1473  0.4401
 6089SOL     OW29728   1.474   4.427   6.400 -0.4008 -0.5454 -0.3317
 6089SOL    HW129729   1.414   4.398   6.469  0.5871 -1.0210  0.3354
 6089SOL    HW229730   1.466   4.360   6.331 -2.2544 -0.2961 -0.3529
 6090SOL     OW29731   1.294   1.422   7.537 -0.5447  0.0889 -0.0090
 6090SOL    HW129732   1.314   1.342   7.487  2.1816  0.3825  0.6401
 6090SOL    HW229733   1.371   1.469   7.506 -0.5137  0.1577  0.1715
 6091SOL     OW29734   3.305   1.148   6.328 -1.0245 -0.3658 -0.0895
 6091SOL    HW129735   3.310   1.229   6.380  1.0207 -0.3152 -0.3440
 6091SOL    HW229736   3.271   1.183   6.245  0.1223  2.8317  0.7776
 6092SOL     OW29737   1.218   0.704  13.146  0.1267  0.0387  0.1186
 6092SOL    HW129738   1.193   0.746  13.228 -2.2162  0.0528 -0.5788
 6092SOL    HW229739   1.229   0.620  13.189  1.0593 -1.1063 -2.3407
 6093SOL     OW29740   0.610   4.317   6.209 -0.1647 -0.0225 -0.1054
 6093SOL    HW129741   0.698   4.309   6.246 -0.5108 -1.1063  0.5092
 6093SOL    HW229742   0.565   4.317   6.294  1.4538 -1.2862  0.7646
 6094SOL     OW29743   2.239   1.852   4.666 -0.1378 -0.4937  0.0183
 6094SOL    HW129744   2.211   1.782   4.607  1.1757  0.6066 -1.9195
 6094SOL    HW229745   2.298   1.904   4.611 -1.8005  2.5988  1.1337
 6095SOL     OW29746   1.196   0.087   4.950  0.1919  0.4569  0.4810
 6095SOL    HW129747   1.209   0.065   5.043  0.8926 -2.1895 -0.2479
 6095SOL    HW229748   1.282   0.068   4.912 -0.2867 -0.3312 -0.2206
 6096SOL     OW29749   3.415   0.971  10.842 -0.0479 -0.3575  0.0389
 6096SOL    HW129750   3.334   1.003  10.881  0.1070  0.4122 -0.2675
 6096SOL    HW229751   3.479   1.033  10.875  0.0586 -0.8948  0.8234
 6097SOL     OW29752   1.730   1.517  10.975  0.2917  0.2398 -0.5482
 6097SOL    HW129753   1.665   1.527  10.905  0.3816  1.5151 -0.4580
 6097SOL    HW229754   1.686   1.569  11.043  1.2362 -0.1058  0.3232
 6098SOL     OW29755   0.982   0.206   2.434  0.0955 -0.2376 -0.6010
 6098SOL    HW129756   0.957   0.238   2.521 -0.2526 -0.4771 -0.6122
 6098SOL    HW229757   0.901   0.160   2.414 -0.5348 -0.6603  2.8506
 6099SOL     OW29758   2.298   4.458   2.863 -0.5635  0.4220 -0.4445
 6099SOL    HW129759   2.206   4.476   2.842 -0.7811  0.4056  0.5217
 6099SOL    HW229760   2.324   4.391   2.799 -0.1541 -0.1631  0.3399
 6100SOL     OW29761   0.375   1.667  15.376  0.1000 -0.8892 -0.0906
 6100SOL    HW129762   0.361   1.637  15.286  0.6528 -0.0216 -0.4660
 6100SOL    HW229763   0.291   1.639  15.411  1.4930 -0.2722  3.6912
 6101SOL     OW29764   1.336   0.538   4.254  0.1935 -0.3709 -0.5685
 6101SOL    HW129765   1.266   0.595   4.286  0.3185 -1.5746  1.7905
 6101SOL    HW229766   1.385   0.600   4.199  0.3887 -0.2193 -0.2198
 6102SOL     OW29767   0.180   4.625   2.500  0.2650 -0.1939  0.6509
 6102SOL    HW129768   0.158   4.548   2.551  1.4929 -1.1140 -0.2032
 6102SOL    HW229769   0.102   4.655   2.453  1.0612  0.5719 -0.1850
 6103SOL     OW29770   4.191   1.063  12.566  0.3964  0.6842  0.5829
 6103SOL    HW129771   4.171   1.146  12.521 -1.4498  0.4055  0.8784
 6103SOL    HW229772   4.108   1.039  12.607 -0.1100 -1.2973 -1.5981
 6104SOL     OW29773   1.774   1.252  11.054  0.4694  0.2144  0.3561
 6104SOL    HW129774   1.770   1.255  11.150  3.5611 -0.3268  0.5162
 6104SOL    HW229775   1.773   1.347  11.042 -2.3711  0.1705  0.4247
 6105SOL     OW29776   1.488   0.323  16.059 -0.1594 -0.1663 -0.3443
 6105SOL    HW129777   1.428   0.394  16.035 -0.1351  0.2471  0.8285
 6105SOL    HW229778   1.485   0.320  16.155 -1.4455 -2.2963 -0.4462
 6106SOL     OW29779   3.438   0.368   3.413 -0.1541 -0.4161 -0.3638
 6106SOL    HW129780   3.343   0.369   3.403 -0.1807  0.1994 -0.0716
 6106SOL    HW229781   3.458   0.303   3.345 -0.8188 -0.0126 -0.9577
 6107SOL     OW29782   0.139   2.066  15.202 -0.5323  0.1434  0.5667
 6107SOL    HW129783   0.195   2.143  15.194 -0.1933 -0.0623  1.0103
 6107SOL    HW229784   0.107   2.076  15.291 -0.5555  0.1725  0.5555
 6108SOL     OW29785   1.281   0.191  14.976  0.4366 -0.4514 -0.0614
 6108SOL    HW129786   1.267   0.171  15.069  1.1074 -1.0543 -0.0894
 6108SOL    HW229787   1.356   0.132  14.969  0.1522 -0.7992 -0.2008
 6109SOL     OW29788   3.345   3.843   3.848 -0.0750  1.4246 -0.1287
 6109SOL    HW129789   3.418   3.869   3.791 -1.9377  2.0322 -2.2212
 6109SOL    HW229790   3.363   3.891   3.929 -1.0555 -0.3245  1.1111
 6110SOL     OW29791   0.039   2.373   9.918 -0.5624 -0.3588  0.1987
 6110SOL    HW129792   0.030   2.309   9.848  1.1106 -0.2944 -0.0617
 6110SOL    HW229793   4.678   2.413   9.929 -0.4517 -0.4575  1.4641
 6111SOL     OW29794   1.844   1.942   7.512 -0.1937 -0.8683  0.4425
 6111SOL    HW129795   1.800   1.875   7.564 -0.4649 -0.4001  0.8142
 6111SOL    HW229796   1.892   1.991   7.579  0.9144 -1.0406 -0.2190
 6112SOL     OW29797   2.626   0.261  16.209  0.2886 -0.0581  0.0899
 6112SOL    HW129798   2.589   0.244  16.123 -0.1818  0.6047  0.1625
 6112SOL    HW229799   2.538   0.262  16.246 -0.6402  0.8990 -2.1743
 6113SOL     OW29800   4.669   3.215   9.960 -0.0983 -0.5034  0.3329
 6113SOL    HW129801   4.575   3.210   9.977 -0.2016 -0.4779 -0.2247
 6113SOL    HW229802   4.700   3.129   9.988 -1.9867 -0.5126  2.3461
 6114SOL     OW29803   2.411   1.854   8.724 -0.0368  0.2325 -0.2635
 6114SOL    HW129804   2.386   1.937   8.764 -0.2806  1.3043 -2.6572
 6114SOL    HW229805   2.480   1.885   8.666 -1.7406  0.5306 -2.1188
 6115SOL     OW29806   1.091   3.536  16.678  0.0334  0.4743  0.2700
 6115SOL    HW129807   1.174   3.532  16.725 -0.8896 -2.8277  1.6103
 6115SOL    HW229808   1.102   3.473  16.607  2.2531  0.9198  0.2387
 6116SOL     OW29809   4.248   3.584   2.521  0.1970  0.4903 -0.2206
 6116SOL    HW129810   4.264   3.492   2.497  3.1076  0.9182  0.0731
 6116SOL    HW229811   4.158   3.596   2.489  0.1029 -0.7332 -0.4480
 6117SOL     OW29812   4.191   3.588   6.282  0.0806  0.1745 -0.0334
 6117SOL    HW129813   4.187   3.497   6.252 -0.0059 -0.1735  1.0452
 6117SOL    HW229814   4.115   3.604   6.338  0.6380  2.7101  0.0029
 6118SOL     OW29815   1.679   4.576   4.640  0.3237 -0.4044 -0.3402
 6118SOL    HW129816   1.652   4.649   4.584 -1.4146 -0.3407  0.5862
 6118SOL    HW229817   1.617   4.593   4.711  0.6673 -0.1033 -0.1158
 6119SOL     OW29818   2.145   0.635  16.561  0.2721 -0.3101  0.2786
 6119SOL    HW129819   2.214   0.692  16.526 -1.1416  0.2622 -1.5449
 6119SOL    HW229820   2.185   0.601  16.641  3.1884  0.7522 -0.7029
 6120SOL     OW29821   4.425   1.767   3.930  0.1228 -0.0971 -0.1680
 6120SOL    HW129822   4.434   1.680   3.968  1.2739  0.0528 -0.0995
 6120SOL    HW229823   4.333   1.788   3.945  0.9807  2.7594  1.0860
 6121SOL     OW29824   1.696   3.552  16.943  0.0999  0.1640  0.5055
 6121SOL    HW129825   1.640   3.476  16.922 -0.4720  0.7931 -0.2334
 6121SOL    HW229826   1.776   3.522  16.900 -0.9356  1.8982 -2.5778
 6122SOL     OW29827   0.734   3.377   4.213 -0.6068 -0.0069  0.2163
 6122SOL    HW129828   0.745   3.348   4.303  1.0019  1.6375  0.5501
 6122SOL    HW229829   0.825   3.392   4.186  0.1429 -2.7471  1.2219
 6123SOL     OW29830   1.364   2.727   5.696  0.0604  0.2826  0.0996
 6123SOL    HW129831   1.346   2.821   5.704 -1.8162 -0.1671  1.3634
 6123SOL    HW229832   1.363   2.737   5.601  1.6082  0.7001  0.1305
 6124SOL     OW29833   4.247   1.759  10.978  0.0924 -0.1075 -0.8648
 6124SOL    HW129834   4.334   1.778  11.012  1.2854 -1.4805 -3.1499
 6124SOL    HW229835   4.248   1.664  10.967 -3.8815 -0.4411  1.7269
 6125SOL     OW29836   2.438   1.609  13.205  0.1277  0.4580 -0.2044
 6125SOL    HW129837   2.487   1.672  13.152 -1.0803 -0.5489 -2.5302
 6125SOL    HW229838   2.488   1.527  13.206 -2.1004 -0.9015 -0.7412
 6126SOL     OW29839   4.187   0.316   4.673 -0.5981  0.1566  0.3714
 6126SOL    HW129840   4.214   0.408   4.670 -0.6990  0.2068  1.0614
 6126SOL    HW229841   4.098   0.301   4.639 -0.7614 -1.4886  1.5456
 6127SOL     OW29842   2.952   0.292   4.879  0.6033  0.7480  0.3649
 6127SOL    HW129843   2.922   0.239   4.805  1.6747 -0.7991  1.0416
 6127SOL    HW229844   2.875   0.341   4.908  0.5866  1.2674 -0.5409
 6128SOL     OW29845   0.416   4.136  13.820  0.2850  0.3254  0.0117
 6128SOL    HW129846   0.472   4.125  13.897  1.5671  0.1069 -0.9354
 6128SOL    HW229847   0.386   4.226  13.816 -0.0689  0.1849 -0.5779
 6129SOL     OW29848   3.422   4.636   0.429  0.0692 -0.1605 -0.9039
 6129SOL    HW129849   3.435   4.715   0.482  0.2214 -1.9770  1.7854
 6129SOL    HW229850   3.368   4.586   0.490  2.7282 -1.4080  0.4277
 6130SOL     OW29851   0.362   1.431  17.012 -0.3853 -0.0869  0.1088
 6130SOL    HW129852   0.385   1.341  16.989  0.3940 -0.3580  1.9057
 6130SOL    HW229853   0.282   1.451  16.963  0.8498  1.8053 -1.0800
 6131SOL     OW29854   4.555   1.377   2.611  0.1768  0.3457  0.0825
 6131SOL    HW129855   4.500   1.401   2.686 -0.9346 -1.2637 -0.2191
 6131SOL    HW229856   4.549   1.282   2.608  1.2954  0.3081 -0.7546
 6132SOL     OW29857   1.054   1.839   6.034 -0.3490  0.3984 -0.1352
 6132SOL    HW129858   0.997   1.884   6.096 -0.2571  2.0003 -1.2236
 6132SOL    HW229859   1.043   1.891   5.955 -1.8973  0.4267  0.1028
 6133SOL     OW29860   3.957   3.896   2.417 -0.4174  0.2024 -0.3468
 6133SOL    HW129861   3.898   3.904   2.492  1.9396  1.9156  1.3451
 6133SOL    HW229862   4.037   3.939   2.449 -0.0641 -1.2560  0.6997
 6134SOL     OW29863   2.814   1.596   3.508 -0.4555  0.2955  0.7802
 6134SOL    HW129864   2.837   1.623   3.597  1.1962 -2.7007  1.2318
 6134SOL    HW229865   2.766   1.518   3.534 -0.4059  0.3015  0.8905
 6135SOL     OW29866   2.615   2.952   7.654  0.0201  0.3509 -0.3185
 6135SOL    HW129867   2.692   3.008   7.644 -0.8975  1.4351 -1.3672
 6135SOL    HW229868   2.611   2.940   7.749 -4.7950  0.2438 -0.5180
 6136SOL     OW29869   0.288   3.280  10.013  0.1920 -0.3527 -0.2311
 6136SOL    HW129870   0.290   3.355  10.072 -1.0290  0.3235 -1.0545
 6136SOL    HW229871   0.352   3.225  10.059  1.0168  0.8364  0.0545
 6137SOL     OW29872   4.584   1.138   9.349 -0.0071  0.1424  0.4649
 6137SOL    HW129873   4.580   1.112   9.257  0.1363 -0.4280  0.6200
 6137SOL    HW229874   4.493   1.166   9.355 -0.5132 -1.1111 -1.2995
 6138SOL     OW29875   1.913   1.167  11.682  0.4680  0.0942  0.0717
 6138SOL    HW129876   1.833   1.133  11.641 -0.2401  0.5939  1.0421
 6138SOL    HW229877   1.973   1.169  11.607 -1.5713 -2.4301 -1.6394
 6139SOL     OW29878   0.393   3.159  17.655  0.2970 -0.2539 -0.2425
 6139SOL    HW129879   0.401   3.097  17.582  1.3321 -0.2500 -0.1286
 6139SOL    HW229880   0.449   3.129   0.023 -0.6292  1.2253  1.1056
 6140SOL     OW29881   2.175   3.117  11.880 -0.0151  0.1458  0.0526
 6140SOL    HW129882   2.214   3.142  11.796  2.5480  0.1661  1.2544
 6140SOL    HW229883   2.235   3.160  11.940 -2.1704  0.4111  2.0251
 6141SOL     OW29884   0.796   0.730   5.207 -0.1842 -0.2279  0.5445
 6141SOL    HW129885   0.733   0.739   5.135 -1.5802 -2.5899  1.4763
 6141SOL    HW229886   0.835   0.817   5.196  1.4475 -1.1304 -0.8617
 6142SOL     OW29887   2.434   0.300   5.927 -0.4678  0.0332 -0.3946
 6142SOL    HW129888   2.444   0.378   5.983  0.1869 -0.0156 -0.4428
 6142SOL    HW229889   2.348   0.271   5.958 -0.5327  0.3756 -0.2526
 6143SOL     OW29890   1.169   3.914   8.235 -0.8916 -0.3283 -0.0714
 6143SOL    HW129891   1.225   3.881   8.164  1.1635  2.6636  0.1638
 6143SOL    HW229892   1.228   3.932   8.307 -1.7087  1.2206  0.2069
 6144SOL     OW29893   2.848   2.685   2.528  0.8469  0.2663  0.4795
 6144SOL    HW129894   2.768   2.662   2.575  0.2988  1.6656  0.2365
 6144SOL    HW229895   2.881   2.596   2.514 -2.1454 -0.6072 -1.1020
 6145SOL     OW29896   2.513   3.802   7.614 -0.1772 -0.1640  0.0868
 6145SOL    HW129897   2.567   3.816   7.691 -0.3282  1.1467 -0.0451
 6145SOL    HW229898   2.497   3.707   7.620 -0.4889 -0.0479  1.0773
 6146SOL     OW29899   1.519   1.356  12.995  0.4401 -0.0188  0.0699
 6146SOL    HW129900   1.494   1.327  13.083  1.1610 -0.2036  0.2137
 6146SOL    HW229901   1.604   1.316  12.978  0.0667 -1.0045  0.5094
 6147SOL     OW29902   4.408   1.361   5.712 -0.6164  0.2906 -0.6330
 6147SOL    HW129903   4.406   1.286   5.653 -0.4843  0.0166 -0.2887
 6147SOL    HW229904   4.501   1.383   5.708 -0.3811 -0.2279  1.7659
 6148SOL     OW29905   4.146   1.214   9.640  0.1663 -0.1100  0.1886
 6148SOL    HW129906   4.069   1.263   9.610  0.0949  1.3066  2.6821
 6148SOL    HW229907   4.119   1.122   9.650 -1.6185  0.1347 -2.1316
 6149SOL     OW29908   0.063   1.488   4.233  0.6859  0.5894  0.3775
 6149SOL    HW129909   4.712   1.543   4.251 -1.8330 -2.1713 -1.8338
 6149SOL    HW229910   0.064   1.493   4.138  1.0313 -0.5268  0.3220
 6150SOL     OW29911   0.635   0.032   2.879 -0.0781 -0.5336 -0.1239
 6150SOL    HW129912   0.586   4.710   2.812  1.3718 -0.6786 -1.0592
 6150SOL    HW229913   0.580   0.019   2.957 -0.8365  0.5396 -0.4707
 6151SOL     OW29914   3.557   1.963   4.760 -0.0509 -0.4089  0.5819
 6151SOL    HW129915   3.595   1.899   4.820  1.6809  0.5597  0.5325
 6151SOL    HW229916   3.513   2.029   4.814  1.2126  1.2115 -0.3689
 6152SOL     OW29917   1.405   3.645   7.866 -0.1047  0.0757 -0.9191
 6152SOL    HW129918   1.418   3.663   7.773 -1.2485  1.8641 -0.7225
 6152SOL    HW229919   1.496   3.648   7.897  0.0481  0.3820 -1.4086
 6153SOL     OW29920   4.608   1.873   4.428 -0.0773 -0.1368  0.0493
 6153SOL    HW129921   4.532   1.833   4.469  0.1922 -1.1584 -0.4462
 6153SOL    HW229922   4.583   1.965   4.419 -1.1426 -0.3898  0.4741
 6154SOL     OW29923   4.553   1.467   7.193  0.1727 -0.1075 -0.3726
 6154SOL    HW129924   4.530   1.460   7.286 -0.5345 -1.9459 -0.6866
 6154SOL    HW229925   4.492   1.408   7.149 -0.4789  0.5065 -0.3047
 6155SOL     OW29926   0.783   0.852  12.608  0.2454 -0.6688 -0.4243
 6155SOL    HW129927   0.839   0.844  12.531 -1.4776  3.5454 -2.1226
 6155SOL    HW229928   0.839   0.815  12.675  1.8214  0.5175 -1.0917
 6156SOL     OW29929   4.088   0.819   6.084  0.0566  0.0795 -0.3671
 6156SOL    HW129930   4.010   0.779   6.122  1.2003 -0.9284  0.8949
 6156SOL    HW229931   4.153   0.754   6.111 -2.0747 -1.5086  0.9636
 6157SOL     OW29932   4.166   0.567  10.454  0.1375 -0.1454 -0.1022
 6157SOL    HW129933   4.165   0.609  10.540 -1.7241 -1.0688  0.3203
 6157SOL    HW229934   4.250   0.522  10.457 -0.3528 -1.0047  1.0058
 6158SOL     OW29935   4.114   3.543   6.842  0.3169 -0.2345  0.1845
 6158SOL    HW129936   4.042   3.543   6.778 -1.4617 -0.8855  2.1933
 6158SOL    HW229937   4.128   3.635   6.861 -1.7614  0.8133 -3.1836
 6159SOL     OW29938   3.877   4.589  11.894 -0.5347  0.0302  0.6927
 6159SOL    HW129939   3.918   4.532  11.959  2.1928  0.0322 -1.0464
 6159SOL    HW229940   3.935   4.665  11.891 -2.4634  1.5050  0.5244
 6160SOL     OW29941   3.918   3.494   6.657 -0.4946  0.1426 -0.2419
 6160SOL    HW129942   3.930   3.399   6.662  0.0921  0.2077 -0.3633
 6160SOL    HW229943   3.835   3.499   6.704 -0.4442  0.2780 -0.1683
 6161SOL     OW29944   2.678   4.372   3.661 -0.4977 -0.0863 -0.1586
 6161SOL    HW129945   2.670   4.461   3.695  2.4186 -0.4369  1.4392
 6161SOL    HW229946   2.701   4.398   3.572  1.3109 -1.6550 -0.1261
 6162SOL     OW29947   1.370   0.425   4.637  0.5610 -0.8399 -0.1704
 6162SOL    HW129948   1.420   0.459   4.563 -1.1136 -1.4072 -1.5599
 6162SOL    HW229949   1.433   0.424   4.709  0.3345 -0.4800  0.0367
 6163SOL     OW29950   4.306   2.025   8.127  0.2593 -0.1605  0.2849
 6163SOL    HW129951   4.385   2.027   8.181 -0.4911 -0.6377  1.4005
 6163SOL    HW229952   4.312   2.112   8.089 -0.4995  0.7786  2.3580
 6164SOL     OW29953   0.986   0.413  17.465 -0.2966  0.0757  0.4660
 6164SOL    HW129954   1.005   0.325  17.435 -0.3974  0.3231 -0.3487
 6164SOL    HW229955   0.911   0.396  17.522  0.5443 -1.5412  1.0635
 6165SOL     OW29956   4.260   3.658  11.916  0.1307 -0.3860 -0.3854
 6165SOL    HW129957   4.214   3.735  11.880  0.8742  0.0890 -0.3154
 6165SOL    HW229958   4.340   3.656  11.864  2.0818 -0.2889  2.5892
 6166SOL     OW29959   3.014   4.213   6.557 -0.1481  0.2579 -0.1388
 6166SOL    HW129960   2.985   4.154   6.626  1.5986  0.2059  0.5429
 6166SOL    HW229961   2.984   4.296   6.594 -0.2086 -1.8889  4.5827
 6167SOL     OW29962   2.713   0.500   8.160  0.4107  0.3590  0.0771
 6167SOL    HW129963   2.751   0.549   8.087  0.8905  0.0800  0.1390
 6167SOL    HW229964   2.765   0.519   8.239  2.0740  0.1926 -0.9778
 6168SOL     OW29965   1.164   0.686  16.975  0.4543  0.1058  0.3736
 6168SOL    HW129966   1.159   0.632  16.896  0.6422  1.1761 -0.3680
 6168SOL    HW229967   1.100   0.641  17.029 -1.1363 -0.8592 -2.3392
 6169SOL     OW29968   0.760   3.948   4.142 -0.0904  0.4262  0.6292
 6169SOL    HW129969   0.799   4.030   4.113  1.3368 -0.0836  1.0786
 6169SOL    HW229970   0.760   3.906   4.056 -0.6578  0.7187  0.4844
 6170SOL     OW29971   4.329   2.347  12.613  0.3476  0.1488 -0.1282
 6170SOL    HW129972   4.239   2.379  12.606  0.5472  0.5604 -0.8752
 6170SOL    HW229973   4.330   2.289  12.536  0.1528  0.9178 -0.7091
 6171SOL     OW29974   3.192   2.198   4.768 -0.2362 -0.3494  0.4359
 6171SOL    HW129975   3.145   2.236   4.694  1.1682  0.8893  0.1958
 6171SOL    HW229976   3.145   2.224   4.847  0.5968  3.9327 -0.4935
 6172SOL     OW29977   1.364   1.594  12.821 -0.0718  0.5531 -0.2432
 6172SOL    HW129978   1.360   1.576  12.915  1.6187 -1.1378 -0.4836
 6172SOL    HW229979   1.317   1.676  12.808 -0.6507 -0.3160 -3.5753
 6173SOL     OW29980   0.911   1.558   5.529 -0.0694 -0.0361 -0.2567
 6173SOL    HW129981   0.872   1.514   5.454  1.5693  2.2337 -2.4585
 6173SOL    HW229982   0.908   1.488   5.594  0.5627  0.0590 -0.1219
 6174SOL     OW29983   2.430   0.391   6.324 -0.1223 -0.7144  0.0234
 6174SOL    HW129984   2.368   0.361   6.390 -1.4741 -0.5919 -1.1817
 6174SOL    HW229985   2.503   0.331   6.337  2.5823  2.1656 -1.8487
 6175SOL     OW29986   3.102   1.477   9.409 -0.0102 -0.0721  0.2952
 6175SOL    HW129987   3.078   1.541   9.342  0.4291  0.0298  0.2385
 6175SOL    HW229988   3.151   1.530   9.471  0.2060  1.3506 -1.0724
 6176SOL     OW29989   3.802   0.592  10.708  0.4963  0.5139 -0.0037
 6176SOL    HW129990   3.805   0.663  10.644 -0.6013  0.0761 -0.5367
 6176SOL    HW229991   3.724   0.545  10.677  0.7398  2.0560 -3.0009
 6177SOL     OW29992   1.566   3.001   2.619  0.6032  0.6308  0.1029
 6177SOL    HW129993   1.654   3.030   2.595  0.6877 -0.5965 -1.0378
 6177SOL    HW229994   1.534   2.973   2.533  0.4084  2.4576 -0.4217
 6178SOL     OW29995   2.727   3.702   4.419 -0.0583 -0.3324  0.0831
 6178SOL    HW129996   2.794   3.651   4.465 -0.6377 -1.4436 -0.3078
 6178SOL    HW229997   2.738   3.678   4.327 -0.6210  1.2525 -0.3863
 6179SOL     OW29998   2.013   0.410   7.759 -0.0188  0.7783  0.3808
 6179SOL    HW129999   2.092   0.412   7.812 -0.0701  0.6908  0.4610
 6179SOL    HW230000   1.955   0.349   7.805  1.0591  1.0450  2.0996
 6180SOL     OW30001   2.003   0.954   9.382 -0.5585  0.2730 -0.0325
 6180SOL    HW130002   2.013   0.873   9.332  0.0266 -0.3024  1.0115
 6180SOL    HW230003   1.909   0.950   9.400 -0.5900  1.7946  0.1321
 6181SOL     OW30004   4.313   0.635   7.451  0.0282  0.0864  0.0502
 6181SOL    HW130005   4.375   0.581   7.501 -2.7377 -0.4350  2.9309
 6181SOL    HW230006   4.242   0.571   7.441 -2.4053  3.2305 -2.9086
 6182SOL     OW30007   4.537   2.913   7.010 -0.6098  0.5900 -0.0659
 6182SOL    HW130008   4.465   2.936   6.952 -0.9106  1.8506  0.7925
 6182SOL    HW230009   4.528   2.990   7.066  0.3910  1.7512 -1.4784
 6183SOL     OW30010   3.682   0.669   5.406  0.0243  0.2394  0.0521
 6183SOL    HW130011   3.633   0.675   5.324  0.0499 -1.2341 -0.0565
 6183SOL    HW230012   3.669   0.576   5.420  1.1955  0.1530  0.6010
 6184SOL     OW30013   1.371   4.110   7.074 -0.1817 -0.5415  0.1767
 6184SOL    HW130014   1.420   4.192   7.069 -0.5745 -0.1216  2.8710
 6184SOL    HW230015   1.313   4.147   7.141 -1.1369  0.1198 -1.0108
 6185SOL     OW30016   4.340   3.326   1.176  0.5709  0.1315  0.1486
 6185SOL    HW130017   4.260   3.330   1.229  0.4252 -2.3290  0.1401
 6185SOL    HW230018   4.403   3.364   1.237  1.8211 -1.6666 -0.0279
 6186SOL     OW30019   1.622   4.164   3.148 -0.7375  0.2049  0.1077
 6186SOL    HW130020   1.538   4.150   3.192 -0.7997 -1.6427 -0.6256
 6186SOL    HW230021   1.656   4.076   3.137  0.8192  1.1419 -2.6203
 6187SOL     OW30022   3.338   0.680   0.660  0.2116 -0.3596  0.3643
 6187SOL    HW130023   3.406   0.728   0.707 -0.3852 -0.2047  1.0547
 6187SOL    HW230024   3.286   0.630   0.722 -0.9823  1.5971  0.9282
 6188SOL     OW30025   0.521   4.651   0.840 -0.1795 -0.3162 -0.7495
 6188SOL    HW130026   0.505   4.624   0.930  2.7080  2.3369  0.5246
 6188SOL    HW230027   0.499   0.018   0.842 -2.1749 -0.8548  1.9042
 6189SOL     OW30028   1.869   3.936   3.216 -0.3388  0.3296  0.2899
 6189SOL    HW130029   1.953   3.970   3.184  0.5053 -2.0506 -0.0393
 6189SOL    HW230030   1.854   3.995   3.289  0.1659  0.1617  0.5291
 6190SOL     OW30031   1.525   0.133   9.183 -0.0830 -0.1267 -0.0332
 6190SOL    HW130032   1.555   0.166   9.098  0.9373 -0.2989  0.2520
 6190SOL    HW230033   1.613   0.132   9.222 -0.4367  1.9065  0.7665
 6191SOL     OW30034   1.105   2.149   1.757 -0.2693 -0.3734 -0.0216
 6191SOL    HW130035   1.122   2.056   1.766 -1.7222 -0.7150 -0.7147
 6191SOL    HW230036   1.162   2.170   1.683  0.9505 -1.9679  0.4810
 6192SOL     OW30037   0.707   1.471   2.830  0.3858  0.0455 -0.0907
 6192SOL    HW130038   0.662   1.521   2.762 -0.6909 -2.4199 -1.2027
 6192SOL    HW230039   0.657   1.509   2.901 -0.0988 -0.3068 -0.2423
 6193SOL     OW30040   2.025   2.303   5.876 -0.6537 -0.2874 -0.2151
 6193SOL    HW130041   1.961   2.231   5.875 -0.6302 -0.3043 -0.3998
 6193SOL    HW230042   2.064   2.279   5.960  0.1258 -0.4086 -0.6192
 6194SOL     OW30043   4.700   2.095   4.740 -0.7421 -0.4133  0.7167
 6194SOL    HW130044   0.009   2.069   4.825  0.3144  0.0306  0.4149
 6194SOL    HW230045   4.612   2.058   4.747  0.4353 -3.6573 -1.3091
 6195SOL     OW30046   2.685   3.917   3.162 -0.0523 -0.1616 -0.3907
 6195SOL    HW130047   2.628   3.993   3.156 -0.0254 -0.3462 -2.9649
 6195SOL    HW230048   2.767   3.949   3.123 -0.3854  2.6812  1.2748
 6196SOL     OW30049   2.126   1.116   3.709 -0.0119 -0.0458 -0.3532
 6196SOL    HW130050   2.107   1.195   3.659 -1.3349  0.1086  0.3876
 6196SOL    HW230051   2.175   1.135   3.788  0.4683 -0.0140 -0.6553
 6197SOL     OW30052   4.193   0.423   6.025  0.0320 -0.0407  0.2030
 6197SOL    HW130053   4.231   0.501   6.066  1.6136  0.9387 -3.1773
 6197SOL    HW230054   4.120   0.409   6.086 -0.8982 -0.8267 -1.0805
 6198SOL     OW30055   4.527   3.675   3.160  0.2778  0.3276 -0.2429
 6198SOL    HW130056   4.442   3.650   3.124  0.5688 -1.1946  0.1274
 6198SOL    HW230057   4.502   3.740   3.225 -0.5504 -0.0235 -0.2107
 6199SOL     OW30058   0.373   3.360   1.831  0.2202 -0.1252 -0.3888
 6199SOL    HW130059   0.365   3.343   1.925 -0.5631 -0.9905 -0.6078
 6199SOL    HW230060   0.322   3.440   1.820  1.0189  0.7670  2.5684
 6200SOL     OW30061   1.004   4.552   5.682  0.2144 -0.2412  0.5514
 6200SOL    HW130062   0.949   4.494   5.629 -2.4337  0.2868  2.7250
 6200SOL    HW230063   0.946   4.596   5.744 -0.0310  0.4776 -0.1809
 6201SOL     OW30064   3.090   0.544  16.168 -0.0715 -0.1477  0.1168
 6201SOL    HW130065   3.087   0.631  16.209 -3.4851 -0.2004 -0.0224
 6201SOL    HW230066   3.137   0.572  16.090 -1.4130  0.3910 -0.5002
 6202SOL     OW30067   1.788   0.814   0.880  0.3082  0.1224  0.0245
 6202SOL    HW130068   1.720   0.776   0.825  0.8210 -2.4542  1.1716
 6202SOL    HW230069   1.736   0.832   0.958  0.5291 -0.6205  0.3429
 6203SOL     OW30070   0.331   2.503  13.594 -0.5707 -0.4001 -0.8040
 6203SOL    HW130071   0.378   2.531  13.515  1.7674  1.1013  1.1061
 6203SOL    HW230072   0.292   2.585  13.626 -1.2777 -0.4864 -1.4426
 6204SOL     OW30073   1.769   0.382   8.368  0.4349  0.0318 -0.0454
 6204SOL    HW130074   1.828   0.307   8.358  0.0997 -0.2681  0.1795
 6204SOL    HW230075   1.760   0.421   8.281 -2.7297 -0.3278  0.0918
 6205SOL     OW30076   0.769   2.927  17.466 -0.3266 -0.0522  0.3042
 6205SOL    HW130077   0.719   3.001  17.431  1.3985  0.4629 -1.0450
 6205SOL    HW230078   0.853   2.945  17.424 -1.0414 -0.0872 -1.1406
 6206SOL     OW30079   0.502   0.725   5.335 -0.1593  0.5493  0.0912
 6206SOL    HW130080   0.594   0.716   5.312 -0.1729  1.6909 -0.4530
 6206SOL    HW230081   0.465   0.673   5.264 -3.1597  0.1688  1.9388
 6207SOL     OW30082   0.557   3.946   3.773 -0.0675 -0.7680  0.1521
 6207SOL    HW130083   0.565   3.952   3.677 -0.5479  0.6626  0.2111
 6207SOL    HW230084   0.646   3.917   3.795  0.0903 -1.0093 -0.7838
 6208SOL     OW30085   2.100   3.813   8.181  0.5323  0.4767 -0.9651
 6208SOL    HW130086   2.150   3.809   8.100 -0.1289 -1.5980 -1.2665
 6208SOL    HW230087   2.158   3.870   8.233 -0.8961  1.4275 -0.3963
 6209SOL     OW30088   0.939   1.697   6.554  0.0063 -0.2668 -0.0196
 6209SOL    HW130089   0.871   1.722   6.616 -0.0896 -0.6386  0.0296
 6209SOL    HW230090   0.906   1.610   6.531  1.1069 -0.6514 -0.1650
 6210SOL     OW30091   0.389   4.179   1.960 -0.6861 -0.5176 -0.3902
 6210SOL    HW130092   0.444   4.127   2.019 -0.4095  2.8951  2.3449
 6210SOL    HW230093   0.316   4.118   1.949 -1.0649  0.0881 -1.2328
 6211SOL     OW30094   2.691   1.290  14.033 -0.1357 -0.2601  0.3464
 6211SOL    HW130095   2.636   1.367  14.024 -0.6344 -0.5429  0.9886
 6211SOL    HW230096   2.733   1.282  13.948 -0.0220 -1.3192  0.5034
 6212SOL     OW30097   2.002   0.190  16.170 -0.2866  0.3562 -0.1044
 6212SOL    HW130098   1.930   0.224  16.118 -1.8332 -3.0389 -0.1278
 6212SOL    HW230099   1.993   0.244  16.249 -2.1050  0.3755 -0.3313
 6213SOL     OW30100   3.575   0.076   7.708  0.3683 -0.3104 -0.1961
 6213SOL    HW130101   3.545   0.137   7.775  0.7107 -0.9013  0.4884
 6213SOL    HW230102   3.670   0.088   7.702  0.2114  0.4649 -1.1948
 6214SOL     OW30103   1.243   3.523   6.272  0.1433  0.3490  0.2491
 6214SOL    HW130104   1.186   3.598   6.256 -1.6753 -1.2209 -0.5094
 6214SOL    HW230105   1.210   3.480   6.351  2.0010 -0.3850  0.6420
 6215SOL     OW30106   4.608   0.064  13.551  0.0283  0.0549  0.3419
 6215SOL    HW130107   4.539   0.033  13.610  0.6719 -1.3855  0.3165
 6215SOL    HW230108   4.625   4.707  13.507 -3.1648 -1.7773  2.5850
 6216SOL     OW30109   2.376   4.309   2.265 -0.2821 -0.2858  0.0323
 6216SOL    HW130110   2.285   4.321   2.292 -0.6359 -1.7148 -0.5200
 6216SOL    HW230111   2.430   4.325   2.342  0.8246 -1.6514 -0.4593
 6217SOL     OW30112   1.219   1.520   9.366 -0.3871 -0.5104 -0.7547
 6217SOL    HW130113   1.155   1.511   9.295 -2.0583  0.5691  0.6360
 6217SOL    HW230114   1.177   1.586   9.420 -2.0499  0.0124 -2.6520
 6218SOL     OW30115   0.064   0.360   5.668 -0.2079 -0.6118 -0.6725
 6218SOL    HW130116   0.150   0.319   5.675  0.3978  0.9936  1.4237
 6218SOL    HW230117   0.058   0.403   5.753 -0.9377  1.0153 -1.5580
 6219SOL     OW30118   1.794   0.099  10.883  0.4578 -0.5389 -0.6960
 6219SOL    HW130119   1.733   0.096  10.808  1.9042  1.5904 -1.9605
 6219SOL    HW230120   1.806   0.194  10.875 -0.8363 -0.1396  2.0244
 6220SOL     OW30121   4.389   1.849  15.872  0.0887  0.4813 -0.0412
 6220SOL    HW130122   4.337   1.847  15.791  1.9238  2.7472 -1.2643
 6220SOL    HW230123   4.481   1.864  15.851  0.4565  0.7291  1.7429
 6221SOL     OW30124   1.578   0.134   2.767  0.3396  0.1096  0.6023
 6221SOL    HW130125   1.565   0.072   2.695 -1.9756  2.2719 -0.8379
 6221SOL    HW230126   1.491   0.136   2.807 -1.0752  1.7953 -2.5482
 6222SOL     OW30127   2.039   4.460   5.995 -0.5794 -0.2945 -0.8843
 6222SOL    HW130128   1.970   4.456   5.929 -1.5113 -0.9371  0.1373
 6222SOL    HW230129   2.028   4.365   6.006  0.4263 -0.2504  0.4462
 6223SOL     OW30130   2.094   2.012   4.092  0.2299  0.0128 -0.6364
 6223SOL    HW130131   2.056   2.092   4.058 -0.5115  0.1368  0.4758
 6223SOL    HW230132   2.188   2.020   4.076  0.3274  3.0676  1.4612
 6224SOL     OW30133   4.368   0.256   6.370  0.8488  0.5125 -0.1465
 6224SOL    HW130134   4.387   0.338   6.324  1.0151  0.4654 -0.1623
 6224SOL    HW230135   4.401   0.192   6.308  2.2708  0.0594  1.0793
 6225SOL     OW30136   4.611   3.968  10.854  0.0758  0.8005 -0.1760
 6225SOL    HW130137   4.518   3.982  10.835 -0.8196 -2.6312  1.7040
 6225SOL    HW230138   4.614   3.996  10.945 -1.4640  0.5807 -0.0619
 6226SOL     OW30139   0.828   0.592   6.793 -0.3191  0.3108  0.3571
 6226SOL    HW130140   0.879   0.639   6.728  0.1788  1.3671  1.5208
 6226SOL    HW230141   0.800   0.524   6.732  3.7292 -1.7859  0.8602
 6227SOL     OW30142   4.627   1.010  14.344 -0.0741 -0.2715 -0.2380
 6227SOL    HW130143   4.574   1.045  14.273 -1.8496  2.1429  2.2536
 6227SOL    HW230144   4.668   0.935  14.301 -1.5886 -1.4530  0.3724
 6228SOL     OW30145   4.716   0.069   6.513 -0.2718  0.2768  0.3147
 6228SOL    HW130146   4.631   0.113   6.522 -0.4981  0.6571 -3.5715
 6228SOL    HW230147   0.039   0.143   6.478 -0.8828  0.6424  0.2440
 6229SOL     OW30148   4.202   3.500  16.140  0.4953 -0.0411 -0.4971
 6229SOL    HW130149   4.267   3.469  16.203  1.1759  1.6146 -0.3641
 6229SOL    HW230150   4.118   3.468  16.172  1.3237 -0.6842  1.0382
 6230SOL     OW30151   2.271   3.114  15.257  0.5032 -0.1410  0.0051
 6230SOL    HW130152   2.324   3.041  15.225 -0.1015 -0.4549 -0.2720
 6230SOL    HW230153   2.207   3.074  15.316  1.8702 -2.2411  0.0734
 6231SOL     OW30154   0.455   2.309   6.127  0.6467  0.2633 -0.1231
 6231SOL    HW130155   0.409   2.282   6.207 -0.0058 -0.8236 -0.8574
 6231SOL    HW230156   0.391   2.370   6.089 -1.0520 -0.5481  1.3968
 6232SOL     OW30157   2.267   2.131  16.996 -0.6271 -0.2285 -0.1424
 6232SOL    HW130158   2.358   2.158  17.008 -1.0949  1.2262  0.1600
 6232SOL    HW230159   2.235   2.195  16.932  0.9216 -0.0185 -0.6947
 6233SOL     OW30160   0.012   4.007   2.721  0.2473 -0.2307  0.0041
 6233SOL    HW130161   0.095   4.017   2.674  0.5034  1.5684  0.8329
 6233SOL    HW230162   0.040   4.038   2.807 -2.1200 -0.2964  0.7946
 6234SOL     OW30163   4.600   3.873  14.870  0.2523 -0.0347 -0.0414
 6234SOL    HW130164   4.556   3.946  14.826 -1.1744 -0.0444  1.4144
 6234SOL    HW230165   4.675   3.880  14.810 -0.3841 -0.8371 -0.9375
 6235SOL     OW30166   3.460   3.715   4.997  0.1291  0.1990  0.2479
 6235SOL    HW130167   3.513   3.636   5.006  0.1791  0.3701  1.4280
 6235SOL    HW230168   3.471   3.740   4.905 -1.3397 -0.7315 -0.1858
 6236SOL     OW30169   4.050   3.548  16.937  0.2184  0.2151 -0.1060
 6236SOL    HW130170   4.021   3.457  16.945 -1.1151  0.6729  0.2878
 6236SOL    HW230171   3.976   3.598  16.972  0.4139  0.7318 -0.4201
 6237SOL     OW30172   2.293   4.255   4.437  0.3205 -0.7242  0.3956
 6237SOL    HW130173   2.382   4.220   4.430  1.3658  2.2752 -1.0405
 6237SOL    HW230174   2.302   4.338   4.391  1.4152 -1.5542 -0.8618
 6238SOL     OW30175   0.117   3.676   3.419 -1.0569 -0.8202  0.1558
 6238SOL    HW130176   0.092   3.766   3.399 -0.2292 -0.7715 -0.6594
 6238SOL    HW230177   0.039   3.622   3.431 -1.6017  0.0716  0.6067
 6239SOL     OW30178   1.201   3.341   5.745  0.4733 -0.0890  0.5498
 6239SOL    HW130179   1.227   3.399   5.816 -1.6659  0.8264  0.5873
 6239SOL    HW230180   1.221   3.265   5.800  1.1296 -0.5408 -0.3134
 6240SOL     OW30181   1.536   0.408   4.844 -0.2326  0.1171 -0.3964
 6240SOL    HW130182   1.621   0.452   4.836 -1.0917  1.4262 -2.2834
 6240SOL    HW230183   1.514   0.449   4.928 -1.0924 -1.9195  0.3566
 6241SOL     OW30184   0.729   0.321   1.934 -0.9382  0.5025 -0.2510
 6241SOL    HW130185   0.811   0.324   1.983 -0.9636 -1.3376 -0.1042
 6241SOL    HW230186   0.663   0.352   1.997 -0.2566  0.8359  0.3109
 6242SOL     OW30187   1.110   3.528   5.290 -0.1541  0.3608 -0.3078
 6242SOL    HW130188   1.189   3.538   5.343 -1.3360  3.0972  0.9599
 6242SOL    HW230189   1.062   3.450   5.316 -2.0603  2.3780  2.2182
 6243SOL     OW30190   3.656   1.808   4.397  0.1611  0.4712 -0.5107
 6243SOL    HW130191   3.642   1.880   4.458  0.9845 -0.2024  0.4864
 6243SOL    HW230192   3.679   1.743   4.463  0.5480  0.1454 -0.9581
 6244SOL     OW30193   1.325   0.167   2.858  0.5354 -0.1043  0.2048
 6244SOL    HW130194   1.314   0.262   2.865  2.4313 -0.0039  1.8099
 6244SOL    HW230195   1.233   0.141   2.859  0.5583 -0.1795  0.3663
 6245SOL     OW30196   4.241   0.037   9.821 -0.4865  0.1059 -0.4013
 6245SOL    HW130197   4.195   4.683   9.847 -1.0767  0.1676 -1.2586
 6245SOL    HW230198   4.220   0.089   9.899 -0.8241  0.4293 -0.7077
 6246SOL     OW30199   4.357   4.500   5.878  0.0982 -0.1012 -0.2255
 6246SOL    HW130200   4.298   4.556   5.928 -0.3704  0.5883 -1.5418
 6246SOL    HW230201   4.298   4.449   5.823 -0.2117 -1.3287  1.2472
 6247SOL     OW30202   4.096   1.851   5.312 -0.1494  0.5426  0.3954
 6247SOL    HW130203   4.090   1.815   5.401  2.0563 -1.4510 -0.2392
 6247SOL    HW230204   4.066   1.942   5.317 -0.1453  0.4843  1.4544
 6248SOL     OW30205   1.969   2.037   4.958 -0.5073  0.1684 -0.1421
 6248SOL    HW130206   1.927   2.008   5.039 -1.9902  0.9615 -0.6139
 6248SOL    HW230207   2.049   1.985   4.955  0.3643  1.5241 -0.5188
 6249SOL     OW30208   4.636   2.045   1.821  0.6020  0.2598 -0.0946
 6249SOL    HW130209   4.712   2.006   1.778 -0.4204 -2.7250  0.8725
 6249SOL    HW230210   4.566   2.020   1.760  1.5176 -1.7564 -0.2865
 6250SOL     OW30211   0.419   2.109   2.890 -0.4693 -0.3880 -0.4796
 6250SOL    HW130212   0.331   2.136   2.863 -1.6608 -1.1007  2.8110
 6250SOL    HW230213   0.458   2.196   2.900  0.3701 -0.6054 -1.8398
 6251SOL     OW30214   0.142   0.413  17.578  0.5793 -0.3074 -0.0482
 6251SOL    HW130215   0.175   0.375  17.497 -2.7838 -0.1628 -1.4791
 6251SOL    HW230216   0.194   0.493  17.585  0.6468 -0.3678  0.1447
 6252SOL     OW30217   0.840   2.070   0.935  0.2367 -0.0009  0.2535
 6252SOL    HW130218   0.775   2.017   0.890 -0.6184  1.6513 -0.4390
 6252SOL    HW230219   0.862   2.132   0.866 -0.2586  0.1912  0.2703
 6253SOL     OW30220   3.931   3.011   9.248 -0.5994  0.0424 -0.1611
 6253SOL    HW130221   3.910   2.984   9.337  1.1339 -0.7980 -0.0130
 6253SOL    HW230222   3.892   3.098   9.258 -2.6666 -1.1138  1.7448
 6254SOL     OW30223   3.980   2.300   6.474  0.3382 -0.3445  0.5221
 6254SOL    HW130224   4.011   2.210   6.465  2.7038  0.4180  0.9288
 6254SOL    HW230225   3.885   2.292   6.464  0.3086  1.1750 -0.3936
 6255SOL     OW30226   0.640   0.367  17.037  0.1472 -0.7338  0.5235
 6255SOL    HW130227   0.733   0.354  17.020  0.6538  0.5483  2.3294
 6255SOL    HW230228   0.626   0.337  17.127 -1.8942  0.1950  0.5053
 6256SOL     OW30229   1.732   0.559   6.757  0.7755  0.0661 -0.0653
 6256SOL    HW130230   1.666   0.547   6.688  1.0065 -4.5409  0.5698
 6256SOL    HW230231   1.724   0.649   6.791 -0.6256 -1.0074  2.4532
 6257SOL     OW30232   0.884   3.034   4.735  0.5874 -0.1163 -0.2740
 6257SOL    HW130233   0.949   3.057   4.802  0.8725  1.1927 -1.0075
 6257SOL    HW230234   0.899   3.102   4.669 -1.3566  0.9561  0.4102
 6258SOL     OW30235   4.180   1.489  14.812 -0.3757 -0.7791  0.0530
 6258SOL    HW130236   4.099   1.522  14.851 -0.8315 -0.4849 -1.1516
 6258SOL    HW230237   4.199   1.424  14.879 -2.2043 -0.3411  0.9782
 6259SOL     OW30238   2.567   1.398  13.452  0.1498  0.4078  0.2331
 6259SOL    HW130239   2.495   1.450  13.416 -0.7661 -1.7872 -1.1116
 6259SOL    HW230240   2.535   1.384  13.541 -1.8033  0.9806 -0.3738
 6260SOL     OW30241   0.389   2.286  13.937  0.5622  0.1051  0.2780
 6260SOL    HW130242   0.323   2.331  13.989 -1.1955 -1.5656 -0.4954
 6260SOL    HW230243   0.352   2.287  13.849 -0.9831 -1.5345  0.9149
 6261SOL     OW30244   4.454   3.444   3.588 -0.3844  0.1238  0.3627
 6261SOL    HW130245   4.504   3.427   3.668  0.2162  1.5828  0.3030
 6261SOL    HW230246   4.365   3.443   3.622 -1.2839 -0.5162 -1.9913
 6262SOL     OW30247   0.876   1.840   1.971 -0.1962 -0.1476  0.3547
 6262SOL    HW130248   0.869   1.915   2.030 -0.1185 -0.8252  1.2225
 6262SOL    HW230249   0.969   1.834   1.989  0.0751  2.4027 -0.2703
 6263SOL     OW30250   0.155   2.581   5.159  0.0245 -0.6154  0.4140
 6263SOL    HW130251   0.095   2.615   5.093  1.9542 -2.7821 -2.4286
 6263SOL    HW230252   0.198   2.504   5.122  0.7732  1.5574 -3.2421
 6264SOL     OW30253   3.656   3.949  11.337  0.4327 -0.4346 -0.1044
 6264SOL    HW130254   3.611   3.914  11.260 -0.0958  1.7530 -0.7800
 6264SOL    HW230255   3.734   3.894  11.328 -0.3807 -1.8335  1.1952
 6265SOL     OW30256   2.386   1.353   6.255 -0.1521  1.1174 -0.0662
 6265SOL    HW130257   2.419   1.350   6.165  0.7788  1.0172  0.2784
 6265SOL    HW230258   2.302   1.311   6.235  0.7217 -0.1736 -0.9918
 6266SOL     OW30259   0.673   0.045   4.662  0.0146  0.3258 -0.0167
 6266SOL    HW130260   0.727   4.701   4.624  1.3412  2.2023 -1.5828
 6266SOL    HW230261   0.586   0.005   4.663 -0.5061  1.5067  1.2532
 6267SOL     OW30262   2.145   3.096   8.367 -0.0103 -0.3976  0.7576
 6267SOL    HW130263   2.187   3.010   8.370  0.7600 -0.1107 -1.8074
 6267SOL    HW230264   2.061   3.084   8.411 -0.4304  2.7303  0.7785
 6268SOL     OW30265   1.859   4.154   5.290 -0.0694  0.3881 -0.3112
 6268SOL    HW130266   1.947   4.185   5.271  0.1090  0.3339  0.4301
 6268SOL    HW230267   1.844   4.111   5.206 -1.2886  0.6030 -0.2078
 6269SOL     OW30268   1.006   2.494   2.529 -0.3433  0.2572 -0.3957
 6269SOL    HW130269   0.999   2.512   2.435  1.1705  0.4413 -0.4709
 6269SOL    HW230270   0.939   2.557   2.556  1.7517  1.9512  0.9019
 6270SOL     OW30271   4.416   0.832   3.960  0.4047  0.0236 -0.1974
 6270SOL    HW130272   4.414   0.737   3.943 -2.9102  0.0034  0.2743
 6270SOL    HW230273   4.324   0.851   3.981  0.1292 -2.0673  0.4895
 6271SOL     OW30274   0.745   1.032   1.338  0.2756 -0.0465  0.1242
 6271SOL    HW130275   0.703   1.057   1.256 -1.9783 -1.1281  0.9400
 6271SOL    HW230276   0.834   1.065   1.331  0.6092 -0.7740  0.9637
 6272SOL     OW30277   2.452   0.947   9.622 -0.1071  0.1784  0.2429
 6272SOL    HW130278   2.517   1.014   9.644  1.1763 -1.3993  1.2830
 6272SOL    HW230279   2.419   0.921   9.708  0.3580 -0.3193  0.2660
 6273SOL     OW30280   1.691   3.233  11.896  0.1087 -0.0156 -0.8079
 6273SOL    HW130281   1.703   3.247  11.802  1.4807 -0.8783 -0.7565
 6273SOL    HW230282   1.743   3.156  11.916  0.9964  0.7956 -0.0508
 6274SOL     OW30283   0.506   0.459  14.335  0.4732  0.4474 -0.1693
 6274SOL    HW130284   0.464   0.503  14.409 -0.0178 -0.9369  0.3671
 6274SOL    HW230285   0.437   0.394  14.324 -1.3271  2.2615  0.4586
 6275SOL     OW30286   4.648   2.764   3.468 -0.4793 -0.0544 -0.2215
 6275SOL    HW130287   4.692   2.738   3.549 -0.7982 -0.0400 -0.0470
 6275SOL    HW230288   4.622   2.681   3.428  0.6477  0.0067 -1.0909
 6276SOL     OW30289   1.007   0.542  17.207  0.4371  0.2301 -0.2526
 6276SOL    HW130290   0.995   0.451  17.180 -0.2425  0.2049  0.1540
 6276SOL    HW230291   1.029   0.531  17.300  0.9279  1.6316 -0.2128
 6277SOL     OW30292   3.221   0.225  11.185 -0.3961 -0.2189 -0.2592
 6277SOL    HW130293   3.277   0.291  11.226 -1.3420 -1.2973  2.7797
 6277SOL    HW230294   3.148   0.277  11.153  0.2305 -0.9399 -2.7951
 6278SOL     OW30295   0.490   3.053   8.125 -0.1608  0.0966  0.1588
 6278SOL    HW130296   0.405   3.055   8.169 -0.6928 -0.1856 -0.8729
 6278SOL    HW230297   0.507   2.960   8.144 -1.7523 -0.3432 -0.6222
 6279SOL     OW30298   4.364   3.725   4.435 -0.2407  0.2978 -0.4628
 6279SOL    HW130299   4.378   3.815   4.466  1.6648 -0.1737  0.0415
 6279SOL    HW230300   4.275   3.732   4.400  0.3652 -1.3395 -2.2977
 6280SOL     OW30301   4.029   1.041   5.916 -0.2695  0.1173  0.0891
 6280SOL    HW130302   4.084   0.974   5.956 -2.2921 -2.4516 -1.3939
 6280SOL    HW230303   4.037   1.007   5.826  1.1603 -1.4495  0.8242
 6281SOL     OW30304   3.930   3.059  12.043  0.7642 -0.1567 -0.2573
 6281SOL    HW130305   3.940   3.086  12.134 -2.3703 -0.9956  0.3331
 6281SOL    HW230306   3.936   3.139  11.992 -1.3516 -0.3072 -0.7338
 6282SOL     OW30307   0.154   2.875   4.546  0.2288 -0.2553 -0.7534
 6282SOL    HW130308   0.092   2.867   4.618  0.1384 -1.2257 -0.9430
 6282SOL    HW230309   0.098   2.896   4.471 -4.2798 -0.2567  2.6544
 6283SOL     OW30310   2.809   2.408   2.732 -0.1271  0.3763  0.1230
 6283SOL    HW130311   2.882   2.410   2.670  0.1216  3.8925  0.5276
 6283SOL    HW230312   2.846   2.339   2.787 -0.8135  0.0905  0.2211
 6284SOL     OW30313   2.821   3.641   8.955  0.2715 -0.1169  0.6317
 6284SOL    HW130314   2.894   3.582   8.973  1.0826  1.0952  1.3499
 6284SOL    HW230315   2.775   3.639   9.039  0.8039  0.0198  0.9244
 6285SOL     OW30316   1.267   2.819   3.985  0.6473  0.6643 -0.3402
 6285SOL    HW130317   1.289   2.890   3.924 -2.3275  0.3557 -1.7583
 6285SOL    HW230318   1.193   2.784   3.936  0.9235  1.8720 -1.6574
 6286SOL     OW30319   2.991   4.432  15.990  0.2833 -0.3674  0.0326
 6286SOL    HW130320   3.002   4.337  15.990  1.0328 -0.2849 -0.9585
 6286SOL    HW230321   2.937   4.447  16.067 -1.4437  0.3609 -1.3015
 6287SOL     OW30322   0.354   0.720   0.479 -0.1420 -0.2062 -0.3097
 6287SOL    HW130323   0.288   0.786   0.457 -0.7932 -0.7346  0.0747
 6287SOL    HW230324   0.309   0.670   0.546  0.5039 -0.8775 -0.3705
 6288SOL     OW30325   3.504   2.239   2.534 -0.4489 -0.1649 -0.4295
 6288SOL    HW130326   3.417   2.199   2.538  0.7257 -2.6788  0.4463
 6288SOL    HW230327   3.512   2.295   2.611 -1.3175  0.1740 -0.5872
 6289SOL     OW30328   0.059   2.778   1.795 -0.3323  0.1670  0.3034
 6289SOL    HW130329   0.108   2.822   1.865  1.8444  0.7466 -1.5997
 6289SOL    HW230330   4.705   2.826   1.817 -1.8780 -1.2904 -2.1814
 6290SOL     OW30331   3.813   0.729   6.112  0.4020 -0.3074  0.3892
 6290SOL    HW130332   3.782   0.648   6.150 -0.2902 -0.7391 -1.0975
 6290SOL    HW230333   3.792   0.715   6.020  1.6619  1.1381 -0.1388
 6291SOL     OW30334   0.595   4.493   4.016  0.3520  0.0514  0.2984
 6291SOL    HW130335   0.688   4.516   4.021  0.5344 -0.1370 -2.0665
 6291SOL    HW230336   0.588   4.481   3.921 -1.3320  3.8023 -0.0629
 6292SOL     OW30337   3.207   3.174   2.296  0.2681 -0.2874 -0.0299
 6292SOL    HW130338   3.244   3.094   2.257 -0.8395 -0.2189 -1.2004
 6292SOL    HW230339   3.118   3.142   2.304 -0.5986  1.9392 -0.8662
 6293SOL     OW30340   3.883   1.202   3.860  0.3289  0.0656 -0.2003
 6293SOL    HW130341   3.804   1.156   3.831  0.6573 -0.1431 -0.7597
 6293SOL    HW230342   3.911   1.147   3.933 -1.2671 -0.5603 -0.0613
 6294SOL     OW30343   1.002   3.073   4.416 -0.2647  0.4395  0.1683
 6294SOL    HW130344   1.076   3.084   4.476 -0.7308  1.1931  0.6103
 6294SOL    HW230345   1.044   3.103   4.336  2.2883  1.2740  1.8161
 6295SOL     OW30346   1.096   3.830   2.795  0.2955 -0.6630  0.2945
 6295SOL    HW130347   1.010   3.869   2.808 -0.0915 -1.4970  0.1875
 6295SOL    HW230348   1.156   3.904   2.806 -1.3873  0.5596  1.2392
 6296SOL     OW30349   0.778   2.934   5.845  0.1916 -0.4403 -0.3732
 6296SOL    HW130350   0.790   2.850   5.889 -0.0355 -0.4962 -0.4177
 6296SOL    HW230351   0.866   2.967   5.861 -0.1091 -0.4347  1.2314
 6297SOL     OW30352   0.688   1.972   9.049  0.0363 -0.5752  0.0522
 6297SOL    HW130353   0.667   2.064   9.062  1.1943  0.3168 -4.5013
 6297SOL    HW230354   0.755   1.957   9.115 -0.0167 -2.0114 -0.2089
 6298SOL     OW30355   3.776   0.086  16.245 -0.2369  0.3018  0.0286
 6298SOL    HW130356   3.776   4.718  16.222 -2.1227  0.2718  0.2015
 6298SOL    HW230357   3.774   0.070  16.339  1.5277  2.2105  0.4006
 6299SOL     OW30358   2.530   1.944  11.651  0.8567  1.2298 -0.0677
 6299SOL    HW130359   2.504   2.012  11.588 -0.8715  1.2087  0.6308
 6299SOL    HW230360   2.539   2.006  11.724  0.3987 -0.5116  1.4544
 6300SOL     OW30361   1.574   1.715   4.762  0.2293  0.5862 -0.0917
 6300SOL    HW130362   1.482   1.708   4.738  0.1061 -1.2401  0.8807
 6300SOL    HW230363   1.630   1.709   4.684 -0.2320  1.0171 -0.4524
 6301SOL     OW30364   2.059   4.550   2.716 -0.3424 -0.2429  0.5493
 6301SOL    HW130365   2.125   4.588   2.658 -1.5075  0.0127 -0.5960
 6301SOL    HW230366   2.016   4.497   2.648  0.6678 -0.8507  0.3832
 6302SOL     OW30367   1.989   2.585  14.594  0.5016  0.1212  0.2216
 6302SOL    HW130368   2.005   2.677  14.572 -0.0980 -0.5305 -2.8264
 6302SOL    HW230369   1.931   2.550  14.527 -1.6769  0.5635  1.8729
 6303SOL     OW30370   0.368   4.655   6.102  0.2884  0.0254 -1.1666
 6303SOL    HW130371   0.296   4.602   6.067  0.0796 -1.0633  0.9320
 6303SOL    HW230372   0.321   4.719   6.156  3.5273 -0.9435  2.7572
 6304SOL     OW30373   4.489   4.085   6.190 -0.0973 -0.4409 -0.0797
 6304SOL    HW130374   4.441   4.090   6.272  2.0638 -1.5131  1.2535
 6304SOL    HW230375   4.485   4.176   6.161 -2.4635 -0.2917  0.7322
 6305SOL     OW30376   2.030   3.108   6.542 -0.4186 -0.0776 -0.1265
 6305SOL    HW130377   2.124   3.124   6.541 -0.7743  1.6763 -2.7915
 6305SOL    HW230378   2.009   3.074   6.456  0.5001 -2.0781  0.4399
 6306SOL     OW30379   3.203   0.371   9.435 -0.4380 -0.5573 -0.7609
 6306SOL    HW130380   3.228   0.288   9.395 -0.6246 -0.5579 -0.8795
 6306SOL    HW230381   3.168   0.334   9.516  0.9687 -0.2705 -0.0376
 6307SOL     OW30382   2.151   4.263   3.541 -0.5909  0.2790 -0.2460
 6307SOL    HW130383   2.087   4.210   3.589  0.8064 -1.4579 -0.2890
 6307SOL    HW230384   2.222   4.252   3.605 -1.6342 -1.5319  0.6042
 6308SOL     OW30385   0.630   4.374   1.281 -0.0980 -0.0530  0.3647
 6308SOL    HW130386   0.705   4.343   1.331 -1.3537 -2.0436  1.0327
 6308SOL    HW230387   0.552   4.339   1.324 -1.6755  1.9321 -0.8216
 6309SOL     OW30388   2.791   0.852   3.232  0.3191 -0.7529  0.2973
 6309SOL    HW130389   2.826   0.933   3.195 -3.4992  1.8948  2.5173
 6309SOL    HW230390   2.829   0.789   3.170 -1.1934 -1.5136  0.1419
 6310SOL     OW30391   3.499   4.248   7.958 -0.0523  0.3814 -0.0719
 6310SOL    HW130392   3.559   4.322   7.948  0.9553 -0.4642 -0.2729
 6310SOL    HW230393   3.466   4.268   8.046 -0.5510 -1.5514  0.1610
 6311SOL     OW30394   1.446   3.159   7.247 -0.0396  0.3888 -0.2150
 6311SOL    HW130395   1.370   3.217   7.237 -0.2582 -0.1913 -1.9205
 6311SOL    HW230396   1.478   3.150   7.157 -0.8204  1.1815 -0.5741
 6312SOL     OW30397   1.694   0.819  12.570  0.0424 -0.1756 -0.3738
 6312SOL    HW130398   1.699   0.739  12.622  0.3489  1.2841  1.8270
 6312SOL    HW230399   1.746   0.790  12.495  1.6501 -2.0047  1.4745
 6313SOL     OW30400   2.452   2.724   8.069  0.0068  1.0585 -0.4120
 6313SOL    HW130401   2.363   2.758   8.060 -0.8873 -1.8710 -2.8227
 6313SOL    HW230402   2.439   2.630   8.079  0.8316  0.9596 -0.2742
 6314SOL     OW30403   0.953   0.447   5.757 -0.9194 -0.3519  0.1206
 6314SOL    HW130404   0.891   0.457   5.829 -2.5283 -3.1156 -0.8769
 6314SOL    HW230405   1.012   0.520   5.774 -1.1871 -0.2953  0.8069
 6315SOL     OW30406   4.491   0.797   2.288  0.1619  0.1658  0.5747
 6315SOL    HW130407   4.404   0.766   2.262 -0.2535  1.3053  0.5672
 6315SOL    HW230408   4.495   0.887   2.255  2.6003 -0.5076 -0.9432
 6316SOL     OW30409   3.366   3.745   1.600 -0.1982 -0.6739 -0.0261
 6316SOL    HW130410   3.427   3.745   1.526  0.8413 -1.1541  0.8226
 6316SOL    HW230411   3.400   3.667   1.644 -0.0700  0.0305  1.1245
 6317SOL     OW30412   1.526   0.104  12.942 -0.4464  0.0697 -0.1198
 6317SOL    HW130413   1.469   0.050  12.997  0.2837  0.9162  1.4878
 6317SOL    HW230414   1.602   0.056  12.977  0.4052 -0.4803 -2.7202
 6318SOL     OW30415   3.008   0.608   4.704  0.6354  0.1874  0.1220
 6318SOL    HW130416   3.070   0.673   4.673  1.4446 -0.6660 -0.0479
 6318SOL    HW230417   3.050   0.528   4.673 -1.3330 -0.5076 -0.7505
 6319SOL     OW30418   3.071   3.150  14.267  0.1587  0.1199 -0.0772
 6319SOL    HW130419   3.009   3.212  14.228 -1.6471 -1.5492  0.1699
 6319SOL    HW230420   3.013   3.075  14.264  1.4719 -0.7844 -2.5879
 6320SOL     OW30421   4.099   1.046   6.979 -0.1162  0.2482  0.9144
 6320SOL    HW130422   4.123   1.139   6.976  2.4711 -0.4621 -0.7929
 6320SOL    HW230423   4.119   1.023   7.070 -0.3477 -0.3486  0.8115
 6321SOL     OW30424   3.959   1.199  11.601  0.3821 -0.1274  0.3921
 6321SOL    HW130425   3.918   1.258  11.664 -1.3212 -0.5937 -0.2586
 6321SOL    HW230426   3.939   1.243  11.518 -0.7362  3.0719  2.3376
 6322SOL     OW30427   4.076   4.678  16.871  0.2520  0.8709  0.3810
 6322SOL    HW130428   4.156   4.625  16.874 -0.3776 -0.0960  0.1222
 6322SOL    HW230429   4.070   4.700  16.964 -0.5160 -0.3586  0.6191
 6323SOL     OW30430   1.822   3.862   2.731  0.2587  0.1205  0.5612
 6323SOL    HW130431   1.852   3.943   2.774  0.7576 -0.9119  2.1642
 6323SOL    HW230432   1.805   3.901   2.646  1.8116  0.7415  0.5382
 6324SOL     OW30433   3.939   4.015   4.435 -0.2701  0.1360 -0.0248
 6324SOL    HW130434   4.025   4.038   4.470  0.7794 -0.3133 -2.2766
 6324SOL    HW230435   3.932   3.924   4.461 -1.8225  0.4070  0.5128
 6325SOL     OW30436   1.071   1.609   9.152  0.2571 -0.0816  0.1570
 6325SOL    HW130437   1.131   1.681   9.133 -1.2187  0.8539 -0.9569
 6325SOL    HW230438   0.984   1.640   9.130  0.5290  0.8040  0.3555
 6326SOL     OW30439   3.348   0.778   8.240 -0.1536 -0.1268 -0.4970
 6326SOL    HW130440   3.254   0.795   8.249 -0.4788 -1.0102 -2.0841
 6326SOL    HW230441   3.351   0.701   8.184 -1.9936 -2.1492  2.2115
 6327SOL     OW30442   2.224   0.989   9.120  0.3545  0.2210  0.3850
 6327SOL    HW130443   2.201   0.896   9.117  1.9623 -0.0735 -3.8815
 6327SOL    HW230444   2.319   0.996   9.118  0.4791 -1.9234 -1.8190
 6328SOL     OW30445   2.884   2.338   5.267  0.3622 -0.2115 -0.1635
 6328SOL    HW130446   2.865   2.383   5.185  1.8888 -2.4548 -1.7130
 6328SOL    HW230447   2.801   2.346   5.315  0.5751  0.3544  0.1075
 6329SOL     OW30448   1.664   4.106   7.168  0.2972 -0.0124 -0.0266
 6329SOL    HW130449   1.597   4.167   7.137 -1.3856 -0.9693  1.6694
 6329SOL    HW230450   1.677   4.047   7.094  4.5610  1.3244 -0.3129
 6330SOL     OW30451   3.088   3.819   3.236 -0.4404  0.3543  0.2646
 6330SOL    HW130452   3.099   3.793   3.144  0.1663 -2.9451  1.2567
 6330SOL    HW230453   3.121   3.908   3.225 -1.3696  1.0234  3.0190
 6331SOL     OW30454   3.143   2.936   8.302  0.2382 -0.0378  0.4333
 6331SOL    HW130455   3.185   2.988   8.233 -2.4785 -1.9747 -2.6695
 6331SOL    HW230456   3.219   2.888   8.335  0.4486  1.4181  2.0613
 6332SOL     OW30457   1.776   4.710   2.268 -0.0455 -0.0906  0.1995
 6332SOL    HW130458   1.714   4.648   2.230 -0.8503  1.1987 -0.5757
 6332SOL    HW230459   1.734   0.070   2.263  0.4171  0.0388 -1.5032
 6333SOL     OW30460   2.496   0.706   2.469  0.2560 -0.4354 -0.1999
 6333SOL    HW130461   2.578   0.746   2.497  1.4857 -1.6178 -2.0565
 6333SOL    HW230462   2.442   0.784   2.472 -0.6218 -1.0630  0.3163
 6334SOL     OW30463   3.787   3.946   0.588 -0.3427  0.0669  0.4031
 6334SOL    HW130464   3.864   3.991   0.553  0.8228 -1.1372  1.4244
 6334SOL    HW230465   3.779   3.987   0.675 -2.5973  0.6648 -0.0835
 6335SOL     OW30466   0.893   0.929   6.837  0.5798 -0.2115 -0.5018
 6335SOL    HW130467   0.820   0.891   6.886  2.4968 -1.5232  1.3972
 6335SOL    HW230468   0.911   0.856   6.778  2.7560  0.1740 -0.3072
 6336SOL     OW30469   3.566   4.594  13.331  0.5095  0.1646 -0.1676
 6336SOL    HW130470   3.613   4.676  13.322 -0.3355  0.4860 -1.7970
 6336SOL    HW230471   3.558   4.560  13.242  2.1243  2.3580 -1.1313
 6337SOL     OW30472   2.484   2.803   5.624  0.0017 -0.4332  0.1894
 6337SOL    HW130473   2.564   2.779   5.672  0.3770  0.1239 -0.1544
 6337SOL    HW230474   2.518   2.884   5.585  0.5797 -1.2543 -1.0143
 6338SOL     OW30475   1.667   2.721  14.351 -0.0510 -0.1414 -0.1749
 6338SOL    HW130476   1.702   2.632  14.359  0.4812  0.0154 -0.7614
 6338SOL    HW230477   1.596   2.715  14.415 -0.0916  1.5469 -0.0637
 6339SOL     OW30478   0.002   4.263  12.756  0.0937  0.2581 -0.4742
 6339SOL    HW130479   0.078   4.320  12.759  0.1532  0.0592  1.5844
 6339SOL    HW230480   4.691   4.261  12.844 -0.3386  0.0047 -0.6606
 6340SOL     OW30481   4.521   2.466  16.009 -0.4212  0.0800  0.4238
 6340SOL    HW130482   4.540   2.550  16.050 -1.5279  1.4512 -1.9092
 6340SOL    HW230483   4.425   2.469  16.013 -0.4222  2.7605 -1.6447
 6341SOL     OW30484   4.443   0.635   1.972  0.1038  0.6068 -0.1002
 6341SOL    HW130485   4.440   0.539   1.974 -0.9300  0.6310 -0.4981
 6341SOL    HW230486   4.390   0.657   2.049  1.5372  2.8660  0.2224
 6342SOL     OW30487   1.058   1.435   7.655  0.3121  0.1707  0.2187
 6342SOL    HW130488   1.077   1.352   7.699  0.3131  0.0729  0.0383
 6342SOL    HW230489   1.140   1.437   7.605  0.2684  2.1043  0.2212
 6343SOL     OW30490   1.247   1.119   1.087  0.9218 -0.3591  0.1910
 6343SOL    HW130491   1.209   1.205   1.072 -1.8597 -1.3558  1.5589
 6343SOL    HW230492   1.309   1.142   1.157 -0.5156  0.6670  1.1150
 6344SOL     OW30493   4.406   0.586   2.571 -0.1032  0.0700 -0.1468
 6344SOL    HW130494   4.344   0.604   2.501 -3.2923  0.5507  2.7608
 6344SOL    HW230495   4.472   0.651   2.546 -1.4570  1.3066 -0.5194
 6345SOL     OW30496   1.445   3.584   4.764  0.3917  0.2970 -0.4401
 6345SOL    HW130497   1.440   3.624   4.677  0.0837 -1.4150 -1.2074
 6345SOL    HW230498   1.431   3.657   4.825  0.5323 -0.4020  0.4319
 6346SOL     OW30499   3.946   3.987   1.905  0.3796 -0.2261  0.5437
 6346SOL    HW130500   3.972   3.978   1.813  0.8108  0.9521  0.5443
 6346SOL    HW230501   4.025   3.966   1.953  0.5242 -0.5935  0.1457
 6347SOL     OW30502   2.839   0.480  14.476  0.1431 -0.1611  0.0253
 6347SOL    HW130503   2.807   0.570  14.466  1.9363  0.5430  0.5897
 6347SOL    HW230504   2.867   0.440  14.393  0.6935  1.0389 -0.3665
 6348SOL     OW30505   2.413   1.100   4.215 -0.3266 -0.3205  0.3603
 6348SOL    HW130506   2.389   1.091   4.307  2.2503  2.0107  1.2504
 6348SOL    HW230507   2.333   1.066   4.176  1.0745 -0.5335 -2.2930
 6349SOL     OW30508   0.428   3.257  10.487  0.2376  0.2165 -0.3305
 6349SOL    HW130509   0.345   3.301  10.504 -0.0999 -0.5585  0.0146
 6349SOL    HW230510   0.485   3.312  10.541  0.6142  0.5903 -1.1008
 6350SOL     OW30511   2.647   0.217   3.809  0.1971 -0.1566 -0.4364
 6350SOL    HW130512   2.595   0.192   3.732 -0.0035 -0.3524 -0.2349
 6350SOL    HW230513   2.602   0.296   3.838 -0.3192 -0.0020 -1.6317
 6351SOL     OW30514   0.899   0.926  15.228  0.4173  0.4428  0.1805
 6351SOL    HW130515   0.892   0.945  15.321 -0.6034 -1.9714  0.6052
 6351SOL    HW230516   0.993   0.918  15.213  0.4050 -1.6132  1.2528
 6352SOL     OW30517   1.293   4.711   1.279  0.0984  0.0355 -0.1421
 6352SOL    HW130518   1.359   4.673   1.222 -1.4546 -1.7782 -0.7069
 6352SOL    HW230519   1.227   4.642   1.270 -0.0098  0.2881 -1.2866
 6353SOL     OW30520   2.156   0.411   9.350 -0.2549  0.1346  0.5806
 6353SOL    HW130521   2.179   0.413   9.257  1.6555  0.0547  1.0354
 6353SOL    HW230522   2.244   0.415   9.389 -1.1326  0.2713  2.5290
 6354SOL     OW30523   2.899   4.512   4.373  0.2880  0.4619 -0.1376
 6354SOL    HW130524   2.864   4.481   4.289  0.5599 -0.9618  0.2784
 6354SOL    HW230525   2.819   4.492   4.422  0.8539  3.0818  1.8341
 6355SOL     OW30526   3.256   3.481   4.786 -0.7056 -0.0513  0.1252
 6355SOL    HW130527   3.348   3.475   4.759 -0.5193  0.2426  0.6888
 6355SOL    HW230528   3.263   3.451   4.877 -2.3190  3.3478  1.3747
 6356SOL     OW30529   0.927   1.220   0.557 -0.1134  0.5327 -0.9134
 6356SOL    HW130530   0.884   1.233   0.642  0.1450 -1.0887 -0.5224
 6356SOL    HW230531   0.978   1.142   0.579 -1.7514 -1.1686 -3.1132
 6357SOL     OW30532   1.645   0.637   1.682  0.0962  0.3061 -0.0431
 6357SOL    HW130533   1.634   0.543   1.691 -0.2258  0.3655  0.1663
 6357SOL    HW230534   1.735   0.648   1.714  0.3256  0.2317 -0.6513
 6358SOL     OW30535   3.118   0.163   5.276 -0.2348 -0.0230 -0.0477
 6358SOL    HW130536   3.113   0.068   5.278  1.5581 -0.2004 -3.4115
 6358SOL    HW230537   3.134   0.170   5.182  0.3392  1.1541  0.1311
 6359SOL     OW30538   3.721   3.114   3.684  0.2942  0.0235  0.2659
 6359SOL    HW130539   3.795   3.070   3.643  1.8887  1.1100  2.0159
 6359SOL    HW230540   3.724   3.086   3.775 -1.6387  0.4465  0.4632
 6360SOL     OW30541   0.689   0.350   8.153 -0.6546  0.1730  0.6316
 6360SOL    HW130542   0.764   0.293   8.169 -0.9830  0.3597  2.7852
 6360SOL    HW230543   0.725   0.434   8.179 -1.1568  0.7086 -0.3940
 6361SOL     OW30544   1.061   0.295  13.530 -0.5335 -0.3992 -0.2775
 6361SOL    HW130545   1.154   0.279  13.546 -0.0744  0.5700 -1.9028
 6361SOL    HW230546   1.070   0.339  13.445 -1.3541  0.1879 -0.0566
 6362SOL     OW30547   3.628   0.301  16.203 -0.8550 -0.1946  0.2416
 6362SOL    HW130548   3.680   0.222  16.219  2.5233  2.0182  0.2127
 6362SOL    HW230549   3.617   0.305  16.108  0.2661  0.5966  0.1424
 6363SOL     OW30550   3.572   3.602   5.957 -0.0960  0.0020 -0.1424
 6363SOL    HW130551   3.573   3.593   5.862  0.0692  1.6400 -0.2946
 6363SOL    HW230552   3.495   3.654   5.980  1.9873  2.6346  0.8919
 6364SOL     OW30553   3.803   0.199   5.786 -0.3132  0.2420  0.3092
 6364SOL    HW130554   3.790   0.220   5.694 -0.1606  1.6338  0.6074
 6364SOL    HW230555   3.716   0.163   5.802 -0.4867  0.6779  0.3170
 6365SOL     OW30556   0.074   2.586   5.858 -0.0275 -0.1127  0.3168
 6365SOL    HW130557   0.163   2.596   5.892 -0.8267  0.2075  2.3316
 6365SOL    HW230558   0.081   2.632   5.774 -0.1205  0.0830  0.4168
 6366SOL     OW30559   4.209   2.848   5.620  0.3491  0.2653 -0.1013
 6366SOL    HW130560   4.218   2.796   5.700 -2.0137 -2.0281 -1.3422
 6366SOL    HW230561   4.284   2.908   5.620  0.6019 -0.0441  1.5800
 6367SOL     OW30562   2.458   4.093   4.742 -0.1592 -0.2340  0.0274
 6367SOL    HW130563   2.474   4.151   4.816 -0.2298  0.8014 -0.7559
 6367SOL    HW230564   2.542   4.075   4.700 -1.1198 -1.4538 -1.3603
 6368SOL     OW30565   1.002   0.284  16.126  0.0185  0.3052 -0.0266
 6368SOL    HW130566   0.917   0.246  16.149  0.1877 -1.5352 -2.4152
 6368SOL    HW230567   0.976   0.371  16.096 -0.4483  0.0050 -0.4728
 6369SOL     OW30568   3.871   4.598   1.319  0.4963  0.1871 -0.3424
 6369SOL    HW130569   3.791   4.640   1.350  0.5955  0.8157 -0.9346
 6369SOL    HW230570   3.875   4.607   1.224 -0.1960 -0.0956 -0.3991
 6370SOL     OW30571   1.621   0.104  10.672 -0.1193  0.1786  0.2565
 6370SOL    HW130572   1.557   0.159  10.626  0.0756 -0.8682 -1.2764
 6370SOL    HW230573   1.606   0.013  10.646  1.2981 -0.2784  1.0758
 6371SOL     OW30574   1.026   0.132   6.772 -0.3519  0.3070  0.7296
 6371SOL    HW130575   0.973   0.116   6.850 -1.8792 -0.3967 -0.4404
 6371SOL    HW230576   0.958   0.103   6.711 -1.2530 -1.9029  2.7833
 6372SOL     OW30577   3.070   1.872   6.776 -0.0833 -0.1007 -0.5725
 6372SOL    HW130578   3.081   1.909   6.688  1.7959  1.8507  0.5043
 6372SOL    HW230579   2.994   1.914   6.817  0.0745  0.5442 -0.9318
 6373SOL     OW30580   2.918   0.416   5.502 -0.3986  0.2806 -0.2706
 6373SOL    HW130581   2.823   0.418   5.490 -0.2725 -2.0363 -1.6784
 6373SOL    HW230582   2.925   0.321   5.500 -0.6809  0.2425  0.5947
 6374SOL     OW30583   3.413   2.817   2.650 -0.6154 -0.9538  0.1065
 6374SOL    HW130584   3.415   2.906   2.685 -1.3592 -0.9475  0.1261
 6374SOL    HW230585   3.324   2.809   2.616 -0.2209 -0.3363 -1.0755
 6375SOL     OW30586   4.601   1.008   9.127 -0.3768  0.5604  0.3216
 6375SOL    HW130587   4.619   0.966   9.043 -0.2342 -1.0506  1.1454
 6375SOL    HW230588   4.514   0.972   9.148  1.4639 -3.2155  1.5047
 6376SOL     OW30589   0.516   0.541   0.651  0.2261 -0.4232  0.5052
 6376SOL    HW130590   0.586   0.604   0.666  0.5368 -0.5107 -0.6112
 6376SOL    HW230591   0.549   0.506   0.568  0.0325  1.9375 -0.5662
 6377SOL     OW30592   0.197   0.954  16.600 -0.0879  0.5404 -0.4033
 6377SOL    HW130593   0.280   0.911  16.623 -0.1295 -0.6141 -2.4284
 6377SOL    HW230594   0.188   0.924  16.510  1.4556  1.9844 -1.0364
 6378SOL     OW30595   0.041   0.018   3.911 -0.0193  1.1228  0.2372
 6378SOL    HW130596   4.711   4.688   3.856 -0.6008  3.7396 -1.7903
 6378SOL    HW230597   0.127   4.702   3.921 -0.3876  0.4050  0.4556
 6379SOL     OW30598   2.143   2.210   6.109 -0.1036  0.7614 -0.3912
 6379SOL    HW130599   2.164   2.141   6.171  1.8541  1.4549 -0.2702
 6379SOL    HW230600   2.182   2.282   6.159 -0.2531  1.3786 -1.1647
 6380SOL     OW30601   4.060   2.610   8.619  0.4819  0.6565  0.1017
 6380SOL    HW130602   4.008   2.644   8.547 -0.5472 -0.6745  0.2266
 6380SOL    HW230603   4.114   2.687   8.637 -1.3999  2.2937 -1.3188
 6381SOL     OW30604   4.584   3.968  11.493 -0.3883 -0.7855 -0.2888
 6381SOL    HW130605   4.522   4.038  11.513  0.5422 -0.1458  0.3193
 6381SOL    HW230606   4.523   3.897  11.513  0.1505 -0.9989  0.5959
 6382SOL     OW30607   1.722   3.755   9.824  0.1768 -0.0132  0.1935
 6382SOL    HW130608   1.641   3.802   9.845 -0.5355 -1.3875  0.4793
 6382SOL    HW230609   1.777   3.821   9.867  0.7663 -0.0702 -0.4685
 6383SOL     OW30610   2.229   0.282   1.826 -0.3477 -0.1103  0.8048
 6383SOL    HW130611   2.237   0.364   1.777 -1.1502 -0.8745 -0.5995
 6383SOL    HW230612   2.277   0.309   1.905  1.5098  1.7580 -0.9402
 6384SOL     OW30613   0.572   2.692  17.546 -0.2744 -0.5666  0.3387
 6384SOL    HW130614   0.484   2.728  17.553  0.8586  2.3630 -0.5615
 6384SOL    HW230615   0.625   2.765  17.515 -2.4350  0.8830  0.1228
 6385SOL     OW30616   4.671   0.384  10.435  0.3077 -0.6693  0.1855
 6385SOL    HW130617   4.702   0.315  10.376  0.5296 -0.4841  0.0867
 6385SOL    HW230618   0.025   0.436  10.434 -0.3950  0.4026 -0.2500
 6386SOL     OW30619   0.072   0.072   4.846 -0.0593  0.2405 -0.0398
 6386SOL    HW130620   4.715   0.100   4.886  1.6464  3.6603  1.1239
 6386SOL    HW230621   0.049   0.063   4.754 -0.7006  3.4982 -0.2060
 6387SOL     OW30622   1.529   0.892  10.288 -0.1623 -1.0788 -0.4482
 6387SOL    HW130623   1.597   0.829  10.312  2.3704  2.1871  0.8871
 6387SOL    HW230624   1.560   0.924  10.203 -0.3909  2.7698  0.9107
 6388SOL     OW30625   0.928   2.061   6.647 -0.1909 -0.1252  0.0895
 6388SOL    HW130626   0.972   2.114   6.580 -1.4823  2.5395  1.3674
 6388SOL    HW230627   0.981   1.984   6.629 -1.8244 -1.2026 -0.1271
 6389SOL     OW30628   4.562   0.685   5.436  0.0401  0.0412 -0.4478
 6389SOL    HW130629   4.515   0.623   5.493  0.5816  2.6848  2.8929
 6389SOL    HW230630   4.644   0.639   5.418 -0.2917 -0.0028 -1.8411
 6390SOL     OW30631   0.665   3.449   0.438  0.1168 -0.1285 -0.1737
 6390SOL    HW130632   0.580   3.442   0.482 -0.1927  0.1857 -0.7267
 6390SOL    HW230633   0.723   3.420   0.508  0.9173  2.3119  0.1963
 6391SOL     OW30634   3.192   4.387   6.802 -0.5192 -0.3395  0.0243
 6391SOL    HW130635   3.239   4.431   6.731 -0.7278 -2.0206 -1.1397
 6391SOL    HW230636   3.102   4.396   6.770 -0.2049  2.3841 -0.1280
 6392SOL     OW30637   3.875   0.259   0.932 -0.0462 -0.2751  0.1253
 6392SOL    HW130638   3.806   0.298   0.879 -0.9052 -3.6030 -1.2467
 6392SOL    HW230639   3.879   0.326   1.000  1.2699  0.9213 -1.1245
 6393SOL     OW30640   4.071   2.845   6.815  0.3196 -0.3968  0.2840
 6393SOL    HW130641   4.021   2.895   6.880 -0.7309  0.2760 -1.0376
 6393SOL    HW230642   4.009   2.774   6.798  0.4625 -0.2634 -0.8085
 6394SOL     OW30643   1.004   0.170  10.034  0.2915  0.0644 -0.4361
 6394SOL    HW130644   0.995   0.259   9.999 -0.2763  0.7387  1.3998
 6394SOL    HW230645   1.025   0.116   9.958 -1.5370 -0.3913 -0.6247
 6395SOL     OW30646   2.360   1.387  11.904 -0.1048  0.1259  0.1607
 6395SOL    HW130647   2.265   1.402  11.901 -0.1653 -0.0494  1.0233
 6395SOL    HW230648   2.393   1.458  11.959  3.3420 -0.7547 -0.7599
 6396SOL     OW30649   2.682   1.790   2.083  0.4336  0.5640 -0.2774
 6396SOL    HW130650   2.658   1.720   2.023  0.1301  0.1524  0.3260
 6396SOL    HW230651   2.765   1.754   2.113 -1.1261 -2.0798  0.8630
 6397SOL     OW30652   1.808   1.072  13.423  0.7529  0.2763  0.5130
 6397SOL    HW130653   1.759   1.008  13.372  1.1751 -1.4507  2.2813
 6397SOL    HW230654   1.766   1.154  13.399 -0.2530 -0.3030  0.3162
 6398SOL     OW30655   4.145   4.262  10.574 -0.1189  0.1593  0.0556
 6398SOL    HW130656   4.139   4.344  10.525  1.1983  0.7265  0.8291
 6398SOL    HW230657   4.057   4.233  10.550  0.2003 -0.6925 -0.0649
 6399SOL     OW30658   1.934   4.184   7.632  0.0470  0.8087  0.8711
 6399SOL    HW130659   1.880   4.140   7.566  1.3532  0.6062 -0.0600
 6399SOL    HW230660   2.021   4.152   7.607  0.2685  1.0224  1.3727
 6400SOL     OW30661   0.610   0.874   8.861 -0.2201 -0.0664  0.1107
 6400SOL    HW130662   0.599   0.842   8.950 -1.7929  1.5002  0.4640
 6400SOL    HW230663   0.575   0.963   8.865  0.5792  0.0352  4.4634
 6401SOL     OW30664   3.098   4.090   3.652 -0.1858 -0.4895  0.5577
 6401SOL    HW130665   3.129   4.032   3.583 -0.4645 -0.2612  0.2381
 6401SOL    HW230666   3.007   4.064   3.671 -0.0266 -1.1947  0.3344
 6402SOL     OW30667   1.347   3.153   2.640  0.2857  0.4715  0.6288
 6402SOL    HW130668   1.428   3.102   2.639 -0.8290 -1.3316  1.8393
 6402SOL    HW230669   1.379   3.236   2.605  1.4746 -0.8554 -1.4573
 6403SOL     OW30670   2.871   0.104   2.528 -0.3295 -0.1065  0.0140
 6403SOL    HW130671   2.964   0.092   2.543 -0.3069 -0.2981 -0.2920
 6403SOL    HW230672   2.844   0.014   2.510 -0.5982  0.3596 -1.8121
 6404SOL     OW30673   0.919   4.705   1.943  0.2256 -0.8202  0.1162
 6404SOL    HW130674   1.013   4.713   1.924  0.1827 -1.2863 -0.3038
 6404SOL    HW230675   0.906   0.034   2.020  0.0375 -0.2792 -0.3013
 6405SOL     OW30676   3.625   3.704   1.467 -0.1216  0.4874 -0.2389
 6405SOL    HW130677   3.682   3.744   1.533 -0.4899 -0.9919  0.9776
 6405SOL    HW230678   3.675   3.622   1.459 -0.9872 -0.0746  0.1217
 6406SOL     OW30679   0.784   1.410  11.673  0.1789  0.8245 -0.1241
 6406SOL    HW130680   0.789   1.433  11.766  2.2031 -2.4807  0.5719
 6406SOL    HW230681   0.785   1.316  11.688 -1.2235  0.9509  0.7169
 6407SOL     OW30682   4.151   2.043  14.297 -0.2426 -0.0284 -0.1200
 6407SOL    HW130683   4.174   2.019  14.208  0.4478 -0.7398  0.2426
 6407SOL    HW230684   4.113   2.130  14.288  0.9574  0.3598 -1.3257
 6408SOL     OW30685   3.950   2.237   4.174 -0.5602  0.8200 -0.0224
 6408SOL    HW130686   3.921   2.234   4.082 -0.3353  0.7584 -0.0907
 6408SOL    HW230687   3.884   2.182   4.216  0.7527 -0.5959  0.2042
 6409SOL     OW30688   4.445   1.990   4.793  0.0950 -0.0361 -0.0359
 6409SOL    HW130689   4.364   1.987   4.844  1.4844 -0.2857  2.1810
 6409SOL    HW230690   4.430   1.918   4.731 -1.9377  0.6034 -0.2857
 6410SOL     OW30691   4.025   1.880  17.469  0.0326  0.0024 -0.3090
 6410SOL    HW130692   3.944   1.837  17.500 -0.4576 -0.3041 -2.0463
 6410SOL    HW230693   3.988   1.931  17.397 -0.2677 -2.8094 -2.1421
 6411SOL     OW30694   2.331   3.504   3.558 -0.1120  0.7051 -0.0399
 6411SOL    HW130695   2.317   3.563   3.483 -0.9799  1.5296  0.7679
 6411SOL    HW230696   2.391   3.555   3.613 -0.2828  1.5641 -0.6448
 6412SOL     OW30697   2.352   2.863   0.404  0.8924  0.6347  0.0783
 6412SOL    HW130698   2.291   2.918   0.453 -0.4757 -2.0797  1.4137
 6412SOL    HW230699   2.405   2.830   0.477  0.1937  0.4510  0.5048
 6413SOL     OW30700   1.707   0.564  12.699 -0.8373 -0.6552 -0.0463
 6413SOL    HW130701   1.694   0.490  12.759 -1.9431 -0.6616 -0.2979
 6413SOL    HW230702   1.616   0.594  12.698 -0.0570  1.6226 -0.3979
 6414SOL     OW30703   0.275   4.516   0.404 -0.5548 -0.4689  0.0837
 6414SOL    HW130704   0.224   4.463   0.342 -2.4473  1.2862  0.0977
 6414SOL    HW230705   0.276   4.449   0.472  2.0804 -1.5481 -1.0206
 6415SOL     OW30706   2.369   3.087   9.030  0.2996  0.6182 -0.2180
 6415SOL    HW130707   2.411   3.066   9.114 -1.0069  3.7759  1.2445
 6415SOL    HW230708   2.391   3.008   8.981  0.3638  0.8962 -0.6337
 6416SOL     OW30709   4.623   1.092  12.156 -0.9661 -0.2793 -0.1310
 6416SOL    HW130710   4.663   1.097  12.243 -0.5868  1.0771 -0.3716
 6416SOL    HW230711   4.699   1.066  12.104 -0.2155  0.6016  0.5111
 6417SOL     OW30712   3.066   4.407   7.132  0.3395 -0.0578 -0.7475
 6417SOL    HW130713   3.100   4.386   7.219  2.1890 -1.9937 -1.9423
 6417SOL    HW230714   3.050   4.501   7.134  4.1342  0.5842 -0.5477
 6418SOL     OW30715   1.309   1.949   8.600  0.1652 -0.4472 -0.1283
 6418SOL    HW130716   1.318   2.043   8.580  1.0940 -0.3378  0.7795
 6418SOL    HW230717   1.286   1.954   8.693 -1.9207  0.5472 -0.6873
 6419SOL     OW30718   4.039   0.287  14.017 -0.2597 -0.3335  0.2782
 6419SOL    HW130719   4.113   0.244  14.061 -0.9241 -3.4611 -1.6860
 6419SOL    HW230720   3.992   0.328  14.090 -0.0680 -0.0304  0.2293
 6420SOL     OW30721   3.508   3.115   0.990  0.4528  0.4121  0.1117
 6420SOL    HW130722   3.422   3.141   1.023  0.1659 -0.4873  0.0725
 6420SOL    HW230723   3.579   3.173   1.017  1.5136 -1.6552  1.8337
 6421SOL     OW30724   1.360   2.944   4.510  0.2655  0.5319  0.0555
 6421SOL    HW130725   1.448   2.908   4.494  0.1191  0.7524 -1.2345
 6421SOL    HW230726   1.322   2.939   4.422 -1.4269  1.0022  0.7597
 6422SOL     OW30727   2.994   0.434   4.274 -0.1791 -0.1616 -0.5109
 6422SOL    HW130728   2.907   0.448   4.237  0.5494  1.3027 -1.6475
 6422SOL    HW230729   3.057   0.450   4.204 -1.4531  0.1136 -1.5944
 6423SOL     OW30730   3.995   1.360   7.813  0.5601  0.2085  0.1510
 6423SOL    HW130731   4.084   1.392   7.795  0.0903  1.8295  0.7235
 6423SOL    HW230732   4.023   1.290   7.872  0.5446 -0.7906 -1.0496
 6424SOL     OW30733   0.849   1.177   3.560 -0.4658 -0.4187  0.2735
 6424SOL    HW130734   0.890   1.228   3.489 -0.2837 -1.1073 -0.1130
 6424SOL    HW230735   0.879   1.232   3.632 -0.5984 -0.7200  0.5588
 6425SOL     OW30736   2.477   3.048   9.781 -0.0038  0.0550  0.6565
 6425SOL    HW130737   2.470   3.041   9.686 -1.7576 -0.9448  0.8797
 6425SOL    HW230738   2.550   3.109   9.796  0.9101 -0.8622 -0.0710
 6426SOL     OW30739   3.145   0.089   8.084  0.2627  0.1208  0.5284
 6426SOL    HW130740   3.180   0.051   8.164  0.4643 -0.6367  0.0755
 6426SOL    HW230741   3.052   0.107   8.100  0.6533  0.8645  1.9162
 6427SOL     OW30742   2.020   0.252   4.752 -0.0404 -0.2085  0.4613
 6427SOL    HW130743   2.038   0.263   4.659 -0.8996 -1.6701  0.1223
 6427SOL    HW230744   2.080   0.179   4.768  1.3842  0.8149 -0.3352
 6428SOL     OW30745   0.333   2.788   7.452 -0.1502  0.8412  0.6900
 6428SOL    HW130746   0.338   2.705   7.499 -0.3398  0.6912  0.4450
 6428SOL    HW230747   0.263   2.781   7.386  0.6237 -3.4305  0.3340
 6429SOL     OW30748   0.414   3.811  11.408 -0.3649 -0.3107 -0.0193
 6429SOL    HW130749   0.428   3.900  11.439  1.7122 -0.7542  0.3774
 6429SOL    HW230750   0.323   3.791  11.429 -0.4292  0.9767  0.8906
 6430SOL     OW30751   1.478   4.613   7.940  0.0097 -0.0969 -0.0652
 6430SOL    HW130752   1.458   4.527   7.904 -1.3688  1.8426 -3.8629
 6430SOL    HW230753   1.392   4.654   7.950 -1.3617 -2.8016 -0.6393
 6431SOL     OW30754   3.304   3.513   8.225  0.3278 -0.0565  0.1361
 6431SOL    HW130755   3.322   3.489   8.134 -0.2665 -0.1473  0.0423
 6431SOL    HW230756   3.332   3.439   8.279  0.4557 -0.1194 -0.0171
 6432SOL     OW30757   1.817   2.557   2.974  0.2201  0.2029  0.5388
 6432SOL    HW130758   1.824   2.564   2.879 -0.9195 -0.9502  0.3613
 6432SOL    HW230759   1.868   2.634   2.999 -0.5009  0.8646 -0.0522
 6433SOL     OW30760   0.708   2.395  14.894 -0.3829 -0.4394 -0.2976
 6433SOL    HW130761   0.696   2.464  14.828  0.4350  0.2705  0.3046
 6433SOL    HW230762   0.628   2.401  14.946  0.9176  1.7067  1.4546
 6434SOL     OW30763   3.417   1.464  11.223 -0.0438 -0.3743  0.4989
 6434SOL    HW130764   3.334   1.448  11.269  0.1386 -1.1783  0.5560
 6434SOL    HW230765   3.392   1.425  11.139 -4.0959 -1.1024  1.9946
 6435SOL     OW30766   2.272   3.300  13.443  0.3720  0.0376 -0.1456
 6435SOL    HW130767   2.246   3.293  13.535 -2.5198  2.8000 -0.7333
 6435SOL    HW230768   2.306   3.389  13.453  0.6084 -0.1866  1.1097
 6436SOL     OW30769   0.792   0.743   1.964  0.5108 -0.1668 -0.1054
 6436SOL    HW130770   0.751   0.750   2.050  0.8710 -0.4463  0.0881
 6436SOL    HW230771   0.813   0.650   1.962  3.2523  0.4525 -0.0202
 6437SOL     OW30772   0.934   1.635   2.788  0.1582  0.3845  0.2761
 6437SOL    HW130773   1.026   1.618   2.807 -0.2413  0.0045  1.9266
 6437SOL    HW230774   0.894   1.557   2.828 -0.1207 -0.0446 -0.8443
 6438SOL     OW30775   2.798   1.819   9.118  0.2792  0.2486  0.1925
 6438SOL    HW130776   2.803   1.882   9.046 -1.8398 -2.4103 -2.2794
 6438SOL    HW230777   2.713   1.844   9.154  0.5549 -1.8695  2.2673
 6439SOL     OW30778   0.320   3.433   8.205  0.1640  0.2065  0.5115
 6439SOL    HW130779   0.343   3.438   8.297  1.0398  0.6381  0.2720
 6439SOL    HW230780   0.226   3.447   8.211  0.0032 -0.7030  0.2784
 6440SOL     OW30781   0.020   0.840   2.127  0.0862  0.2034 -0.0951
 6440SOL    HW130782   4.682   0.911   2.132  0.9355  0.8398  2.0484
 6440SOL    HW230783   4.704   0.775   2.184  1.1874 -1.2086 -0.9152
 6441SOL     OW30784   0.876   3.712   4.517  0.5439 -0.8475  0.4521
 6441SOL    HW130785   0.868   3.668   4.432 -0.3306 -1.1788  0.7146
 6441SOL    HW230786   0.901   3.635   4.567 -2.6009 -0.5868  2.3961
 6442SOL     OW30787   4.206   0.067   5.485  0.4048 -0.0597  0.5888
 6442SOL    HW130788   4.140   0.134   5.468  2.2526  1.2906 -1.1911
 6442SOL    HW230789   4.261   0.052   5.408 -1.3475  1.8733 -1.0493
 6443SOL     OW30790   4.072   0.351   7.266  0.2514 -0.5820 -0.0698
 6443SOL    HW130791   4.095   0.381   7.354  0.3637  0.7289 -0.5525
 6443SOL    HW230792   3.985   0.390   7.264 -0.5544 -2.3384  0.5204
 6444SOL     OW30793   0.126   0.444  14.552  0.0229 -0.2257  0.0751
 6444SOL    HW130794   0.073   0.370  14.581  2.6721 -2.2278 -0.1663
 6444SOL    HW230795   0.213   0.406  14.570  1.0029  0.4565 -3.0485
 6445SOL     OW30796   1.060   0.329   4.884  0.3856  0.1200 -0.5264
 6445SOL    HW130797   1.098   0.245   4.909  1.2359  0.7631  0.3402
 6445SOL    HW230798   0.971   0.306   4.858 -0.5906  1.3632  1.6162
 6446SOL     OW30799   0.762   0.126   0.969  0.2353 -0.0343  0.0457
 6446SOL    HW130800   0.686   0.184   0.980  0.4798  0.0257  1.3905
 6446SOL    HW230801   0.755   0.105   1.062  0.6746 -1.9283 -0.3607
 6447SOL     OW30802   3.773   3.937  14.425 -0.2286  0.4234 -0.1199
 6447SOL    HW130803   3.756   3.879  14.499 -2.7987  0.3774 -0.7458
 6447SOL    HW230804   3.844   3.883  14.390  0.7295  2.3679 -1.1627
 6448SOL     OW30805   2.926   0.064   9.887 -0.1302  0.1654  0.0984
 6448SOL    HW130806   2.994   4.724   9.867 -0.0216  0.0582  0.8340
 6448SOL    HW230807   2.867   0.052   9.812 -0.2057  1.0748  0.0118
 6449SOL     OW30808   1.450   1.575   5.200 -0.2763  0.1138 -0.1584
 6449SOL    HW130809   1.381   1.590   5.266 -2.0820 -1.2830 -1.7478
 6449SOL    HW230810   1.406   1.624   5.131  1.4381  1.1830 -0.4962
 6450SOL     OW30811   2.819   3.850  11.098 -0.1007  1.2091 -0.3524
 6450SOL    HW130812   2.805   3.784  11.166  2.5729  1.5629  0.4969
 6450SOL    HW230813   2.737   3.833  11.051 -1.1389  1.8211  1.2427
 6451SOL     OW30814   0.967   1.157   1.289  0.0683 -0.2648  0.4463
 6451SOL    HW130815   0.999   1.221   1.226 -2.9405  0.6619 -0.1354
 6451SOL    HW230816   0.955   1.215   1.364 -0.5955 -1.3821  1.1989
 6452SOL     OW30817   2.373   4.020   0.169 -0.4042  0.2040  0.2638
 6452SOL    HW130818   2.365   4.084   0.239  1.8121 -0.0484  0.7334
 6452SOL    HW230819   2.286   4.019   0.130  0.1560  2.1670 -1.0198
 6453SOL     OW30820   0.416   4.418   2.113 -0.4306 -0.3160 -0.1291
 6453SOL    HW130821   0.444   4.343   2.061  2.8346 -0.3977  1.7629
 6453SOL    HW230822   0.442   4.377   2.195 -2.3073 -0.2102  0.5312
 6454SOL     OW30823   1.179   2.267  13.317  0.4092  0.4325  0.2522
 6454SOL    HW130824   1.144   2.244  13.403 -0.4411  1.8896  0.2855
 6454SOL    HW230825   1.233   2.194  13.286  1.6769  1.2588  0.5568
 6455SOL     OW30826   4.160   4.588   4.005 -0.0369 -0.3178 -0.0176
 6455SOL    HW130827   4.089   4.588   3.940  0.9280 -0.0457 -1.0801
 6455SOL    HW230828   4.225   4.636   3.954  0.1766  0.8029  1.3157
 6456SOL     OW30829   3.981   0.335   6.788  0.2120 -0.5933 -0.0116
 6456SOL    HW130830   4.066   0.333   6.833  0.7623  2.2211 -0.9136
 6456SOL    HW230831   4.016   0.336   6.699 -1.1479  2.0323 -0.5005
 6457SOL     OW30832   4.436   3.764   9.730  0.2889 -0.4676 -0.6115
 6457SOL    HW130833   4.438   3.859   9.741  0.4211 -0.7399  1.6899
 6457SOL    HW230834   4.399   3.734   9.813 -0.6181 -1.1619 -1.2715
 6458SOL     OW30835   3.018   0.501   1.555  0.9243 -0.2962 -0.0491
 6458SOL    HW130836   2.985   0.416   1.585 -1.3488 -0.1128 -2.0180
 6458SOL    HW230837   2.960   0.521   1.482 -1.6711 -1.2199  1.7412
 6459SOL     OW30838   1.677   0.518   5.780 -0.1717 -0.1058 -0.6663
 6459SOL    HW130839   1.649   0.544   5.691 -2.1084 -2.0036 -0.6255
 6459SOL    HW230840   1.647   0.428   5.787 -1.3428  0.2245 -1.2700
 6460SOL     OW30841   3.870   2.101   3.880 -0.8858  0.2709 -0.0022
 6460SOL    HW130842   3.842   2.010   3.892 -0.3333 -0.1626 -1.9840
 6460SOL    HW230843   3.965   2.091   3.883 -0.7449  1.0737 -1.9947
 6461SOL     OW30844   0.705   1.615   5.133  0.2198  0.3773  0.1789
 6461SOL    HW130845   0.726   1.699   5.174  5.1177 -0.9570  0.4073
 6461SOL    HW230846   0.645   1.637   5.062 -2.4738 -0.1808  2.2984
 6462SOL     OW30847   0.601   1.315   4.714  0.3277  0.0064  0.3321
 6462SOL    HW130848   0.645   1.315   4.799 -0.1970 -1.1573  0.6048
 6462SOL    HW230849   0.510   1.301   4.740 -0.1085 -2.9569 -2.7820
 6463SOL     OW30850   4.274   2.048  12.793  0.2029 -0.1699 -0.2864
 6463SOL    HW130851   4.358   2.034  12.748  0.3094  0.6448 -0.3446
 6463SOL    HW230852   4.304   2.094  12.871 -1.3570  0.8593 -0.3046
 6464SOL     OW30853   0.848   4.004   2.923 -0.1559  0.2948 -0.1141
 6464SOL    HW130854   0.891   3.937   2.976  0.1151  1.3996  1.0547
 6464SOL    HW230855   0.894   4.082   2.950 -2.0134  0.3872  2.7310
 6465SOL     OW30856   1.062   1.982   7.908 -0.1764  0.0360  0.7741
 6465SOL    HW130857   1.102   2.069   7.907 -0.6377  0.2594  1.4700
 6465SOL    HW230858   1.029   1.983   7.819  1.8200 -0.5661  0.0149
 6466SOL     OW30859   3.645   1.294   4.822 -0.3732 -0.1715 -0.2767
 6466SOL    HW130860   3.564   1.247   4.837 -2.3143  3.0093 -0.6737
 6466SOL    HW230861   3.668   1.277   4.731 -0.0701  0.1239 -0.2581
 6467SOL     OW30862   2.995   1.991  10.028 -0.0956  0.2042 -0.1156
 6467SOL    HW130863   2.912   2.030  10.002 -1.6357 -1.9279  1.5194
 6467SOL    HW230864   3.051   1.993   9.951 -0.3169 -0.6521 -0.3106
 6468SOL     OW30865   2.869   2.881  13.474 -0.1681  0.3236 -0.1110
 6468SOL    HW130866   2.808   2.881  13.548 -0.6838  0.7190 -0.5330
 6468SOL    HW230867   2.833   2.950  13.418  0.0129  0.6108  0.1288
 6469SOL     OW30868   1.156   1.766   8.072  0.7391 -0.3818 -0.2934
 6469SOL    HW130869   1.138   1.858   8.089 -0.6225 -0.4912 -1.0960
 6469SOL    HW230870   1.100   1.752   7.995  0.1347 -0.2144  0.1197
 6470SOL     OW30871   2.914   0.418  10.666 -0.4206 -0.1708  0.2307
 6470SOL    HW130872   2.826   0.418  10.703 -0.5726  0.2996 -0.1310
 6470SOL    HW230873   2.946   0.343  10.716 -0.9048 -0.3784  0.2303
 6471SOL     OW30874   0.894   4.254   1.435  0.0653 -0.4540 -0.4135
 6471SOL    HW130875   0.917   4.190   1.369  1.6245 -1.8505  1.4947
 6471SOL    HW230876   0.936   4.329   1.393  1.2689 -0.3232  1.0099
 6472SOL     OW30877   2.697   0.068   0.677 -0.2709  0.2198 -0.1729
 6472SOL    HW130878   2.754   0.086   0.752 -0.0025 -0.2637 -0.2587
 6472SOL    HW230879   2.623   0.041   0.731  0.5436 -1.1703  0.2370
 6473SOL     OW30880   2.728   4.035   2.688 -0.3143 -0.1877  0.5000
 6473SOL    HW130881   2.701   3.959   2.636 -0.7190  0.8538 -0.8131
 6473SOL    HW230882   2.668   4.099   2.649  1.1824  2.1341  2.0088
 6474SOL     OW30883   1.576   4.038   9.842 -0.3312  0.8851 -0.3951
 6474SOL    HW130884   1.562   4.093   9.766 -3.0942  0.4390 -0.1985
 6474SOL    HW230885   1.651   4.080   9.886 -0.4761 -0.2416  0.9376
 6475SOL     OW30886   1.415   4.382   5.696 -0.2128  0.2366  0.6940
 6475SOL    HW130887   1.367   4.314   5.649 -0.8747  1.3817 -0.2822
 6475SOL    HW230888   1.467   4.335   5.762 -1.1434 -2.2322 -0.3412
 6476SOL     OW30889   2.067   0.739   8.431 -0.1111  0.2365  0.3518
 6476SOL    HW130890   2.135   0.804   8.450  0.5647 -0.2202 -0.5554
 6476SOL    HW230891   2.080   0.751   8.337 -2.8078  0.1539 -0.0253
 6477SOL     OW30892   2.846   2.949   9.545  0.2877 -0.0028 -0.4490
 6477SOL    HW130893   2.806   2.994   9.471  0.7241  2.0198  0.5405
 6477SOL    HW230894   2.865   3.023   9.603 -1.2684  0.3336 -0.3944
 6478SOL     OW30895   0.039   2.710   5.612  0.4709 -0.0270 -0.5864
 6478SOL    HW130896   4.670   2.705   5.623  0.2778 -1.1743 -2.7790
 6478SOL    HW230897   0.051   2.804   5.600 -0.5338  0.1089 -0.5387
 6479SOL     OW30898   4.085   4.191  12.863 -0.2642  0.1871 -0.6029
 6479SOL    HW130899   4.078   4.206  12.768  0.5897  2.2214 -0.3263
 6479SOL    HW230900   4.068   4.097  12.857 -1.9769  0.1931  4.8068
 6480SOL     OW30901   1.427   1.896   2.636 -0.0862  0.3350  0.1580
 6480SOL    HW130902   1.443   1.962   2.568 -0.5378  1.3121  1.0078
 6480SOL    HW230903   1.487   1.925   2.704 -0.5810 -2.7910  1.8997
 6481SOL     OW30904   3.234   2.510   2.645 -0.0444  0.6564 -0.0299
 6481SOL    HW130905   3.233   2.578   2.712 -0.1450 -1.3440  2.0217
 6481SOL    HW230906   3.227   2.432   2.701 -1.1427  1.4840  0.9980
 6482SOL     OW30907   3.785   4.268   6.251 -0.2550 -0.4624 -0.3224
 6482SOL    HW130908   3.803   4.182   6.289  1.2049 -0.9218 -2.0548
 6482SOL    HW230909   3.706   4.248   6.201  0.8560 -1.3775 -1.6790
 6483SOL     OW30910   1.351   0.114  12.322  0.2541 -0.5394 -0.0498
 6483SOL    HW130911   1.265   0.155  12.319  0.0596 -0.8060  1.9903
 6483SOL    HW230912   1.408   0.183  12.289 -2.3141  1.7448  0.3198
 6484SOL     OW30913   1.977   2.898   6.714 -0.1314  0.0485  0.1780
 6484SOL    HW130914   1.961   2.824   6.656  0.7619  0.0413 -0.0585
 6484SOL    HW230915   1.967   2.969   6.651  0.6015 -0.7704 -0.8510
 6485SOL     OW30916   1.293   0.283   4.166 -0.2582 -0.0745 -0.1429
 6485SOL    HW130917   1.375   0.235   4.177 -0.9774 -0.6977  2.3309
 6485SOL    HW230918   1.309   0.364   4.215  1.0925  0.0787 -0.8294
 6486SOL     OW30919   1.927   3.896   4.286 -0.4268  0.6399  0.5931
 6486SOL    HW130920   2.011   3.921   4.327 -0.6550  0.3148  1.2618
 6486SOL    HW230921   1.951   3.830   4.221 -2.1146  0.3245  0.3043
 6487SOL     OW30922   0.419   4.044   6.223 -0.3867 -0.4737  0.3092
 6487SOL    HW130923   0.438   4.137   6.235  0.7324 -0.5465 -0.9407
 6487SOL    HW230924   0.340   4.043   6.169  0.5507  1.4718 -1.0918
 6488SOL     OW30925   2.297   2.250   1.020 -0.2358 -0.2376 -0.4230
 6488SOL    HW130926   2.271   2.341   1.037 -0.9527 -0.3378 -0.9793
 6488SOL    HW230927   2.216   2.234   0.973 -1.4661  0.3694  1.4854
 6489SOL     OW30928   4.081   1.215   9.211  0.4803  0.5435  0.4633
 6489SOL    HW130929   3.988   1.211   9.235 -0.8702  0.6531 -4.5972
 6489SOL    HW230930   4.078   1.189   9.119  1.6418  0.2922  0.4990
 6490SOL     OW30931   1.615   1.365   1.857 -0.2079 -0.1129 -0.2156
 6490SOL    HW130932   1.702   1.328   1.842 -0.4689 -1.8127  2.3636
 6490SOL    HW230933   1.577   1.358   1.770  2.7760 -1.4122 -1.4361
 6491SOL     OW30934   3.254   0.977  10.295  0.0973 -0.2772  0.2421
 6491SOL    HW130935   3.245   1.051  10.355  0.6105  0.8548 -1.0627
 6491SOL    HW230936   3.278   0.905  10.354  1.4377  0.3186  0.4287
 6492SOL     OW30937   4.370   1.801   4.549  0.5104  0.0106 -0.3942
 6492SOL    HW130938   4.340   1.736   4.613  0.0520  0.2838 -0.3309
 6492SOL    HW230939   4.308   1.868   4.578  0.1777 -0.0819 -0.8754
 6493SOL     OW30940   4.131   4.603   4.929 -0.1311 -0.2694  0.1215
 6493SOL    HW130941   4.133   4.682   4.982  0.0260 -0.2409  0.0719
 6493SOL    HW230942   4.198   4.631   4.866 -1.3303 -0.5635 -1.2991
 6494SOL     OW30943   1.627   2.755   4.375 -0.1991  0.3253  0.0124
 6494SOL    HW130944   1.610   2.661   4.385  2.0550 -0.4543 -3.2194
 6494SOL    HW230945   1.611   2.770   4.281 -0.4625 -0.0801 -0.0109
 6495SOL     OW30946   2.464   2.948   9.244  0.4781 -0.1729 -0.0886
 6495SOL    HW130947   2.442   2.861   9.210  1.9404 -0.8095  0.6291
 6495SOL    HW230948   2.385   2.964   9.296  1.5391  0.6171  1.2726
 6496SOL     OW30949   0.797   4.220  16.337  0.6034 -0.1476  0.0698
 6496SOL    HW130950   0.706   4.244  16.356  0.5005  0.2807 -0.9705
 6496SOL    HW230951   0.809   4.167  16.416 -0.8817 -1.1322 -0.3701
 6497SOL     OW30952   3.904   4.303  15.816 -0.2700  0.1092 -0.4140
 6497SOL    HW130953   3.924   4.210  15.806  0.3732  0.2882 -0.8065
 6497SOL    HW230954   3.952   4.310  15.898  2.0031  0.7064 -1.7763
 6498SOL     OW30955   0.267   0.225   6.002 -0.0523  0.4165  0.2258
 6498SOL    HW130956   0.196   0.288   6.013 -0.3574  0.0066  0.5586
 6498SOL    HW230957   0.297   0.219   6.093 -0.0498  2.0813  0.3394
 6499SOL     OW30958   1.039   0.772  16.668 -0.0286 -0.3404  0.0078
 6499SOL    HW130959   0.946   0.775  16.690  0.2326 -0.6482  1.1797
 6499SOL    HW230960   1.032   0.799  16.577 -1.0965  0.6570  0.3950
 6500SOL     OW30961   3.561   2.870   7.856  0.3293 -0.1477  0.2540
 6500SOL    HW130962   3.653   2.893   7.845  0.0851  1.4656  1.5859
 6500SOL    HW230963   3.565   2.836   7.945 -0.5489 -1.5020 -0.2226
 6501SOL     OW30964   0.979   1.680   2.218  0.2568  0.3327  0.1801
 6501SOL    HW130965   0.901   1.718   2.258 -0.9148 -2.8386  0.9638
 6501SOL    HW230966   1.019   1.646   2.297  1.8816 -0.1333 -0.8431
 6502SOL     OW30967   4.636   1.318   0.782  0.2835 -0.0510 -0.2936
 6502SOL    HW130968   4.713   1.374   0.776 -1.3463  2.2156  0.2144
 6502SOL    HW230969   4.566   1.381   0.770 -0.0155 -0.1700  0.8481
 6503SOL     OW30970   1.321   1.943   6.069  0.1197  0.2923 -0.0451
 6503SOL    HW130971   1.352   1.896   6.147  5.4831  2.1600 -1.0265
 6503SOL    HW230972   1.229   1.920   6.065  0.0810  0.4746 -0.1934
 6504SOL     OW30973   4.594   3.159   3.929 -0.1043  0.0746  0.0580
 6504SOL    HW130974   4.586   3.189   4.020  0.0372  0.1478  0.0466
 6504SOL    HW230975   4.604   3.065   3.949  0.3601  0.8969  3.7141
 6505SOL     OW30976   1.796   0.865   8.656 -0.4596  0.0130 -0.6454
 6505SOL    HW130977   1.759   0.789   8.612 -1.7809 -0.7423  1.7415
 6505SOL    HW230978   1.878   0.884   8.612  0.6850  1.2667  1.9977
 6506SOL     OW30979   0.491   0.321   2.579 -0.1417 -0.8985 -0.2347
 6506SOL    HW130980   0.467   0.243   2.628 -0.2971  1.1176  2.8806
 6506SOL    HW230981   0.507   0.293   2.489  0.5111 -2.8649  0.5060
 6507SOL     OW30982   4.247   2.914   3.972 -0.3661  0.1683  0.2201
 6507SOL    HW130983   4.299   2.977   3.921 -2.0643  0.3662 -1.2745
 6507SOL    HW230984   4.264   2.943   4.061 -1.5293  3.8621 -0.7456
 6508SOL     OW30985   3.319   0.516   4.084  0.2208  0.2007 -0.1301
 6508SOL    HW130986   3.232   0.480   4.068  0.6483 -1.2601  0.8061
 6508SOL    HW230987   3.302   0.609   4.074  0.3010  0.1628 -0.6085
 6509SOL     OW30988   1.418   2.312   9.174 -0.2851  0.5823  0.4866
 6509SOL    HW130989   1.454   2.367   9.104 -1.0260  0.4943  0.0443
 6509SOL    HW230990   1.504   2.287   9.209  0.6736  2.9133 -0.1851
 6510SOL     OW30991   4.464   4.546   8.859 -0.6182  0.1284 -0.0203
 6510SOL    HW130992   4.466   4.563   8.954 -0.4450 -1.7868  0.3090
 6510SOL    HW230993   4.487   4.454   8.865  1.8361  0.7790  0.5927
 6511SOL     OW30994   1.487   3.006   1.069  0.0353  0.5799  0.6984
 6511SOL    HW130995   1.577   3.023   1.040  0.1287 -0.6875  0.2450
 6511SOL    HW230996   1.464   3.097   1.052  0.3256  0.0193 -2.6716
 6512SOL     OW30997   0.699   1.731  15.992 -0.7258  0.2324 -0.3289
 6512SOL    HW130998   0.771   1.682  15.952 -0.5857 -1.1691  1.6500
 6512SOL    HW230999   0.759   1.800  16.023 -0.3976 -0.0687 -0.2899
 6513SOL     OW31000   3.123   2.061   1.843  0.2705  0.0702 -0.6991
 6513SOL    HW131001   3.158   2.097   1.925  2.5126 -1.2029 -1.0823
 6513SOL    HW231002   3.185   2.090   1.776  0.9394  2.9319  1.1612
 6514SOL     OW31003   1.639   4.192   0.831 -0.8028  0.0796 -0.3374
 6514SOL    HW131004   1.548   4.165   0.822 -1.0026  1.2211 -1.8551
 6514SOL    HW231005   1.648   4.245   0.751  1.9713  0.1641  0.0153
 6515SOL     OW31006   1.090   3.043   5.384  0.1086 -0.2667 -0.3977
 6515SOL    HW131007   1.108   2.963   5.334  0.0998  1.2133 -2.7993
 6515SOL    HW231008   1.044   3.008   5.460 -0.4767  1.3129 -0.0234
 6516SOL     OW31009   4.037   1.263   6.193 -0.1102 -0.1266 -0.0393
 6516SOL    HW131010   4.121   1.249   6.148 -0.6264  2.7576 -1.9131
 6516SOL    HW231011   3.992   1.284   6.111  0.3108  1.4495  0.1292
 6517SOL     OW31012   2.446   0.862   2.764 -0.2221  0.0393  0.3051
 6517SOL    HW131013   2.491   0.932   2.717 -0.6206  0.5350  0.6647
 6517SOL    HW231014   2.463   0.889   2.854  0.8221  1.2594 -0.2635
 6518SOL     OW31015   0.185   2.210   2.818 -0.6495 -0.6770  0.1496
 6518SOL    HW131016   0.110   2.224   2.876 -1.9967  0.5406 -1.9047
 6518SOL    HW231017   0.202   2.297   2.784 -1.3741 -0.1673  1.0801
 6519SOL     OW31018   2.539   1.912   9.579  0.1511  0.2250 -0.4745
 6519SOL    HW131019   2.469   1.893   9.640  2.1195 -0.6090  1.5196
 6519SOL    HW231020   2.587   1.978   9.630  1.5888  0.2935 -1.9086
 6520SOL     OW31021   0.465   0.465   4.062 -0.1978 -0.0641 -0.1550
 6520SOL    HW131022   0.509   0.549   4.050 -0.1868  0.2445  1.9244
 6520SOL    HW231023   0.413   0.468   3.982 -0.2402  2.8311  0.0041
 6521SOL     OW31024   1.518   3.700   1.994  0.4973 -0.1996  0.1499
 6521SOL    HW131025   1.463   3.742   1.927 -0.1196 -1.3994 -0.0931
 6521SOL    HW231026   1.545   3.618   1.952 -1.7579 -0.5213 -0.6812
 6522SOL     OW31027   0.241   3.604   9.068  0.0310  0.2493 -0.8566
 6522SOL    HW131028   0.296   3.681   9.082 -0.4231  0.3221  0.5967
 6522SOL    HW231029   0.186   3.628   8.993 -1.9983 -0.1693  0.4881
 6523SOL     OW31030   2.230   2.008   7.323 -0.0134  0.1834 -0.3766
 6523SOL    HW131031   2.187   2.033   7.405  1.1160  0.7476  0.0413
 6523SOL    HW231032   2.162   1.985   7.260 -1.0710  0.6122  0.6146
 6524SOL     OW31033   3.870   1.830  14.832  0.3382 -0.4650 -0.5404
 6524SOL    HW131034   3.846   1.832  14.924  0.0283 -0.4132 -0.6220
 6524SOL    HW231035   3.928   1.906  14.822 -1.0191  0.3441 -2.3503
 6525SOL     OW31036   2.939   0.311  16.016  0.8478  0.0265 -0.6327
 6525SOL    HW131037   2.958   0.229  16.062  1.1261 -0.1372 -1.0326
 6525SOL    HW231038   2.966   0.372  16.084 -2.7731 -0.0808  0.8713
 6526SOL     OW31039   4.507   4.055   9.998  0.1018 -0.3258  0.4270
 6526SOL    HW131040   4.540   4.099  10.076 -1.2576  0.4237  0.5816
 6526SOL    HW231041   4.452   4.126   9.965 -1.7220 -2.2653 -0.7386
 6527SOL     OW31042   0.443   3.507  12.715  0.2580 -0.7339 -0.5359
 6527SOL    HW131043   0.458   3.545  12.802 -1.9859 -0.0779 -0.4211
 6527SOL    HW231044   0.349   3.490  12.710  0.5168 -1.3360 -3.1552
 6528SOL     OW31045   2.529   0.346  16.553 -0.4016 -0.1716 -0.2289
 6528SOL    HW131046   2.519   0.425  16.500  2.1801 -0.1039 -0.5965
 6528SOL    HW231047   2.600   0.366  16.614  0.3174  4.5616 -2.5904
 6529SOL     OW31048   0.062   3.941   7.735 -0.3241  0.0555 -0.1356
 6529SOL    HW131049   0.158   3.941   7.739 -0.2389  1.5717 -2.5968
 6529SOL    HW231050   0.042   3.985   7.653 -1.0677 -1.3014 -0.6815
 6530SOL     OW31051   4.450   2.121  17.602 -0.1000  0.4489  0.2700
 6530SOL    HW131052   4.532   2.076  17.580 -0.1538  0.0947  0.7808
 6530SOL    HW231053   4.480   2.212  17.594  0.1019  0.7653  4.6548
 6531SOL     OW31054   2.033   0.821   9.637 -0.6081  0.4362  0.7242
 6531SOL    HW131055   2.089   0.754   9.598 -1.9308  0.5432 -1.3515
 6531SOL    HW231056   2.028   0.892   9.573  0.5669 -1.3561 -1.3650
 6532SOL     OW31057   4.476   3.461   1.907 -0.1919 -0.3186  0.0705
 6532SOL    HW131058   4.410   3.498   1.848 -0.3499 -0.3216  0.2420
 6532SOL    HW231059   4.445   3.484   1.995 -2.1627 -2.1938 -0.1210
 6533SOL     OW31060   4.046   0.482   7.720  0.4503 -0.3900 -0.0796
 6533SOL    HW131061   4.001   0.410   7.764  0.1295 -0.6891 -0.8897
 6533SOL    HW231062   3.977   0.543   7.695  0.9414 -0.1477 -0.8397
 6534SOL     OW31063   1.033   1.186   7.775  0.2087  0.0971 -0.0626
 6534SOL    HW131064   0.977   1.163   7.849  0.9803 -3.0690 -0.4440
 6534SOL    HW231065   1.114   1.139   7.795  1.4101  1.3195 -2.0203
 6535SOL     OW31066   3.258   2.370   5.491  0.0695  0.1373 -0.1088
 6535SOL    HW131067   3.279   2.421   5.569 -1.1083  0.7323 -0.1888
 6535SOL    HW231068   3.208   2.431   5.437 -0.9460 -1.3972 -0.8939
 6536SOL     OW31069   1.906   0.044  15.515 -0.1467  0.7553 -0.2690
 6536SOL    HW131070   1.909   0.138  15.494  1.3268  1.0432  1.2986
 6536SOL    HW231071   1.892   4.722  15.433  1.1554 -0.1243  0.0295
 6537SOL     OW31072   1.553   3.066   7.934 -0.1968 -0.3353 -0.0323
 6537SOL    HW131073   1.617   3.053   8.004  0.7253 -3.9833 -1.5505
 6537SOL    HW231074   1.548   3.161   7.946 -1.4820 -0.5564  1.1022
 6538SOL     OW31075   3.838   3.672  12.997  0.5087  0.3626  0.5076
 6538SOL    HW131076   3.801   3.759  13.012 -2.1847 -0.5829 -0.7371
 6538SOL    HW231077   3.928   3.696  13.019 -0.1177  3.9907 -0.9777
 6539SOL     OW31078   4.437   3.093   8.943  0.1717 -0.4952  0.5413
 6539SOL    HW131079   4.450   3.000   8.958 -1.1873 -0.9292 -0.9377
 6539SOL    HW231080   4.342   3.095   8.952  0.4820 -0.7688  3.7919
 6540SOL     OW31081   1.984   2.548  15.557  0.9973  0.5515 -0.5405
 6540SOL    HW131082   2.015   2.462  15.530  0.7115  0.9277 -2.0896
 6540SOL    HW231083   2.000   2.596  15.476 -0.6792  0.2949 -1.0244
 6541SOL     OW31084   0.665   1.098   1.075  0.1315  0.4091  0.2557
 6541SOL    HW131085   0.628   1.046   1.003  0.2741  0.6977 -0.0272
 6541SOL    HW231086   0.727   1.146   1.020 -0.8771 -0.8167 -1.9840
 6542SOL     OW31087   2.265   2.795  17.682 -0.0085 -0.2864 -0.0047
 6542SOL    HW131088   2.336   2.829   0.033  0.0066 -0.2602 -0.0405
 6542SOL    HW231089   2.208   2.785   0.054 -0.4341  2.2089  0.0225
 6543SOL     OW31090   0.792   2.703  10.455  0.1900 -0.2572  0.2763
 6543SOL    HW131091   0.811   2.651  10.533  1.5707  0.2980  0.3149
 6543SOL    HW231092   0.699   2.713  10.473  0.2956 -0.1828  0.7897
 6544SOL     OW31093   1.028   0.966   5.919  0.0300  0.4013 -0.1458
 6544SOL    HW131094   0.988   1.005   5.996 -0.1114  1.9823 -1.0081
 6544SOL    HW231095   1.102   1.025   5.904  1.6531 -2.0551 -1.9994
 6545SOL     OW31096   0.424   1.796   3.724  0.3175 -0.3338  0.5451
 6545SOL    HW131097   0.494   1.735   3.700 -0.1770 -1.3447  1.6974
 6545SOL    HW231098   0.469   1.877   3.746 -0.0739 -0.0645  0.3629
 6546SOL     OW31099   0.745   0.458  16.213 -0.2895  0.4502 -0.2121
 6546SOL    HW131100   0.752   0.363  16.205  0.9048  0.6116 -0.9911
 6546SOL    HW231101   0.803   0.481  16.140 -1.2539 -1.5152 -1.5956
 6547SOL     OW31102   3.709   1.784  10.035  0.1610  0.3166  0.4987
 6547SOL    HW131103   3.702   1.732  10.115 -0.8102  1.7254  1.3409
 6547SOL    HW231104   3.629   1.746   9.999  0.6701 -0.2138 -0.0545
 6548SOL     OW31105   0.862   1.456  17.236  0.2022  0.5018 -0.2377
 6548SOL    HW131106   0.834   1.409  17.315  2.2391  0.2962  0.3631
 6548SOL    HW231107   0.883   1.543  17.270 -2.8334  1.0205  0.2356
 6549SOL     OW31108   4.447   0.229   2.156  0.4387 -0.1695  0.0972
 6549SOL    HW131109   4.498   0.290   2.209  0.6658 -0.5956  0.3644
 6549SOL    HW231110   4.382   0.202   2.220  1.2194 -1.4072  0.3626
 6550SOL     OW31111   2.697   2.682   4.956  0.3010  0.1210  0.1699
 6550SOL    HW131112   2.603   2.694   4.942  0.2791 -1.7738 -1.4365
 6550SOL    HW231113   2.710   2.750   5.022  0.2238 -1.7104  2.0679
 6551SOL     OW31114   2.965   2.136   1.504 -0.1432  0.3337 -0.6114
 6551SOL    HW131115   3.002   2.048   1.494 -0.4567  0.5997 -3.9979
 6551SOL    HW231116   2.874   2.108   1.516 -0.1704  0.3383 -0.8183
 6552SOL     OW31117   2.932   0.746   6.507  0.0290 -0.1118  0.0427
 6552SOL    HW131118   2.935   0.779   6.417 -0.0255  1.8654  0.7628
 6552SOL    HW231119   3.016   0.760   6.550  0.0036  0.6934 -0.1824
 6553SOL     OW31120   0.264   0.827   2.538  0.2812 -0.0934 -0.2174
 6553SOL    HW131121   0.184   0.854   2.492 -0.2695  0.7092  1.2004
 6553SOL    HW231122   0.333   0.871   2.489  0.9005  0.2657  0.9822
 6554SOL     OW31123   1.171   4.463   5.927  0.2577 -0.3302  0.5024
 6554SOL    HW131124   1.129   4.467   5.842  0.2700 -0.1279  0.5074
 6554SOL    HW231125   1.262   4.488   5.908 -0.0786  0.5321  0.0388
 6555SOL     OW31126   1.564   0.192   0.647 -0.0761  0.2030  0.2312
 6555SOL    HW131127   1.634   0.138   0.611 -1.5722 -0.7642 -1.2682
 6555SOL    HW231128   1.591   0.195   0.738 -1.7430  1.3159  0.7007
 6556SOL     OW31129   3.920   2.606  14.989  0.7456  0.0891  0.2123
 6556SOL    HW131130   3.847   2.658  14.954  0.5287 -0.4600 -0.1439
 6556SOL    HW231131   3.864   2.553  15.046  0.2361  2.1300  1.6203
 6557SOL     OW31132   0.531   4.313  16.308 -0.1028  0.1559  0.0658
 6557SOL    HW131133   0.452   4.276  16.268 -0.2223 -0.8277  1.2223
 6557SOL    HW231134   0.495   4.401  16.325  1.9258  1.2655 -1.5307
 6558SOL     OW31135   1.898   4.405   7.776  0.2248 -0.1146  0.0800
 6558SOL    HW131136   1.883   4.474   7.712  0.5177  0.1444  0.2907
 6558SOL    HW231137   1.931   4.334   7.722  0.3705 -0.7388  0.9813
 6559SOL     OW31138   3.007   0.610  11.975 -0.0095  0.1338 -0.1879
 6559SOL    HW131139   2.920   0.571  11.965  0.3680 -0.4767 -1.0461
 6559SOL    HW231140   3.054   0.529  11.993 -3.0179 -0.8764  3.0428
 6560SOL     OW31141   3.497   4.638   9.175 -0.2206 -0.0711  0.3913
 6560SOL    HW131142   3.590   4.625   9.162 -0.6222 -1.6164 -0.9204
 6560SOL    HW231143   3.457   4.598   9.097 -0.7611  0.5711  0.3355
 6561SOL     OW31144   2.459   2.764  11.959 -0.3045  0.2183 -0.0310
 6561SOL    HW131145   2.543   2.764  12.005 -0.6151 -0.4967  0.5430
 6561SOL    HW231146   2.437   2.671  11.952  1.3918 -0.4582  3.4439
 6562SOL     OW31147   3.259   0.603  11.078  0.3241 -0.0127  0.1907
 6562SOL    HW131148   3.301   0.583  11.162 -1.6223  2.1380  1.6574
 6562SOL    HW231149   3.189   0.541  11.097 -0.1507  0.7438  0.8853
 6563SOL     OW31150   4.087   3.952   7.484  0.6259 -0.3152  0.1411
 6563SOL    HW131151   4.081   3.906   7.568  1.4203 -2.2865 -0.8594
 6563SOL    HW231152   4.137   4.030   7.508  0.5361  0.1372 -1.1058
 6564SOL     OW31153   2.378   4.476   7.217 -0.4129 -0.2925 -0.1226
 6564SOL    HW131154   2.306   4.517   7.170 -0.7559  0.2612  0.8708
 6564SOL    HW231155   2.334   4.398   7.253 -1.2350 -0.1115 -0.7336
 6565SOL     OW31156   1.555   4.566   2.250  0.0425  0.1733 -0.1882
 6565SOL    HW131157   1.557   4.471   2.256  0.1173  0.2923  1.7266
 6565SOL    HW231158   1.516   4.582   2.164  1.0632 -1.1994 -0.9035
 6566SOL     OW31159   4.425   4.461  15.525 -0.1984  0.3539  0.0515
 6566SOL    HW131160   4.388   4.544  15.555  3.9004  0.9839  3.4159
 6566SOL    HW231161   4.505   4.494  15.484 -0.1644 -1.1937 -1.1018
 6567SOL     OW31162   1.912   3.552   2.319 -0.4126  0.0265 -0.1934
 6567SOL    HW131163   1.955   3.524   2.238  2.0609  0.5933  0.9007
 6567SOL    HW231164   1.931   3.646   2.324 -2.4974  0.5557 -2.2102
 6568SOL     OW31165   1.693   3.918   3.635  0.2562  0.2758  0.2550
 6568SOL    HW131166   1.779   3.897   3.599 -0.6745 -0.9772 -1.2017
 6568SOL    HW231167   1.707   3.968   3.715  0.7638 -0.9557  0.9318
 6569SOL     OW31168   1.369   2.172   5.646  0.3392  0.2199  0.0047
 6569SOL    HW131169   1.397   2.132   5.728 -1.7615 -1.2172  0.0208
 6569SOL    HW231170   1.451   2.193   5.602 -0.7695 -0.8452 -2.5701
 6570SOL     OW31171   0.398   4.242   8.459  0.8898 -0.1628 -0.5966
 6570SOL    HW131172   0.392   4.259   8.553 -2.3326  4.0575 -1.5909
 6570SOL    HW231173   0.406   4.334   8.433  1.3291  0.3076  1.1379
 6571SOL     OW31174   0.362   4.711  11.298  0.2634 -0.1869 -0.1670
 6571SOL    HW131175   0.329   4.645  11.359  0.9044 -0.6524 -0.3337
 6571SOL    HW231176   0.422   0.044  11.345 -2.6999  3.3663 -0.7818
 6572SOL     OW31177   0.762   1.416   5.314  0.2093  0.0553  0.1335
 6572SOL    HW131178   0.771   1.349   5.246  1.1227  0.6033 -0.2949
 6572SOL    HW231179   0.712   1.489   5.278  0.2678 -0.2798 -0.6281
 6573SOL     OW31180   3.578   4.259  11.255 -0.3750 -0.3917  0.1880
 6573SOL    HW131181   3.659   4.229  11.214  1.1582  0.2531  2.6770
 6573SOL    HW231182   3.624   4.333  11.296 -0.8125 -0.2649  0.4483
 6574SOL     OW31183   2.291   1.172   5.338  0.0128  0.1212  0.2125
 6574SOL    HW131184   2.219   1.112   5.358  0.0671 -0.8608 -2.4962
 6574SOL    HW231185   2.266   1.221   5.259 -1.2243  0.3750  0.7649
 6575SOL     OW31186   4.258   1.377  12.644 -0.5191 -0.1529 -0.2716
 6575SOL    HW131187   4.185   1.393  12.584  1.8071  3.5124 -2.1243
 6575SOL    HW231188   4.210   1.348  12.722 -1.3409 -3.2496 -1.9217
 6576SOL     OW31189   1.667   4.481   2.675 -0.0195 -0.3703 -0.3414
 6576SOL    HW131190   1.755   4.445   2.664 -0.0506 -0.4173 -0.4417
 6576SOL    HW231191   1.627   4.415   2.732  0.5291 -0.1697  0.2714
 6577SOL     OW31192   3.473   4.152  14.981 -0.3623  0.4014  0.4215
 6577SOL    HW131193   3.387   4.127  15.015  0.3187 -1.4383  0.8020
 6577SOL    HW231194   3.469   4.111  14.895  0.7388  1.9410 -0.3453
 6578SOL     OW31195   3.028   3.532   1.687  0.2871  0.1816 -0.2103
 6578SOL    HW131196   3.032   3.437   1.681 -1.8856  0.0392  0.4403
 6578SOL    HW231197   2.935   3.547   1.671  0.5590  2.7971  0.5601
 6579SOL     OW31198   3.111   3.928   5.685 -0.2486  0.4758 -0.3148
 6579SOL    HW131199   3.163   3.977   5.748 -2.2136  0.8159  1.0461
 6579SOL    HW231200   3.076   3.847   5.723  1.2060 -0.6940 -1.4838
 6580SOL     OW31201   1.918   1.653   6.448 -0.0272 -0.3823  1.0280
 6580SOL    HW131202   1.960   1.732   6.414 -0.7347 -0.0045  1.0277
 6580SOL    HW231203   1.960   1.644   6.533  1.4328 -1.6249  0.1747
 6581SOL     OW31204   1.604   3.778   9.285  0.4395 -0.2207  0.3167
 6581SOL    HW131205   1.535   3.830   9.327  1.3029  1.6948 -0.6749
 6581SOL    HW231206   1.639   3.729   9.360  2.0125  0.4646  0.0256
 6582SOL     OW31207   2.049   4.679   9.045 -0.1904  0.2048 -0.3731
 6582SOL    HW131208   2.049   4.723   8.960 -1.1740  0.5494 -0.1897
 6582SOL    HW231209   2.093   4.597   9.021 -1.9599 -1.0952  0.8747
 6583SOL     OW31210   4.064   1.430  14.575 -0.9754  1.0306  0.2721
 6583SOL    HW131211   4.104   1.344  14.559  0.4011  1.9270 -1.1284
 6583SOL    HW231212   4.121   1.457  14.647 -0.8137 -0.6171  0.7663
 6584SOL     OW31213   0.065   4.461   8.345  0.4580  0.5868 -0.3704
 6584SOL    HW131214   4.700   4.490   8.352  0.1784 -0.7255  1.5479
 6584SOL    HW231215   0.077   4.476   8.251  0.3549 -0.0498 -0.4902
 6585SOL     OW31216   3.812   0.912   3.214  0.1003  0.4900 -0.6213
 6585SOL    HW131217   3.764   0.992   3.194 -0.3588  0.7411  1.5858
 6585SOL    HW231218   3.888   0.920   3.156  0.3837 -0.9541 -0.4605
 6586SOL     OW31219   0.442   0.096   8.333  0.0093 -0.9881 -0.0526
 6586SOL    HW131220   0.432   0.090   8.238 -1.5671 -0.1289  0.0551
 6586SOL    HW231221   0.355   0.120   8.364 -0.1256 -1.2616 -0.2206
 6587SOL     OW31222   0.615   4.631   8.896  0.5929 -0.0808 -0.1111
 6587SOL    HW131223   0.573   4.716   8.909  0.7789 -0.1874  1.2394
 6587SOL    HW231224   0.554   4.570   8.855 -1.0383  1.8701 -0.5896
 6588SOL     OW31225   4.499   3.678   8.209  0.4254 -0.2612  0.7014
 6588SOL    HW131226   4.447   3.611   8.253  0.5871  1.5637  3.6809
 6588SOL    HW231227   4.565   3.630   8.159 -0.5494 -0.7618 -0.1178
 6589SOL     OW31228   4.608   2.200   7.691  0.4595  0.0503  0.0701
 6589SOL    HW131229   4.677   2.201   7.625 -0.6949  3.5458 -1.0537
 6589SOL    HW231230   4.594   2.294   7.697 -0.5746 -0.0884 -0.0741
 6590SOL     OW31231   1.430   0.266   7.193  0.1419  0.3349  0.2778
 6590SOL    HW131232   1.433   0.343   7.136  0.8892 -0.8488 -1.2847
 6590SOL    HW231233   1.521   0.247   7.214  0.7769  4.0215  0.7191
 6591SOL     OW31234   3.753   0.874   9.526 -0.3450 -0.5665 -0.0220
 6591SOL    HW131235   3.806   0.804   9.489  0.3710  0.1847 -0.4212
 6591SOL    HW231236   3.814   0.944   9.551 -0.7518  0.4667 -1.9341
 6592SOL     OW31237   2.682   2.582   3.660 -0.2678 -0.2297  0.2414
 6592SOL    HW131238   2.647   2.670   3.645  1.2997  0.4303  0.4344
 6592SOL    HW231239   2.658   2.535   3.580  0.0210  0.1835 -0.0837
 6593SOL     OW31240   0.254   0.016   9.175 -0.0088 -0.2673  0.1301
 6593SOL    HW131241   0.234   4.649   9.162  0.0341 -0.1927 -0.4521
 6593SOL    HW231242   0.344   0.023   9.206  0.4015 -1.8428 -0.7491
 6594SOL     OW31243   3.177   3.166   7.765 -0.0499 -0.0603 -0.4675
 6594SOL    HW131244   3.186   3.261   7.755 -2.8560  0.2867  0.1936
 6594SOL    HW231245   3.268   3.142   7.779 -0.3167 -0.3991  0.7545
 6595SOL     OW31246   0.324   0.993   4.977 -0.0000  0.0111  0.2586
 6595SOL    HW131247   0.351   0.981   5.068 -0.4407 -2.4961  0.0630
 6595SOL    HW231248   0.253   0.929   4.980  0.1905 -0.2356 -0.4336
 6596SOL     OW31249   3.735   3.079   7.406 -0.2645  0.2992  0.2228
 6596SOL    HW131250   3.742   2.996   7.358 -0.0915  0.7826 -0.5758
 6596SOL    HW231251   3.821   3.076   7.448 -0.3547 -0.7739  0.3431
 6597SOL     OW31252   4.699   1.910   8.060 -0.6436  0.0465 -0.1712
 6597SOL    HW131253   4.646   1.932   7.984 -0.4445 -0.8757 -0.5737
 6597SOL    HW231254   4.679   1.817   8.068 -2.3989  0.5374  0.9900
 6598SOL     OW31255   2.425   3.851  10.295  0.0731 -0.6332  0.3807
 6598SOL    HW131256   2.512   3.888  10.284  0.0007 -0.0925  1.6306
 6598SOL    HW231257   2.383   3.843  10.209  0.9759  1.7943 -0.2973
 6599SOL     OW31258   3.986   0.720   3.371  0.4293 -0.6428 -0.1443
 6599SOL    HW131259   4.059   0.764   3.326  0.6029 -0.0955  0.6627
 6599SOL    HW231260   3.913   0.781   3.361 -0.2280 -1.2999  0.6954
 6600SOL     OW31261   2.340   3.582   8.648  0.0692 -0.4729  0.4025
 6600SOL    HW131262   2.433   3.565   8.631  0.3666  2.2641 -0.7187
 6600SOL    HW231263   2.349   3.653   8.712 -1.3829 -0.5860  0.7296
 6601SOL     OW31264   3.822   3.815   7.163  0.1968  0.1161 -0.1535
 6601SOL    HW131265   3.786   3.825   7.075  0.5081 -0.5114 -0.3584
 6601SOL    HW231266   3.816   3.900   7.205  1.2909  1.1810 -2.1608
 6602SOL     OW31267   0.096   3.760   5.733  0.1916  0.0164  0.0245
 6602SOL    HW131268   0.069   3.825   5.798  0.5589  0.1406  0.0492
 6602SOL    HW231269   0.169   3.721   5.781 -0.6922  1.0947  2.2410
 6603SOL     OW31270   4.695   3.042   9.093 -0.3819 -0.2019 -0.3248
 6603SOL    HW131271   4.606   3.067   9.069 -0.6577 -2.0415 -1.1676
 6603SOL    HW231272   4.681   2.979   9.163 -0.2505 -0.7957 -0.8317
 6604SOL     OW31273   2.159   3.771   2.607 -0.3578  0.5717 -0.1504
 6604SOL    HW131274   2.241   3.820   2.612 -0.8442  1.3801 -0.1090
 6604SOL    HW231275   2.134   3.773   2.514 -0.3258 -1.9617 -0.2203
 6605SOL     OW31276   1.175   3.862  17.201  0.3364  0.1385  0.2022
 6605SOL    HW131277   1.108   3.851  17.268  1.8963 -0.4015  1.6775
 6605SOL    HW231278   1.121   3.854  17.122 -0.9823 -1.4925  1.2860
 6606SOL     OW31279   3.507   1.245   4.333  0.4413  0.2668 -0.4854
 6606SOL    HW131280   3.486   1.326   4.379 -0.2574 -0.3091  0.2022
 6606SOL    HW231281   3.577   1.280   4.278  2.2793 -1.5155  0.6829
 6607SOL     OW31282   3.095   1.759   6.090  0.0394 -0.1936  0.1015
 6607SOL    HW131283   3.176   1.712   6.074 -2.1916 -4.3751  1.1275
 6607SOL    HW231284   3.075   1.790   6.002  0.9125 -2.4822 -0.8999
 6608SOL     OW31285   3.346   4.351   3.367  0.0139 -0.5123  0.3410
 6608SOL    HW131286   3.320   4.327   3.279 -3.2539 -0.1158  1.1965
 6608SOL    HW231287   3.290   4.425   3.391  0.1895 -0.2495 -0.0713
 6609SOL     OW31288   2.857   2.424   9.077 -0.1461 -0.3646  0.5580
 6609SOL    HW131289   2.835   2.332   9.059 -2.2839  0.3020 -0.2297
 6609SOL    HW231290   2.824   2.441   9.165 -1.4490  0.6236 -0.1286
 6610SOL     OW31291   2.021   0.926   6.245 -0.5955 -0.1224 -0.0439
 6610SOL    HW131292   2.063   0.859   6.298 -0.8026  0.1713  0.4835
 6610SOL    HW231293   2.087   0.993   6.260  1.1526 -1.4719 -1.6165
 6611SOL     OW31294   0.189   1.823   7.578  0.2924 -0.4878  0.0294
 6611SOL    HW131295   0.115   1.858   7.529 -0.3709 -2.2568 -0.2407
 6611SOL    HW231296   0.173   1.856   7.667 -0.9822 -0.1808 -0.3244
 6612SOL     OW31297   3.095   0.971   8.520 -0.1669  0.0067 -0.7777
 6612SOL    HW131298   3.018   0.917   8.537 -0.4373  0.7589  0.4026
 6612SOL    HW231299   3.085   1.037   8.590  2.4281 -0.1431 -0.2575
 6613SOL     OW31300   3.566   2.118   3.731  0.0233 -0.0867  0.5488
 6613SOL    HW131301   3.515   2.199   3.734  1.3986  0.7943  0.5053
 6613SOL    HW231302   3.562   2.099   3.638  1.0683 -1.2051  0.7330
 6614SOL     OW31303   0.258   4.370   6.285 -0.2366  0.1271 -0.3861
 6614SOL    HW131304   0.200   4.435   6.323 -0.5866 -0.5256  0.2010
 6614SOL    HW231305   0.195   4.303   6.258 -0.1350 -1.3998  3.1607
 6615SOL     OW31306   2.485   3.438  11.633 -0.1537  0.2369 -0.1435
 6615SOL    HW131307   2.440   3.506  11.683  0.0747 -0.0807  0.5056
 6615SOL    HW231308   2.439   3.355  11.646  1.7561 -0.9057 -0.6100
 6616SOL     OW31309   4.483   2.707   5.543 -0.2068 -0.0165 -0.7200
 6616SOL    HW131310   4.486   2.785   5.599 -1.5574 -0.3642 -0.1651
 6616SOL    HW231311   4.392   2.678   5.551  0.4329 -2.0353 -0.7864
 6617SOL     OW31312   1.941   3.025  11.949 -0.1178  0.3072  0.0617
 6617SOL    HW131313   2.033   3.049  11.938  0.3799 -2.5407 -1.8597
 6617SOL    HW231314   1.940   3.040  12.044  0.2630 -0.8585  0.2611
 6618SOL     OW31315   2.928   1.972   0.883 -0.3337 -0.2885  0.6138
 6618SOL    HW131316   3.012   1.979   0.928  1.0587 -0.4880 -1.8977
 6618SOL    HW231317   2.949   2.012   0.798 -3.8627  0.5982  0.1460
 6619SOL     OW31318   2.072   0.754   0.128  0.3900  0.1039  0.2411
 6619SOL    HW131319   2.090   0.680   0.070  1.2933  0.4752  0.0579
 6619SOL    HW231320   2.156   0.801   0.129 -0.2797  1.3540 -1.4624
 6620SOL     OW31321   4.561   2.225  15.905 -0.3654  0.3001  0.7342
 6620SOL    HW131322   4.565   2.307  15.953 -0.8386  0.4323  0.5397
 6620SOL    HW231323   4.502   2.171  15.957  0.1044 -0.3321  0.6179
 6621SOL     OW31324   0.457   3.686  13.863  0.1797  0.1817  0.0028
 6621SOL    HW131325   0.551   3.670  13.855  0.2879 -0.2396  2.1925
 6621SOL    HW231326   0.429   3.713  13.776 -0.8816  2.6962  1.1293
 6622SOL     OW31327   1.184   2.285   6.607 -0.2628 -0.5805 -0.3562
 6622SOL    HW131328   1.165   2.345   6.535 -1.7061 -0.5695  0.0256
 6622SOL    HW231329   1.192   2.347   6.680  2.8605  0.5551 -1.6347
 6623SOL     OW31330   3.487   4.571  10.889  0.2332 -0.4076  0.4277
 6623SOL    HW131331   3.476   4.512  10.815 -0.6858  0.7215 -0.3328
 6623SOL    HW231332   3.554   4.521  10.936 -0.8246 -2.2834 -0.0677
 6624SOL     OW31333   2.344   0.037   1.840  0.1657 -0.1901 -0.0398
 6624SOL    HW131334   2.427   0.077   1.864  0.8940 -0.6362 -1.8259
 6624SOL    HW231335   2.297   0.117   1.816  0.8642  0.5025  0.9409
 6625SOL     OW31336   1.481   1.503  15.036 -0.4390 -0.2293 -0.0070
 6625SOL    HW131337   1.412   1.511  14.970 -1.5826  0.2098  1.2419
 6625SOL    HW231338   1.499   1.597  15.034  1.9529 -0.6602  0.8720
 6626SOL     OW31339   4.621   4.690   2.441 -0.2548 -0.1690  0.2142
 6626SOL    HW131340   4.527   4.684   2.426  0.1849 -1.2003 -2.0721
 6626SOL    HW231341   4.619   4.673   2.535  0.3781 -2.3844 -0.1727
 6627SOL     OW31342   3.613   2.808   3.633  0.0145  0.1031 -0.1608
 6627SOL    HW131343   3.625   2.877   3.699  4.3184  0.1414 -0.9300
 6627SOL    HW231344   3.681   2.746   3.662 -1.1319 -0.0211  2.2473
 6628SOL     OW31345   1.893   2.668  14.102  0.0828  0.1445  0.1448
 6628SOL    HW131346   1.816   2.613  14.083  0.5574 -0.0867 -1.0930
 6628SOL    HW231347   1.863   2.755  14.078 -0.7031  0.0274  0.6903
 6629SOL     OW31348   1.110   4.368   2.834 -0.2942 -0.9206 -0.1269
 6629SOL    HW131349   1.165   4.446   2.836 -0.5539 -0.7402  0.0965
 6629SOL    HW231350   1.112   4.353   2.740 -2.4766  1.7907 -0.5917
 6630SOL     OW31351   4.037   1.310   6.460 -0.3910  0.1994 -0.1317
 6630SOL    HW131352   3.991   1.286   6.379 -0.0451 -0.8213 -0.0292
 6630SOL    HW231353   4.129   1.311   6.434  0.1433 -0.2424  1.6985
 6631SOL     OW31354   1.436   1.847  12.975 -0.1922  0.1417 -0.5570
 6631SOL    HW131355   1.441   1.885  12.887  1.4274 -0.0499 -0.5610
 6631SOL    HW231356   1.355   1.881  13.013  0.4187  1.2890 -0.2819
 6632SOL     OW31357   2.041   3.911   3.789 -0.3024  0.0474 -0.0430
 6632SOL    HW131358   2.072   3.856   3.716  1.2250 -0.0309  0.6572
 6632SOL    HW231359   2.034   3.850   3.863  0.8178  1.1359  0.9466
 6633SOL     OW31360   0.935   4.409  17.298  0.3901  0.2968  0.0015
 6633SOL    HW131361   1.020   4.365  17.308 -0.4147 -1.4214 -0.7175
 6633SOL    HW231362   0.892   4.362  17.227 -1.4957 -0.3750  1.5944
 6634SOL     OW31363   1.870   3.560   9.345 -0.3742  0.0148 -0.2525
 6634SOL    HW131364   1.809   3.604   9.405  0.2834  1.1925 -0.4507
 6634SOL    HW231365   1.950   3.604   9.375 -0.9983 -0.2689  1.8739
 6635SOL     OW31366   2.608   3.681   2.173  0.4899  0.0875 -0.4563
 6635SOL    HW131367   2.579   3.772   2.167  2.7904  0.6937 -2.5440
 6635SOL    HW231368   2.649   3.669   2.087  0.3127 -2.4279 -0.1901
 6636SOL     OW31369   0.630   2.293   4.047  0.0314  0.5348  0.1488
 6636SOL    HW131370   0.604   2.316   3.957 -1.0919  1.8740  0.8128
 6636SOL    HW231371   0.559   2.240   4.084  0.9396 -0.8727 -0.1246
 6637SOL     OW31372   1.359   4.207   8.550 -0.1730  0.9774  0.2074
 6637SOL    HW131373   1.451   4.211   8.521  0.6231 -0.3754  2.5090
 6637SOL    HW231374   1.349   4.112   8.548 -1.0363  1.0484  1.4383
 6638SOL     OW31375   4.632   3.543   9.069 -0.3967 -0.3338 -0.6225
 6638SOL    HW131376   4.678   3.504   9.143 -0.6724 -0.0461 -0.3074
 6638SOL    HW231377   4.616   3.468   9.010 -1.3646 -0.4958 -0.1531
 6639SOL     OW31378   1.752   1.573   7.248  0.5200  0.1675 -0.7206
 6639SOL    HW131379   1.838   1.603   7.279  0.2412  1.1063 -0.8504
 6639SOL    HW231380   1.716   1.647   7.200 -2.3281  0.0026  1.1878
 6640SOL     OW31381   1.378   0.725  17.129 -0.3398  0.1040 -0.8379
 6640SOL    HW131382   1.341   0.790  17.189 -4.6121 -3.1604  0.0516
 6640SOL    HW231383   1.300   0.705  17.077 -1.8727  0.0887  1.4593
 6641SOL     OW31384   0.401   0.782   7.946 -0.6334 -0.5646 -0.2098
 6641SOL    HW131385   0.489   0.815   7.967 -1.3766  1.2476  0.0688
 6641SOL    HW231386   0.409   0.763   7.853 -2.3977  1.5394 -0.7638
 6642SOL     OW31387   4.619   2.155   4.501  0.4562  0.2337 -0.5457
 6642SOL    HW131388   4.675   2.126   4.572 -0.8080  0.3444  0.4805
 6642SOL    HW231389   4.564   2.217   4.548 -1.9365 -2.6516  0.4610
 6643SOL     OW31390   4.213   0.483   3.073 -0.5019  0.0079 -0.5886
 6643SOL    HW131391   4.281   0.495   3.140 -1.8697  0.2592  0.7564
 6643SOL    HW231392   4.268   0.483   2.995  1.9248 -3.4035  1.0992
 6644SOL     OW31393   0.074   2.270  10.167  1.0853  0.1792  0.1229
 6644SOL    HW131394   0.127   2.350  10.177  2.2559 -0.6749  0.7422
 6644SOL    HW231395   0.030   2.283  10.083 -1.8192  2.3537  1.9827
 6645SOL     OW31396   1.221   2.537   9.305 -0.5407 -0.2726 -0.2650
 6645SOL    HW131397   1.249   2.447   9.291  1.2444  0.2581 -0.0821
 6645SOL    HW231398   1.248   2.527   9.396  1.0256 -3.6452 -1.1261
 6646SOL     OW31399   3.522   0.350   3.934  0.3665 -0.2175  0.4447
 6646SOL    HW131400   3.450   0.374   3.991  0.1452  0.8958 -0.3113
 6646SOL    HW231401   3.499   0.378   3.846 -0.4228 -0.3540  0.6078
 6647SOL     OW31402   2.032   4.628  13.357 -0.2241  0.2700  0.3446
 6647SOL    HW131403   1.991   4.561  13.302 -2.6144  0.6635  1.6625
 6647SOL    HW231404   2.054   4.690  13.287  1.1356 -0.3227  0.2431
 6648SOL     OW31405   1.067   2.723   8.558  0.3692 -0.3018 -0.2666
 6648SOL    HW131406   0.984   2.688   8.591  0.3883 -0.4630 -0.3905
 6648SOL    HW231407   1.103   2.762   8.638  0.1007 -2.5752  0.9408
 6649SOL     OW31408   4.020   2.760  17.456  0.6172 -0.7309  0.3250
 6649SOL    HW131409   3.940   2.752  17.404  0.7787 -2.2658  0.3196
 6649SOL    HW231410   3.989   2.753  17.546 -1.8509 -0.8973 -0.5297
 6650SOL     OW31411   0.410   1.267   3.195 -0.1061  0.2401 -0.1441
 6650SOL    HW131412   0.383   1.181   3.162 -0.8189  0.9692 -1.4755
 6650SOL    HW231413   0.384   1.319   3.118  0.8395 -1.5885 -1.6929
 6651SOL     OW31414   0.200   3.741   4.371 -0.0233  0.2240  0.3244
 6651SOL    HW131415   0.246   3.825   4.371  1.5790 -0.6605  2.0605
 6651SOL    HW231416   0.221   3.703   4.286 -1.9000  2.2953 -1.0921
 6652SOL     OW31417   3.481   0.744  11.135  0.2845 -0.0624 -0.2010
 6652SOL    HW131418   3.554   0.736  11.073  0.7439  0.1333  0.3170
 6652SOL    HW231419   3.414   0.694  11.088  0.5520 -0.8763  0.2837
 6653SOL     OW31420   3.788   3.405   3.617  0.0727 -0.4385  0.0387
 6653SOL    HW131421   3.731   3.335   3.649 -0.9874  1.0221  1.3812
 6653SOL    HW231422   3.759   3.475   3.675 -0.9713 -1.0458  0.2488
 6654SOL     OW31423   2.920   0.917   4.827 -0.0655 -0.2043  0.1503
 6654SOL    HW131424   2.946   0.900   4.918  0.0129 -0.7116  0.0304
 6654SOL    HW231425   2.989   0.867   4.783  1.5226  2.3350 -0.2735
 6655SOL     OW31426   0.129   4.439   5.677 -0.4194  0.1362  0.1998
 6655SOL    HW131427   0.180   4.413   5.754  1.6839  0.1572 -1.1878
 6655SOL    HW231428   0.039   4.454   5.708 -0.0407  0.5274  1.1233
 6656SOL     OW31429   1.164   2.398  14.895  0.1880  0.6982 -0.1987
 6656SOL    HW131430   1.204   2.322  14.854 -1.3736  0.5539 -1.4265
 6656SOL    HW231431   1.238   2.441  14.939 -0.4769  2.1203 -0.4578
 6657SOL     OW31432   3.230   0.509   8.915  0.1869 -0.0137 -0.7042
 6657SOL    HW131433   3.218   0.579   8.850  0.1585  2.2597  1.7508
 6657SOL    HW231434   3.265   0.553   8.992  1.1178 -1.8642 -0.0799
 6658SOL     OW31435   2.134   3.355   3.045 -0.1842  0.3396  0.2390
 6658SOL    HW131436   2.146   3.367   3.139  0.1300  1.4639  0.0498
 6658SOL    HW231437   2.137   3.443   3.009  0.9063 -0.8817 -2.6494
 6659SOL     OW31438   0.750   4.357   0.822 -0.2120 -0.1432 -0.5490
 6659SOL    HW131439   0.769   4.450   0.832  0.0004 -0.4075  1.5611
 6659SOL    HW231440   0.754   4.313   0.907 -0.0270 -1.6940 -1.3557
 6660SOL     OW31441   3.857   2.757   1.611 -0.0193  0.6599 -0.4435
 6660SOL    HW131442   3.801   2.686   1.642 -0.9745  1.2710 -0.7370
 6660SOL    HW231443   3.806   2.784   1.535  0.7325  1.2997 -0.7233
 6661SOL     OW31444   4.178   4.321   4.082  0.3399  0.1707  0.4101
 6661SOL    HW131445   4.086   4.326   4.109  0.2242  1.7836 -0.2365
 6661SOL    HW231446   4.196   4.413   4.058 -0.5291  0.0207 -0.8264
 6662SOL     OW31447   1.122   3.832   4.453  0.4234  0.4920 -0.2228
 6662SOL    HW131448   1.121   3.918   4.409 -1.7207  0.0804 -0.9400
 6662SOL    HW231449   1.039   3.833   4.500 -0.2998 -0.3485 -1.5035
 6663SOL     OW31450   0.036   0.261   5.231  0.6576  0.1634  0.2709
 6663SOL    HW131451   0.075   0.245   5.317 -1.7348  0.3762  1.4131
 6663SOL    HW231452   4.680   0.211   5.238  0.3310  0.3777 -2.0327
 6664SOL     OW31453   4.362   1.820   2.006  0.0412 -0.6871 -0.0966
 6664SOL    HW131454   4.435   1.773   1.965  1.5599  1.0365  0.6331
 6664SOL    HW231455   4.408   1.894   2.046 -1.6178 -0.1255  0.7531
 6665SOL     OW31456   0.294   3.066   8.306 -0.3847  0.2734 -0.4892
 6665SOL    HW131457   0.260   3.142   8.354 -0.1916 -1.4912  2.4414
 6665SOL    HW231458   0.294   2.995   8.370  0.4429 -0.1792 -0.9948
 6666SOL     OW31459   1.557   1.077   9.348  0.2889 -0.0478  0.2262
 6666SOL    HW131460   1.506   1.040   9.276 -1.1360 -1.0764  1.7800
 6666SOL    HW231461   1.499   1.093   9.423 -1.8325 -1.9508 -1.0348
 6667SOL     OW31462   3.135   3.046   9.247 -0.3472 -0.1170  0.1253
 6667SOL    HW131463   3.230   3.057   9.254 -0.6837  0.6770  3.1917
 6667SOL    HW231464   3.115   3.139   9.240  0.0838  0.1899  2.9717
 6668SOL     OW31465   0.774   4.178   4.453 -0.2396 -0.4623  0.4783
 6668SOL    HW131466   0.754   4.095   4.410  0.6945 -0.5925  0.3062
 6668SOL    HW231467   0.775   4.156   4.546 -2.1490  0.3840  0.7084
 6669SOL     OW31468   0.280   2.406  15.481  0.6685 -0.0384 -0.1734
 6669SOL    HW131469   0.308   2.376  15.395  0.1550  0.7791 -0.6238
 6669SOL    HW231470   0.236   2.329  15.516  1.3133 -0.9238 -1.3435
 6670SOL     OW31471   4.634   2.952  11.079  0.5134  0.0786  0.3884
 6670SOL    HW131472   4.695   3.006  11.029 -1.5039  0.2162 -1.9467
 6670SOL    HW231473   4.548   2.988  11.060  0.3319 -0.8523 -0.5367
 6671SOL     OW31474   2.735   0.741   2.871  0.2133  0.0059 -0.0306
 6671SOL    HW131475   2.814   0.749   2.923 -0.1192  4.0543 -0.1229
 6671SOL    HW231476   2.670   0.709   2.934  0.3073 -0.9967 -0.4462
 6672SOL     OW31477   1.560   3.478   3.347 -0.5773  0.2616 -0.6211
 6672SOL    HW131478   1.589   3.566   3.323 -3.0394  1.1969 -0.1710
 6672SOL    HW231479   1.639   3.426   3.336 -1.0462 -0.4078 -0.7745
 6673SOL     OW31480   0.946   2.774   6.396 -0.0750 -0.0362 -0.1445
 6673SOL    HW131481   0.951   2.838   6.325  1.0870  0.1992  0.1428
 6673SOL    HW231482   0.882   2.815   6.454 -0.2414 -0.6106  0.0773
 6674SOL     OW31483   3.265   0.496   6.949  0.7555 -0.0115  0.0331
 6674SOL    HW131484   3.348   0.543   6.965 -1.0186  3.3686 -0.6654
 6674SOL    HW231485   3.278   0.409   6.986 -0.9843 -0.6563 -0.9040
 6675SOL     OW31486   0.486   1.201   1.251 -0.2947  0.3526  0.1685
 6675SOL    HW131487   0.542   1.156   1.188  1.0199  0.9260  0.9319
 6675SOL    HW231488   0.538   1.252   1.313  1.2090 -0.8374 -0.1024
 6676SOL     OW31489   0.086   1.766   2.084  0.3748 -0.0483  0.2274
 6676SOL    HW131490   0.071   1.704   2.013 -1.6276  0.9328 -0.2045
 6676SOL    HW231491   0.008   1.761   2.140  1.1756  0.0239  1.3520
 6677SOL     OW31492   2.224   0.709   9.076 -0.3674  0.6337 -0.7012
 6677SOL    HW131493   2.160   0.651   9.036  0.6790 -1.8540  1.2272
 6677SOL    HW231494   2.305   0.660   9.061  0.4486  1.6338  0.3813
 6678SOL     OW31495   3.047   0.733   7.789  0.2104 -0.4675  0.5399
 6678SOL    HW131496   2.988   0.692   7.852 -1.2597  0.7424 -0.0331
 6678SOL    HW231497   3.092   0.797   7.845  1.0727 -1.1590  0.6372
 6679SOL     OW31498   0.282   3.726  11.707  0.4041  0.0807  0.9140
 6679SOL    HW131499   0.264   3.748  11.616 -0.3589 -0.0726  1.0268
 6679SOL    HW231500   0.243   3.805  11.745 -2.4453 -0.4759 -0.8456
 6680SOL     OW31501   4.686   2.108   5.535  0.0227  0.0552 -0.9522
 6680SOL    HW131502   4.600   2.129   5.571  2.0748  3.1676  2.1200
 6680SOL    HW231503   0.001   2.195   5.540 -2.8140  1.1505  2.2353
 6681SOL     OW31504   2.949   4.041  16.506  0.1430 -0.2319 -0.1277
 6681SOL    HW131505   2.979   3.961  16.549 -0.4637 -0.0451  0.6324
 6681SOL    HW231506   2.911   4.005  16.426 -0.0470 -0.4845  0.0797
 6682SOL     OW31507   0.932   4.092   7.108 -0.0989 -0.0068  0.5263
 6682SOL    HW131508   0.927   4.110   7.014 -0.4843  2.0231  0.9355
 6682SOL    HW231509   0.839   4.107   7.125  0.1705 -0.8112  2.6401
 6683SOL     OW31510   2.519   2.781   0.593 -0.3820 -0.2765  0.1229
 6683SOL    HW131511   2.536   2.781   0.687  3.1392 -1.3250 -0.4931
 6683SOL    HW231512   2.548   2.695   0.564  3.6953  1.7698 -1.9307
 6684SOL     OW31513   2.247   0.419  12.603  0.0023 -0.0331 -0.1069
 6684SOL    HW131514   2.257   0.407  12.509 -1.0736  0.6093 -0.3069
 6684SOL    HW231515   2.174   0.362  12.628 -0.3009 -0.6209 -2.3712
 6685SOL     OW31516   3.572   2.341   7.137 -0.3529  0.0446  0.4838
 6685SOL    HW131517   3.582   2.270   7.073 -2.1547  0.3954 -0.1797
 6685SOL    HW231518   3.479   2.337   7.158 -0.6642  2.0542 -0.6111
 6686SOL     OW31519   1.467   2.431   2.578 -0.2462  0.1279  0.0190
 6686SOL    HW131520   1.482   2.514   2.534 -1.0264  0.3801  0.2167
 6686SOL    HW231521   1.412   2.385   2.514 -0.2117 -0.5541  0.4749
 6687SOL     OW31522   0.335   4.349   2.753 -0.0351  0.0871  0.5277
 6687SOL    HW131523   0.393   4.279   2.784 -2.3141 -1.3218  1.5369
 6687SOL    HW231524   0.276   4.294   2.702 -0.4353  1.9030 -0.9716
 6688SOL     OW31525   3.397   4.003   1.623 -0.1034 -0.3730  0.2793
 6688SOL    HW131526   3.377   3.910   1.615  3.2311 -1.2674  2.1785
 6688SOL    HW231527   3.472   4.005   1.682  0.1176  0.2867 -0.0274
 6689SOL     OW31528   2.867   2.153   3.637  0.0677 -0.0010  1.1231
 6689SOL    HW131529   2.870   2.126   3.729  1.5958  0.5974  1.2522
 6689SOL    HW231530   2.881   2.072   3.589 -1.7755 -0.4172  1.3066
 6690SOL     OW31531   3.949   1.157  14.914  0.3067 -0.2236 -0.3455
 6690SOL    HW131532   3.940   1.126  14.824  0.8659  0.6818 -0.7140
 6690SOL    HW231533   3.935   1.251  14.906  1.2854  0.0895  1.5380
 6691SOL     OW31534   0.210   3.162  13.477 -0.6328 -0.0148 -0.1722
 6691SOL    HW131535   0.225   3.089  13.417 -0.2879 -0.2093  0.1498
 6691SOL    HW231536   0.177   3.232  13.421 -2.5474  0.3148  1.3758
 6692SOL     OW31537   0.367   1.518   4.985 -0.3074 -0.4139  0.1622
 6692SOL    HW131538   0.345   1.508   4.892  0.2082 -0.2391  0.0205
 6692SOL    HW231539   0.378   1.612   4.995 -2.0466 -0.2429  0.3825
 6693SOL     OW31540   2.844   1.872   0.522  0.0043  0.2082  0.2695
 6693SOL    HW131541   2.899   1.812   0.473 -0.1889  0.2832 -0.0357
 6693SOL    HW231542   2.760   1.858   0.478  0.5800  1.0200 -1.0758
 6694SOL     OW31543   1.204   2.424   5.543  0.6578  0.1223  0.2892
 6694SOL    HW131544   1.253   2.410   5.624 -0.2676 -2.1218  0.4328
 6694SOL    HW231545   1.271   2.397   5.480  0.0700  0.6076 -0.5321
 6695SOL     OW31546   2.943   2.901   4.464 -0.5187  0.3843  0.2038
 6695SOL    HW131547   3.024   2.860   4.495 -1.4219 -1.5138  0.0502
 6695SOL    HW231548   2.932   2.856   4.380  0.9342  1.1372 -0.3799
 6696SOL     OW31549   2.459   3.446  17.622 -0.3736 -0.1442 -0.1312
 6696SOL    HW131550   2.380   3.497  17.640 -0.1229  0.2366 -0.1253
 6696SOL    HW231551   2.530   3.507  17.641 -0.2889 -0.0859 -0.6290
 6697SOL     OW31552   3.719   2.065   6.657  1.1888 -0.9520  0.0882
 6697SOL    HW131553   3.755   2.133   6.714  0.8034  1.2601 -2.3345
 6697SOL    HW231554   3.692   2.121   6.585  0.8247 -0.1489  0.8557
 6698SOL     OW31555   3.623   1.393   3.551  0.1189  0.6579  0.7480
 6698SOL    HW131556   3.659   1.305   3.541  0.3660  0.7283  1.0416
 6698SOL    HW231557   3.538   1.372   3.589 -0.7911  2.5730 -0.1828
 6699SOL     OW31558   1.721   4.442   6.568 -0.2247 -0.4848 -0.2896
 6699SOL    HW131559   1.722   4.349   6.589  1.2215 -0.7330 -1.4535
 6699SOL    HW231560   1.681   4.443   6.481 -1.1381  0.8909  0.1431
 6700SOL     OW31561   2.697   0.409   8.590  0.0126  0.1130 -0.0393
 6700SOL    HW131562   2.739   0.477   8.536  1.7862 -1.6418 -0.8827
 6700SOL    HW231563   2.756   0.338   8.565 -1.5021 -0.4739 -1.8835
 6701SOL     OW31564   0.918   4.072  16.884  0.1031  0.1920 -0.0568
 6701SOL    HW131565   0.991   4.043  16.830  1.4799  0.6263  1.5751
 6701SOL    HW231566   0.919   3.998  16.944 -1.6991  0.1832 -0.0397
 6702SOL     OW31567   3.616   0.923   8.664 -0.0093  0.0972  0.0827
 6702SOL    HW131568   3.588   1.007   8.700  2.1010  0.8425 -0.0141
 6702SOL    HW231569   3.548   0.903   8.599  0.3273 -1.5122  0.2420
 6703SOL     OW31570   4.131   3.841   9.234  0.1681 -0.0231  0.0109
 6703SOL    HW131571   4.059   3.868   9.291  0.5152  0.5170  0.1925
 6703SOL    HW231572   4.196   3.911   9.242  1.6009 -1.2190 -1.1536
 6704SOL     OW31573   2.696   2.738   5.788 -0.4050 -0.5524  0.0147
 6704SOL    HW131574   2.717   2.653   5.749  0.4510 -0.3324 -0.0098
 6704SOL    HW231575   2.711   2.717   5.880  0.3871 -2.1710 -0.4775
 6705SOL     OW31576   2.706   2.170   4.490  0.0763 -0.3499  0.1516
 6705SOL    HW131577   2.732   2.171   4.582  2.2481 -1.4141 -0.4317
 6705SOL    HW231578   2.789   2.179   4.442 -1.1670 -0.6402 -2.0440
 6706SOL     OW31579   0.241   2.669   9.478  0.0405  0.3607 -0.3404
 6706SOL    HW131580   0.254   2.585   9.522  0.4980  0.5741 -0.0635
 6706SOL    HW231581   0.147   2.677   9.465 -0.2939 -0.9193  1.2163
 6707SOL     OW31582   3.719   2.982   3.959  0.3317 -0.0414 -0.7501
 6707SOL    HW131583   3.665   2.910   3.990 -0.7845  0.6917 -1.0031
 6707SOL    HW231584   3.806   2.942   3.962  0.2493  0.1142  3.3138
 6708SOL     OW31585   1.715   4.366   5.991 -0.3163  0.1658 -0.2024
 6708SOL    HW131586   1.770   4.411   5.926 -0.3226 -0.9056 -0.9421
 6708SOL    HW231587   1.728   4.274   5.970  0.3656  0.1774  0.1559
 6709SOL     OW31588   3.889   3.327   1.969  0.1148  0.6739 -0.2275
 6709SOL    HW131589   3.884   3.289   2.057 -1.1769  0.2947 -0.4641
 6709SOL    HW231590   3.983   3.343   1.976 -0.0089  1.3243 -0.1056
 6710SOL     OW31591   0.200   3.915   3.221 -0.1509 -0.1026  0.0492
 6710SOL    HW131592   0.285   3.945   3.190 -0.1296  1.3252  1.4832
 6710SOL    HW231593   0.163   3.866   3.148 -2.9792 -0.9826  2.0569
 6711SOL     OW31594   4.493   4.258  11.189  0.4087 -0.3484 -0.1848
 6711SOL    HW131595   4.586   4.257  11.210  0.0522 -0.3735  1.4351
 6711SOL    HW231596   4.457   4.276  11.276  1.6721  1.6354 -0.0741
 6712SOL     OW31597   4.090   3.106   5.950  0.3750  0.4011  0.3649
 6712SOL    HW131598   4.015   3.054   5.922  1.1881 -0.0930 -0.9056
 6712SOL    HW231599   4.152   3.039   5.976 -1.7566 -1.3258  1.0020
 6713SOL     OW31600   4.015   1.656   7.843  0.2689 -0.2624 -0.0427
 6713SOL    HW131601   3.943   1.664   7.906 -0.4778  1.2246 -1.0843
 6713SOL    HW231602   4.001   1.564   7.823 -4.8214  0.0456  2.0398
 6714SOL     OW31603   4.393   3.242   1.609  0.1380  0.0006 -0.1092
 6714SOL    HW131604   4.456   3.314   1.607  2.6252 -2.1483  1.4199
 6714SOL    HW231605   4.456   3.170   1.604 -0.9212 -0.9137 -0.1018
 6715SOL     OW31606   0.053   0.188   2.723  0.2046 -0.1702 -0.6220
 6715SOL    HW131607   0.147   0.180   2.710 -0.4670 -3.0611 -3.6745
 6715SOL    HW231608   0.029   0.095   2.717  0.9330 -0.2608 -2.2871
 6716SOL     OW31609   3.148   1.974   7.696 -0.2123 -0.1344 -0.2464
 6716SOL    HW131610   3.086   1.988   7.768 -1.1658  0.1113 -1.1045
 6716SOL    HW231611   3.116   2.034   7.629  1.4193 -2.6195 -3.2229
 6717SOL     OW31612   3.612   4.543   1.142 -0.2519  0.4157  0.1998
 6717SOL    HW131613   3.618   4.519   1.235  2.5148  0.8062  0.1145
 6717SOL    HW231614   3.518   4.560   1.146 -0.4943 -1.0596  0.7114
 6718SOL     OW31615   2.234   1.027  15.841 -0.2063 -0.6899  0.0333
 6718SOL    HW131616   2.173   1.037  15.768 -1.6605  2.2510  1.6375
 6718SOL    HW231617   2.310   0.976  15.811  0.6758  0.4835  0.2401
 6719SOL     OW31618   1.323   0.249   8.240  0.0107  0.1902  0.4502
 6719SOL    HW131619   1.387   0.266   8.309  0.3772  1.5619 -0.2534
 6719SOL    HW231620   1.309   0.156   8.262  0.2913 -0.4089 -1.8957
 6720SOL     OW31621   0.180   2.345   8.190 -0.0615  0.4493 -0.0932
 6720SOL    HW131622   0.110   2.288   8.223 -2.0492  2.7504 -0.3559
 6720SOL    HW231623   0.231   2.290   8.131  3.9082  1.9681  1.8951
 6721SOL     OW31624   2.121   3.684   3.036 -0.3948  0.2155  0.1294
 6721SOL    HW131625   2.160   3.771   3.029 -1.2065  0.6695  1.2961
 6721SOL    HW231626   2.118   3.655   2.945  0.7615 -1.4083  0.6214
 6722SOL     OW31627   0.566   0.574  10.650  0.7772  0.0256 -0.1169
 6722SOL    HW131628   0.614   0.638  10.703  1.1040 -0.9228  0.7348
 6722SOL    HW231629   0.624   0.499  10.637 -0.1887 -0.9271  1.1414
 6723SOL     OW31630   1.427   2.557   6.205  0.2934 -0.0290 -0.1772
 6723SOL    HW131631   1.417   2.502   6.127  1.8338  0.3518 -0.6405
 6723SOL    HW231632   1.452   2.640   6.164 -1.1766  1.2443  1.4956
 6724SOL     OW31633   1.127   2.444   6.394  0.2795 -0.1053 -0.4108
 6724SOL    HW131634   1.163   2.519   6.346  1.2123 -0.1077  0.2955
 6724SOL    HW231635   1.044   2.463   6.351  0.0062 -1.4363 -0.4501
 6725SOL     OW31636   2.447   1.239   2.876 -0.4805  0.0604  0.1418
 6725SOL    HW131637   2.476   1.330   2.889  0.7938 -0.5246  1.4696
 6725SOL    HW231638   2.356   1.247   2.903 -0.1673  0.1470  1.1706
 6726SOL     OW31639   0.769   3.683   7.940  0.4073 -0.3315 -0.0670
 6726SOL    HW131640   0.764   3.590   7.962  1.6179 -0.0892  1.2083
 6726SOL    HW231641   0.839   3.720   7.994  1.2024  0.2549 -1.5062
 6727SOL     OW31642   2.827   4.096   5.826  0.0504  0.1522  0.3869
 6727SOL    HW131643   2.789   4.009   5.812  2.2814 -0.5870 -1.1282
 6727SOL    HW231644   2.873   4.095   5.910 -2.4956  3.0877  1.7907
 6728SOL     OW31645   3.643   1.674  10.576 -0.3947 -0.1222 -0.1489
 6728SOL    HW131646   3.623   1.765  10.598 -1.2768 -1.1823  3.4394
 6728SOL    HW231647   3.617   1.634  10.659 -1.5765  1.6279  0.3154
 6729SOL     OW31648   4.514   1.581   9.060  0.1799 -0.0213  0.0714
 6729SOL    HW131649   4.544   1.620   8.978  1.0245  0.7631  0.7600
 6729SOL    HW231650   4.560   1.498   9.070  1.3177  0.5928 -0.1244
 6730SOL     OW31651   3.812   1.173   7.288  0.4223 -0.4770 -0.5165
 6730SOL    HW131652   3.888   1.231   7.287  0.4343 -0.4871 -0.1654
 6730SOL    HW231653   3.753   1.240   7.321  2.8224  1.3561  0.0381
 6731SOL     OW31654   2.586   4.576   4.039 -0.0407  0.6854  0.1937
 6731SOL    HW131655   2.587   4.643   3.970 -0.2171 -1.1628 -1.6177
 6731SOL    HW231656   2.539   4.509   3.990  0.0004 -0.2182  1.3907
 6732SOL     OW31657   1.271   0.976   1.369 -0.3733  0.0586  0.1397
 6732SOL    HW131658   1.297   1.055   1.322  1.8404  0.7829  2.6023
 6732SOL    HW231659   1.304   0.997   1.457 -0.7310 -0.8018  0.4769
 6733SOL     OW31660   0.931   0.438   7.919  0.2639 -0.2020  0.5904
 6733SOL    HW131661   0.978   0.381   7.859 -2.1447 -2.0981  0.4787
 6733SOL    HW231662   0.892   0.374   7.980 -2.0386 -0.9855 -1.6767
 6734SOL     OW31663   4.190   3.369  13.673  0.1597  0.3717  0.3519
 6734SOL    HW131664   4.184   3.414  13.589  0.1683  0.2901  0.3082
 6734SOL    HW231665   4.275   3.326  13.676  0.6374  1.3233  0.5137
 6735SOL     OW31666   2.952   2.834   3.542 -0.0425 -0.3630  0.0156
 6735SOL    HW131667   3.032   2.882   3.564 -0.1232  0.3109 -1.1378
 6735SOL    HW231668   2.985   2.753   3.503 -2.6506 -0.7724 -1.2912
 6736SOL     OW31669   1.605   4.513   5.143  0.0797 -0.2632  0.6912
 6736SOL    HW131670   1.674   4.548   5.198  0.5406 -0.6737  0.3783
 6736SOL    HW231671   1.633   4.422   5.132 -1.0704 -0.3758 -1.3910
 6737SOL     OW31672   4.369   0.496   8.158  0.1910  0.5767 -0.1642
 6737SOL    HW131673   4.283   0.529   8.133 -0.5328  0.8314  2.7565
 6737SOL    HW231674   4.339   0.417   8.203  0.7615  0.6350  0.3144
 6738SOL     OW31675   3.308   2.584   2.374 -0.3797 -0.0384  0.1368
 6738SOL    HW131676   3.310   2.674   2.407  1.4797 -0.5463  1.4255
 6738SOL    HW231677   3.298   2.540   2.459 -0.3394  0.4904  0.4185
 6739SOL     OW31678   0.476   1.152   4.472 -0.6106 -0.6998  0.5887
 6739SOL    HW131679   0.428   1.141   4.554 -0.0388 -2.4334  0.6989
 6739SOL    HW231680   0.534   1.228   4.484 -0.4314 -0.6323 -0.7310
 6740SOL     OW31681   3.589   0.915   4.676  0.2932 -0.7925  1.0797
 6740SOL    HW131682   3.661   0.901   4.615 -0.6178  2.0971 -0.6707
 6740SOL    HW231683   3.523   0.945   4.613  2.0426  2.0911  0.6249
 6741SOL     OW31684   2.061   2.469   5.453 -0.5165 -0.5888 -0.4266
 6741SOL    HW131685   2.122   2.429   5.514 -1.8400 -0.4983  0.9639
 6741SOL    HW231686   1.983   2.489   5.505 -0.1112  0.1981 -0.1332
 6742SOL     OW31687   1.283   2.022  16.960  0.0991  0.1780 -0.3616
 6742SOL    HW131688   1.371   2.047  16.988 -0.4015 -0.5753  1.8688
 6742SOL    HW231689   1.294   1.933  16.928 -0.7378 -0.1252  0.1862
 6743SOL     OW31690   3.226   1.235   2.092  0.1772 -0.1378 -0.7773
 6743SOL    HW131691   3.229   1.312   2.148  0.2946  0.4231 -1.5594
 6743SOL    HW231692   3.233   1.160   2.152 -0.5079  1.3460  1.1354
 6744SOL     OW31693   2.736   2.205   8.425 -0.2032  0.7065  0.1216
 6744SOL    HW131694   2.815   2.160   8.394  0.1935  1.7246 -0.3733
 6744SOL    HW231695   2.746   2.288   8.378  1.0143 -0.0046 -0.8991
 6745SOL     OW31696   2.747   2.510   9.321 -0.2525  0.3781 -0.6839
 6745SOL    HW131697   2.788   2.534   9.403  2.2068  0.6604 -2.0001
 6745SOL    HW231698   2.683   2.442   9.343 -1.5038  1.8874  0.2912
 6746SOL     OW31699   4.445   2.039   2.449  0.0268 -0.2185  0.1171
 6746SOL    HW131700   4.420   2.090   2.372  1.2807  1.5486  0.8870
 6746SOL    HW231701   4.540   2.036   2.438  0.0416  1.6469 -0.2109
 6747SOL     OW31702   3.365   3.142   4.121  0.0656  0.0203  0.5822
 6747SOL    HW131703   3.302   3.110   4.056  1.3433  0.7339 -1.0059
 6747SOL    HW231704   3.427   3.186   4.063  0.5701  1.9786  2.6172
 6748SOL     OW31705   2.940   3.719   2.674  0.2306 -0.3387 -0.1930
 6748SOL    HW131706   2.933   3.755   2.585  1.1932 -0.0536 -0.1558
 6748SOL    HW231707   2.955   3.627   2.656 -1.1305 -0.4375 -0.8937
 6749SOL     OW31708   1.221   4.344   4.018  0.3130 -0.4279 -0.0986
 6749SOL    HW131709   1.229   4.260   3.974 -1.2111 -1.4266  1.5133
 6749SOL    HW231710   1.143   4.333   4.073 -0.7831  0.8727 -1.3994
 6750SOL     OW31711   0.688   2.857   9.086 -0.3934  0.4036  0.1506
 6750SOL    HW131712   0.687   2.768   9.050 -0.7295  0.8352 -0.9185
 6750SOL    HW231713   0.600   2.863   9.121 -1.1022 -0.5119 -1.4765
 6751SOL     OW31714   3.875   3.975   5.816 -0.6425 -0.0448  0.6218
 6751SOL    HW131715   3.960   3.955   5.777 -0.2308  0.2364  1.3862
 6751SOL    HW231716   3.818   3.989   5.740  0.6821  1.5946 -0.0727
 6752SOL     OW31717   3.825   4.253   4.516  0.4860 -0.0545 -0.2073
 6752SOL    HW131718   3.865   4.179   4.470 -1.5767 -0.2167 -1.7616
 6752SOL    HW231719   3.899   4.314   4.519  1.8603 -1.7853  0.7122
 6753SOL     OW31720   1.476   2.364  14.400  0.1374  0.4991 -0.2100
 6753SOL    HW131721   1.554   2.364  14.344  0.9882  0.4725  0.9774
 6753SOL    HW231722   1.504   2.327  14.484 -2.5218  0.4734  0.6755
 6754SOL     OW31723   3.736   1.202   4.530  0.5199  0.2566 -0.0607
 6754SOL    HW131724   3.746   1.112   4.500 -1.3314 -0.0286  0.2004
 6754SOL    HW231725   3.672   1.238   4.470  0.9968 -1.8105 -1.7848
 6755SOL     OW31726   3.247   0.830   2.966 -0.6263 -0.5046 -1.0618
 6755SOL    HW131727   3.273   0.750   3.011 -2.7185 -0.9424 -0.6733
 6755SOL    HW231728   3.254   0.799   2.876  1.1746 -1.4405 -0.6036
 6756SOL     OW31729   2.952   3.076   2.293 -0.1659 -0.6630  0.3212
 6756SOL    HW131730   2.892   3.008   2.325 -1.1625 -0.3249 -0.8496
 6756SOL    HW231731   2.917   3.088   2.205 -0.7926 -1.5118  0.4524
 6757SOL     OW31732   3.791   2.663   3.754  0.2620  0.4786 -0.1111
 6757SOL    HW131733   3.817   2.655   3.846 -0.3650 -1.0847 -0.0709
 6757SOL    HW231734   3.818   2.580   3.713 -0.9001  0.3422 -0.5973
 6758SOL     OW31735   0.035   3.422   5.353 -0.1447 -0.3275 -0.1358
 6758SOL    HW131736   0.014   3.348   5.296 -0.2013 -1.6296  1.5658
 6758SOL    HW231737   0.076   3.476   5.286  2.1502 -2.5796 -0.5920
 6759SOL     OW31738   4.608   0.966   4.484  0.7338  0.1972  0.4657
 6759SOL    HW131739   4.631   0.874   4.494  0.4494  0.3194  2.3151
 6759SOL    HW231740   4.602   0.970   4.389 -1.1643 -0.1415  0.5787
 6760SOL     OW31741   1.332   0.173  13.174  0.3654 -0.2582 -0.0429
 6760SOL    HW131742   1.329   0.258  13.129  1.2763 -0.6173 -0.7666
 6760SOL    HW231743   1.323   0.206  13.264  0.9030 -0.6455  0.1476
 6761SOL     OW31744   0.824   3.195   2.823 -0.5701  0.1205  0.1085
 6761SOL    HW131745   0.885   3.196   2.749 -1.8272  0.6766 -0.9253
 6761SOL    HW231746   0.875   3.153   2.892  1.0125  2.4575  0.3829
 6762SOL     OW31747   0.508   1.513   8.500  0.1919  0.4931  0.5915
 6762SOL    HW131748   0.477   1.531   8.589  0.5642 -0.7797  0.9851
 6762SOL    HW231749   0.603   1.519   8.501  0.3176 -0.7994 -2.5514
 6763SOL     OW31750   1.813   2.431   9.016 -0.0845  0.4449  0.6172
 6763SOL    HW131751   1.841   2.393   9.099  0.1559  3.0369  1.7465
 6763SOL    HW231752   1.852   2.519   9.020 -0.1879  0.5563 -0.7365
 6764SOL     OW31753   2.911   0.344   7.560 -0.4480 -0.4273 -0.2891
 6764SOL    HW131754   2.861   0.264   7.548  1.9030 -1.8346 -0.5360
 6764SOL    HW231755   2.850   0.396   7.613  0.8735 -0.2927  1.0861
 6765SOL     OW31756   3.277   2.546  12.032  0.2684 -0.2269 -0.0009
 6765SOL    HW131757   3.306   2.562  11.942  0.5882  1.1605  0.3572
 6765SOL    HW231758   3.216   2.615  12.057  0.8032  0.9530 -2.0153
 6766SOL     OW31759   2.542   3.373   4.392  0.1003 -0.3373  0.8202
 6766SOL    HW131760   2.487   3.300   4.418  0.2865 -0.9164 -0.3982
 6766SOL    HW231761   2.626   3.328   4.403  0.3724 -0.0915 -0.2470
 6767SOL     OW31762   1.502   2.798   8.407  0.5319  0.0820  0.2940
 6767SOL    HW131763   1.428   2.759   8.360 -0.3268 -0.7478  2.3017
 6767SOL    HW231764   1.520   2.883   8.367  0.4060  0.0608  0.1909
 6768SOL     OW31765   0.343   2.814  13.053 -0.6043  0.5586  0.0689
 6768SOL    HW131766   0.383   2.880  12.995 -1.9594  0.2850 -1.1900
 6768SOL    HW231767   0.270   2.778  13.003  0.2623  0.1002 -0.8728
 6769SOL     OW31768   0.777   0.765   7.653 -0.4013  0.1033 -0.7716
 6769SOL    HW131769   0.807   0.773   7.743 -1.8163  1.5063 -0.4209
 6769SOL    HW231770   0.848   0.818   7.615 -0.3925 -0.5761 -1.7060
 6770SOL     OW31771   1.410   0.909  13.959  0.0125  0.5291 -0.5464
 6770SOL    HW131772   1.504   0.920  13.971  0.2365  0.5280 -2.2173
 6770SOL    HW231773   1.400   0.956  13.876 -0.1675  0.1838 -0.7239
 6771SOL     OW31774   3.856   4.463   2.063  0.0280 -0.1304 -0.0162
 6771SOL    HW131775   3.828   4.375   2.039 -2.4647  1.6994 -3.8258
 6771SOL    HW231776   3.950   4.443   2.069 -0.3356 -1.5876  0.7018
 6772SOL     OW31777   4.513   0.555   4.425  0.1305  0.1124 -0.0446
 6772SOL    HW131778   4.504   0.618   4.354  0.7524  0.5530  0.2706
 6772SOL    HW231779   4.558   0.480   4.387  0.5223 -0.0510  0.7429
 6773SOL     OW31780   3.603   0.196   6.581 -0.3667 -0.1790 -0.3095
 6773SOL    HW131781   3.693   0.177   6.552 -0.6708  0.2147 -1.5182
 6773SOL    HW231782   3.557   0.220   6.500  0.2034 -0.1165 -0.6202
 6774SOL     OW31783   0.514   3.025   2.606 -0.1366  0.0830  0.3506
 6774SOL    HW131784   0.597   2.989   2.575 -1.7810 -0.8184 -2.9831
 6774SOL    HW231785   0.482   2.948   2.654 -1.0711  0.1195 -0.2168
 6775SOL     OW31786   3.550   4.083  12.167 -0.4660  0.2448 -0.2395
 6775SOL    HW131787   3.633   4.057  12.126  0.8460  1.8949  1.4177
 6775SOL    HW231788   3.575   4.103  12.257  0.4150 -0.8831 -0.2323
 6776SOL     OW31789   4.278   4.179  14.597 -0.3152  0.7552 -0.5520
 6776SOL    HW131790   4.237   4.165  14.512 -1.1329 -4.8617  0.7587
 6776SOL    HW231791   4.245   4.262  14.629 -4.1561 -0.4799 -1.2933
 6777SOL     OW31792   1.354   0.751   7.233  0.3179 -0.2822  0.2295
 6777SOL    HW131793   1.382   0.681   7.292  0.2293  1.0909  1.8853
 6777SOL    HW231794   1.263   0.746   7.262  0.8468 -0.4131  1.8676
 6778SOL     OW31795   3.577   1.809  15.266  0.2653 -0.5127  0.3857
 6778SOL    HW131796   3.523   1.888  15.267  0.9142 -0.0745  1.2150
 6778SOL    HW231797   3.589   1.790  15.359 -0.4064 -0.2261  0.5275
 6779SOL     OW31798   2.877   1.583  16.903 -0.1886  0.2934 -0.5715
 6779SOL    HW131799   2.894   1.493  16.874 -0.1279  0.3429 -0.6920
 6779SOL    HW231800   2.803   1.604  16.845  0.9467  0.7557 -1.8698
 6780SOL     OW31801   3.480   1.918   6.210 -0.4384  0.0403 -0.3314
 6780SOL    HW131802   3.479   1.912   6.306  1.3085  0.4033 -0.2902
 6780SOL    HW231803   3.399   1.964   6.190 -1.4529 -1.5328  0.2685
 6781SOL     OW31804   0.413   4.270  12.197 -0.0981 -0.1203  0.3457
 6781SOL    HW131805   0.349   4.199  12.199 -3.7868  3.0998 -1.7606
 6781SOL    HW231806   0.441   4.272  12.289  1.1033  0.4094 -0.0298
 6782SOL     OW31807   3.317   3.259   8.349 -0.4295  0.3139  0.5948
 6782SOL    HW131808   3.247   3.278   8.411 -0.7644 -2.1513  0.9696
 6782SOL    HW231809   3.340   3.168   8.366  0.1223  0.3640  0.1016
 6783SOL     OW31810   0.353   1.621   7.609  0.7930 -0.0872  0.0519
 6783SOL    HW131811   0.290   1.692   7.596 -0.3844 -1.3943 -1.3476
 6783SOL    HW231812   0.359   1.604   7.703  0.2610 -1.4022 -0.1559
 6784SOL     OW31813   3.207   1.306  10.756 -0.2217  0.2063  0.3245
 6784SOL    HW131814   3.150   1.267  10.822  0.5663  0.3659  1.1044
 6784SOL    HW231815   3.147   1.342  10.690 -0.0905 -2.6857 -1.3812
 6785SOL     OW31816   4.499   1.252  12.643 -0.1624 -0.2103  0.1547
 6785SOL    HW131817   4.422   1.308  12.638  0.2622  0.2204 -1.6017
 6785SOL    HW231818   4.469   1.185  12.582  1.5813  0.1012 -1.0463
 6786SOL     OW31819   2.423   0.139   8.948 -0.3184  0.4903 -0.0995
 6786SOL    HW131820   2.419   0.103   8.860 -2.7000  2.6413 -0.8750
 6786SOL    HW231821   2.509   0.179   8.935  0.2587  0.3884  3.2787
 6787SOL     OW31822   0.500   0.165   2.352  0.0934  0.2605 -0.3868
 6787SOL    HW131823   0.478   0.078   2.385  1.2903  0.3149  0.5420
 6787SOL    HW231824   0.452   0.164   2.269 -0.6205 -1.4467  0.0383
 6788SOL     OW31825   4.355   0.124   3.237  0.0510  0.0387 -0.2095
 6788SOL    HW131826   4.406   0.106   3.158 -1.6207  0.8683 -1.4749
 6788SOL    HW231827   4.419   0.116   3.307 -0.5583 -3.0373  0.0094
 6789SOL     OW31828   1.843   0.862   2.732  0.5038  0.2388  0.1201
 6789SOL    HW131829   1.867   0.784   2.782  1.2258  1.3852  1.5610
 6789SOL    HW231830   1.748   0.863   2.746  0.3678 -0.6597 -0.7115
 6790SOL     OW31831   2.412   1.327   3.390  0.3779  0.1192  0.2117
 6790SOL    HW131832   2.347   1.330   3.320 -0.5642  1.3031  1.1299
 6790SOL    HW231833   2.373   1.373   3.465  1.5616 -1.2684  1.6770
 6791SOL     OW31834   3.442   3.694   0.870 -0.2507  0.0282 -0.5247
 6791SOL    HW131835   3.351   3.707   0.844 -0.7048 -1.4177  0.3357
 6791SOL    HW231836   3.487   3.671   0.788 -1.7204 -0.9713 -1.0446
 6792SOL     OW31837   0.423   4.071  17.034  0.8197  0.2569 -0.1897
 6792SOL    HW131838   0.334   4.100  17.014  0.0020 -0.3604  2.5042
 6792SOL    HW231839   0.414   3.976  17.045  2.2204  0.0379 -0.9616
 6793SOL     OW31840   3.213   3.678   0.566 -0.6414 -0.6674 -0.0572
 6793SOL    HW131841   3.121   3.653   0.576 -0.2585 -2.0739 -0.0326
 6793SOL    HW231842   3.207   3.732   0.645 -1.2406  0.3036 -0.7769
 6794SOL     OW31843   0.231   0.379   6.890 -0.1658  0.3689 -0.0164
 6794SOL    HW131844   0.139   0.371   6.915 -0.3056  0.4856 -0.4782
 6794SOL    HW231845   0.270   0.349   6.972 -0.1490 -2.9907 -1.2922
 6795SOL     OW31846   1.760   0.881   5.480 -0.0933  0.3124 -0.4569
 6795SOL    HW131847   1.821   0.955   5.483 -1.3785  1.3660 -0.1804
 6795SOL    HW231848   1.679   0.922   5.448  1.4308  1.1787 -3.2316
 6796SOL     OW31849   3.441   1.386  10.889 -0.2522  0.0435  0.0116
 6796SOL    HW131850   3.364   1.366  10.835 -0.4933 -0.2417  0.4622
 6796SOL    HW231851   3.485   1.301  10.892  0.5244  0.5608  3.3909
 6797SOL     OW31852   2.167   3.455   3.961 -0.2049 -0.5811  0.4173
 6797SOL    HW131853   2.240   3.498   3.915 -1.2249  0.0672 -0.5906
 6797SOL    HW231854   2.122   3.396   3.901 -0.6811 -0.2825  0.4794
 6798SOL     OW31855   4.067   3.771   2.139  0.3067 -0.5782 -0.1456
 6798SOL    HW131856   4.053   3.847   2.194 -0.8286 -0.0049 -1.2186
 6798SOL    HW231857   4.161   3.774   2.119  0.9452  1.6366  3.2727
 6799SOL     OW31858   3.666   4.050  17.526 -0.3548 -0.2487 -0.0229
 6799SOL    HW131859   3.648   4.132  17.482 -0.8472 -0.6089 -0.4900
 6799SOL    HW231860   3.599   4.054  17.594  2.0167  1.1892  2.2238
 6800SOL     OW31861   1.672   1.770   7.085  0.7970  0.0076 -0.0688
 6800SOL    HW131862   1.578   1.781   7.071  1.2686  0.2667 -3.0208
 6800SOL    HW231863   1.696   1.862   7.085 -0.1155  0.2449 -1.6781
 6801SOL     OW31864   0.088   4.322   8.593 -0.5444 -0.2520 -0.3866
 6801SOL    HW131865   0.082   4.392   8.527  1.6435 -1.1388 -1.5450
 6801SOL    HW231866   0.181   4.321   8.615 -0.5473  1.4309 -0.3185
 6802SOL     OW31867   0.177   2.297  13.729  0.6334 -0.4320 -0.1485
 6802SOL    HW131868   0.229   2.368  13.693  0.9864 -0.7935 -0.3539
 6802SOL    HW231869   0.115   2.348  13.780  1.6929  0.5439  0.1630
 6803SOL     OW31870   0.009   2.781   3.072  0.3993 -0.3502  0.2832
 6803SOL    HW131871   0.030   2.814   2.985 -0.7888  2.8554  1.1975
 6803SOL    HW231872   0.060   2.846   3.121  1.5118 -0.7710 -0.3174
 6804SOL     OW31873   2.345   1.754   5.611 -0.5678  0.1434  0.4393
 6804SOL    HW131874   2.400   1.791   5.680 -1.8032  2.6340  0.0932
 6804SOL    HW231875   2.257   1.780   5.640 -0.3433  0.9772  0.3598
 6805SOL     OW31876   1.996   4.194   5.964  0.1392 -0.7103 -0.2410
 6805SOL    HW131877   1.918   4.165   6.010  0.6790 -1.0047  0.4943
 6805SOL    HW231878   2.043   4.112   5.976 -3.0681 -2.2758  1.4338
 6806SOL     OW31879   0.457   1.469   8.218 -0.0556  0.2180 -0.3737
 6806SOL    HW131880   0.393   1.399   8.204 -1.4840  1.6735 -1.1472
 6806SOL    HW231881   0.444   1.489   8.310 -0.6626 -1.6811 -0.0584
 6807SOL     OW31882   4.556   1.734   6.278 -0.5364  0.5928  0.0656
 6807SOL    HW131883   4.606   1.805   6.238 -1.5564  0.6737 -1.0696
 6807SOL    HW231884   4.517   1.777   6.354 -3.7992 -1.1417 -0.6508
 6808SOL     OW31885   0.231   2.420   4.520  0.0275 -0.2772  0.4671
 6808SOL    HW131886   0.244   2.507   4.483  0.2463 -1.1137 -1.4229
 6808SOL    HW231887   0.173   2.382   4.453 -0.2027 -1.2570  1.2180
 6809SOL     OW31888   1.850   3.837  16.531  0.1091 -0.3228  0.2377
 6809SOL    HW131889   1.930   3.851  16.581 -0.2750 -0.9821  1.0526
 6809SOL    HW231890   1.788   3.819  16.601 -0.1408 -0.0643  0.0806
 6810SOL     OW31891   3.985   0.892   4.341 -0.1984  0.5297 -0.3045
 6810SOL    HW131892   3.991   0.810   4.290  2.2930  1.7474 -2.0022
 6810SOL    HW231893   4.020   0.858   4.423 -0.5880 -1.1009 -0.7994
 6811SOL     OW31894   1.880   1.067   5.103 -0.2286  0.1657  0.5476
 6811SOL    HW131895   1.911   1.123   5.032 -0.4490 -0.3030  0.0786
 6811SOL    HW231896   1.820   1.006   5.059 -1.0597  3.0914 -2.4009
 6812SOL     OW31897   1.678   3.392   5.558 -0.1643  0.0270 -0.5214
 6812SOL    HW131898   1.641   3.303   5.557  1.0943 -0.5132  0.5727
 6812SOL    HW231899   1.677   3.418   5.466 -2.6416  0.6595 -0.3199
 6813SOL     OW31900   1.462   2.864   7.310 -0.1415  0.1931 -0.3303
 6813SOL    HW131901   1.380   2.874   7.357 -0.7890  1.6737 -1.7648
 6813SOL    HW231902   1.465   2.954   7.279 -0.3155  0.3949  0.2513
 6814SOL     OW31903   4.442   3.306   6.390 -0.0189 -0.4741 -0.3945
 6814SOL    HW131904   4.416   3.224   6.432 -2.2960  0.1160 -0.6516
 6814SOL    HW231905   4.376   3.288   6.322 -1.8165  3.2666  0.3299
 6815SOL     OW31906   0.263   1.292   6.484 -0.0232 -0.3342 -0.0502
 6815SOL    HW131907   0.176   1.332   6.484  0.6584  1.1428 -1.5867
 6815SOL    HW231908   0.234   1.201   6.487 -1.1887 -0.0153 -1.5554
 6816SOL     OW31909   1.280   0.256   2.062  0.2910 -0.6807  0.0136
 6816SOL    HW131910   1.374   0.273   2.055  0.1424  0.5298  0.7966
 6816SOL    HW231911   1.268   0.226   2.152  1.2562  1.6605  0.9343
 6817SOL     OW31912   4.378   2.628   1.417 -0.5234  0.2234 -0.0257
 6817SOL    HW131913   4.336   2.556   1.464  2.9214 -0.4169  2.0659
 6817SOL    HW231914   4.383   2.688   1.492  0.8767  0.4285 -0.2871
 6818SOL     OW31915   2.428   4.362   7.726  0.4904  0.0927  0.2401
 6818SOL    HW131916   2.499   4.390   7.669  0.2825  1.2219  0.5272
 6818SOL    HW231917   2.459   4.275   7.754 -0.5740 -0.7656 -1.2811
 6819SOL     OW31918   3.321   0.302  16.047 -0.4268 -0.1672 -0.8436
 6819SOL    HW131919   3.355   0.362  15.980  2.4062 -1.8145 -0.8805
 6819SOL    HW231920   3.335   0.221  15.998  2.3656 -0.2765  0.1477
 6820SOL     OW31921   4.639   4.450   4.807  0.3911 -0.3301  0.4112
 6820SOL    HW131922   4.588   4.466   4.887  1.7679 -2.3581  1.6779
 6820SOL    HW231923   4.723   4.490   4.828  0.9154 -1.2565  0.0617
 6821SOL     OW31924   4.272   1.469   7.774 -0.2029 -0.2601 -0.4882
 6821SOL    HW131925   4.366   1.466   7.791 -0.7459  0.5485  2.7277
 6821SOL    HW231926   4.244   1.473   7.865  1.5664 -1.7042  0.1189
 6822SOL     OW31927   0.813   4.620   8.060 -0.0948 -0.0200 -0.1066
 6822SOL    HW131928   0.837   4.532   8.089  0.9995 -0.5783 -2.7016
 6822SOL    HW231929   0.728   4.630   8.102 -0.4241  2.9626 -1.4308
 6823SOL     OW31930   3.766   1.232   9.710  0.2496 -0.6263  0.1389
 6823SOL    HW131931   3.787   1.263   9.622 -0.3024 -0.3540  0.0960
 6823SOL    HW231932   3.808   1.293   9.771  1.4717 -1.5563  0.2237
 6824SOL     OW31933   0.911   3.241   7.433  0.1155  0.4738  0.1129
 6824SOL    HW131934   0.960   3.290   7.368  2.1138  1.4948  2.3909
 6824SOL    HW231935   0.833   3.295   7.447  1.1228  2.0228 -0.2424
 6825SOL     OW31936   4.173   3.045  11.164 -0.9132 -0.0712 -0.0983
 6825SOL    HW131937   4.226   3.011  11.236  1.8703  0.5168 -1.9055
 6825SOL    HW231938   4.176   3.138  11.185  0.2011 -0.2841  0.6890
 6826SOL     OW31939   2.196   2.024   6.322  0.3412  0.7312 -0.4344
 6826SOL    HW131940   2.202   2.105   6.373  0.5284  1.1795 -1.1794
 6826SOL    HW231941   2.225   1.960   6.387  1.6817  0.9538 -0.8202
 6827SOL     OW31942   3.972   2.956   8.122 -0.3047  0.2361 -0.1033
 6827SOL    HW131943   4.005   3.045   8.105 -0.1101  0.2250  0.2072
 6827SOL    HW231944   3.902   2.980   8.183  0.6856 -1.1954  1.5910
 6828SOL     OW31945   1.292   3.639   4.505 -0.1222 -0.0482  0.3915
 6828SOL    HW131946   1.229   3.711   4.500 -0.0270  0.0963  1.2344
 6828SOL    HW231947   1.235   3.573   4.466  0.3618 -0.4543  0.3749
 6829SOL     OW31948   2.374   4.447   4.727 -0.6697 -0.6410  0.2559
 6829SOL    HW131949   2.286   4.416   4.750 -0.9052 -0.3505 -0.2633
 6829SOL    HW231950   2.364   4.478   4.637 -4.2883 -0.9281  0.5841
 6830SOL     OW31951   2.350   2.962   6.771 -0.4020 -0.3954  0.1804
 6830SOL    HW131952   2.425   3.008   6.810 -1.9143 -0.1522  2.8507
 6830SOL    HW231953   2.348   2.887   6.831 -1.5618 -0.4625  0.0576
 6831SOL     OW31954   4.576   2.242   6.096  0.4239 -0.2752  0.5444
 6831SOL    HW131955   4.581   2.243   6.001 -0.7335  1.1152  0.5059
 6831SOL    HW231956   4.615   2.327   6.113  1.6853 -0.8512  0.5359
 6832SOL     OW31957   2.454   4.040   0.588  0.0905  0.3250 -0.1356
 6832SOL    HW131958   2.504   3.959   0.576  1.3728  0.3147  5.0238
 6832SOL    HW231959   2.516   4.106   0.556  0.4714  0.7579  1.4746
 6833SOL     OW31960   4.112   0.557   8.845 -0.0779  0.6806  0.2428
 6833SOL    HW131961   4.034   0.511   8.878  0.4811 -0.3743  0.1120
 6833SOL    HW231962   4.175   0.503   8.893 -0.0803  0.9367  0.5341
 6834SOL     OW31963   0.087   3.434  16.407 -0.3429  0.5023 -0.0567
 6834SOL    HW131964   0.182   3.446  16.408 -0.3981  0.8364  1.1067
 6834SOL    HW231965   0.071   3.357  16.460  0.2918 -0.1046 -0.7359
 6835SOL     OW31966   0.322   3.523   6.850 -0.1417 -0.5558 -0.1152
 6835SOL    HW131967   0.331   3.600   6.905 -1.0027  0.6419 -1.6413
 6835SOL    HW231968   0.229   3.517   6.827 -0.2417  0.3680  0.0802
 6836SOL     OW31969   2.412   3.165   8.733  0.6246 -0.1509  0.0236
 6836SOL    HW131970   2.377   3.100   8.795 -0.7648 -0.6158 -1.2581
 6836SOL    HW231971   2.334   3.181   8.681  1.3718 -0.9763 -1.3464
 6837SOL     OW31972   3.649   4.036   4.652  0.2377 -0.1104  0.1654
 6837SOL    HW131973   3.600   4.044   4.570 -1.1117  0.1556  1.0042
 6837SOL    HW231974   3.725   4.088   4.625 -0.0127 -1.1821 -2.6520
 6838SOL     OW31975   2.252   3.621   7.407 -0.2849  0.1272 -0.6305
 6838SOL    HW131976   2.344   3.640   7.428 -0.8968  1.3184  1.0327
 6838SOL    HW231977   2.251   3.526   7.414 -0.0231  0.1640 -0.0364
 6839SOL     OW31978   1.746   0.236  16.052  0.0657  0.7573 -0.1212
 6839SOL    HW131979   1.664   0.284  16.048 -0.9505 -1.0666 -0.8736
 6839SOL    HW231980   1.752   0.198  15.964 -1.6291  1.8743 -0.7180
 6840SOL     OW31981   1.730   1.958   9.321 -0.2545  0.1294  0.9319
 6840SOL    HW131982   1.721   1.928   9.412 -2.5293  1.4791  1.1401
 6840SOL    HW231983   1.727   1.874   9.275 -0.9721  1.0594 -0.7060
 6841SOL     OW31984   0.799   3.474   2.865 -0.1946 -0.7034  0.5101
 6841SOL    HW131985   0.706   3.470   2.883 -0.6906  4.3247 -0.9281
 6841SOL    HW231986   0.836   3.396   2.906 -0.6861 -0.8165  0.7349
 6842SOL     OW31987   3.009   4.438   7.775  0.1456  0.3701 -0.7433
 6842SOL    HW131988   3.040   4.527   7.796 -0.6922  0.2604  1.0109
 6842SOL    HW231989   3.088   4.386   7.761  0.2003  0.3338 -0.3023
 6843SOL     OW31990   4.619   1.350   3.506 -0.2274 -0.0322 -0.0980
 6843SOL    HW131991   4.643   1.288   3.575 -1.2428 -1.1747 -0.7775
 6843SOL    HW231992   4.620   1.433   3.554  0.9853 -0.5301  0.7228
 6844SOL     OW31993   3.610   4.054  14.741  1.2187  0.8732 -0.3971
 6844SOL    HW131994   3.665   4.009  14.677  2.2561  1.9159 -0.2434
 6844SOL    HW231995   3.645   4.010  14.819 -1.6840 -0.2019  0.3050
 6845SOL     OW31996   3.537   2.351   2.788 -0.5504 -0.3387 -0.1419
 6845SOL    HW131997   3.533   2.347   2.884  1.4162  0.5426 -0.0157
 6845SOL    HW231998   3.543   2.446   2.776 -0.2011 -0.3040  0.3100
 6846SOL     OW31999   4.495   2.567   0.741 -0.2025 -0.6510 -0.2397
 6846SOL    HW132000   4.465   2.532   0.657  0.0667 -2.0997  0.2641
 6846SOL    HW232001   4.449   2.505   0.798 -4.0456  1.0114 -1.5064
 6847SOL     OW32002   2.288   0.449   6.830  0.6222 -0.3141  0.0731
 6847SOL    HW132003   2.368   0.433   6.881  0.4618  0.5431  0.5988
 6847SOL    HW232004   2.255   0.529   6.872 -1.2873  0.2997 -2.6510
 6848SOL     OW32005   2.769   4.248   5.604 -0.8023  0.1108  0.3368
 6848SOL    HW132006   2.848   4.248   5.551  0.1196 -0.2295  1.7097
 6848SOL    HW232007   2.791   4.184   5.671 -2.0086 -2.0210 -1.2740
 6849SOL     OW32008   1.484   4.311   1.098 -0.6729 -0.0871  0.4358
 6849SOL    HW132009   1.487   4.216   1.111 -0.7799 -0.3174 -1.1935
 6849SOL    HW232010   1.418   4.320   1.028 -0.2282 -2.0065 -0.2368
 6850SOL     OW32011   1.322   2.182  14.759 -0.3425 -0.6291 -0.2424
 6850SOL    HW132012   1.399   2.226  14.724  0.7910 -2.4034  0.0524
 6850SOL    HW232013   1.366   2.109  14.803  1.0715 -0.3678 -1.2527
 6851SOL     OW32014   3.511   0.149   4.730  0.5292 -0.1892 -0.0424
 6851SOL    HW132015   3.580   0.216   4.732  1.4617 -1.0995 -1.9813
 6851SOL    HW232016   3.441   0.199   4.688  2.0210  1.7701 -0.2067
 6852SOL     OW32017   0.188   4.548   3.329 -0.3850  0.8093  0.0391
 6852SOL    HW132018   0.252   4.513   3.392  1.5197 -0.8050 -2.8010
 6852SOL    HW232019   0.149   4.613   3.387  0.3873  0.6167  0.7800
 6853SOL     OW32020   3.643   3.895   4.245 -0.5172  0.2816  0.6881
 6853SOL    HW132021   3.585   3.941   4.306 -1.1449 -1.8641  1.7204
 6853SOL    HW232022   3.645   3.819   4.304  0.1636  0.0082  0.3150
 6854SOL     OW32023   2.420   3.044  16.996 -0.1552  0.3929  0.3855
 6854SOL    HW132024   2.358   2.988  17.042 -0.1951  0.6274  0.6185
 6854SOL    HW232025   2.398   3.129  17.033 -0.3079  0.0451  1.1022
 6855SOL     OW32026   4.116   4.581   6.483  0.7638 -0.4481 -0.2863
 6855SOL    HW132027   4.110   4.676   6.480  1.5564 -0.4307 -1.4941
 6855SOL    HW232028   4.198   4.581   6.434 -0.5585  0.1959 -2.5258
 6856SOL     OW32029   2.092   0.980   2.029  0.1811 -0.4908 -0.7488
 6856SOL    HW132030   2.084   1.071   1.999 -0.7168 -0.2843  0.0897
 6856SOL    HW232031   2.028   0.936   1.972 -1.3461 -0.3758  0.8757
 6857SOL     OW32032   3.586   0.839   8.107 -0.5807  0.2637  0.8926
 6857SOL    HW132033   3.526   0.793   8.166 -2.0739 -0.4681 -1.2006
 6857SOL    HW232034   3.534   0.857   8.030  2.3920  0.1656 -1.1472
 6858SOL     OW32035   0.684   4.071   8.349 -0.6650 -0.2988  0.6324
 6858SOL    HW132036   0.591   4.091   8.353 -0.9801 -1.7135  0.2136
 6858SOL    HW232037   0.698   3.999   8.411  0.3255 -0.3975  0.2977
 6859SOL     OW32038   1.592   2.114   2.423  0.2988  0.1321  0.0011
 6859SOL    HW132039   1.530   2.110   2.351  1.0007 -0.3350 -0.5763
 6859SOL    HW232040   1.619   2.023   2.418  0.9421  0.4593 -2.5725
 6860SOL     OW32041   3.897   1.768   3.028 -0.1743  0.1647  0.4237
 6860SOL    HW132042   3.987   1.798   3.043 -0.3402  0.3453  1.0757
 6860SOL    HW232043   3.859   1.811   3.105 -2.0321 -0.4093 -0.1893
 6861SOL     OW32044   0.990   2.797   3.195 -0.7491  0.4089  0.2280
 6861SOL    HW132045   0.988   2.704   3.172 -2.3830  0.5352 -0.1219
 6861SOL    HW232046   0.907   2.822   3.154 -0.1315  2.2954  0.1165
 6862SOL     OW32047   2.102   4.081  11.008  0.1561 -0.5079 -0.2827
 6862SOL    HW132048   2.087   4.000  11.058  0.0496  0.5620  1.4085
 6862SOL    HW232049   2.165   4.054  10.941 -0.1761 -1.1689 -0.3278
 6863SOL     OW32050   1.083   1.601  16.387 -0.4494  0.1439 -0.3966
 6863SOL    HW132051   1.012   1.663  16.400 -0.6286 -0.2287  0.4275
 6863SOL    HW232052   1.067   1.576  16.296 -0.8349 -2.2437  0.3482
 6864SOL     OW32053   1.346   4.122  12.292 -0.3811  0.2493  0.2980
 6864SOL    HW132054   1.411   4.103  12.225  0.4003 -0.0959  1.1444
 6864SOL    HW232055   1.322   4.041  12.336 -2.6302  0.5353 -0.3785
 6865SOL     OW32056   1.437   3.096  13.190  0.6734 -0.0640  0.7806
 6865SOL    HW132057   1.344   3.099  13.212  0.5952  2.6581  0.1448
 6865SOL    HW232058   1.471   3.169  13.241 -0.9658  1.4828 -0.3111
 6866SOL     OW32059   2.169   3.432   8.051  0.2529  0.5003 -0.0304
 6866SOL    HW132060   2.105   3.374   8.092  1.2170  0.2602  1.1145
 6866SOL    HW232061   2.111   3.469   7.984 -0.7686 -4.0499 -1.6629
 6867SOL     OW32062   2.544   3.719  16.607 -0.9046  0.0658  0.0275
 6867SOL    HW132063   2.607   3.711  16.679  0.8744 -1.7681 -1.7319
 6867SOL    HW232064   2.605   3.701  16.535  1.0586  1.1026  1.4123
 6868SOL     OW32065   4.215   0.004   7.695 -0.3757 -0.0263  0.4333
 6868SOL    HW132066   4.137   0.020   7.642 -1.0983 -2.4173  0.7758
 6868SOL    HW232067   4.278   4.689   7.636 -0.9853  0.2580 -0.4165
 6869SOL     OW32068   1.500   2.048  14.919 -0.3389 -0.8050 -0.5000
 6869SOL    HW132069   1.450   2.012  14.992 -0.1243  1.8680  0.9612
 6869SOL    HW232070   1.593   2.030  14.932 -0.1504  0.6860  0.1966
 6870SOL     OW32071   3.730   3.649   7.368  0.8346  0.1606 -0.7484
 6870SOL    HW132072   3.773   3.707   7.306 -1.4724  2.2289 -0.4240
 6870SOL    HW232073   3.768   3.564   7.346  1.8130  0.1004  1.1670
 6871SOL     OW32074   4.243   1.129  17.611 -0.1871 -0.3994  0.1765
 6871SOL    HW132075   4.227   1.034  17.615 -1.0135 -0.2259  0.9266
 6871SOL    HW232076   4.324   1.140  17.561 -0.6178  1.5556 -0.0488
 6872SOL     OW32077   4.479   1.657   9.434 -0.3132  0.2353 -0.2751
 6872SOL    HW132078   4.531   1.671   9.513  0.2106 -0.4058 -0.5115
 6872SOL    HW232079   4.409   1.603   9.471 -0.0726 -1.6855 -2.6411
 6873SOL     OW32080   3.148   4.285  12.458 -0.4494  0.1430 -0.1452
 6873SOL    HW132081   3.112   4.205  12.420  0.4948  0.2821 -1.3280
 6873SOL    HW232082   3.096   4.352  12.415  0.2740  0.3199 -0.7362
 6874SOL     OW32083   1.062   3.276   6.785  0.1164 -0.1710  0.4233
 6874SOL    HW132084   1.084   3.246   6.873 -3.2215  0.5231  1.4571
 6874SOL    HW232085   0.985   3.330   6.800  0.7367  0.7167  0.4410
 6875SOL     OW32086   2.166   0.246   5.655  0.2424 -0.3345 -0.4354
 6875SOL    HW132087   2.185   0.333   5.621 -0.5595  0.6911  1.7746
 6875SOL    HW232088   2.107   0.271   5.726  3.2230  0.5943  1.6990
 6876SOL     OW32089   1.618   4.174  16.968  0.6690 -0.5060 -0.3444
 6876SOL    HW132090   1.589   4.087  16.995  0.4686 -0.3699 -0.1190
 6876SOL    HW232091   1.576   4.179  16.882  0.3076  1.4629 -0.0456
 6877SOL     OW32092   4.274   3.024   1.899 -0.1811  0.5100 -0.0036
 6877SOL    HW132093   4.281   3.115   1.873  0.1799  0.3064 -0.6062
 6877SOL    HW232094   4.184   3.002   1.872 -0.1141  1.2592 -0.8121
 6878SOL     OW32095   0.891   0.588  15.021  0.3876 -0.0490  0.4975
 6878SOL    HW132096   0.856   0.499  15.009 -0.8946  0.8120 -2.2981
 6878SOL    HW232097   0.903   0.587  15.116 -1.6673  0.9379  0.7724
 6879SOL     OW32098   2.392   2.543   5.933 -0.5827 -0.1109  0.0902
 6879SOL    HW132099   2.415   2.560   6.024 -0.7662 -0.8601  0.2787
 6879SOL    HW232100   2.455   2.476   5.908  1.1094  1.9602 -1.1873
 6880SOL     OW32101   1.696   3.142  14.764 -0.2191 -0.1426 -0.3386
 6880SOL    HW132102   1.782   3.181  14.783 -0.2344  0.1841 -0.9342
 6880SOL    HW232103   1.715   3.077  14.696 -2.3130 -0.8571 -0.2437
 6881SOL     OW32104   0.185   1.745   4.097  0.1110 -0.7344 -0.0034
 6881SOL    HW132105   0.168   1.700   4.180 -0.0863  2.4822  1.6929
 6881SOL    HW232106   0.251   1.807   4.126 -1.1044  0.8895 -0.6962
 6882SOL     OW32107   0.082   2.267   7.514  0.4342  0.2481  0.3889
 6882SOL    HW132108   0.124   2.273   7.427  3.0879 -1.5951  1.5455
 6882SOL    HW232109   4.726   2.311   7.492  0.8898  0.6403 -0.5426
 6883SOL     OW32110   0.874   1.818   5.591 -0.1232 -0.3388 -0.1070
 6883SOL    HW132111   0.885   1.724   5.581  0.2131 -0.2180 -0.8738
 6883SOL    HW232112   0.778   1.821   5.585 -0.1378 -2.0332 -0.8437
 6884SOL     OW32113   3.644   3.699  12.757 -0.0168 -0.2642  0.3899
 6884SOL    HW132114   3.578   3.758  12.721  0.4313  0.0873  0.1341
 6884SOL    HW232115   3.722   3.742  12.721  0.6963 -0.0635  2.1949
 6885SOL     OW32116   2.462   2.156   7.338 -0.0191 -0.3772  0.3431
 6885SOL    HW132117   2.431   2.073   7.373 -0.1040 -0.6118 -0.2950
 6885SOL    HW232118   2.380   2.176   7.292 -0.5030 -1.5407  0.7028
 6886SOL     OW32119   0.467   3.745   8.260  0.2981 -0.3321 -0.3565
 6886SOL    HW132120   0.460   3.841   8.265  0.8628 -0.2200 -1.6300
 6886SOL    HW232121   0.383   3.700   8.257  0.8519 -1.5887  3.1237
 6887SOL     OW32122   3.803   1.274   4.243  0.0636 -0.0070 -0.5326
 6887SOL    HW132123   3.859   1.339   4.285  0.7266  0.2160 -1.7782
 6887SOL    HW232124   3.741   1.331   4.198 -0.1651  1.0221  1.0691
 6888SOL     OW32125   4.505   0.902   0.126  0.3399 -0.3526  0.4612
 6888SOL    HW132126   4.446   0.846   0.177  0.8385  0.2060  1.6450
 6888SOL    HW232127   4.466   0.989   0.138  0.4557 -0.3850  1.0857
 6889SOL     OW32128   0.666   0.437   3.761 -0.8104 -0.2998  0.1957
 6889SOL    HW132129   0.677   0.430   3.856  1.2538  0.8939  0.0504
 6889SOL    HW232130   0.744   0.485   3.735 -0.8278 -0.8672 -0.9159
 6890SOL     OW32131   0.297   3.153  11.753 -0.1227 -0.4277 -0.5469
 6890SOL    HW132132   0.323   3.139  11.844  0.9944  1.0190 -0.6516
 6890SOL    HW232133   0.322   3.245  11.750 -0.5565 -0.3614 -2.1328
 6891SOL     OW32134   1.221   0.083   3.992 -0.3062 -0.1111 -0.0828
 6891SOL    HW132135   1.277   0.111   3.920 -0.6138 -0.1237 -0.3266
 6891SOL    HW232136   1.249   0.136   4.066  4.6236 -1.9800 -0.6077
 6892SOL     OW32137   0.411   0.189   3.352 -0.1419  0.2618  0.2552
 6892SOL    HW132138   0.475   0.118   3.351  1.7516  2.0328 -2.9088
 6892SOL    HW232139   0.437   0.241   3.428  2.8787  0.5414 -0.9811
 6893SOL     OW32140   1.999   0.539  12.841 -0.8104 -0.1589  0.2304
 6893SOL    HW132141   2.007   0.466  12.902 -2.0584  0.1449  0.7474
 6893SOL    HW232142   1.905   0.541  12.827 -0.7743  0.5360  0.0591
 6894SOL     OW32143   2.566   0.879  16.294 -0.0478  0.4718  0.4076
 6894SOL    HW132144   2.572   0.934  16.216  0.3772 -1.5842 -1.0356
 6894SOL    HW232145   2.653   0.839  16.289  0.2804  1.3068 -0.5942
 6895SOL     OW32146   0.946   3.746  16.782 -0.4013 -0.1060 -0.4595
 6895SOL    HW132147   0.981   3.661  16.756  1.5150  0.8026 -0.9134
 6895SOL    HW232148   0.978   3.792  16.704 -2.4979  1.9447 -0.1085
 6896SOL     OW32149   2.788   3.650   3.145  0.7193  0.3768  0.4416
 6896SOL    HW132150   2.785   3.744   3.160 -1.9355  0.2040  0.9576
 6896SOL    HW232151   2.858   3.653   3.080  1.0611 -0.0094  0.7886
 6897SOL     OW32152   4.017   0.928  10.968 -0.1549  0.1213 -0.4623
 6897SOL    HW132153   4.069   0.862  10.921  0.2258 -0.2445  0.4731
 6897SOL    HW232154   4.084   0.986  11.004 -2.0818  1.5558  0.7649
 6898SOL     OW32155   2.841   3.772   4.048  0.3045 -0.1739  0.2793
 6898SOL    HW132156   2.805   3.687   4.021 -1.2023  0.8709 -1.0370
 6898SOL    HW232157   2.932   3.744   4.053 -0.1185 -1.3908  0.9642
 6899SOL     OW32158   1.490   0.011  15.377  0.4332  0.3287  0.7180
 6899SOL    HW132159   1.521   4.678  15.308  1.4429 -0.2356  1.6621
 6899SOL    HW232160   1.414   4.686  15.407  0.8571 -0.3504  0.6278
 6900SOL     OW32161   1.454   0.635   8.721  0.7515  0.1074  0.0815
 6900SOL    HW132162   1.470   0.593   8.637  0.2783 -0.7381  0.4143
 6900SOL    HW232163   1.398   0.710   8.700  0.1045 -0.9183 -1.8126
 6901SOL     OW32164   4.698   2.561  16.644 -0.6943  0.4374  0.2594
 6901SOL    HW132165   4.638   2.538  16.715  0.6810 -0.3532  1.1517
 6901SOL    HW232166   4.640   2.616  16.591 -0.6286 -0.8177 -1.1291
 6902SOL     OW32167   2.154   3.554   2.767 -0.0429 -0.0656 -0.0813
 6902SOL    HW132168   2.166   3.636   2.720 -1.6291  1.4088  2.0963
 6902SOL    HW232169   2.094   3.506   2.711 -0.0290  1.6392 -1.5449
 6903SOL     OW32170   1.657   0.430   2.707  0.3630  0.0260  0.3437
 6903SOL    HW132171   1.603   0.368   2.756 -0.1189  0.7958  0.7946
 6903SOL    HW232172   1.619   0.425   2.620  0.6897  2.1752  0.0656
 6904SOL     OW32173   3.879   0.588   5.207 -0.4457 -0.4203  0.0238
 6904SOL    HW132174   3.820   0.573   5.133 -1.5555  2.5329  0.3100
 6904SOL    HW232175   3.821   0.625   5.274 -0.6885  0.2422 -0.5463
 6905SOL     OW32176   1.310   1.985   5.014  0.3611  0.3350  0.6728
 6905SOL    HW132177   1.391   1.979   4.964  0.2602 -1.4022  0.7110
 6905SOL    HW232178   1.336   2.012   5.102 -0.2942  0.1681  0.9225
 6906SOL     OW32179   1.626   2.552   8.399  0.6251 -0.0876  0.2000
 6906SOL    HW132180   1.582   2.636   8.402  0.7471 -0.1101  2.9359
 6906SOL    HW232181   1.651   2.550   8.492 -0.3720 -3.7661  0.3865
 6907SOL     OW32182   1.400   1.183   1.286  0.9370 -0.6764 -0.2870
 6907SOL    HW132183   1.379   1.276   1.279 -1.4509 -1.2730 -1.0885
 6907SOL    HW232184   1.463   1.187   1.358  0.1154  2.6557  0.2074
 6908SOL     OW32185   0.115   1.599  15.500 -0.5612 -0.1790  0.3655
 6908SOL    HW132186   0.021   1.593  15.481 -0.4097 -0.4215 -0.3006
 6908SOL    HW232187   0.122   1.665  15.569 -1.0384 -0.7933  1.0094
 6909SOL     OW32188   3.358   0.618   5.962 -0.1774  0.3520  0.1813
 6909SOL    HW132189   3.413   0.618   6.040 -1.6414 -0.4835  1.2234
 6909SOL    HW232190   3.380   0.696   5.911 -0.8436 -0.4291 -1.2993
 6910SOL     OW32191   0.873   1.717  17.015  0.2151 -0.1249  0.0512
 6910SOL    HW132192   0.788   1.674  17.025  0.9383 -1.1176  1.7615
 6910SOL    HW232193   0.859   1.798  17.064 -0.1245 -0.4911  0.5478
 6911SOL     OW32194   3.692   2.961  10.400  0.4647 -0.3296  0.0241
 6911SOL    HW132195   3.642   2.893  10.446 -0.8960  0.6846  0.0453
 6911SOL    HW232196   3.621   3.022  10.423 -0.1148 -0.7922 -0.5362
 6912SOL     OW32197   0.563   3.098  14.952  0.3120 -0.1716  0.1900
 6912SOL    HW132198   0.625   3.135  15.015  0.3835 -3.0757  1.8404
 6912SOL    HW232199   0.592   3.146  14.874  2.4640  0.0661  1.1490
 6913SOL     OW32200   3.074   2.403   7.255  0.4497 -0.0672 -0.8558
 6913SOL    HW132201   3.025   2.426   7.176 -0.4609  0.2554 -0.1921
 6913SOL    HW232202   3.023   2.328   7.284  1.7738 -0.5363  0.2514
 6914SOL     OW32203   2.835   3.040  13.115  0.0076  0.1655 -0.6321
 6914SOL    HW132204   2.778   2.979  13.069  0.0769  0.4402 -1.0783
 6914SOL    HW232205   2.869   3.098  13.047  1.2983  1.2513  0.9052
 6915SOL     OW32206   0.196   0.942   3.313  0.1066  0.5665 -0.1604
 6915SOL    HW132207   0.222   0.861   3.270  0.1060  0.6998 -0.4118
 6915SOL    HW232208   0.121   0.963   3.258 -0.0006  0.3498 -0.0961
 6916SOL     OW32209   2.719   3.099  13.345 -0.2286 -0.6486 -0.5118
 6916SOL    HW132210   2.641   3.044  13.338 -1.2238  0.6513  0.3366
 6916SOL    HW232211   2.764   3.078  13.263 -1.1470  0.5859 -1.3319
 6917SOL     OW32212   0.518   1.203   7.322 -0.0170 -0.4997 -0.2830
 6917SOL    HW132213   0.535   1.292   7.352 -1.4879 -0.5546  0.7047
 6917SOL    HW232214   0.598   1.173   7.280  0.4505  1.0622 -0.5034
 6918SOL     OW32215   2.625   3.276  11.272  0.2719 -0.2931  0.2441
 6918SOL    HW132216   2.661   3.282  11.183  1.1547 -0.8146  0.5670
 6918SOL    HW232217   2.567   3.352  11.272 -1.1442 -1.3814  1.5284
 6919SOL     OW32218   4.289   4.406  14.037 -0.3629  0.5090  0.4329
 6919SOL    HW132219   4.323   4.495  14.042 -0.4458  0.6468 -1.2243
 6919SOL    HW232220   4.374   4.362  14.037 -0.4875  0.2506 -0.7038
 6920SOL     OW32221   0.372   2.700   3.720  0.0119 -0.6730  0.0168
 6920SOL    HW132222   0.426   2.740   3.788  0.5601  0.8397 -1.3163
 6920SOL    HW232223   0.319   2.774   3.689 -2.3036 -2.4241 -0.2697
 6921SOL     OW32224   1.792   4.603  15.969  0.3428  0.7099  0.7525
 6921SOL    HW132225   1.818   4.659  15.895  0.4070  0.9719  0.9727
 6921SOL    HW232226   1.699   4.604  15.949  0.1127  1.2086  1.8777
 6922SOL     OW32227   1.357   0.757   0.328  0.0786 -0.1832 -0.4153
 6922SOL    HW132228   1.341   0.691   0.260  0.4268  0.4057 -1.0600
 6922SOL    HW232229   1.452   0.763   0.338  0.2608 -0.2543 -2.1160
 6923SOL     OW32230   3.970   1.480  12.712  0.0077  0.1006  0.1128
 6923SOL    HW132231   4.000   1.562  12.752  0.7757  0.6621 -1.6042
 6923SOL    HW232232   3.913   1.444  12.779  0.1689  0.3519  0.3846
 6924SOL     OW32233   0.496   3.574   4.578  0.6718  0.0337 -0.1992
 6924SOL    HW132234   0.539   3.566   4.493  0.2414 -0.3214 -0.3880
 6924SOL    HW232235   0.538   3.650   4.617  0.7463 -1.9189  3.6245
 6925SOL     OW32236   2.963   0.063   9.380 -0.4776  0.2080  0.5385
 6925SOL    HW132237   3.055   0.069   9.356 -1.0046 -0.1879 -1.5496
 6925SOL    HW232238   2.959   4.695   9.363 -1.3151 -0.0649  2.2510
 6926SOL     OW32239   3.085   0.154   0.057 -0.1727 -0.1538 -0.8264
 6926SOL    HW132240   3.088   0.196   0.143 -2.3295  1.0582 -1.3537
 6926SOL    HW232241   3.159   0.198   0.016  0.5133 -2.0019 -1.5610
 6927SOL     OW32242   2.288   3.522  14.513  0.0442 -0.0705 -0.2631
 6927SOL    HW132243   2.223   3.479  14.569 -0.2791 -0.7628 -1.1686
 6927SOL    HW232244   2.233   3.593  14.480 -1.4271 -1.3150 -0.4676
 6928SOL     OW32245   1.184   4.048   6.760 -0.6115  0.3866 -0.0190
 6928SOL    HW132246   1.130   4.070   6.837 -2.3752 -0.2400 -1.0642
 6928SOL    HW232247   1.133   4.090   6.690  1.4022  0.9006 -1.1629
 6929SOL     OW32248   0.030   3.912   3.962  0.0172 -0.5885  0.2049
 6929SOL    HW132249   4.711   3.877   4.039 -3.4012  1.8837 -0.7103
 6929SOL    HW232250   0.096   3.842   3.958 -0.4885 -1.0848  0.4332
 6930SOL     OW32251   3.827   3.809   3.507 -0.0826 -0.2659  0.0240
 6930SOL    HW132252   3.773   3.883   3.536  0.5618  0.2789 -0.1694
 6930SOL    HW232253   3.842   3.833   3.416  2.1972 -3.3915 -0.4209
 6931SOL     OW32254   2.934   2.735   3.809 -0.0803 -0.0723  0.0327
 6931SOL    HW132255   2.928   2.787   3.728 -3.7216  1.5888  1.3503
 6931SOL    HW232256   2.841   2.713   3.813 -0.1105 -0.1791 -1.4068
 6932SOL     OW32257   4.121   1.203   3.312 -0.4703 -0.0782  0.1953
 6932SOL    HW132258   4.201   1.175   3.357 -0.1253  0.7619  0.0994
 6932SOL    HW232259   4.059   1.190   3.384  0.2590 -3.7209  0.2064
 6933SOL     OW32260   0.922   3.082   1.735 -0.3117  0.0827 -0.4128
 6933SOL    HW132261   0.984   3.062   1.664 -1.1226 -0.6676 -0.9128
 6933SOL    HW232262   0.980   3.094   1.810 -1.5559 -0.8486  0.6993
 6934SOL     OW32263   1.805   2.867   5.089 -0.0464  0.6882 -0.6013
 6934SOL    HW132264   1.803   2.920   5.009  3.8452  2.7616  0.6884
 6934SOL    HW232265   1.746   2.795   5.067  0.2325 -0.1851  1.5010
 6935SOL     OW32266   4.672   3.525   7.373 -0.1136 -0.4643  0.0207
 6935SOL    HW132267   4.659   3.616   7.346 -0.4845 -0.2706  0.8662
 6935SOL    HW232268   4.686   3.536   7.467  1.8430 -1.6434 -0.1162
 6936SOL     OW32269   1.205   0.095  16.217  0.2919  0.3982  0.2712
 6936SOL    HW132270   1.158   0.168  16.176  0.7950 -0.0068 -1.0468
 6936SOL    HW232271   1.137   0.051  16.268 -0.0525 -0.3549 -0.8448
 6937SOL     OW32272   2.962   2.954  15.374 -0.6986  0.1859  0.2694
 6937SOL    HW132273   3.029   2.906  15.325 -2.0463 -0.4226 -0.9624
 6937SOL    HW232274   2.895   2.981  15.311  0.0815  0.5222 -0.4320
 6938SOL     OW32275   0.606   2.124  14.642 -0.3804 -0.3353  0.1423
 6938SOL    HW132276   0.677   2.122  14.578 -0.3622  3.1606  0.0709
 6938SOL    HW232277   0.574   2.213  14.631  2.8691  0.9182  1.0037
 6939SOL     OW32278   3.050   1.755   4.924 -0.1693  0.3273  0.0343
 6939SOL    HW132279   3.021   1.764   4.833  0.8579  2.0800 -0.1161
 6939SOL    HW232280   2.965   1.753   4.968 -0.5171  2.3429 -0.5361
 6940SOL     OW32281   1.330   0.417  13.072 -0.7347 -0.2147 -0.3710
 6940SOL    HW132282   1.420   0.449  13.079 -0.7483 -0.3559  0.4705
 6940SOL    HW232283   1.288   0.445  13.154 -1.3378 -1.2645 -0.3247
 6941SOL     OW32284   1.167   3.200  11.876 -0.2984 -1.0173 -0.5702
 6941SOL    HW132285   1.260   3.203  11.897 -0.3394  0.2758 -0.6239
 6941SOL    HW232286   1.131   3.217  11.963 -0.8233  0.2437 -1.0388
 6942SOL     OW32287   2.793   1.248   3.544 -0.0219 -0.1398  0.1720
 6942SOL    HW132288   2.791   1.266   3.450  0.5092  1.0036  0.3844
 6942SOL    HW232289   2.856   1.176   3.537 -0.7417 -0.8695  1.0635
 6943SOL     OW32290   4.293   1.042   9.915 -0.2277  0.0322 -0.0020
 6943SOL    HW132291   4.289   1.010   9.825 -0.5027  0.1601 -0.0355
 6943SOL    HW232292   4.379   1.084   9.903 -0.1949 -0.6948 -2.3602
 6944SOL     OW32293   1.433   2.526  17.406 -0.1533 -0.2072  0.2586
 6944SOL    HW132294   1.437   2.620  17.386 -4.6937  0.3638  1.9410
 6944SOL    HW232295   1.411   2.480  17.325 -0.6312  0.0910  0.2156
 6945SOL     OW32296   0.153   1.422   0.733  0.4562  0.0676 -0.4893
 6945SOL    HW132297   0.174   1.476   0.809  0.9313  1.8556 -1.8580
 6945SOL    HW232298   0.236   1.378   0.718  1.8580  0.9707  4.7947
 6946SOL     OW32299   2.562   1.568   5.500  0.4948 -0.1918  0.4309
 6946SOL    HW132300   2.510   1.532   5.428  0.6882  2.1200 -0.8704
 6946SOL    HW232301   2.565   1.661   5.477 -2.8277 -0.1391  0.1749
 6947SOL     OW32302   0.812   2.072   3.123 -0.5288  0.7096 -0.3463
 6947SOL    HW132303   0.753   2.141   3.153 -2.0915  0.4017 -2.6732
 6947SOL    HW232304   0.764   1.994   3.147 -1.2244  0.3132 -2.9881
 6948SOL     OW32305   2.141   4.578  12.994 -0.0677 -0.8477 -0.7451
 6948SOL    HW132306   2.231   4.562  13.024 -0.0638 -3.3070 -2.0657
 6948SOL    HW232307   2.127   4.657  13.047 -0.7331 -2.7330  1.8796
 6949SOL     OW32308   0.993   1.294   5.998  0.5115  0.7037 -0.5362
 6949SOL    HW132309   1.014   1.387   5.998  1.3982  0.4926 -3.0501
 6949SOL    HW232310   0.908   1.306   6.041  0.1223 -2.8832 -0.2976
 6950SOL     OW32311   3.832   3.185   2.500 -0.2577  0.1138  0.4359
 6950SOL    HW132312   3.784   3.102   2.507 -1.6693  0.8264 -0.7842
 6950SOL    HW232313   3.825   3.216   2.590  0.8565 -1.1255  0.9454
 6951SOL     OW32314   0.788   1.485   8.551 -0.1186  0.4197 -0.0557
 6951SOL    HW132315   0.833   1.569   8.559 -1.0485  0.8391  0.7834
 6951SOL    HW232316   0.799   1.443   8.637 -1.7693 -0.2368 -0.1605
 6952SOL     OW32317   3.477   2.495   6.772  0.1755 -0.3457 -1.0431
 6952SOL    HW132318   3.537   2.555   6.816 -0.5924  0.6249 -1.2975
 6952SOL    HW232319   3.467   2.425   6.837  2.5452 -1.3520 -1.8062
 6953SOL     OW32320   4.457   4.577   2.813 -0.7000 -0.4055 -0.0430
 6953SOL    HW132321   4.432   4.585   2.721 -3.0836  0.5394  0.6863
 6953SOL    HW232322   4.364   4.565   2.834 -0.9684 -0.6239 -1.3827
 6954SOL     OW32323   3.894   4.511   5.375 -0.3531 -0.0514 -0.3306
 6954SOL    HW132324   3.976   4.495   5.422  0.1421  2.7100 -0.2645
 6954SOL    HW232325   3.920   4.558   5.296 -0.5410 -1.0358 -0.9742
 6955SOL     OW32326   3.916   2.615   3.995  0.6928  0.1499  0.1755
 6955SOL    HW132327   3.986   2.555   3.970 -2.2883 -3.3398  0.1674
 6955SOL    HW232328   3.961   2.700   3.990 -0.0399  0.5712  0.8219
 6956SOL     OW32329   0.685   0.898  17.020  0.8905 -0.3941  0.1151
 6956SOL    HW132330   0.758   0.930  17.074 -1.8588  0.4962  3.3038
 6956SOL    HW232331   0.691   0.804  17.039  3.1074 -0.2857 -0.0604
 6957SOL     OW32332   4.656   4.200   4.012  0.7631 -0.6508  0.1462
 6957SOL    HW132333   4.637   4.176   4.103 -1.1050  1.9254  0.4304
 6957SOL    HW232334   4.713   4.125   3.994 -1.5948 -1.9630 -1.9076
 6958SOL     OW32335   1.014   0.961  13.203  0.5362 -0.1199 -0.3973
 6958SOL    HW132336   1.076   0.915  13.259 -0.4334  1.1287  1.6982
 6958SOL    HW232337   0.935   0.955  13.256  0.3860  0.9368 -0.4905
 6959SOL     OW32338   2.239   0.632   4.294 -0.2893  0.4944  0.3967
 6959SOL    HW132339   2.217   0.724   4.310  0.7408  0.9083 -0.5876
 6959SOL    HW232340   2.167   0.585   4.335  0.8924 -2.6636 -1.1663
 6960SOL     OW32341   1.707   2.645  17.475 -0.7845 -0.1632  0.4760
 6960SOL    HW132342   1.737   2.695  17.399 -0.8574 -1.3650 -0.3368
 6960SOL    HW232343   1.627   2.603  17.444  0.2402 -1.5368 -0.3046
 6961SOL     OW32344   4.027   2.073  17.674 -0.1114 -0.6486  0.0741
 6961SOL    HW132345   4.029   2.013  17.600  1.3063 -1.9130  1.1343
 6961SOL    HW232346   4.076   2.017   0.031  0.5710  0.1331  0.2478
 6962SOL     OW32347   4.651   2.277  17.399  0.1815 -0.4824 -0.0101
 6962SOL    HW132348   4.668   2.184  17.415  0.0164 -0.3689  0.8355
 6962SOL    HW232349   0.015   2.300  17.374 -0.3783  0.2006 -1.3525
 6963SOL     OW32350   1.572   0.271  16.346  0.3450  0.1638 -0.3284
 6963SOL    HW132351   1.577   0.363  16.370  0.3219  0.1092 -0.1133
 6963SOL    HW232352   1.550   0.236  16.433 -0.0488 -1.5024 -1.0814
 6964SOL     OW32353   3.103   3.899   5.415 -0.5228  0.3649 -0.1653
 6964SOL    HW132354   3.191   3.882   5.380 -0.0863  0.4481  0.8997
 6964SOL    HW232355   3.128   3.899   5.507  3.9816  0.7735 -1.3794
 6965SOL     OW32356   3.949   3.655   8.853 -0.2491 -0.0563  0.0289
 6965SOL    HW132357   3.940   3.685   8.943  0.0822 -0.8284  0.3180
 6965SOL    HW232358   3.906   3.731   8.814 -0.8186  0.7275  2.1617
 6966SOL     OW32359   3.149   0.388   7.455  0.2492 -0.2078  0.0637
 6966SOL    HW132360   3.065   0.390   7.501  0.8325 -0.6049  1.1483
 6966SOL    HW232361   3.171   0.481   7.456 -1.8148  0.2757  0.6010
 6967SOL     OW32362   4.317   0.099   2.683 -0.9754 -0.1542 -0.2134
 6967SOL    HW132363   4.298   0.192   2.696  0.5075  0.0688  0.3616
 6967SOL    HW232364   4.257   0.053   2.742 -1.8087 -0.0693 -1.0023
 6968SOL     OW32365   4.199   3.582   0.257  0.0903 -0.0732 -0.1638
 6968SOL    HW132366   4.114   3.591   0.299  1.4878 -0.2274  2.6795
 6968SOL    HW232367   4.249   3.527   0.317  1.5313  0.7227 -0.6205
 6969SOL     OW32368   0.440   3.133   7.871  0.2544  0.7402 -0.1637
 6969SOL    HW132369   0.440   3.116   7.966 -1.3193 -2.3803 -0.6995
 6969SOL    HW232370   0.430   3.227   7.862  1.3459  0.7877 -0.8415
 6970SOL     OW32371   1.427   3.878   3.615  0.5242  1.0492  0.3232
 6970SOL    HW132372   1.522   3.891   3.614  0.6153  0.2871 -0.4007
 6970SOL    HW232373   1.416   3.873   3.520 -0.0877 -0.5573  0.4765
 6971SOL     OW32374   0.222   1.595   0.167 -0.7841  0.3911 -0.7350
 6971SOL    HW132375   0.255   1.582   0.256  1.8754 -0.1804 -1.8071
 6971SOL    HW232376   0.266   1.522   0.124 -0.3898  0.0846  0.1689
 6972SOL     OW32377   2.076   3.370  11.747  0.6763  0.3490 -0.2546
 6972SOL    HW132378   2.077   3.365  11.843  0.5799 -1.0551 -0.3312
 6972SOL    HW232379   1.983   3.388  11.737  0.5876  0.7867  1.2814
 6973SOL     OW32380   4.217   4.632   7.308 -0.0602 -0.4622  0.6343
 6973SOL    HW132381   4.125   4.645   7.331 -1.0541 -1.3655 -2.7426
 6973SOL    HW232382   4.266   4.631   7.390  1.7313  0.4538 -0.4248
 6974SOL     OW32383   3.071   1.955   3.478 -0.2304  0.2679  0.0268
 6974SOL    HW132384   3.091   2.043   3.448  2.5013 -0.5954 -0.7365
 6974SOL    HW232385   2.977   1.942   3.467 -0.1857  0.8273 -1.0322
 6975SOL     OW32386   2.840   0.387  11.952  0.1410  0.6239  0.1909
 6975SOL    HW132387   2.749   0.405  11.977 -1.2290 -3.7480 -1.5504
 6975SOL    HW232388   2.857   0.325  12.023 -0.7221  0.8732  0.6091
 6976SOL     OW32389   1.358   2.676   5.118 -0.4865 -0.2315  0.1288
 6976SOL    HW132390   1.378   2.589   5.083 -1.6481 -1.2168  1.9686
 6976SOL    HW232391   1.409   2.738   5.065  0.2833  0.4570  1.6764
 6977SOL     OW32392   2.565   3.063   5.579  0.2725 -0.1209  0.1291
 6977SOL    HW132393   2.549   3.145   5.627  0.3452 -0.4687  0.7521
 6977SOL    HW232394   2.656   3.052   5.605  0.4404  1.5284  0.2586
 6978SOL     OW32395   3.818   3.771   1.668 -0.1727  0.1972 -0.2685
 6978SOL    HW132396   3.815   3.682   1.702 -0.7842  0.3169 -0.0060
 6978SOL    HW232397   3.913   3.782   1.660 -0.5045  1.9916 -1.6607
 6979SOL     OW32398   3.310   3.294   6.702  0.0807 -0.1882  0.3856
 6979SOL    HW132399   3.311   3.199   6.709  0.4883 -0.2598 -0.7616
 6979SOL    HW232400   3.393   3.310   6.747  0.9211 -2.1421 -0.5115
 6980SOL     OW32401   1.950   3.306  14.721  0.1089  0.1324  0.5784
 6980SOL    HW132402   2.002   3.299  14.641  0.2685 -0.3299  0.7218
 6980SOL    HW232403   2.012   3.350  14.780  1.0973  2.1024 -1.9155
 6981SOL     OW32404   4.511   3.608   5.907 -0.2678  0.3627 -0.5743
 6981SOL    HW132405   4.505   3.664   5.984  4.3939 -0.4328  0.3969
 6981SOL    HW232406   4.418   3.597   5.887  0.3160 -1.0996 -2.4774
 6982SOL     OW32407   1.805   2.711   9.760  0.2059 -0.1698 -0.0674
 6982SOL    HW132408   1.873   2.745   9.819 -0.3950  1.6230 -0.3849
 6982SOL    HW232409   1.821   2.756   9.677  1.7505 -1.9446 -0.6999
 6983SOL     OW32410   3.423   3.224   2.485  0.4504  0.0577  0.1948
 6983SOL    HW132411   3.353   3.218   2.420  1.1690  0.5032 -0.6126
 6983SOL    HW232412   3.479   3.290   2.445 -2.4401  2.1933 -0.3609
 6984SOL     OW32413   2.705   1.786   9.419  1.0152  0.0288  0.1091
 6984SOL    HW132414   2.634   1.833   9.463  1.5191 -0.2931  1.2626
 6984SOL    HW232415   2.740   1.731   9.489  0.5216 -0.9819 -0.4451
 6985SOL     OW32416   2.763   2.508   6.837 -0.0564 -0.1333  0.1626
 6985SOL    HW132417   2.714   2.553   6.905 -2.0334  1.8730 -2.5974
 6985SOL    HW232418   2.822   2.581   6.817 -0.2804 -0.6418 -2.3659
 6986SOL     OW32419   1.718   1.008   4.796 -0.2366 -0.4849  0.5098
 6986SOL    HW132420   1.786   1.055   4.747 -2.2958  2.0431  0.0820
 6986SOL    HW232421   1.638   1.038   4.752  0.2179  0.8059  0.5492
 6987SOL     OW32422   3.102   2.775   2.614 -0.5701  0.6984 -0.3821
 6987SOL    HW132423   3.036   2.710   2.593 -0.5053  0.9647 -1.3871
 6987SOL    HW232424   3.129   2.810   2.529 -1.7392  0.9185 -0.6671
 6988SOL     OW32425   2.446   2.042   4.516  0.1389 -0.0335  0.4104
 6988SOL    HW132426   2.467   1.987   4.441 -0.3451 -0.0184  0.2656
 6988SOL    HW232427   2.525   2.096   4.513 -0.9460  1.5005 -0.7553
 6989SOL     OW32428   1.536   3.213  13.757  0.0628 -0.4140  0.3982
 6989SOL    HW132429   1.588   3.151  13.706 -0.9801 -1.3676  0.4889
 6989SOL    HW232430   1.448   3.179  13.744  0.0297 -0.7495  1.5169
 6990SOL     OW32431   1.543   4.360  16.000 -0.1816  0.3128 -0.1669
 6990SOL    HW132432   1.528   4.436  15.944  2.2630  0.8501 -0.0603
 6990SOL    HW232433   1.512   4.376  16.089 -1.0499  1.9095 -0.7656
 6991SOL     OW32434   2.812   2.851   2.896  0.4092  0.6289  0.0493
 6991SOL    HW132435   2.753   2.868   2.822 -0.2855 -1.0440  0.2154
 6991SOL    HW232436   2.880   2.918   2.897  1.6046 -0.5750 -0.4999
 6992SOL     OW32437   0.460   3.900  13.664  0.1214  0.1040 -0.7050
 6992SOL    HW132438   0.410   3.960  13.719 -2.1943 -1.2502 -1.3020
 6992SOL    HW232439   0.536   3.953  13.639 -0.3074  0.4596 -1.2798
 6993SOL     OW32440   3.109   2.230   5.793  0.2552  0.0548  0.1340
 6993SOL    HW132441   3.094   2.313   5.749  1.3121  0.5828  0.7501
 6993SOL    HW232442   3.050   2.171   5.747 -0.2388  0.8055 -0.1934
 6994SOL     OW32443   1.154   4.512  12.911 -0.3267  0.0473 -0.3302
 6994SOL    HW132444   1.220   4.554  12.967 -1.2825 -0.6505  1.3109
 6994SOL    HW232445   1.088   4.582  12.910  1.2618  1.5535 -1.6704
 6995SOL     OW32446   2.850   0.807   8.496  0.2414  0.0711 -0.2165
 6995SOL    HW132447   2.849   0.731   8.437  1.7314 -0.7622  0.8617
 6995SOL    HW232448   2.760   0.806   8.530 -0.1926 -1.4234 -1.3966
 6996SOL     OW32449   3.075   3.013  10.429  0.3984  0.1304  0.2044
 6996SOL    HW132450   3.091   2.997  10.522 -0.6556 -0.0383  0.3594
 6996SOL    HW232451   3.079   2.927  10.388  2.5253  0.7778 -0.9534
 6997SOL     OW32452   0.053   1.669   9.113  0.3416 -0.5413  0.9369
 6997SOL    HW132453   4.716   1.683   9.042 -0.2326 -1.3830  1.2833
 6997SOL    HW232454   0.010   1.615   9.179  0.2874 -0.4147  1.0044
 6998SOL     OW32455   0.336   1.254   6.077 -0.6788  0.1841  0.2865
 6998SOL    HW132456   0.380   1.231   5.995 -0.0743 -1.2465  1.0114
 6998SOL    HW232457   0.272   1.317   6.043  0.7223  1.9525  0.8592
 6999SOL     OW32458   2.610   1.015   3.029  1.0760  0.3383 -0.1042
 6999SOL    HW132459   2.562   1.093   3.003  0.6952  0.3906  0.7540
 6999SOL    HW232460   2.627   0.976   2.943 -1.0538 -1.1232  0.1204
 7000SOL     OW32461   4.497   3.671   7.716  0.2331  0.0901  0.4599
 7000SOL    HW132462   4.487   3.599   7.779  0.1713 -0.3186 -0.0196
 7000SOL    HW232463   4.584   3.699   7.745  0.3075  1.0344 -0.6833
 7001SOL     OW32464   1.213   0.633   3.809  0.0853  0.1693 -0.4971
 7001SOL    HW132465   1.202   0.692   3.884 -0.7444  0.8307 -1.1475
 7001SOL    HW232466   1.162   0.558   3.839 -1.0069  0.4313 -1.7244
 7002SOL     OW32467   3.862   2.167   3.495  0.2565 -0.2121  0.0303
 7002SOL    HW132468   3.836   2.076   3.509 -1.8036  0.3317 -0.2329
 7002SOL    HW232469   3.922   2.160   3.421 -2.0058  0.3209 -1.8673
 7003SOL     OW32470   0.292   0.438  17.304 -0.1520 -0.4811  0.2393
 7003SOL    HW132471   0.222   0.482  17.256  0.8095 -1.5005 -2.1176
 7003SOL    HW232472   0.375   0.477  17.277  0.6212 -0.8913  2.0217
 7004SOL     OW32473   3.334   1.025   2.258  0.2631 -0.1351  0.1106
 7004SOL    HW132474   3.361   0.961   2.191  2.5284  0.6026  0.3035
 7004SOL    HW232475   3.388   1.005   2.335 -1.6604  0.0922  1.5280
 7005SOL     OW32476   3.740   4.025   5.265  0.1769  0.5588  0.3864
 7005SOL    HW132477   3.692   4.022   5.182  2.0710 -1.7103 -0.6040
 7005SOL    HW232478   3.692   4.092   5.315 -0.5061 -0.2955  0.8849
 7006SOL     OW32479   1.118   3.139   1.541  0.6135  0.6211 -0.0041
 7006SOL    HW132480   1.151   3.127   1.452  0.5276  1.1517 -0.1043
 7006SOL    HW232481   1.163   3.211   1.585  1.5302  0.8956 -1.3892
 7007SOL     OW32482   1.201   3.009   3.041  0.2443 -0.2888 -0.3427
 7007SOL    HW132483   1.126   2.957   3.012 -2.2248  3.8621 -1.4717
 7007SOL    HW232484   1.270   2.980   2.980  0.1216 -0.3305 -0.4620
 7008SOL     OW32485   1.286   2.115   6.763 -0.3560  0.3894  0.5109
 7008SOL    HW132486   1.261   2.177   6.694 -0.5185 -1.6407 -1.2419
 7008SOL    HW232487   1.374   2.150   6.777  0.0576 -0.7714  0.7641
 7009SOL     OW32488   2.989   0.562  13.647  0.2303 -0.0961  0.2431
 7009SOL    HW132489   2.978   0.529  13.558  2.3480  0.1827 -0.1111
 7009SOL    HW232490   3.043   0.639  13.633  0.9457 -0.6351  0.0179
 7010SOL     OW32491   4.347   2.377   7.723  0.6100  0.0614 -0.1390
 7010SOL    HW132492   4.313   2.295   7.688 -2.0504  1.2368 -0.3241
 7010SOL    HW232493   4.266   2.427   7.707 -0.2829 -1.2463  0.2865
 7011SOL     OW32494   0.907   2.244   0.732 -0.2550 -0.0140 -0.2336
 7011SOL    HW132495   1.001   2.224   0.733  0.4465  3.0890 -0.9389
 7011SOL    HW232496   0.905   2.284   0.645 -0.6464  2.1197  0.7569
 7012SOL     OW32497   0.531   3.606   3.259  0.1365  0.1719  0.7807
 7012SOL    HW132498   0.490   3.655   3.330 -0.2675  1.4713 -0.3430
 7012SOL    HW232499   0.586   3.543   3.305  1.0301 -0.4544 -1.1441
 7013SOL     OW32500   3.513   2.116   0.303 -0.6978  0.5568 -0.5241
 7013SOL    HW132501   3.463   2.084   0.228 -2.5314  1.6876  0.2220
 7013SOL    HW232502   3.577   2.045   0.311 -0.7313  0.8849  2.5146
 7014SOL     OW32503   3.345   3.610   8.908 -0.2597  0.1562 -0.0859
 7014SOL    HW132504   3.336   3.523   8.870 -2.0177  1.0183 -1.6769
 7014SOL    HW232505   3.285   3.660   8.853 -1.3380  0.7240  1.6290
 7015SOL     OW32506   0.878   1.209   2.467  0.5782 -0.5648 -0.7280
 7015SOL    HW132507   0.878   1.282   2.405  1.1166  0.0045 -0.0519
 7015SOL    HW232508   0.797   1.161   2.450  0.5397 -0.4440 -0.8849
 7016SOL     OW32509   2.392   3.862   2.526 -0.5057 -0.2329  0.1749
 7016SOL    HW132510   2.393   3.911   2.443  0.3842 -1.6884 -0.6815
 7016SOL    HW232511   2.364   3.930   2.587 -0.4969  1.7533 -1.9979
 7017SOL     OW32512   0.709   4.539   8.462  0.5823  0.4190  0.5048
 7017SOL    HW132513   0.665   4.541   8.377  2.2666 -3.4481 -0.4537
 7017SOL    HW232514   0.764   4.461   8.461 -0.6262 -0.4397  1.7270
 7018SOL     OW32515   0.831   1.430   6.535  0.0518  0.0232 -0.6725
 7018SOL    HW132516   0.803   1.338   6.535 -0.5683  0.2131 -1.8324
 7018SOL    HW232517   0.924   1.411   6.545  0.4252  0.5067 -3.3499
 7019SOL     OW32518   0.050   4.141   6.204  0.2457 -0.2666  0.0909
 7019SOL    HW132519   4.680   4.151   6.202  0.3080  0.0249 -1.0429
 7019SOL    HW232520   0.054   4.128   6.299  1.2669  2.3118  0.3954
 7020SOL     OW32521   3.750   0.561   3.723  0.4437  0.1758 -0.3687
 7020SOL    HW132522   3.808   0.554   3.647 -1.2498 -0.3597 -1.5995
 7020SOL    HW232523   3.665   0.535   3.689 -0.0950  0.6472  0.6315
 7021SOL     OW32524   0.131   3.253   5.834  0.0715 -0.3004  0.7597
 7021SOL    HW132525   0.106   3.321   5.896 -0.7506  0.5092 -0.4543
 7021SOL    HW232526   0.099   3.296   5.755  2.4781  0.8747  0.4321
 7022SOL     OW32527   2.076   0.608  13.588 -0.0513 -0.4870  0.0038
 7022SOL    HW132528   2.002   0.577  13.640 -0.7043  1.6961  0.3972
 7022SOL    HW232529   2.076   0.553  13.510  1.3212  1.1322 -1.1445
 7023SOL     OW32530   3.346   3.365   8.736  0.1692  0.5809  0.2257
 7023SOL    HW132531   3.412   3.312   8.692  0.4255  2.4289 -1.6160
 7023SOL    HW232532   3.266   3.314   8.745 -0.0483  0.6867 -1.2569
 7024SOL     OW32533   0.179   0.905   9.967 -0.1802 -0.8825 -0.0463
 7024SOL    HW132534   0.246   0.940  10.026  0.7309 -0.8201 -1.1139
 7024SOL    HW232535   0.124   0.868  10.036 -0.2696 -0.3901  0.1447
 7025SOL     OW32536   2.222   1.460  17.427  0.6187  0.0968 -0.0858
 7025SOL    HW132537   2.270   1.387  17.389  1.2087  0.4225  0.0280
 7025SOL    HW232538   2.296   1.501  17.472  1.4471 -0.9938 -0.4582
 7026SOL     OW32539   4.657   4.234   8.287 -0.3803 -0.1245 -0.1373
 7026SOL    HW132540   4.635   4.160   8.344 -3.9143  1.3505  0.4071
 7026SOL    HW232541   0.000   4.282   8.334 -1.3218  1.0700  0.0131
 7027SOL     OW32542   1.109   0.924   4.231 -0.1551  0.2405 -0.3836
 7027SOL    HW132543   1.132   0.849   4.286 -0.6903 -0.0631 -0.5771
 7027SOL    HW232544   1.055   0.975   4.291  1.1647  1.6806 -0.3975
 7028SOL     OW32545   1.569   0.271   4.285 -0.6888  0.6696 -0.0471
 7028SOL    HW132546   1.566   0.212   4.210 -1.7581  0.4532  0.1717
 7028SOL    HW232547   1.660   0.249   4.305 -0.0572  2.3669 -1.0240
 7029SOL     OW32548   1.283   2.001   7.339 -0.3893 -0.1428 -0.1664
 7029SOL    HW132549   1.330   1.932   7.385 -0.4748 -1.4574 -2.0864
 7029SOL    HW232550   1.337   2.079   7.351 -0.0732 -0.8156  2.8714
 7030SOL     OW32551   0.219   0.166  17.221  1.0114 -0.4190  0.8269
 7030SOL    HW132552   0.222   0.259  17.246 -0.5512 -0.7936  2.4419
 7030SOL    HW232553   0.255   0.130  17.302  0.7110  0.1093  1.2039
 7031SOL     OW32554   4.070   4.158  10.196 -0.0871 -0.2787  0.2805
 7031SOL    HW132555   4.100   4.074  10.232 -1.0781 -2.0358 -2.9536
 7031SOL    HW232556   4.003   4.181  10.260  0.1741 -1.1827  0.8716
 7032SOL     OW32557   4.243   2.018   2.673  0.1553 -0.3012 -0.7166
 7032SOL    HW132558   4.281   1.994   2.588 -0.0086  2.5676 -1.5836
 7032SOL    HW232559   4.290   1.954   2.727 -0.6754  0.9450  1.4968
 7033SOL     OW32560   1.011   0.041   8.380 -0.0798  0.1440 -1.2143
 7033SOL    HW132561   0.958   0.116   8.354 -1.4498  0.2547  1.9295
 7033SOL    HW232562   0.998   4.712   8.303  2.0023 -1.4121 -0.4710
 7034SOL     OW32563   4.210   4.194   7.497  0.2583 -0.4353 -0.0719
 7034SOL    HW132564   4.223   4.275   7.448 -1.3116 -0.1412  0.0081
 7034SOL    HW232565   4.158   4.220   7.573 -1.5839 -1.2993 -1.0248
 7035SOL     OW32566   0.375   1.357   1.919  0.4299 -0.3407 -0.1437
 7035SOL    HW132567   0.461   1.390   1.893 -0.1764  0.4375 -1.1296
 7035SOL    HW232568   0.335   1.314   1.844 -0.7452 -0.5869  0.6252
 7036SOL     OW32569   4.368   1.129   3.364 -0.4532  0.4158 -0.1993
 7036SOL    HW132570   4.451   1.147   3.320 -1.6835  0.6327 -2.4670
 7036SOL    HW232571   4.384   1.034   3.365 -0.8745  0.3638  1.8660
 7037SOL     OW32572   0.504   3.595   2.190  0.4248  0.1662 -0.5370
 7037SOL    HW132573   0.530   3.685   2.173  1.5052  0.1644  1.1434
 7037SOL    HW232574   0.553   3.586   2.271 -0.9604 -2.5045  0.0302
 7038SOL     OW32575   2.242   1.349   8.538 -0.0042 -0.3219  0.3642
 7038SOL    HW132576   2.245   1.397   8.620  0.5305 -0.3681  0.3737
 7038SOL    HW232577   2.251   1.416   8.471 -2.0258 -0.2034  0.2223
 7039SOL     OW32578   0.950   1.807  16.742 -0.1339  0.1480 -0.1271
 7039SOL    HW132579   0.945   1.755  16.823  0.5330  0.2714 -0.0011
 7039SOL    HW232580   1.040   1.840  16.743 -0.2507  0.4561  0.0850
 7040SOL     OW32581   4.216   4.186   8.476 -0.4312  0.4779 -0.0951
 7040SOL    HW132582   4.140   4.144   8.434 -0.9305  0.3551  0.9376
 7040SOL    HW232583   4.172   4.240   8.541 -1.6538 -0.9393  0.2507
 7041SOL     OW32584   4.455   3.908   4.745  0.1335  0.3473 -0.0067
 7041SOL    HW132585   4.452   3.924   4.651  3.3364 -1.6540 -0.4324
 7041SOL    HW232586   4.379   3.962   4.770 -0.1248  0.6014 -1.3618
 7042SOL     OW32587   0.334   2.723   3.183  0.1775  0.2020  0.2078
 7042SOL    HW132588   0.371   2.769   3.107 -0.5358 -1.0874 -0.9206
 7042SOL    HW232589   0.407   2.684   3.231  0.2359 -0.9173 -0.7924
 7043SOL     OW32590   3.194   2.954  10.685  0.4034  0.5746  0.2607
 7043SOL    HW132591   3.271   2.897  10.676 -0.8707 -1.1945  0.5111
 7043SOL    HW232592   3.148   2.905  10.753  1.3070 -1.2617 -0.4596
 7044SOL     OW32593   1.707   4.600   3.985  0.2208 -0.0728  0.2533
 7044SOL    HW132594   1.634   4.594   3.924  0.9674 -4.3494 -0.2254
 7044SOL    HW232595   1.751   4.679   3.954 -1.1882  0.4319 -0.4562
 7045SOL     OW32596   4.325   3.294   8.579 -0.2941 -0.2287 -0.6016
 7045SOL    HW132597   4.259   3.238   8.619 -0.4335 -0.8281 -1.6600
 7045SOL    HW232598   4.347   3.357   8.647  1.1270 -1.5460  0.1501
 7046SOL     OW32599   0.426   4.118   4.479 -1.0327 -0.1388  0.4454
 7046SOL    HW132600   0.360   4.086   4.418 -1.0221 -1.8004  1.2965
 7046SOL    HW232601   0.495   4.053   4.467  0.7949  2.0873 -1.0136
 7047SOL     OW32602   3.569   2.209  16.071 -0.9970 -0.0267  0.1779
 7047SOL    HW132603   3.550   2.129  16.021  0.2867 -0.0642 -0.2642
 7047SOL    HW232604   3.665   2.202  16.068 -1.1834 -2.3995 -1.0405
 7048SOL     OW32605   0.543   1.702   9.149  0.0810 -0.2944 -0.2651
 7048SOL    HW132606   0.457   1.733   9.121 -0.1468 -0.0492  0.7089
 7048SOL    HW232607   0.513   1.649   9.223  1.3834  1.5169  1.5651
 7049SOL     OW32608   3.285   3.548  12.967  0.4931 -0.2221 -0.1210
 7049SOL    HW132609   3.244   3.634  12.980  2.3225  0.9943 -2.3656
 7049SOL    HW232610   3.209   3.490  12.977 -0.9913  1.8454  0.7900
 7050SOL     OW32611   2.729   2.791   7.150 -0.3970  0.2580  0.0996
 7050SOL    HW132612   2.815   2.758   7.124 -0.5568 -0.7112  0.7513
 7050SOL    HW232613   2.693   2.716   7.199 -1.2624  0.5276 -0.1281
 7051SOL     OW32614   2.920   0.338   8.767  0.3059  0.1665 -0.6937
 7051SOL    HW132615   2.981   0.400   8.729 -2.4940  2.4897 -1.3573
 7051SOL    HW232616   2.888   0.294   8.688 -0.7102 -0.6273  0.1426
 7052SOL     OW32617   4.404   1.440   4.375  0.2904 -0.0609 -0.1973
 7052SOL    HW132618   4.457   1.492   4.315  0.8221  0.2587  0.5503
 7052SOL    HW232619   4.454   1.358   4.374 -0.8999 -0.7848 -1.6736
 7053SOL     OW32620   1.586   1.779  11.522  0.1265  0.7147  0.0043
 7053SOL    HW132621   1.504   1.807  11.482 -0.1536  1.7780  1.3247
 7053SOL    HW232622   1.554   1.750  11.608 -2.1027 -1.0493 -1.4350
 7054SOL     OW32623   3.213   0.655   5.042  0.1146  0.4998  0.3539
 7054SOL    HW132624   3.204   0.628   4.951 -0.1598  3.2051 -0.4298
 7054SOL    HW232625   3.197   0.574   5.090  0.1431  0.6903  0.6885
 7055SOL     OW32626   4.107   0.360   2.529  0.1982 -0.4897  0.3138
 7055SOL    HW132627   4.030   0.413   2.551  1.1016  0.6610  0.6827
 7055SOL    HW232628   4.173   0.426   2.508 -0.8597  0.8975  1.3344
 7056SOL     OW32629   1.743   3.619   7.256  0.3753  0.1245  0.5652
 7056SOL    HW132630   1.809   3.659   7.198 -1.2187 -0.2512 -1.5155
 7056SOL    HW232631   1.706   3.546   7.207  0.6002  0.7480 -0.5611
 7057SOL     OW32632   4.086   3.093   9.997  0.3592  0.2189 -0.1886
 7057SOL    HW132633   4.155   3.136  10.047 -0.2307 -0.2020  0.9831
 7057SOL    HW232634   4.010   3.113  10.053  0.0245 -1.5634 -0.0006
 7058SOL     OW32635   1.598   0.478   0.560 -0.4602  0.0603  0.1827
 7058SOL    HW132636   1.512   0.490   0.519 -0.5446 -1.2116  0.0032
 7058SOL    HW232637   1.583   0.395   0.605 -1.1195  1.0667  1.8332
 7059SOL     OW32638   3.415   0.086  10.122  0.3298  0.1120 -0.6364
 7059SOL    HW132639   3.434   0.048  10.208  3.7359  0.4162 -1.2487
 7059SOL    HW232640   3.357   0.160  10.143 -0.9260 -1.2681  0.8158
 7060SOL     OW32641   2.479   2.093  14.195  0.5698 -0.2729  0.9190
 7060SOL    HW132642   2.385   2.074  14.193  0.5119  0.2826 -1.2987
 7060SOL    HW232643   2.525   2.014  14.224  2.2487  0.5149  0.3895
 7061SOL     OW32644   3.678   4.277   1.655  0.2832 -0.9270 -0.2373
 7061SOL    HW132645   3.668   4.370   1.674 -0.6094 -1.2662  0.9415
 7061SOL    HW232646   3.599   4.258   1.604  0.1622 -0.4427 -0.2313
 7062SOL     OW32647   4.680   3.275   2.269 -0.4672 -0.0309  0.3693
 7062SOL    HW132648   4.698   3.211   2.200 -1.7162 -0.9689  0.9253
 7062SOL    HW232649   0.040   3.314   2.285 -0.1420 -0.1511 -1.1013
 7063SOL     OW32650   1.597   1.735  13.492  0.2088 -0.4697 -0.2322
 7063SOL    HW132651   1.591   1.828  13.468 -1.4307 -1.1600 -2.3860
 7063SOL    HW232652   1.602   1.695  13.406  1.8081 -0.0429 -0.3541
 7064SOL     OW32653   0.800   3.294   4.470  0.0176  0.9445  0.2173
 7064SOL    HW132654   0.839   3.210   4.446  0.7826  1.2766  0.3125
 7064SOL    HW232655   0.733   3.272   4.535  0.8273  1.5379  1.2540
 7065SOL     OW32656   3.237   4.616   3.743  0.0431 -0.4723 -0.0363
 7065SOL    HW132657   3.283   4.544   3.786 -0.3954 -0.3674  0.6065
 7065SOL    HW232658   3.145   4.590   3.754 -0.9612  1.4244 -4.1100
 7066SOL     OW32659   3.098   3.449   5.897  0.2436 -0.7714 -0.4959
 7066SOL    HW132660   3.006   3.472   5.911  0.4876  1.7532 -3.1059
 7066SOL    HW232661   3.118   3.494   5.815 -0.2489 -1.5538 -1.0490
 7067SOL     OW32662   4.645   2.259   8.292  0.5591 -0.1971 -0.6462
 7067SOL    HW132663   4.583   2.294   8.227  0.4428 -0.0444 -0.4506
 7067SOL    HW232664   4.625   2.170   8.261 -0.0690  0.4161 -2.0273
 7068SOL     OW32665   2.275   4.332   5.432  0.3356 -0.5845 -0.6623
 7068SOL    HW132666   2.277   4.425   5.452  1.1454 -1.7972  4.8878
 7068SOL    HW232667   2.360   4.300   5.462  0.1251 -0.0579  0.4834
 7069SOL     OW32668   0.331   1.025   1.388  0.1101 -0.0104 -0.0255
 7069SOL    HW132669   0.266   1.095   1.394  1.7152  1.5798 -0.7533
 7069SOL    HW232670   0.405   1.075   1.353 -0.3540  1.1027  0.5924
 7070SOL     OW32671   4.163   4.452   6.710  0.3911  0.5572 -0.2201
 7070SOL    HW132672   4.081   4.466   6.757  0.0703 -2.4701  0.1414
 7070SOL    HW232673   4.154   4.485   6.621 -0.4062 -0.3135 -0.4635
 7071SOL     OW32674   2.496   0.640   9.096 -0.8405  0.0998  0.1839
 7071SOL    HW132675   2.529   0.699   9.164  1.1176 -1.1839  0.3452
 7071SOL    HW232676   2.582   0.606   9.071 -2.3754 -2.3569 -1.7810
 7072SOL     OW32677   4.652   2.709  16.390 -0.3723 -0.7881  0.1710
 7072SOL    HW132678   4.567   2.707  16.434 -0.9337 -0.2444 -0.8924
 7072SOL    HW232679   4.627   2.758  16.312 -0.1882 -1.1256 -0.0974
 7073SOL     OW32680   2.410   1.569  17.591 -0.3136  0.3160  0.1749
 7073SOL    HW132681   2.470   1.641  17.572 -0.1007 -0.6353 -2.7695
 7073SOL    HW232682   2.441   1.546  17.678  2.5798 -0.2400 -0.9776
 7074SOL     OW32683   1.211   4.627   7.515  0.3799 -0.1078 -0.0574
 7074SOL    HW132684   1.292   4.625   7.463 -1.8368 -0.9053 -3.4642
 7074SOL    HW232685   1.226   4.567   7.588 -2.0111  0.3947  0.8370
 7075SOL     OW32686   3.087   0.397  13.234  0.2737  0.0445 -0.0125
 7075SOL    HW132687   3.168   0.441  13.259  0.1307 -0.4494  1.2758
 7075SOL    HW232688   3.109   0.304  13.236 -1.6952 -0.3740  1.7879
 7076SOL     OW32689   3.005   0.715   9.210  0.6299 -0.5835 -0.3410
 7076SOL    HW132690   3.016   0.797   9.259  0.1767 -0.6813 -0.0772
 7076SOL    HW232691   3.029   0.656   9.281  1.8883  0.8072  0.4056
 7077SOL     OW32692   0.936   0.111  13.676 -0.0309  0.4337  0.2114
 7077SOL    HW132693   0.986   0.184  13.639  0.0246  0.5398  0.4963
 7077SOL    HW232694   1.002   0.042  13.681 -0.7226 -0.3962 -2.0862
 7078SOL     OW32695   2.416   4.644   3.503  0.6800 -0.0514 -0.2579
 7078SOL    HW132696   2.429   4.650   3.409  0.0183 -0.2528 -0.3626
 7078SOL    HW232697   2.329   4.603   3.503  0.4842  0.3721 -1.4547
 7079SOL     OW32698   4.406   0.721  11.807 -0.0263  0.7317 -0.1880
 7079SOL    HW132699   4.474   0.693  11.868 -2.6510 -1.6601  1.6052
 7079SOL    HW232700   4.428   0.677  11.724 -2.0685 -0.0523 -0.3208
 7080SOL     OW32701   3.935   4.176   9.153  1.0335  0.1702 -0.6786
 7080SOL    HW132702   3.873   4.114   9.114  0.1017  0.1895  0.7375
 7080SOL    HW232703   3.873   4.227   9.206  1.0559  0.4000 -0.8784
 7081SOL     OW32704   1.452   0.245   0.178  0.1847 -0.2853 -0.3715
 7081SOL    HW132705   1.357   0.244   0.179  0.1992 -3.3191 -1.5074
 7081SOL    HW232706   1.470   0.182   0.108 -0.7627 -1.4572  0.4395
 7082SOL     OW32707   2.590   1.018   6.367  0.4626  0.2659  0.0489
 7082SOL    HW132708   2.501   1.015   6.331 -0.0203  0.7480  1.2136
 7082SOL    HW232709   2.640   0.964   6.306  0.3559  0.2745 -0.0450
 7083SOL     OW32710   3.865   3.917   7.753 -0.4184  0.1951  0.3991
 7083SOL    HW132711   3.879   3.843   7.812  0.6487 -0.4903 -0.7249
 7083SOL    HW232712   3.800   3.879   7.694 -0.8119  2.3024 -0.5233
 7084SOL     OW32713   3.999   4.252  13.102 -0.3833  0.4170  0.4364
 7084SOL    HW132714   4.027   4.248  13.011 -3.6970  0.3563 -0.5886
 7084SOL    HW232715   4.069   4.195  13.134 -1.1672 -0.9502 -0.2350
 7085SOL     OW32716   3.001   4.018  14.811  0.1165  0.1730 -0.1509
 7085SOL    HW132717   3.089   4.056  14.811 -0.3845  1.3430 -0.1722
 7085SOL    HW232718   2.945   4.092  14.834  2.4708  1.2050  2.2135
 7086SOL     OW32719   2.079   3.087   3.390  0.5932  0.1318  0.9399
 7086SOL    HW132720   2.058   3.032   3.314  0.9295 -0.8830  1.5790
 7086SOL    HW232721   2.005   3.060   3.444 -2.0779  1.4059 -2.0906
 7087SOL     OW32722   3.862   1.260  14.468  0.6831 -0.1226  0.1017
 7087SOL    HW132723   3.900   1.343  14.497 -1.4785  0.7195  0.5495
 7087SOL    HW232724   3.875   1.193  14.535  1.0129  1.5445  1.7148
 7088SOL     OW32725   1.217   0.909  17.252 -0.3022 -0.3870  0.1531
 7088SOL    HW132726   1.193   0.986  17.304  0.8539 -1.1173  1.7641
 7088SOL    HW232727   1.196   0.940  17.164  1.8971 -3.9983 -1.6175
 7089SOL     OW32728   3.626   3.972   1.742  0.4663 -0.5693  0.0889
 7089SOL    HW132729   3.683   3.902   1.710  0.3991 -1.4061  1.8144
 7089SOL    HW232730   3.659   3.983   1.831  0.5553  3.2506 -0.4138
 7090SOL     OW32731   1.735   1.406  13.759 -0.5298  0.6006 -0.0299
 7090SOL    HW132732   1.722   1.499  13.779  0.4912  1.3747 -2.9594
 7090SOL    HW232733   1.650   1.376  13.726 -0.3285 -0.7496  0.6707
 7091SOL     OW32734   2.508   2.449   0.952  0.2715 -0.1710 -0.2630
 7091SOL    HW132735   2.426   2.405   0.973  0.6704 -1.1026 -0.6524
 7091SOL    HW232736   2.555   2.457   1.035 -0.9335 -0.9201  0.4886
 7092SOL     OW32737   3.763   2.406  15.147  0.4961 -0.6004 -0.5123
 7092SOL    HW132738   3.689   2.418  15.088  0.2629  0.9275  0.0920
 7092SOL    HW232739   3.718   2.381  15.228  1.5363 -1.3085 -0.1578
 7093SOL     OW32740   1.602   3.032   2.875 -0.0249 -0.7136  0.2424
 7093SOL    HW132741   1.586   3.024   2.781 -0.9592 -0.3378  0.3678
 7093SOL    HW232742   1.535   2.972   2.907 -1.8491  0.9459 -0.4427
 7094SOL     OW32743   2.741   4.712   2.079  0.4231 -0.3814  0.0235
 7094SOL    HW132744   2.823   0.033   2.092  0.4025 -0.2271 -0.3835
 7094SOL    HW232745   2.735   4.718   1.983 -1.9283  4.5645  0.4845
 7095SOL     OW32746   2.486   0.377   3.960 -0.1529 -0.2698 -0.2110
 7095SOL    HW132747   2.485   0.421   4.045  1.2056  0.5491 -0.6109
 7095SOL    HW232748   2.438   0.299   3.987 -0.8942  0.2353 -0.0949
 7096SOL     OW32749   2.522   0.764   9.355 -0.3084 -0.1436  0.3058
 7096SOL    HW132750   2.489   0.701   9.419  0.2391 -0.9033 -0.1685
 7096SOL    HW232751   2.595   0.793   9.411 -1.3155 -2.1166  2.6323
 7097SOL     OW32752   3.821   3.401   4.673  0.0988 -0.6984 -0.3231
 7097SOL    HW132753   3.880   3.458   4.722 -0.8808 -0.4222  0.5438
 7097SOL    HW232754   3.862   3.319   4.701  0.8144 -0.4427 -0.6127
 7098SOL     OW32755   2.780   3.545   2.345  0.3053 -1.0927 -1.2560
 7098SOL    HW132756   2.864   3.587   2.324  0.9819 -1.6079  0.4680
 7098SOL    HW232757   2.718   3.608   2.309 -0.3809  0.8581  3.3531
 7099SOL     OW32758   1.810   3.692   8.412  0.3155 -0.4721  0.5774
 7099SOL    HW132759   1.790   3.780   8.379  2.3141  0.3997  1.6705
 7099SOL    HW232760   1.726   3.647   8.415 -0.5123  1.0138 -0.4791
 7100SOL     OW32761   2.123   3.459  11.493 -0.5592  0.3835  0.3007
 7100SOL    HW132762   2.183   3.402  11.446 -1.4393 -0.5062  0.2674
 7100SOL    HW232763   2.102   3.411  11.573 -0.2782 -0.2030  0.0203
 7101SOL     OW32764   0.910   0.164   3.981  0.0413  0.2201  0.0395
 7101SOL    HW132765   0.977   0.096   3.987 -0.0266  0.0844 -0.8007
 7101SOL    HW232766   0.924   0.216   4.060  0.2400  1.5766 -0.8799
 7102SOL     OW32767   1.784   1.288   2.203  0.2122  0.1574 -0.4616
 7102SOL    HW132768   1.800   1.371   2.159  0.9414 -0.0561 -0.6130
 7102SOL    HW232769   1.858   1.285   2.265  1.3778 -0.2486 -1.8737
 7103SOL     OW32770   3.093   1.860   8.255  0.3167  0.2320  0.7302
 7103SOL    HW132771   3.180   1.887   8.283  0.9299 -0.3175 -0.6717
 7103SOL    HW232772   3.100   1.765   8.256 -0.9450  0.1057 -1.9389
 7104SOL     OW32773   2.424   2.933   1.121 -0.1733 -0.2995 -0.2512
 7104SOL    HW132774   2.401   2.943   1.029  0.4209 -1.8272 -0.5651
 7104SOL    HW232775   2.515   2.907   1.106 -0.5415 -1.4289 -0.5016
 7105SOL     OW32776   2.323   2.733   3.479 -0.3916  0.0520  0.3091
 7105SOL    HW132777   2.317   2.828   3.487  0.2980  0.1767 -0.6979
 7105SOL    HW232778   2.309   2.715   3.386 -0.4582  0.7936  0.1798
 7106SOL     OW32779   2.065   3.441   2.110 -0.0690  0.0341  0.7109
 7106SOL    HW132780   2.075   3.446   2.015  2.0159 -4.2626  0.6634
 7106SOL    HW232781   2.147   3.470   2.151 -1.3930  2.0339  1.9354
 7107SOL     OW32782   0.326   2.093  11.924 -0.5633  0.0577  0.2467
 7107SOL    HW132783   0.247   2.144  11.938 -1.0627 -0.6472 -0.0130
 7107SOL    HW232784   0.293   2.004  11.920  2.3787 -1.0680  0.6569
 7108SOL     OW32785   2.891   1.579  10.833  0.2083 -0.0381  0.2544
 7108SOL    HW132786   2.909   1.491  10.800 -0.4996 -0.3843  0.8136
 7108SOL    HW232787   2.893   1.627  10.750 -2.4015  0.3421  0.4335
 7109SOL     OW32788   2.718   0.355   4.269 -0.3511  0.0065  0.3452
 7109SOL    HW132789   2.648   0.420   4.268 -1.9305 -1.6873  0.8388
 7109SOL    HW232790   2.677   0.268   4.269 -0.3301 -0.0053  0.6871
 7110SOL     OW32791   0.957   4.299   6.046  0.5444 -0.5985 -0.3656
 7110SOL    HW132792   0.884   4.336   5.997 -0.2736  0.0313  1.3143
 7110SOL    HW232793   1.028   4.360   6.026  0.5640 -0.6968 -0.5946
 7111SOL     OW32794   4.052   0.823   5.738 -0.1077 -0.9516  0.0113
 7111SOL    HW132795   3.995   0.788   5.806 -0.7063 -1.9693 -1.0183
 7111SOL    HW232796   4.135   0.775   5.743 -0.0173 -0.6356  1.4492
 7112SOL     OW32797   2.266   0.351   9.123 -0.5438  0.1138 -0.3113
 7112SOL    HW132798   2.280   0.281   9.059  1.2657  1.4640 -1.3691
 7112SOL    HW232799   2.183   0.380   9.085  0.1452  2.8034  0.2672
 7113SOL     OW32800   3.454   3.561   3.593  0.1589  0.0590 -0.3433
 7113SOL    HW132801   3.437   3.504   3.668 -2.5159  0.5282 -0.5871
 7113SOL    HW232802   3.540   3.593   3.619 -0.3725  1.6526 -0.5235
 7114SOL     OW32803   2.686   0.362   1.171  0.2931 -0.2301  0.3525
 7114SOL    HW132804   2.646   0.289   1.123 -1.6644  0.0920  1.5105
 7114SOL    HW232805   2.690   0.330   1.261  0.7503 -0.7738  0.1408
 7115SOL     OW32806   0.063   0.124   7.220  0.1820  0.2182 -0.3330
 7115SOL    HW132807   0.087   0.212   7.248 -0.4290  0.5054 -0.7161
 7115SOL    HW232808   0.070   0.078   7.304 -0.6378 -1.4939 -1.2059
 7116SOL     OW32809   1.680   0.870   6.928  0.0676 -0.4328  0.1098
 7116SOL    HW132810   1.684   0.935   6.998  0.4507 -1.0540  0.6673
 7116SOL    HW232811   1.609   0.912   6.880 -1.1850 -0.8640  1.5717
 7117SOL     OW32812   4.002   0.468   4.508  0.6283 -0.0129  0.6616
 7117SOL    HW132813   4.067   0.445   4.442 -1.2386 -0.4667 -1.0148
 7117SOL    HW232814   4.017   0.561   4.526 -2.3991  0.9390 -1.8582
 7118SOL     OW32815   3.491   0.677   6.200  0.2450  0.6023  0.0861
 7118SOL    HW132816   3.462   0.586   6.206 -0.5054  0.9262  1.4290
 7118SOL    HW232817   3.549   0.687   6.276  0.3002 -1.2992  0.2951
 7119SOL     OW32818   3.025   1.892   8.579  0.3479 -0.1535  0.0572
 7119SOL    HW132819   3.023   1.975   8.531  1.7220 -0.0079  0.2516
 7119SOL    HW232820   3.066   1.912   8.663 -0.4319  1.6289  0.0081
 7120SOL     OW32821   0.304   0.124  15.627 -0.0771  0.1723  0.0372
 7120SOL    HW132822   0.271   0.195  15.572  0.8965 -1.6311 -2.8729
 7120SOL    HW232823   0.292   0.041  15.580 -1.9368  0.1920  0.4683
 7121SOL     OW32824   1.853   3.938   8.296  0.3783 -0.2532 -0.6713
 7121SOL    HW132825   1.900   4.020   8.314 -0.7072 -0.0500  1.2498
 7121SOL    HW232826   1.922   3.894   8.246  0.0425  0.2383 -1.5602
 7122SOL     OW32827   2.219   3.646  14.225 -0.3183  0.1060 -0.0304
 7122SOL    HW132828   2.170   3.678  14.149  1.1236 -1.1226 -1.4887
 7122SOL    HW232829   2.172   3.688  14.297 -1.1596  1.4087 -1.3237
 7123SOL     OW32830   2.371   2.536   5.142  0.1883  0.1298  0.1840
 7123SOL    HW132831   2.322   2.615   5.164  3.3690  1.3577  2.8958
 7123SOL    HW232832   2.412   2.569   5.062 -0.0694 -0.7349 -0.3079
 7124SOL     OW32833   1.615   3.475  16.207 -0.1714  0.4749  0.1537
 7124SOL    HW132834   1.574   3.509  16.128 -1.4634  2.2818  1.6112
 7124SOL    HW232835   1.590   3.543  16.269  0.7820  1.5192 -0.6142
 7125SOL     OW32836   3.089   0.146  10.931  0.2972  0.6768  0.3559
 7125SOL    HW132837   3.121   0.210  10.868  0.2804 -1.6936 -2.0382
 7125SOL    HW232838   3.104   0.061  10.891 -0.2872  0.2646  0.9947
 7126SOL     OW32839   3.412   4.558  13.090 -0.4738  0.0962  0.4951
 7126SOL    HW132840   3.380   4.551  13.001 -0.9048  2.2365  0.4685
 7126SOL    HW232841   3.424   4.653  13.084  0.5230 -0.1571 -1.4021
 7127SOL     OW32842   0.882   1.975   2.448  0.6067  0.2523 -0.1337
 7127SOL    HW132843   0.834   1.933   2.377  1.7009 -0.1507 -0.6441
 7127SOL    HW232844   0.855   1.926   2.526  0.6022 -0.6970 -0.7227
 7128SOL     OW32845   4.207   2.731   7.627  0.1631 -0.6980 -1.0431
 7128SOL    HW132846   4.286   2.766   7.668  0.1079 -0.4050 -1.1899
 7128SOL    HW232847   4.143   2.743   7.698 -0.5235 -0.4271 -1.7116
 7129SOL     OW32848   1.660   1.990   6.154 -0.1142 -0.4054  0.1324
 7129SOL    HW132849   1.684   1.933   6.227 -0.9854 -0.5635  0.2928
 7129SOL    HW232850   1.745   1.981   6.110 -0.4706 -0.9402 -0.4474
 7130SOL     OW32851   1.891   2.369   9.335  0.0317  0.2673  0.3526
 7130SOL    HW132852   1.838   2.449   9.346  0.2766  0.4353  0.3079
 7130SOL    HW232853   1.969   2.382   9.388  0.8585  0.5920 -0.9329
 7131SOL     OW32854   4.104   0.688   6.550  0.1319  0.2360 -0.0411
 7131SOL    HW132855   4.196   0.699   6.575  0.5489 -0.0637 -1.4349
 7131SOL    HW232856   4.074   0.610   6.597  1.5248 -0.3131 -0.0571
 7132SOL     OW32857   0.844   4.588   6.977 -0.0395  0.2622  0.2246
 7132SOL    HW132858   0.837   4.683   6.983 -0.6083  0.2061  0.3999
 7132SOL    HW232859   0.881   4.555   7.058 -1.9884  2.4039  1.9785
 7133SOL     OW32860   3.576   0.326   6.820 -0.1955 -0.5595 -0.1834
 7133SOL    HW132861   3.573   0.420   6.804  2.1834 -0.6506 -1.0857
 7133SOL    HW232862   3.563   0.290   6.732  3.3261 -2.7552  0.2188
 7134SOL     OW32863   2.439   0.838   5.559 -0.2044 -0.1862 -0.1919
 7134SOL    HW132864   2.368   0.850   5.496 -1.4304 -1.9504  0.8472
 7134SOL    HW232865   2.387   0.824   5.638 -0.1201  0.0328 -0.0963
 7135SOL     OW32866   3.733   4.087  12.949  0.3088  0.1692 -0.4073
 7135SOL    HW132867   3.785   4.158  12.987  1.2666 -1.4140  1.2105
 7135SOL    HW232868   3.782   4.014  12.985  1.2966  0.4456 -1.2127
 7136SOL     OW32869   2.620   3.929  12.961  0.2854  0.8989 -0.1129
 7136SOL    HW132870   2.681   4.002  12.953 -1.7585  2.7521  1.3412
 7136SOL    HW232871   2.651   3.877  12.887 -1.3968 -1.6257  0.9573
 7137SOL     OW32872   3.018   0.399   3.059  0.0131 -0.0487  0.4362
 7137SOL    HW132873   3.043   0.327   3.002 -0.8760 -1.4549  1.8202
 7137SOL    HW232874   2.933   0.369   3.091  1.0258 -2.3056  1.0382
 7138SOL     OW32875   0.359   0.562   5.181 -0.3368  0.5368  0.0337
 7138SOL    HW132876   0.264   0.554   5.182 -0.3227  0.2089 -0.9744
 7138SOL    HW232877   0.378   0.548   5.088  1.0139 -0.8536  0.5067
 7139SOL     OW32878   2.540   1.579   9.645  0.6432  0.3330 -0.2834
 7139SOL    HW132879   2.465   1.608   9.593 -1.1835 -0.9589  1.6189
 7139SOL    HW232880   2.612   1.571   9.583 -0.0626  1.2457 -1.2299
 7140SOL     OW32881   4.681   2.872  13.879  0.3125  0.6861 -0.5495
 7140SOL    HW132882   4.641   2.836  13.800 -3.2844  0.6369  1.3175
 7140SOL    HW232883   4.634   2.829  13.950 -0.2875  0.0662 -1.3207
 7141SOL     OW32884   3.010   2.573   8.047 -0.2152  0.2626 -0.3697
 7141SOL    HW132885   3.058   2.528   7.978  1.6297  1.4207  0.1737
 7141SOL    HW232886   2.984   2.652   7.999  0.0167  0.1991 -0.5973
 7142SOL     OW32887   1.687   0.349   7.511 -0.5339  0.2966 -0.0683
 7142SOL    HW132888   1.729   0.370   7.427  1.5516 -2.2495  0.3305
 7142SOL    HW232889   1.742   0.276   7.541  0.5601  1.0745 -0.1802
 7143SOL     OW32890   2.650   0.259   6.767  0.4296  0.1820  0.6122
 7143SOL    HW132891   2.705   0.297   6.836  0.6359  0.1406  0.4705
 7143SOL    HW232892   2.603   0.193   6.817  0.1148 -1.1271 -1.4217
 7144SOL     OW32893   0.012   2.916   4.942 -0.2789  0.1669 -0.7975
 7144SOL    HW132894   0.013   2.910   4.847 -0.5181 -2.7681 -0.6171
 7144SOL    HW232895   4.710   2.828   4.969 -0.2910  0.4093 -0.0273
 7145SOL     OW32896   3.182   4.200  10.650  0.6169  0.5754  0.1390
 7145SOL    HW132897   3.224   4.261  10.590  1.0861  2.5956  2.4868
 7145SOL    HW232898   3.093   4.200  10.614  1.1596 -0.5789 -1.1607
 7146SOL     OW32899   2.642   2.166   5.559 -0.5075 -0.8285 -0.4165
 7146SOL    HW132900   2.647   2.230   5.488 -2.8364 -1.2927 -0.9727
 7146SOL    HW232901   2.549   2.176   5.581 -0.2149  0.6895  0.1648
 7147SOL     OW32902   2.726   3.338   5.666 -0.6505  0.0770  0.1644
 7147SOL    HW132903   2.631   3.332   5.660 -0.7804  0.6463  1.8625
 7147SOL    HW232904   2.751   3.274   5.732  1.7361 -0.7815 -1.5741
 7148SOL     OW32905   2.744   1.183   5.189 -0.0570  0.4737 -0.1738
 7148SOL    HW132906   2.823   1.215   5.146 -1.8261  3.4745 -1.1962
 7148SOL    HW232907   2.766   1.091   5.175 -0.5223  0.5585 -1.4009
 7149SOL     OW32908   3.618   2.181  11.989  0.7044  0.8303 -0.0300
 7149SOL    HW132909   3.581   2.233  12.060 -2.6884 -1.7849  0.1093
 7149SOL    HW232910   3.649   2.251  11.931 -1.0201  1.9259  0.3432
 7150SOL     OW32911   3.677   0.043   5.055 -0.6761  0.6665  0.5674
 7150SOL    HW132912   3.721   4.708   4.995 -0.9757  0.8403  0.1686
 7150SOL    HW232913   3.729   0.123   5.042 -0.9576  1.2659  3.2124
 7151SOL     OW32914   3.355   0.692  16.225  0.0630 -0.4201 -0.1544
 7151SOL    HW132915   3.349   0.598  16.205  0.5031 -0.2859 -0.9031
 7151SOL    HW232916   3.263   0.713  16.240 -0.0505 -0.6121 -0.5892
 7152SOL     OW32917   1.365   0.862   2.020  0.0883 -0.1908  0.0483
 7152SOL    HW132918   1.317   0.837   2.099 -1.8174  2.2164 -0.3337
 7152SOL    HW232919   1.369   0.782   1.969  2.0194  0.7769 -1.3476
 7153SOL     OW32920   4.027   1.999   9.423 -0.3023 -0.4730  0.0696
 7153SOL    HW132921   4.029   2.041   9.337 -0.0242 -0.0484  0.2804
 7153SOL    HW232922   4.054   1.909   9.405 -0.4732 -0.7466  1.1794
 7154SOL     OW32923   1.526   1.477   4.118  0.2304  0.0587 -0.3036
 7154SOL    HW132924   1.537   1.528   4.198  0.6808 -2.6433  1.3363
 7154SOL    HW232925   1.536   1.549   4.055 -0.0858 -3.0340 -3.8882
 7155SOL     OW32926   0.526   0.481   1.502  0.3862  0.2523 -0.0779
 7155SOL    HW132927   0.509   0.425   1.578  1.6140 -0.2874 -0.1917
 7155SOL    HW232928   0.507   0.572   1.523  0.4749  0.5392 -1.2421
 7156SOL     OW32929   3.593   4.254   8.344  0.1673 -0.0198  0.0765
 7156SOL    HW132930   3.544   4.181   8.383  1.6631  0.7021  3.3363
 7156SOL    HW232931   3.656   4.204   8.293  0.4925  1.1375 -0.6472
 7157SOL     OW32932   1.687   1.209   8.516 -0.3817  0.8434  0.4728
 7157SOL    HW132933   1.702   1.114   8.518 -0.2030  0.8207 -1.2636
 7157SOL    HW232934   1.722   1.234   8.601  0.2555  1.9730 -0.1171
 7158SOL     OW32935   3.436   0.097   0.655  0.4485 -0.3323 -0.2993
 7158SOL    HW132936   3.504   0.149   0.698 -0.7722  0.5287  0.5752
 7158SOL    HW232937   3.396   0.043   0.723 -0.4461  1.3686  0.5185
 7159SOL     OW32938   4.337   2.815   8.785  0.1827 -0.2755  0.0995
 7159SOL    HW132939   4.412   2.765   8.818 -1.3983 -2.4594  0.3668
 7159SOL    HW232940   4.265   2.773   8.832  0.6685 -1.6896 -0.4041
 7160SOL     OW32941   2.707   4.116   7.311 -0.1613 -0.1341 -0.1760
 7160SOL    HW132942   2.696   4.208   7.339 -1.9145 -0.4956  0.2990
 7160SOL    HW232943   2.745   4.128   7.224  0.0176 -1.7236 -0.3106
 7161SOL     OW32944   0.665   3.258  13.936 -0.4367  0.2866 -0.0947
 7161SOL    HW132945   0.605   3.333  13.940 -0.3607  0.2873  1.0484
 7161SOL    HW232946   0.682   3.262  13.842 -0.0698  0.2389 -0.0306
 7162SOL     OW32947   3.043   0.823   5.821 -0.0848  0.5374 -0.4156
 7162SOL    HW132948   3.131   0.785   5.828  0.1170  1.6968  3.4340
 7162SOL    HW232949   3.001   0.755   5.768 -1.0375 -0.2235  1.3349
 7163SOL     OW32950   3.682   3.131   9.326 -0.2572 -0.6898  0.1350
 7163SOL    HW132951   3.656   3.223   9.324  1.8751 -0.1080 -0.6826
 7163SOL    HW232952   3.627   3.094   9.257 -1.7832  0.8827  0.5033
 7164SOL     OW32953   1.238   1.070  12.566 -0.2738 -0.1518  0.3818
 7164SOL    HW132954   1.273   1.104  12.648 -1.4029 -2.1970  1.7042
 7164SOL    HW232955   1.315   1.020  12.538 -0.6712 -0.2048 -0.5999
 7165SOL     OW32956   1.756   2.085   6.731 -0.0106  0.1491 -0.6808
 7165SOL    HW132957   1.700   2.152   6.770  1.3379  0.5037  0.6326
 7165SOL    HW232958   1.752   2.116   6.640  0.5277 -2.4449 -1.5785
 7166SOL     OW32959   0.674   3.267   4.709 -0.1086 -0.3188  0.1827
 7166SOL    HW132960   0.589   3.302   4.739 -0.7616 -0.4829 -1.4786
 7166SOL    HW232961   0.715   3.241   4.792 -1.8737 -0.6672  0.9505
 7167SOL     OW32962   0.824   0.158   2.709 -0.0735  0.3643  0.1392
 7167SOL    HW132963   0.763   0.154   2.782 -1.0502 -0.9702 -0.7593
 7167SOL    HW232964   0.781   0.098   2.648  2.3190 -0.1492 -1.0437
 7168SOL     OW32965   2.614   1.739   7.210 -0.5905  0.1657  0.6661
 7168SOL    HW132966   2.595   1.653   7.172  1.6900  0.2175 -0.5676
 7168SOL    HW232967   2.704   1.744   7.180 -1.2883  0.6938 -1.3926
 7169SOL     OW32968   0.824   2.617   3.353  0.1098 -0.3527  0.1273
 7169SOL    HW132969   0.866   2.587   3.272 -0.8713  2.0070 -1.2330
 7169SOL    HW232970   0.841   2.546   3.414  2.1962  0.6446  0.6955
 7170SOL     OW32971   2.724   1.687  11.060 -0.2552 -0.5680  0.6748
 7170SOL    HW132972   2.786   1.661  10.992 -0.0487  0.9551  0.2768
 7170SOL    HW232973   2.650   1.631  11.035 -0.4474  0.8265 -1.8898
 7171SOL     OW32974   3.696   2.353   7.816 -0.0553 -0.2928  0.0690
 7171SOL    HW132975   3.677   2.391   7.731  0.6471  1.7964  0.8535
 7171SOL    HW232976   3.671   2.262   7.802 -0.2032 -0.3902  0.9556
 7172SOL     OW32977   2.111   3.718   5.741  0.5722  0.0660 -0.2735
 7172SOL    HW132978   2.107   3.782   5.670 -1.7094  0.1441 -0.0722
 7172SOL    HW232979   2.047   3.656   5.707 -0.9688  1.5700 -0.1200
 7173SOL     OW32980   3.698   1.290   5.738 -0.3475  0.0666 -0.0525
 7173SOL    HW132981   3.616   1.251   5.707  0.0222  0.8208 -1.9553
 7173SOL    HW232982   3.718   1.217   5.797  1.0645  0.9703  0.5792
 7174SOL     OW32983   3.434   1.658   8.920  0.8789 -0.3056  0.4314
 7174SOL    HW132984   3.404   1.604   8.847 -0.0513  1.1364 -0.2361
 7174SOL    HW232985   3.524   1.658   8.887  0.9423 -0.4541  0.6080
 7175SOL     OW32986   0.513   4.036   0.993  0.2136  0.1161  0.1239
 7175SOL    HW132987   0.480   3.998   0.912 -1.5310  3.5331 -0.7768
 7175SOL    HW232988   0.473   3.967   1.045  1.6973 -0.7334  0.1290
 7176SOL     OW32989   0.726   0.912  12.907 -0.0192 -0.7264  0.0922
 7176SOL    HW132990   0.775   0.838  12.944 -1.8000 -1.3877  1.0964
 7176SOL    HW232991   0.797   0.965  12.870  0.2160  0.6526  2.5787
 7177SOL     OW32992   4.322   1.762   7.322  0.2636  0.4810 -0.1303
 7177SOL    HW132993   4.294   1.850   7.296  1.9026  1.0436  0.0589
 7177SOL    HW232994   4.315   1.711   7.241 -3.3600  2.8774 -1.3387
 7178SOL     OW32995   2.464   0.213   7.479  0.3597 -0.3540  0.0175
 7178SOL    HW132996   2.371   0.201   7.500  0.3615 -0.0086  0.2311
 7178SOL    HW232997   2.476   0.123   7.449 -2.4456 -2.1386  4.2182
 7179SOL     OW32998   0.481   0.617   7.207 -0.8916 -0.2199 -0.2377
 7179SOL    HW132999   0.560   0.581   7.247 -1.9859 -0.1485  1.9767
 7179SOL    HW233000   0.505   0.623   7.115 -0.8646  1.1025 -0.1522
 7180SOL     OW33001   0.362   4.189   4.889  0.8408 -0.2125 -0.0770
 7180SOL    HW133002   0.294   4.237   4.936  1.8828  1.5740 -0.4204
 7180SOL    HW233003   0.326   4.204   4.802 -1.2719  0.7065  0.9484
 7181SOL     OW33004   0.058   1.550   3.003 -0.3032  0.7725  0.1114
 7181SOL    HW133005   4.712   1.595   3.050  1.9113  2.7260  1.6087
 7181SOL    HW233006   0.060   1.469   3.054 -0.6077  0.2224 -0.7440
 7182SOL     OW33007   1.486   1.718   7.809 -0.2962 -0.4604 -0.4316
 7182SOL    HW133008   1.530   1.729   7.893 -1.3001  1.0318 -0.1057
 7182SOL    HW233009   1.443   1.633   7.813  0.8432 -0.9525  1.4863
 7183SOL     OW33010   3.252   0.855  11.722 -0.6017  0.2632 -0.1163
 7183SOL    HW133011   3.337   0.811  11.724 -0.6839  0.1619  0.8286
 7183SOL    HW233012   3.278   0.937  11.763  0.7744 -2.0618  3.6156
 7184SOL     OW33013   0.583   0.038   4.299  0.0805 -0.4026 -0.6361
 7184SOL    HW133014   0.664   4.722   4.328  0.6349  1.4085  0.4425
 7184SOL    HW233015   0.608   0.129   4.313  0.0268 -0.7463  1.6049
 7185SOL     OW33016   1.253   0.783   4.796  0.5096 -0.4622  0.4197
 7185SOL    HW133017   1.222   0.694   4.785 -0.1579 -0.5656  3.1078
 7185SOL    HW233018   1.275   0.822   4.711 -1.2039 -0.2897  0.0646
 7186SOL     OW33019   2.718   2.364   0.210  0.0700 -0.4304 -0.1420
 7186SOL    HW133020   2.629   2.381   0.242  0.4858 -1.7124  1.7141
 7186SOL    HW233021   2.774   2.409   0.273  2.3714 -1.9652 -1.0625
 7187SOL     OW33022   1.508   2.768   3.108 -0.0726 -0.4074  0.9594
 7187SOL    HW133023   1.511   2.677   3.140 -0.0252 -0.8168 -0.1836
 7187SOL    HW233024   1.465   2.808   3.183 -0.0146  0.0760  0.7289
 7188SOL     OW33025   1.033   4.352  17.638  0.2815  1.1865  0.2686
 7188SOL    HW133026   1.023   4.260  17.612  2.0312  1.0779 -0.0713
 7188SOL    HW233027   0.983   4.405  17.577 -0.5023 -1.4349 -1.3641
 7189SOL     OW33028   1.737   1.266   0.042  0.3998  0.5745 -0.0379
 7189SOL    HW133029   1.698   1.200  17.688  1.2227 -2.2227  2.5647
 7189SOL    HW233030   1.697   1.241   0.126 -0.0911  1.1879 -0.0905
 7190SOL     OW33031   2.949   4.313  10.547  0.1105  0.5964  0.4511
 7190SOL    HW133032   2.893   4.389  10.563  0.6523  0.7786  1.4577
 7190SOL    HW233033   2.916   4.272  10.466  1.3294 -0.6031  0.5712
 7191SOL     OW33034   3.318   4.349  11.695 -0.6982  0.3483 -0.5133
 7191SOL    HW133035   3.280   4.284  11.636 -0.3648 -0.2987 -0.0041
 7191SOL    HW233036   3.354   4.411  11.631  1.5074  0.5758  0.9451
 7192SOL     OW33037   4.454   0.108   4.137 -0.6332  0.0336  0.9092
 7192SOL    HW133038   4.435   0.075   4.050 -0.5901  2.2404  0.0561
 7192SOL    HW233039   4.531   0.055   4.156  0.7611  1.4827 -0.7788
 7193SOL     OW33040   0.819   1.160   6.544  0.4483 -0.0561  0.3754
 7193SOL    HW133041   0.763   1.106   6.600 -0.7743  2.8388  1.9827
 7193SOL    HW233042   0.832   1.098   6.473 -3.7679  1.5722 -1.8462
 7194SOL     OW33043   2.491   2.205   7.707  0.1608 -0.2768 -0.4863
 7194SOL    HW133044   2.443   2.123   7.696 -1.2613  0.3857  0.7585
 7194SOL    HW233045   2.563   2.171   7.759  0.7593 -0.1335 -1.2343
 7195SOL     OW33046   0.789   1.510   6.827  0.0922 -0.0972 -0.5341
 7195SOL    HW133047   0.818   1.457   6.753 -0.0319  0.2065 -0.7991
 7195SOL    HW233048   0.869   1.553   6.858 -1.5041  1.1839  1.8174
 7196SOL     OW33049   4.313   4.345  17.604 -0.2786  0.3537  0.1015
 7196SOL    HW133050   4.315   4.266  17.659  1.0623 -0.3134 -0.9274
 7196SOL    HW233051   4.248   4.321  17.538  1.2165 -1.5086 -0.6942
 7197SOL     OW33052   2.037   1.503   3.230  0.2424 -0.8004  0.2604
 7197SOL    HW133053   1.955   1.505   3.181  0.4119  1.6319  0.1025
 7197SOL    HW233054   2.077   1.588   3.214  1.8987 -1.4751  0.7720
 7198SOL     OW33055   3.814   3.123  17.382  0.5930 -0.3675  0.2737
 7198SOL    HW133056   3.720   3.136  17.399  0.5838  1.3237 -1.0808
 7198SOL    HW233057   3.851   3.167  17.459  0.1161 -1.1308  0.9436
 7199SOL     OW33058   3.633   1.747   9.355  0.3013 -0.0454  0.4387
 7199SOL    HW133059   3.588   1.807   9.296 -0.3783 -0.4159  0.5792
 7199SOL    HW233060   3.599   1.663   9.325  1.7639 -1.0765  1.6907
 7200SOL     OW33061   1.493   1.431   5.818  0.4250  0.4842 -0.2274
 7200SOL    HW133062   1.509   1.375   5.894 -1.9100 -1.8030 -1.4095
 7200SOL    HW233063   1.405   1.404   5.789  0.0871  0.4474  0.8326
 7201SOL     OW33064   0.522   1.818   7.545 -0.1980 -0.4888  0.3312
 7201SOL    HW133065   0.469   1.759   7.597  0.6757 -1.1569  0.4631
 7201SOL    HW233066   0.607   1.816   7.590  0.1077  0.9336 -0.1582
 7202SOL     OW33067   1.353   1.225   3.624  0.1914  0.2728 -0.1990
 7202SOL    HW133068   1.314   1.216   3.537  1.0792 -2.2359 -0.3547
 7202SOL    HW233069   1.298   1.166   3.676 -0.2858 -0.0811 -1.1023
 7203SOL     OW33070   3.022   3.591   7.718 -0.0415  0.0931  0.4843
 7203SOL    HW133071   2.998   3.679   7.745 -0.6244  0.1412 -0.1957
 7203SOL    HW233072   2.996   3.593   7.626  0.0273 -3.0330  0.3888
 7204SOL     OW33073   2.561   1.221   7.957 -0.7673  0.1629  0.0022
 7204SOL    HW133074   2.484   1.228   8.012 -0.6320 -1.0413  0.3576
 7204SOL    HW233075   2.529   1.267   7.879  0.1632  1.4243  0.3660
 7205SOL     OW33076   1.872   4.199   4.524 -0.1501  0.2937 -0.5201
 7205SOL    HW133077   1.782   4.221   4.501  0.3708  2.5983 -0.3735
 7205SOL    HW233078   1.863   4.126   4.586 -1.8058 -1.1053 -2.4176
 7206SOL     OW33079   2.544   0.607   4.461  0.2468 -0.1470  0.0357
 7206SOL    HW133080   2.466   0.588   4.513  0.0694  0.1844 -0.1084
 7206SOL    HW233081   2.618   0.613   4.521  0.4720 -0.8238 -0.1761
 7207SOL     OW33082   3.173   4.420   8.835  0.0523 -0.8013  0.2567
 7207SOL    HW133083   3.115   4.469   8.894 -1.4848 -0.1369 -1.8055
 7207SOL    HW233084   3.203   4.493   8.781 -1.5886  0.0367  0.4694
 7208SOL     OW33085   1.348   4.638   8.614 -0.0613  0.7636 -0.0046
 7208SOL    HW133086   1.255   4.655   8.631 -0.0769 -0.1351  0.8130
 7208SOL    HW233087   1.368   4.587   8.693  1.0858  1.9038  0.4277
 7209SOL     OW33088   4.705   0.337   6.939  0.1628 -0.1658  0.2478
 7209SOL    HW133089   4.678   0.246   6.952  2.2165 -0.5768  1.4926
 7209SOL    HW233090   4.635   0.376   6.991 -2.7981 -2.6224 -1.8512
 7210SOL     OW33091   0.684   1.752   6.698 -0.1338  0.1871 -0.0413
 7210SOL    HW133092   0.694   1.668   6.742  1.6097  1.3934  1.8300
 7210SOL    HW233093   0.665   1.807   6.774 -1.0121  1.2889 -1.0487
 7211SOL     OW33094   2.418   1.696   0.205  0.6767 -0.8045  0.3873
 7211SOL    HW133095   2.409   1.628   0.138 -1.7079 -0.5475  0.4293
 7211SOL    HW233096   2.438   1.650   0.286  0.2986  0.0647  0.9764
 7212SOL     OW33097   0.278   0.377   8.531 -0.2210 -0.2641  0.2374
 7212SOL    HW133098   0.299   0.367   8.624 -1.0553  2.3905  0.7062
 7212SOL    HW233099   0.253   0.468   8.515 -0.6766 -1.1263 -3.9952
 7213SOL     OW33100   3.938   1.423   9.868  0.0728 -0.3806  0.3603
 7213SOL    HW133101   4.003   1.471   9.816  0.6245  0.7456  2.0848
 7213SOL    HW233102   4.000   1.378   9.925 -0.8795 -3.0084 -0.7107
 7214SOL     OW33103   3.175   0.266  10.702  0.6413  0.2188 -0.4278
 7214SOL    HW133104   3.193   0.195  10.641 -3.1645  0.0469 -1.3720
 7214SOL    HW233105   3.227   0.338  10.667 -1.0260  1.1681 -0.9789
 7215SOL     OW33106   2.680   1.854   6.338 -0.0783  0.6227  0.5447
 7215SOL    HW133107   2.595   1.869   6.296  0.1260  0.9158  0.2299
 7215SOL    HW233108   2.743   1.847   6.266  1.3844  4.9996  1.4062
 7216SOL     OW33109   0.398   3.192   6.878 -0.3929  0.2059 -0.5340
 7216SOL    HW133110   0.348   3.213   6.957 -1.1932 -1.6244 -0.5438
 7216SOL    HW233111   0.459   3.122   6.903 -0.4766  0.2163 -0.3017
 7217SOL     OW33112   1.344   1.383   9.653  0.2868 -0.1182  0.0393
 7217SOL    HW133113   1.277   1.425   9.598  1.5951  3.6881  1.3685
 7217SOL    HW233114   1.400   1.456   9.679 -0.5095  0.6505 -0.3871
 7218SOL     OW33115   2.871   1.938   7.031  0.5776 -0.6270 -0.2349
 7218SOL    HW133116   2.830   1.893   6.957 -1.3494 -2.3221  1.8502
 7218SOL    HW233117   2.788   1.952   7.078 -0.0568  0.2580 -1.6182
 7219SOL     OW33118   1.674   1.863   3.016  0.3791 -0.4059 -0.1538
 7219SOL    HW133119   1.662   1.933   2.953 -0.4748  0.1751  0.6513
 7219SOL    HW233120   1.701   1.790   2.959 -1.5329 -1.5663  0.4014
 7220SOL     OW33121   3.426   0.504   9.412  0.0509 -0.2197 -0.4271
 7220SOL    HW133122   3.332   0.483   9.413 -0.0495  0.2342 -0.3221
 7220SOL    HW233123   3.458   0.423   9.452 -3.3499 -0.8955  0.9506
 7221SOL     OW33124   1.836   3.529   0.722 -0.2762 -0.3257 -0.5498
 7221SOL    HW133125   1.874   3.468   0.786  0.1864  1.6463  1.0688
 7221SOL    HW233126   1.899   3.515   0.651  1.9723 -0.7553  1.5379
 7222SOL     OW33127   3.453   2.011   8.641 -0.0661 -0.3325 -0.0781
 7222SOL    HW133128   3.407   1.946   8.695  1.8284 -0.9414  0.7832
 7222SOL    HW233129   3.503   2.061   8.705  2.7263 -0.4798 -2.1747
 7223SOL     OW33130   3.663   3.820   6.768 -0.6504  0.4305 -0.0005
 7223SOL    HW133131   3.698   3.771   6.694  1.6259  0.4296  1.0737
 7223SOL    HW233132   3.574   3.788   6.781 -0.0650 -1.8648 -1.4931
 7224SOL     OW33133   3.484   2.197   5.519 -0.0102 -0.6317 -0.1804
 7224SOL    HW133134   3.443   2.120   5.478 -1.4228 -0.8825  1.6519
 7224SOL    HW233135   3.401   2.244   5.522  1.4148  1.8070  1.0487
 7225SOL     OW33136   3.598   0.604   5.138  0.2578  0.0019  0.2594
 7225SOL    HW133137   3.528   0.545   5.167  1.1252 -1.0871  0.0917
 7225SOL    HW233138   3.595   0.607   5.042 -1.2479 -1.3657  0.2645
 7226SOL     OW33139   4.318   4.661   6.799  0.0644  0.0097 -0.4731
 7226SOL    HW133140   4.321   4.632   6.890  3.7747  2.1506  0.0989
 7226SOL    HW233141   4.272   4.589   6.756 -0.9494 -0.4540  1.4043
 7227SOL     OW33142   4.137   1.500   4.565 -0.3309 -0.1550 -0.0052
 7227SOL    HW133143   4.115   1.477   4.475  0.6283  2.7121 -0.9661
 7227SOL    HW233144   4.204   1.432   4.574  1.5000  1.5361 -0.8844
 7228SOL     OW33145   4.348   1.491  16.571  0.2186 -0.7289 -0.1218
 7228SOL    HW133146   4.285   1.456  16.635  1.6094  0.1871  1.7392
 7228SOL    HW233147   4.290   1.557  16.534  1.3820  0.5094  0.2890
 7229SOL     OW33148   1.265   1.203   8.495  0.2029 -0.3499  0.3491
 7229SOL    HW133149   1.301   1.292   8.505  1.1271 -0.7771  0.7937
 7229SOL    HW233150   1.331   1.153   8.543  0.1450 -1.5350 -0.8017
 7230SOL     OW33151   2.207   0.930   8.014 -0.4114  0.5405 -0.0158
 7230SOL    HW133152   2.267   0.922   7.940  0.6043  1.8166  0.6735
 7230SOL    HW233153   2.186   1.022   8.028  0.8502  0.6254  1.2911
 7231SOL     OW33154   4.489   3.690  11.767 -0.0041  0.0434  0.3024
 7231SOL    HW133155   4.534   3.675  11.684  2.5501  0.4971  1.6227
 7231SOL    HW233156   4.440   3.771  11.750 -0.3895 -0.3798 -0.6276
 7232SOL     OW33157   0.682   1.865   6.439 -0.3239 -0.2012 -0.7498
 7232SOL    HW133158   0.604   1.895   6.485  0.5944  0.7912  0.1462
 7232SOL    HW233159   0.748   1.861   6.508  0.3037  2.0863 -1.2207
 7233SOL     OW33160   3.614   3.940   5.013  0.4562 -0.3272  0.0609
 7233SOL    HW133161   3.552   3.979   4.952 -0.0315 -3.3823 -1.4251
 7233SOL    HW233162   3.563   3.862   5.035  0.5786 -0.9501 -1.9102
 7234SOL     OW33163   1.865   4.153   3.389 -0.5059  0.2803  0.0051
 7234SOL    HW133164   1.863   4.248   3.386  0.2083  0.2585 -1.1883
 7234SOL    HW233165   1.904   4.139   3.476 -0.2590 -0.4694 -0.2171
 7235SOL     OW33166   3.713   3.625   9.845 -0.6195 -0.4067  0.0473
 7235SOL    HW133167   3.731   3.685   9.917  0.5411 -0.0164 -0.5636
 7235SOL    HW233168   3.619   3.609   9.856 -0.9778  0.5750 -1.4063
 7236SOL     OW33169   1.275   0.724   6.790  0.8994 -0.2368 -0.2264
 7236SOL    HW133170   1.264   0.802   6.735  2.0502 -0.3289 -0.5752
 7236SOL    HW233171   1.293   0.672   6.712  0.5027 -0.0892 -0.4187
 7237SOL     OW33172   2.889   1.453   8.124  0.7683  0.6879 -0.1446
 7237SOL    HW133173   2.929   1.540   8.129 -0.7490  1.3202  1.0111
 7237SOL    HW233174   2.915   1.416   8.208 -0.4568  0.7520  0.2736
 7238SOL     OW33175   2.673   0.628  11.027  0.2704  0.1512  0.2695
 7238SOL    HW133176   2.692   0.711  11.070 -0.4770  0.9840 -1.0395
 7238SOL    HW233177   2.702   0.567  11.096 -0.3520  1.4278  1.6497
 7239SOL     OW33178   3.033   1.482   6.333  0.2478  0.1036  0.1036
 7239SOL    HW133179   3.008   1.467   6.424 -2.4418  0.3637 -0.5906
 7239SOL    HW233180   3.128   1.467   6.341 -0.3761 -3.7766  0.1867
 7240SOL     OW33181   4.377   2.876   2.955  0.3676  0.5083 -0.3093
 7240SOL    HW133182   4.319   2.835   2.891  1.6349 -2.0914  0.2149
 7240SOL    HW233183   4.463   2.872   2.913  0.3998 -2.3651 -0.0224
 7241SOL     OW33184   1.959   2.320   2.368 -0.6654 -0.0278 -0.3422
 7241SOL    HW133185   1.935   2.345   2.278 -0.3755 -0.0241 -0.4191
 7241SOL    HW233186   1.871   2.327   2.404 -0.1264  0.3308  0.9181
 7242SOL     OW33187   2.356   0.383   8.716  0.9200 -0.4973 -0.1646
 7242SOL    HW133188   2.299   0.358   8.643  0.8047 -0.1896 -0.1808
 7242SOL    HW233189   2.294   0.379   8.789  2.6226  0.9662  1.3472
 7243SOL     OW33190   0.694   4.487   3.031 -0.1386  0.1322 -0.0427
 7243SOL    HW133191   0.641   4.410   3.052  0.5831 -0.6180 -0.9490
 7243SOL    HW233192   0.708   4.527   3.117 -1.6498  0.0925  0.2169
 7244SOL     OW33193   0.636   4.171   0.685 -0.9156 -0.0879 -0.1909
 7244SOL    HW133194   0.703   4.103   0.686 -0.9644 -0.1361 -0.1825
 7244SOL    HW233195   0.682   4.242   0.729  0.6829  0.1911 -2.3278
 7245SOL     OW33196   0.712   4.573   5.185  0.4050  0.2246 -0.6120
 7245SOL    HW133197   0.684   4.636   5.252 -0.1908 -0.5409 -0.1272
 7245SOL    HW233198   0.649   4.501   5.190  2.0534 -1.1034  0.8782
 7246SOL     OW33199   0.097   2.373   3.855 -0.2144  0.1847 -0.2601
 7246SOL    HW133200   0.062   2.396   3.941 -1.4191 -0.1823 -0.6463
 7246SOL    HW233201   0.146   2.298   3.888 -2.0318 -0.8317  0.1418
 7247SOL     OW33202   4.539   2.537  13.453  0.2855 -0.4785  0.5821
 7247SOL    HW133203   4.507   2.571  13.369  1.1913 -1.1047 -0.0192
 7247SOL    HW233204   4.618   2.489  13.427  0.4316 -0.5821  1.2306
 7248SOL     OW33205   1.694   2.923   8.708 -0.1434 -0.2789  0.1587
 7248SOL    HW133206   1.607   2.935   8.672 -0.9014  1.1297  2.4616
 7248SOL    HW233207   1.701   2.828   8.703 -0.6425 -0.3656  1.0477
 7249SOL     OW33208   4.606   3.595   2.323 -0.1654  0.2290  0.3306
 7249SOL    HW133209   4.649   3.594   2.409  3.0879  0.5699 -1.3272
 7249SOL    HW233210   4.634   3.518   2.274  0.1674  1.9310 -2.1467
 7250SOL     OW33211   3.307   2.533   7.435  0.2934  0.6162  0.4316
 7250SOL    HW133212   3.278   2.472   7.368  0.7679 -2.4791  3.0871
 7250SOL    HW233213   3.246   2.606   7.425 -0.1420  0.0915 -0.8265
 7251SOL     OW33214   4.618   4.612  15.409  0.2237 -0.2829 -0.1172
 7251SOL    HW133215   4.648   4.524  15.387 -0.4019  0.0707 -2.4091
 7251SOL    HW233216   4.658   4.660  15.337  1.7734  0.0329  0.9754
 7252SOL     OW33217   3.246   4.520  16.343 -0.1658 -0.6247  0.6781
 7252SOL    HW133218   3.276   4.432  16.368 -0.1852 -1.0205 -0.6474
 7252SOL    HW233219   3.152   4.512  16.358 -0.6242 -0.5440 -2.1633
 7253SOL     OW33220   2.410   4.113   2.874  0.1105 -0.2377 -0.4441
 7253SOL    HW133221   2.476   4.043   2.873 -1.3730 -1.6723  1.0066
 7253SOL    HW233222   2.459   4.182   2.919  1.4591 -1.0097 -0.7459
 7254SOL     OW33223   2.784   1.123   8.059 -0.3798  0.4994 -0.1372
 7254SOL    HW133224   2.697   1.156   8.039 -0.6426  0.9188  1.6444
 7254SOL    HW233225   2.773   1.128   8.154  2.4578  1.3921  0.1674
 7255SOL     OW33226   0.101   1.849   8.406 -0.1788  0.5266 -0.3715
 7255SOL    HW133227   0.154   1.784   8.360  0.1645 -0.3599  1.2774
 7255SOL    HW233228   0.166   1.905   8.447  0.3024  0.8667 -1.6059
 7256SOL     OW33229   2.596   3.899  10.835 -0.0579 -0.6752  0.2335
 7256SOL    HW133230   2.591   3.923  10.928 -0.4195  1.8196 -0.4134
 7256SOL    HW233231   2.503   3.901  10.812  0.0853  1.8521 -0.1444
 7257SOL     OW33232   0.203   0.721   1.915 -0.8642 -0.0785 -0.0179
 7257SOL    HW133233   0.285   0.677   1.890 -0.5260  1.0385 -0.8642
 7257SOL    HW233234   0.202   0.799   1.860 -1.1155  0.7120  1.1146
 7258SOL     OW33235   0.572   1.346   5.512  0.4808  0.2364  0.7525
 7258SOL    HW133236   0.657   1.362   5.472  0.3678 -3.0582 -0.8853
 7258SOL    HW233237   0.507   1.382   5.451 -0.6028 -0.4625  1.4884
 7259SOL     OW33238   3.685   3.389   3.315 -0.2847 -0.1344  0.5667
 7259SOL    HW133239   3.651   3.300   3.320 -0.2418 -0.1376  0.7744
 7259SOL    HW233240   3.710   3.408   3.405 -0.8884 -1.6662  1.0488
 7260SOL     OW33241   0.842   1.226   0.931  0.0669 -0.4495  0.2364
 7260SOL    HW133242   0.935   1.236   0.910 -0.5474  1.0365 -1.6816
 7260SOL    HW233243   0.800   1.309   0.908  1.6296  0.2361 -0.1326
 7261SOL     OW33244   3.062   2.596   3.046 -0.0946  0.4008  0.1635
 7261SOL    HW133245   3.128   2.528   3.058 -0.0032  0.7886  1.9402
 7261SOL    HW233246   3.109   2.655   2.987  4.1193 -2.0643  1.0237
 7262SOL     OW33247   1.748   2.620  13.111 -0.3064 -0.1963  0.9269
 7262SOL    HW133248   1.807   2.694  13.098 -0.2278 -0.4783 -0.3207
 7262SOL    HW233249   1.756   2.613  13.206  1.2918  1.1463  0.8950
 7263SOL     OW33250   2.951   3.014   9.798 -0.6842 -0.0043  0.9801
 7263SOL    HW133251   3.000   3.025   9.879  0.3711  0.9024  0.1990
 7263SOL    HW233252   2.899   2.936   9.819  0.7863 -0.5441  2.6068
 7264SOL     OW33253   0.898   4.541   7.240  0.1741 -0.5793  0.0714
 7264SOL    HW133254   0.876   4.632   7.263 -0.7442 -0.3042 -1.9438
 7264SOL    HW233255   0.886   4.504   7.328 -0.1232  3.1476  1.6429
 7265SOL     OW33256   0.532   2.905  14.197 -0.3002  0.2165 -0.0318
 7265SOL    HW133257   0.473   2.856  14.141  1.9781  0.2085 -2.4226
 7265SOL    HW233258   0.505   2.995  14.180 -0.7574  0.0233 -0.3317
 7266SOL     OW33259   3.931   2.603   2.118  0.1575  0.2747  0.2005
 7266SOL    HW133260   4.023   2.625   2.105  0.4115 -1.3259 -0.6254
 7266SOL    HW233261   3.930   2.533   2.053 -0.8816  1.6111 -1.2112
 7267SOL     OW33262   0.974   2.402   5.327 -1.0527  0.2334 -0.0076
 7267SOL    HW133263   1.041   2.422   5.392  1.1096 -0.9145 -1.8649
 7267SOL    HW233264   0.917   2.478   5.340 -1.2533  0.3477 -1.5135
 7268SOL     OW33265   3.787   3.747  12.108 -0.0739  0.0256 -0.0170
 7268SOL    HW133266   3.881   3.742  12.093 -0.1947 -0.5427 -0.5762
 7268SOL    HW233267   3.789   3.713  12.198 -0.7353 -2.1703 -0.8195
 7269SOL     OW33268   1.618   3.939   4.095 -0.7307 -0.2018 -0.0797
 7269SOL    HW133269   1.523   3.926   4.097 -0.6970 -0.2375  1.2657
 7269SOL    HW233270   1.642   3.846   4.097 -1.8890 -0.5002 -0.1749
 7270SOL     OW33271   0.733   1.425  14.339 -0.9505  0.3469  0.1859
 7270SOL    HW133272   0.811   1.378  14.311 -2.9937 -3.4912  1.0234
 7270SOL    HW233273   0.735   1.389  14.428 -1.1590 -0.7638 -0.2612
 7271SOL     OW33274   2.626   2.026   9.252  0.1372  0.3098 -0.2918
 7271SOL    HW133275   2.617   1.941   9.294  3.3059  0.2002  0.2157
 7271SOL    HW233276   2.538   2.050   9.225  0.2730  1.9531  0.7301
 7272SOL     OW33277   0.746   0.319   3.357 -0.4189  0.8008 -0.3540
 7272SOL    HW133278   0.685   0.321   3.431 -0.0386  0.5196 -0.0321
 7272SOL    HW233279   0.799   0.239   3.364 -0.0265  0.9736 -1.4809
 7273SOL     OW33280   1.745   2.995   0.985 -0.2501  0.4436  0.4685
 7273SOL    HW133281   1.749   2.906   0.952 -2.7656 -0.1207  1.6559
 7273SOL    HW233282   1.828   2.995   1.032  0.9671  0.6552 -1.6907
 7274SOL     OW33283   0.426   2.343   7.411  0.1129  0.4565  0.0334
 7274SOL    HW133284   0.474   2.292   7.346  1.5021  0.5038  1.0111
 7274SOL    HW233285   0.341   2.360   7.371  0.2909  2.7006  0.6317
 7275SOL     OW33286   0.859   1.399   2.267  0.0861  0.2775  0.3180
 7275SOL    HW133287   0.901   1.441   2.191  0.9066 -3.2269 -1.1639
 7275SOL    HW233288   0.784   1.455   2.288  0.0765  0.0162  0.9702
 7276SOL     OW33289   2.467   3.373   8.989 -0.4811 -0.0931 -0.3085
 7276SOL    HW133290   2.424   3.288   8.989  2.7682 -1.7226 -0.1436
 7276SOL    HW233291   2.455   3.401   8.898 -2.4039 -0.6406 -0.2226
 7277SOL     OW33292   1.259   2.728  11.118 -0.0560  0.5736 -0.1099
 7277SOL    HW133293   1.323   2.761  11.181 -3.4791  1.0073  3.1048
 7277SOL    HW233294   1.279   2.768  11.033 -0.0009  1.8965  0.5355
 7278SOL     OW33295   1.657   0.009   3.232  0.0071 -0.5827  0.0915
 7278SOL    HW133296   1.651   4.641   3.251  0.6722 -0.7878 -0.7595
 7278SOL    HW233297   1.696   4.723   3.146 -1.2514 -2.5592 -0.2321
 7279SOL     OW33298   3.567   2.713  13.843 -0.2156  0.1898 -0.7376
 7279SOL    HW133299   3.656   2.738  13.820  0.2304 -1.1061 -0.4189
 7279SOL    HW233300   3.550   2.632  13.796  1.4514 -0.8942  0.5333
 7280SOL     OW33301   2.835   1.271   4.761 -0.0166  0.3967 -0.4740
 7280SOL    HW133302   2.846   1.285   4.667  1.1165 -3.8094 -1.0004
 7280SOL    HW233303   2.903   1.204   4.770  1.3798  2.1221  1.9451
 7281SOL     OW33304   4.327   3.871   7.672  0.0240  0.3341  0.8478
 7281SOL    HW133305   4.375   3.790   7.689 -0.7945 -0.1925  0.6333
 7281SOL    HW233306   4.288   3.880   7.759 -0.9959  0.1584  0.4104
 7282SOL     OW33307   2.065   3.141   2.446  0.3946 -0.2831  0.5959
 7282SOL    HW133308   2.153   3.123   2.479 -0.2430 -1.2111  1.8032
 7282SOL    HW233309   2.063   3.232   2.477 -1.6214  0.5379 -1.8852
 7283SOL     OW33310   1.393   0.362   6.016  0.2264 -0.1573  0.1400
 7283SOL    HW133311   1.446   0.325   5.945  0.6171  0.9040 -0.1208
 7283SOL    HW233312   1.442   0.444   6.029  2.9295 -1.6588 -0.4664
 7284SOL     OW33313   2.969   2.343   4.628  0.1266 -0.7139 -0.1394
 7284SOL    HW133314   2.929   2.388   4.553  1.4665  0.1328 -0.3390
 7284SOL    HW233315   2.889   2.361   4.677  1.3636  0.7563  1.3459
 7285SOL     OW33316   4.203   1.364   2.747  0.5720  0.4088 -0.0755
 7285SOL    HW133317   4.122   1.322   2.778  0.7894 -0.9308 -1.3396
 7285SOL    HW233318   4.257   1.370   2.826  1.9072 -0.5974 -0.9310
 7286SOL     OW33319   3.259   2.867   5.744  0.0362  0.2810 -0.5005
 7286SOL    HW133320   3.249   2.872   5.649 -0.4247  0.9753 -0.4120
 7286SOL    HW233321   3.351   2.889   5.755 -0.2690  1.2788  0.0424
 7287SOL     OW33322   4.321   3.294   4.795  0.0672  0.2265 -0.3957
 7287SOL    HW133323   4.287   3.374   4.834  0.2508  0.0032  0.2228
 7287SOL    HW233324   4.345   3.239   4.870 -2.5618  0.2081  0.4417
 7288SOL     OW33325   3.078   0.554   0.195 -0.0192  0.4277 -0.0355
 7288SOL    HW133326   3.040   0.474   0.230 -1.3442  1.9460  1.9461
 7288SOL    HW233327   3.152   0.568   0.254 -0.4726  1.0371  0.3843
 7289SOL     OW33328   2.151   4.392   9.048 -0.2049  0.5360 -0.1493
 7289SOL    HW133329   2.097   4.357   8.977  0.3266 -0.6372  0.0407
 7289SOL    HW233330   2.106   4.355   9.124  0.1805  2.2089  0.8985
 7290SOL     OW33331   0.917   3.302   8.328 -0.1587  0.6546  0.1914
 7290SOL    HW133332   0.853   3.327   8.394  0.3705 -0.8051  1.2563
 7290SOL    HW233333   0.854   3.256   8.273 -3.1720  1.3028  3.0990
 7291SOL     OW33334   0.438   0.865  14.443 -0.2426 -0.1571 -0.1546
 7291SOL    HW133335   0.514   0.823  14.485  0.2369  0.7843 -0.0764
 7291SOL    HW233336   0.391   0.892  14.522 -0.0266 -1.0909  0.2953
 7292SOL     OW33337   0.913   3.698   5.530  0.8831  0.4501  0.3881
 7292SOL    HW133338   0.903   3.780   5.578  0.8815  1.5290 -1.4459
 7292SOL    HW233339   0.935   3.642   5.604  4.0242  2.1564  0.7124
 7293SOL     OW33340   0.398   4.358   7.794  0.2578  0.2291  0.6179
 7293SOL    HW133341   0.327   4.421   7.800 -0.6505 -0.4851 -2.6417
 7293SOL    HW233342   0.477   4.412   7.792 -0.2672  0.9582 -0.2038
 7294SOL     OW33343   4.264   0.297   3.450 -0.0504 -0.3513 -0.6152
 7294SOL    HW133344   4.179   0.261   3.427 -1.6980  3.4603 -0.4984
 7294SOL    HW233345   4.312   0.272   3.371 -1.3518 -2.3264 -0.7461
 7295SOL     OW33346   1.243   4.536  17.321  0.2069  0.0242 -0.2821
 7295SOL    HW133347   1.212   4.617  17.281  2.0738 -0.1685 -2.1084
 7295SOL    HW233348   1.244   4.554  17.415 -3.3243  0.0767 -0.2381
 7296SOL     OW33349   4.478   3.052   0.224 -0.2510 -0.1239 -0.5530
 7296SOL    HW133350   4.435   3.113   0.284  0.6052  0.6136 -0.6920
 7296SOL    HW233351   4.401   3.022   0.175 -2.3197 -0.3320  2.8347
 7297SOL     OW33352   3.677   3.680   4.409 -0.5702  0.0393 -0.4758
 7297SOL    HW133353   3.658   3.587   4.410  0.6758 -0.1945  1.2125
 7297SOL    HW233354   3.692   3.694   4.503 -0.1996 -0.7967 -0.4176
 7298SOL     OW33355   3.396   3.557  12.351 -0.5259  0.0707  0.1616
 7298SOL    HW133356   3.340   3.515  12.286 -1.3567  1.6820 -0.1527
 7298SOL    HW233357   3.399   3.647  12.319 -1.7322  1.2281  3.2508
 7299SOL     OW33358   3.205   3.194   3.867 -0.0565  0.2616  0.0157
 7299SOL    HW133359   3.179   3.102   3.862  0.6470  0.0932 -0.4619
 7299SOL    HW233360   3.240   3.206   3.779  0.2984  1.9705  0.3934
 7300SOL     OW33361   4.274   2.771   6.597  0.2072 -0.1668 -0.4978
 7300SOL    HW133362   4.194   2.813   6.630 -1.3122 -1.5839 -2.4103
 7300SOL    HW233363   4.278   2.793   6.504  2.1533 -1.9462 -0.8306
 7301SOL     OW33364   4.523   3.705   4.970  0.0707  0.5312  0.3979
 7301SOL    HW133365   4.504   3.645   5.043  0.3289 -1.7279 -1.4186
 7301SOL    HW233366   4.450   3.680   4.913 -0.5157  1.1007  0.8913
 7302SOL     OW33367   4.073   3.746  12.159 -0.6684  0.5884 -0.1484
 7302SOL    HW133368   4.082   3.730  12.253 -0.0678  0.6818 -0.1884
 7302SOL    HW233369   4.163   3.729  12.132 -0.9018 -0.5947 -0.1646
 7303SOL     OW33370   0.287   1.989   8.552 -0.3528 -0.0492 -0.4979
 7303SOL    HW133371   0.284   2.052   8.625 -0.2580 -0.6926  0.0647
 7303SOL    HW233372   0.373   2.011   8.518  0.5316 -1.1360  1.0575
 7304SOL     OW33373   0.541   1.579  11.058  0.0418 -0.2961  0.2534
 7304SOL    HW133374   0.479   1.507  11.074 -0.7763  0.1364 -0.9827
 7304SOL    HW233375   0.536   1.603  10.966  2.2030  1.0338  0.4989
 7305SOL     OW33376   1.484   3.396   2.601  0.0095  0.3320 -0.1124
 7305SOL    HW133377   1.492   3.474   2.656  1.5710 -0.5393  0.8998
 7305SOL    HW233378   1.550   3.410   2.532 -1.1093 -5.0933 -2.2868
 7306SOL     OW33379   0.082   3.139  15.004 -0.7903 -0.0024 -0.3562
 7306SOL    HW133380   0.066   3.075  14.934 -2.0815  1.6707 -1.5837
 7306SOL    HW233381   4.722   3.152  15.044 -1.8336 -0.8783 -2.3435
 7307SOL     OW33382   3.709   3.576   2.573 -0.1392  0.7336  0.1848
 7307SOL    HW133383   3.680   3.503   2.518 -1.7022  1.8908 -0.5302
 7307SOL    HW233384   3.654   3.562   2.650  0.6710  1.0780  0.8242
 7308SOL     OW33385   4.395   4.481   4.398 -0.0811  0.3932  0.5693
 7308SOL    HW133386   4.488   4.498   4.406  0.5530 -2.0844 -1.3826
 7308SOL    HW233387   4.356   4.560   4.435 -0.4068 -0.2561  1.6272
 7309SOL     OW33388   0.855   4.642   0.833 -0.3463 -0.3742 -0.2552
 7309SOL    HW133389   0.826   4.712   0.892 -0.3050 -2.0965  1.8119
 7309SOL    HW233390   0.833   4.688   0.752 -1.2707 -1.4125 -0.5890
 7310SOL     OW33391   1.750   4.590   6.202  0.0564  0.1178  0.3426
 7310SOL    HW133392   1.770   4.505   6.161 -1.2855  0.5590 -1.2341
 7310SOL    HW233393   1.829   4.606   6.252 -0.5841  4.0603  0.0837
 7311SOL     OW33394   3.868   0.004   1.057 -0.1325 -0.0300  0.1121
 7311SOL    HW133395   3.879   0.092   1.022  0.3893  0.9108  2.5989
 7311SOL    HW233396   3.774   4.715   1.047 -0.2322 -0.0483  1.0753
 7312SOL     OW33397   3.088   3.745   1.521  0.3881 -0.4118 -0.0646
 7312SOL    HW133398   3.181   3.749   1.542  0.2693  0.6666  0.2372
 7312SOL    HW233399   3.076   3.655   1.553 -0.6673 -0.3562 -0.2952
 7313SOL     OW33400   4.468   2.110  11.889  0.8153  0.0047  0.3383
 7313SOL    HW133401   4.549   2.125  11.938  0.0367 -1.5366  2.0803
 7313SOL    HW233402   4.401   2.137  11.951  1.1918  3.1671 -0.6159
 7314SOL     OW33403   4.293   2.326  11.092 -0.3911  0.0173  0.0144
 7314SOL    HW133404   4.267   2.354  11.005  0.1344  0.7125  0.0791
 7314SOL    HW233405   4.210   2.329  11.138  0.5719  1.7851  1.6408
 7315SOL     OW33406   3.596   0.990   5.233 -0.2007 -0.3353 -0.2109
 7315SOL    HW133407   3.532   1.038   5.180 -0.0958  0.3328  0.2780
 7315SOL    HW233408   3.681   1.019   5.200 -0.3275  0.4195  0.1243
 7316SOL     OW33409   1.063   4.200  14.126  0.1309  0.1702  0.5733
 7316SOL    HW133410   0.977   4.241  14.116  0.8717  2.3300  3.0256
 7316SOL    HW233411   1.053   4.179  14.219  0.3291 -2.6863 -0.0455
 7317SOL     OW33412   3.238   0.553   3.158  0.3060 -0.0055 -0.3369
 7317SOL    HW133413   3.228   0.494   3.233 -2.1454 -1.1116 -1.5095
 7317SOL    HW233414   3.164   0.512   3.113  0.4808 -0.9206  0.2093
 7318SOL     OW33415   3.524   1.123   9.712 -0.2905 -0.5634  0.2757
 7318SOL    HW133416   3.614   1.156   9.713 -0.9956  1.2180  4.1265
 7318SOL    HW233417   3.538   1.031   9.731  0.6216 -0.5116 -0.1118
 7319SOL     OW33418   2.842   0.837  16.757  0.3210 -0.1762  0.0772
 7319SOL    HW133419   2.887   0.777  16.817  0.4199  1.2570  1.4440
 7319SOL    HW233420   2.761   0.793  16.731 -0.3365 -0.0457  1.8970
 7320SOL     OW33421   2.808   0.512   1.384 -0.2518 -0.0644 -0.4549
 7320SOL    HW133422   2.787   0.522   1.291 -0.7832 -1.0001 -0.4309
 7320SOL    HW233423   2.762   0.434   1.412  1.6025 -0.1162  2.4771
 7321SOL     OW33424   0.781   1.777   8.273 -0.4962 -0.2371  0.1485
 7321SOL    HW133425   0.813   1.707   8.216  0.4895  0.5882 -0.3073
 7321SOL    HW233426   0.803   1.864   8.239  0.0991 -0.1691  0.6917
 7322SOL     OW33427   0.482   0.559   1.088  0.3327 -0.3379  0.1555
 7322SOL    HW133428   0.491   0.642   1.042  0.2276  0.8105  2.1981
 7322SOL    HW233429   0.553   0.518   1.039  1.2826  1.3552  0.1255
 7323SOL     OW33430   1.292   1.209   3.357  0.0913  0.1674  0.1832
 7323SOL    HW133431   1.339   1.284   3.319  1.0665  0.0436  1.1437
 7323SOL    HW233432   1.337   1.137   3.311 -0.4469 -0.0564  0.0031
 7324SOL     OW33433   1.748   1.598   9.120 -0.2316 -0.2334  0.2712
 7324SOL    HW133434   1.771   1.599   9.027 -3.0595 -2.8969 -0.4554
 7324SOL    HW233435   1.700   1.519   9.145  0.5723  0.5420  4.1798
 7325SOL     OW33436   0.122   0.145  10.888  0.6000  0.1509 -0.3551
 7325SOL    HW133437   0.193   0.085  10.862 -0.7250 -1.6877  0.2437
 7325SOL    HW233438   0.104   0.199  10.811  1.9737 -0.4366 -1.0940
 7326SOL     OW33439   0.743   2.089   8.354  0.1140 -0.4047 -0.7345
 7326SOL    HW133440   0.754   2.035   8.275 -0.7303  0.3115 -1.3390
 7326SOL    HW233441   0.825   2.080   8.403 -0.7646 -0.0196  0.7922
 7327SOL     OW33442   0.041   2.084   0.668  0.6684 -0.2912  0.0036
 7327SOL    HW133443   4.725   2.011   0.714  1.0390  0.3101  1.3129
 7327SOL    HW233444   0.109   2.037   0.620  0.5511  0.6957 -1.1102
 7328SOL     OW33445   3.272   1.939   5.734 -0.5225 -0.3993  0.7756
 7328SOL    HW133446   3.219   1.946   5.654  0.3169  0.4052  0.2994
 7328SOL    HW233447   3.210   1.902   5.798 -1.7218 -2.8441 -1.8295
 7329SOL     OW33448   4.242   2.717  17.263 -0.3669  0.0624  0.2044
 7329SOL    HW133449   4.182   2.735  17.336 -1.8876  0.1528 -1.0468
 7329SOL    HW233450   4.175   2.683  17.204 -1.2420 -1.4543  2.0943
 7330SOL     OW33451   1.395   1.129   9.570  0.6124 -0.1306  0.6398
 7330SOL    HW133452   1.307   1.105   9.541 -0.7403  2.7471  2.3245
 7330SOL    HW233453   1.376   1.219   9.596 -1.2240 -0.5606  0.7870
 7331SOL     OW33454   2.195   4.539  11.983  0.3424  0.1871  0.0988
 7331SOL    HW133455   2.105   4.532  12.015  0.6655 -1.6470  0.6303
 7331SOL    HW233456   2.227   4.619  12.025  2.7052  0.1890 -1.6870
 7332SOL     OW33457   1.955   1.496   3.809 -0.2198 -0.1276  0.4131
 7332SOL    HW133458   1.980   1.544   3.730 -1.2327 -1.8166 -0.9314
 7332SOL    HW233459   1.906   1.421   3.774  1.5412 -2.1462  2.3758
 7333SOL     OW33460   1.318   4.642  17.560 -0.2406 -0.6239  0.1161
 7333SOL    HW133461   1.275   4.614  17.641 -0.7023 -1.5152 -0.4378
 7333SOL    HW233462   1.313   0.012  17.566  1.3527 -0.6132  1.3675
 7334SOL     OW33463   2.072   2.781   5.537 -0.1325  0.2917  0.2387
 7334SOL    HW133464   2.088   2.732   5.456  1.2226  1.0811  0.0106
 7334SOL    HW233465   2.115   2.720   5.597  2.0184  0.8142 -0.7356
 7335SOL     OW33466   2.389   3.569   8.028  0.6238 -0.1836 -0.8620
 7335SOL    HW133467   2.312   3.513   8.016  0.3760 -0.3266  1.3223
 7335SOL    HW233468   2.439   3.510   8.084 -1.8095 -0.0849  1.4145
 7336SOL     OW33469   0.724   0.875  11.763 -0.0265 -0.1541  0.4920
 7336SOL    HW133470   0.629   0.882  11.774 -0.1716  1.2850 -1.5090
 7336SOL    HW233471   0.736   0.804  11.826 -0.2723  0.1666  0.8969
 7337SOL     OW33472   3.444   3.440   4.192 -0.5933  0.2728  0.1829
 7337SOL    HW133473   3.530   3.413   4.159 -1.1531 -0.6570 -0.5157
 7337SOL    HW233474   3.445   3.524   4.145  0.6449  1.9200  3.1653
 7338SOL     OW33475   1.777   4.685   6.760 -0.4654  0.4977 -0.3399
 7338SOL    HW133476   1.751   4.596   6.736 -1.1174  0.5684  0.1097
 7338SOL    HW233477   1.704   4.696   6.821  1.3378  2.5133  1.4578
 7339SOL     OW33478   2.171   3.662   0.636 -0.1497 -0.1734 -0.3901
 7339SOL    HW133479   2.121   3.672   0.717  2.9558 -0.3169  1.5419
 7339SOL    HW233480   2.113   3.607   0.583  0.4278 -0.6166 -0.5693
 7340SOL     OW33481   4.051   1.665  10.528  0.3644 -0.2017 -0.3380
 7340SOL    HW133482   3.989   1.593  10.520  1.2995 -1.0951  0.5801
 7340SOL    HW233483   4.126   1.622  10.568 -0.7199  0.4095  2.3477
 7341SOL     OW33484   4.640   1.894   7.016 -0.4798  0.1801  0.0467
 7341SOL    HW133485   4.725   1.866   7.052 -1.1398 -0.9443  0.7212
 7341SOL    HW233486   4.630   1.831   6.946 -2.5439 -0.5944  1.0452
 7342SOL     OW33487   1.334   1.703   4.649 -0.4904 -0.2476  0.5931
 7342SOL    HW133488   1.309   1.753   4.571  0.0688 -2.6768 -1.1388
 7342SOL    HW233489   1.254   1.660   4.678 -2.6498  4.1286  1.0780
 7343SOL     OW33490   2.019   3.414   5.991  0.4899  0.6218 -0.8854
 7343SOL    HW133491   2.014   3.434   6.084 -1.2253 -0.2709 -0.7739
 7343SOL    HW233492   1.938   3.438   5.945 -0.5352 -1.0128  0.0550
 7344SOL     OW33493   2.640   1.945   5.947  0.6389  0.2601  0.1327
 7344SOL    HW133494   2.562   1.902   5.981  0.5641 -0.6751 -1.2481
 7344SOL    HW233495   2.709   1.887   5.979 -0.1722  0.2819  1.8801
 7345SOL     OW33496   2.336   2.544   3.692  0.6968 -0.8476 -0.4764
 7345SOL    HW133497   2.397   2.487   3.645 -1.7618 -1.5144 -2.8392
 7345SOL    HW233498   2.327   2.607   3.621  0.7612 -1.3270 -0.9114
 7346SOL     OW33499   0.914   2.516  17.018  0.0465 -0.1609  0.4224
 7346SOL    HW133500   0.902   2.609  17.036  3.2793 -0.1020  2.1326
 7346SOL    HW233501   0.833   2.482  17.058 -0.9344  1.1460 -0.4606
 7347SOL     OW33502   4.313   3.421   0.442  0.7169 -0.2757 -0.0622
 7347SOL    HW133503   4.328   3.437   0.536  0.1627  0.7954 -0.1563
 7347SOL    HW233504   4.356   3.336   0.433 -1.4143 -1.3009 -0.6390
 7348SOL     OW33505   3.795   3.414  15.023  0.3256  0.0811  0.0131
 7348SOL    HW133506   3.778   3.328  15.061  2.1510 -0.9311 -1.4740
 7348SOL    HW233507   3.889   3.430  15.026  0.3644 -0.4891  1.8085
 7349SOL     OW33508   2.532   3.777  11.706 -0.4633 -0.1308  0.0570
 7349SOL    HW133509   2.522   3.872  11.707 -1.5912 -0.2397 -0.2310
 7349SOL    HW233510   2.441   3.750  11.717 -1.1113  2.8706  1.9057
 7350SOL     OW33511   1.581   1.364   3.691  0.1250 -0.2900 -0.7155
 7350SOL    HW133512   1.610   1.381   3.602  0.9329  0.9033 -0.2310
 7350SOL    HW233513   1.496   1.325   3.672 -0.5053 -0.0104  1.4327
 7351SOL     OW33514   4.571   3.186   5.570  0.3860 -0.2338  0.4359
 7351SOL    HW133515   4.612   3.271   5.554  1.5858 -1.2689 -1.9405
 7351SOL    HW233516   4.603   3.138   5.493 -1.9423  1.7356 -1.7491
 7352SOL     OW33517   1.568   0.893   2.780  0.5582 -0.0163 -0.3122
 7352SOL    HW133518   1.554   0.974   2.730  1.7249  0.7861  0.6802
 7352SOL    HW233519   1.487   0.850   2.752  0.0532 -0.4763  1.9068
 7353SOL     OW33520   2.986   1.269   0.928  0.5494  0.6565  0.0858
 7353SOL    HW133521   3.001   1.312   1.013 -0.7644  3.2578 -1.0014
 7353SOL    HW233522   3.080   1.263   0.907  0.5151  1.1939 -0.2185
 7354SOL     OW33523   1.619   1.320   4.817  0.2784  0.3501  0.1523
 7354SOL    HW133524   1.586   1.327   4.906  0.0699 -1.3537  0.2171
 7354SOL    HW233525   1.561   1.251   4.785  3.7216 -1.3681 -2.3825
 7355SOL     OW33526   1.702   1.097   0.730 -0.0488 -0.1050 -0.2552
 7355SOL    HW133527   1.781   1.062   0.771  1.6143  2.3959 -1.3240
 7355SOL    HW233528   1.643   1.103   0.806  0.7969 -0.2022  0.4076
 7356SOL     OW33529   3.128   0.809  10.125  0.7391 -0.2021 -0.4594
 7356SOL    HW133530   3.048   0.772  10.161  0.4093  0.2850 -0.6888
 7356SOL    HW233531   3.144   0.878  10.190 -1.4829 -1.5904  1.5717
 7357SOL     OW33532   3.513   4.414   4.133 -0.0788 -0.1351  0.1850
 7357SOL    HW133533   3.433   4.402   4.183  0.0196  0.0719  0.3931
 7357SOL    HW233534   3.550   4.482   4.189  0.8799  0.5422 -1.2521
 7358SOL     OW33535   2.484   3.033   4.249  0.0243 -0.1767  0.2450
 7358SOL    HW133536   2.528   3.100   4.301  0.7853 -0.1065 -0.4948
 7358SOL    HW233537   2.530   2.951   4.265  0.0919  0.0858  1.4560
 7359SOL     OW33538   3.685   3.650   3.714  0.3061 -0.5021 -0.2265
 7359SOL    HW133539   3.736   3.714   3.663  1.3123 -3.9562 -3.5066
 7359SOL    HW233540   3.676   3.699   3.796 -1.4661 -0.3958 -0.4975
 7360SOL     OW33541   0.148   3.488  11.467 -0.1633 -0.4239 -1.1154
 7360SOL    HW133542   0.240   3.478  11.494 -0.4611 -1.7616 -0.5972
 7360SOL    HW233543   0.165   3.490  11.373 -1.0913  2.7352 -1.2231
 7361SOL     OW33544   3.147   2.403  12.218  0.1931 -0.6098 -0.1514
 7361SOL    HW133545   3.232   2.359  12.228  0.0557 -0.7241  0.4869
 7361SOL    HW233546   3.172   2.456  12.142 -0.7823  2.7261  1.9197
 7362SOL     OW33547   2.110   0.126   2.564  0.2181 -0.1073  0.1104
 7362SOL    HW133548   2.114   0.156   2.473 -0.6154  2.2976  0.8602
 7362SOL    HW233549   2.033   0.069   2.563 -0.1523  0.4063 -0.5623
 7363SOL     OW33550   4.136   0.934   4.935  0.5361 -0.0343  0.1715
 7363SOL    HW133551   4.209   0.894   4.982  1.2587  1.4485  0.3142
 7363SOL    HW233552   4.183   0.979   4.865  1.8610  0.3916  1.3100
 7364SOL     OW33553   0.153   2.732  12.890  0.3370 -0.2652 -0.1754
 7364SOL    HW133554   0.164   2.678  12.811  0.5963 -0.0350 -0.2973
 7364SOL    HW233555   0.109   2.802  12.842 -0.4791 -1.8244 -1.6964
 7365SOL     OW33556   1.581   3.589   6.004 -0.4476  0.5012  0.0684
 7365SOL    HW133557   1.563   3.495   6.014  0.8247 -0.0439 -2.4891
 7365SOL    HW233558   1.497   3.627   6.026 -0.1835  0.5555  0.9709
 7366SOL     OW33559   1.791   2.962  14.583 -0.5753  0.4610  0.4365
 7366SOL    HW133560   1.768   2.936  14.494 -0.5198  0.6507  0.3674
 7366SOL    HW233561   1.886   2.953  14.577 -0.6321 -0.2500  0.6166
 7367SOL     OW33562   1.869   4.369   3.992 -0.3996  0.1563 -0.3111
 7367SOL    HW133563   1.866   4.343   4.084 -0.8646 -0.3418 -0.4640
 7367SOL    HW233564   1.806   4.441   3.987  1.2869  1.7009  0.8219
 7368SOL     OW33565   2.555   2.748   0.859  0.3240  0.5936  0.2799
 7368SOL    HW133566   2.524   2.674   0.911  0.8777  0.5580  0.5676
 7368SOL    HW233567   2.594   2.797   0.931 -1.4290  0.9480  0.9595
 7369SOL     OW33568   2.956   0.199  15.342  0.3936 -0.2567  0.0476
 7369SOL    HW133569   3.026   0.262  15.362  1.2663 -0.8175 -1.2713
 7369SOL    HW233570   2.952   0.141  15.418  0.3646 -0.1264  0.1482
 7370SOL     OW33571   4.211   3.883   5.931 -0.0914  0.0282 -0.2380
 7370SOL    HW133572   4.279   3.817   5.924  0.2656 -0.0426  3.6112
 7370SOL    HW233573   4.254   3.962   5.899  1.9753 -0.9236  0.1784
 7371SOL     OW33574   0.463   4.114   2.833 -0.1385  0.2705 -0.2646
 7371SOL    HW133575   0.492   4.118   2.924 -2.4562 -1.2763  0.5567
 7371SOL    HW233576   0.529   4.056   2.796 -0.7556 -0.9731  0.5802
 7372SOL     OW33577   0.692   1.874   2.307 -0.0099 -0.1283  0.4286
 7372SOL    HW133578   0.610   1.915   2.335  0.4254 -0.1830  1.8145
 7372SOL    HW233579   0.672   1.834   2.223 -3.2677  2.7344 -0.1636
 7373SOL     OW33580   3.213   2.052  11.708  0.1508 -0.2101 -0.1094
 7373SOL    HW133581   3.282   1.989  11.686  0.3543  0.5492 -1.6533
 7373SOL    HW233582   3.205   2.086  11.619 -1.5084 -0.9443 -0.2246
 7374SOL     OW33583   0.934   2.090   0.321  0.0903 -0.6786  0.1180
 7374SOL    HW133584   0.933   2.034   0.399 -0.1433 -0.8144  0.0163
 7374SOL    HW233585   0.874   2.051   0.258  0.0964  0.1610 -0.4044
 7375SOL     OW33586   1.285   0.035   7.089 -0.0976 -0.2655 -0.1331
 7375SOL    HW133587   1.200   0.067   7.119 -1.8975 -3.1570 -2.0696
 7375SOL    HW233588   1.332   0.110   7.127 -1.7769 -0.7399  2.8228
 7376SOL     OW33589   4.587   4.467  17.602 -0.1142  0.3221 -0.1867
 7376SOL    HW133590   4.495   4.440  17.615 -0.3770  1.2249 -0.1644
 7376SOL    HW233591   4.583   4.488  17.509 -0.2984 -0.0855 -0.2722
 7377SOL     OW33592   2.733   4.201   9.178  0.3882 -0.1516  0.4501
 7377SOL    HW133593   2.731   4.125   9.237 -0.4853 -0.9372 -0.5861
 7377SOL    HW233594   2.824   4.200   9.147  0.6746  1.9437  1.2604
 7378SOL     OW33595   3.789   1.958   8.610  0.5427 -0.1707 -0.4221
 7378SOL    HW133596   3.870   2.007   8.621 -0.7569  1.5935  1.1091
 7378SOL    HW233597   3.726   1.996   8.671  0.3049  0.0299 -0.7981
 7379SOL     OW33598   1.212   3.189   6.564  0.4196  0.0483  0.6418
 7379SOL    HW133599   1.148   3.179   6.634  0.9076  0.5468  1.1616
 7379SOL    HW233600   1.153   3.157   6.496  1.5210  1.3061 -0.9072
 7380SOL     OW33601   2.058   3.488   1.509 -0.0546  0.5309 -0.0774
 7380SOL    HW133602   1.990   3.556   1.506 -0.0308  0.4686 -2.0548
 7380SOL    HW233603   2.072   3.476   1.415  3.3308 -1.6435  0.7029
 7381SOL     OW33604   0.758   0.795  14.465 -0.4564 -0.0077 -0.5827
 7381SOL    HW133605   0.748   0.703  14.490  0.2194  0.7165  2.4603
 7381SOL    HW233606   0.814   0.821  14.539  0.7990 -0.7747 -1.2626
 7382SOL     OW33607   0.737   0.637  17.073  0.3846 -0.6253  0.0065
 7382SOL    HW133608   0.682   0.559  17.073  1.7862 -1.5966  2.5708
 7382SOL    HW233609   0.817   0.606  17.030 -0.5170 -2.9231  0.0378
 7383SOL     OW33610   1.756   0.667  11.978 -0.0036 -0.1928  0.0570
 7383SOL    HW133611   1.730   0.694  11.890  0.0356 -0.3124  0.0086
 7383SOL    HW233612   1.767   0.752  12.021 -2.3344  0.4869 -0.7032
 7384SOL     OW33613   0.306   1.238   0.139  0.6077 -0.1531 -0.1971
 7384SOL    HW133614   0.321   1.292   0.061 -1.6685  1.7440  0.6719
 7384SOL    HW233615   0.385   1.260   0.188  0.2811  0.5520  0.0107
 7385SOL     OW33616   1.152   4.347   2.556 -0.4403 -0.3214  0.1096
 7385SOL    HW133617   1.136   4.407   2.483 -1.0647  0.6075  1.0290
 7385SOL    HW233618   1.248   4.344   2.561 -0.4752 -0.8712  0.4323
 7386SOL     OW33619   4.219   2.243  13.270 -0.0289  0.7020  0.4164
 7386SOL    HW133620   4.182   2.157  13.290  0.5859  0.2245 -0.5335
 7386SOL    HW233621   4.293   2.245  13.331 -0.4171  1.0353  0.8788
 7387SOL     OW33622   1.496   1.788   3.884  0.1986  0.3920  0.3283
 7387SOL    HW133623   1.432   1.717   3.887 -0.3750  0.9891  2.4748
 7387SOL    HW233624   1.573   1.732   3.880 -0.2496 -0.1479 -0.8719
 7388SOL     OW33625   1.048   0.757  15.533  0.6508 -0.4295 -0.3787
 7388SOL    HW133626   1.006   0.840  15.510  0.5398 -0.4919 -0.4004
 7388SOL    HW233627   1.141   0.776  15.520  1.2824 -0.8407  3.4991
 7389SOL     OW33628   2.218   3.186  12.824  0.1231 -0.4634 -0.3100
 7389SOL    HW133629   2.141   3.237  12.797  0.2226  1.2719  2.7143
 7389SOL    HW233630   2.238   3.139  12.744  1.0160 -0.3690 -0.1417
 7390SOL     OW33631   1.594   3.969   8.818 -0.2350  0.4298  0.0014
 7390SOL    HW133632   1.581   3.927   8.903 -0.0524 -1.4791 -0.9026
 7390SOL    HW233633   1.521   4.031   8.811 -1.0957 -0.8099 -2.1190
 7391SOL     OW33634   0.242   1.007  17.495 -0.0619  0.0897  0.3844
 7391SOL    HW133635   0.273   1.030  17.407  1.3500  3.0871  1.6346
 7391SOL    HW233636   0.185   0.936  17.467  0.8532 -1.0971  1.4907
 7392SOL     OW33637   1.523   4.621  15.886  0.5796  0.0935 -0.0014
 7392SOL    HW133638   1.458   4.674  15.933 -1.2974 -0.5971 -1.8025
 7392SOL    HW233639   1.520   4.658  15.798  2.3010 -0.6007 -0.3546
 7393SOL     OW33640   3.005   4.648   6.077  0.1021 -0.2235 -0.0255
 7393SOL    HW133641   2.945   4.707   6.123  0.1536  0.4162 -0.7684
 7393SOL    HW233642   3.031   4.708   6.007 -2.8069  0.3365 -0.6304
 7394SOL     OW33643   0.400   3.540   5.978 -0.3993  0.3073  0.4925
 7394SOL    HW133644   0.383   3.616   5.923  2.4884 -1.6142 -3.0778
 7394SOL    HW233645   0.389   3.469   5.915  1.4717  0.9716 -0.5827
 7395SOL     OW33646   0.940   2.401   5.634 -0.4962  0.3970  0.6653
 7395SOL    HW133647   1.010   2.464   5.618 -0.2695 -0.6180 -2.3375
 7395SOL    HW233648   0.942   2.394   5.730 -3.1278  3.0504  0.9281
 7396SOL     OW33649   3.823   1.393  12.949 -0.3547  0.6722 -0.3758
 7396SOL    HW133650   3.739   1.357  12.920 -0.5764  0.4004  0.6359
 7396SOL    HW233651   3.811   1.418  13.040 -1.4246  1.8483 -0.8263
 7397SOL     OW33652   1.650   4.357   2.963 -0.2455 -0.4582 -0.3307
 7397SOL    HW133653   1.732   4.325   2.926  0.4063 -0.3386  1.0326
 7397SOL    HW233654   1.637   4.303   3.040  3.5865 -1.3326 -0.3271
 7398SOL     OW33655   3.234   2.107   3.043 -0.1933 -0.0426  0.2761
 7398SOL    HW133656   3.302   2.053   3.085 -0.9612 -0.8855  0.4390
 7398SOL    HW233657   3.189   2.136   3.122  0.4857  0.3124  0.5283
 7399SOL     OW33658   4.169   4.541   0.550 -0.6768 -0.3035  0.0360
 7399SOL    HW133659   4.141   4.598   0.478 -0.3951  0.0103  0.1758
 7399SOL    HW233660   4.235   4.598   0.589  1.0704 -2.8174  0.7385
 7400SOL     OW33661   1.394   1.529   7.106 -0.1725  0.3617  0.7852
 7400SOL    HW133662   1.369   1.438   7.093  1.4840 -0.1871  1.4701
 7400SOL    HW233663   1.304   1.563   7.111 -0.1558  0.1039  2.6105
 7401SOL     OW33664   2.434   1.923   6.197  0.1051  0.1177 -0.3512
 7401SOL    HW133665   2.347   1.937   6.234  0.9906  0.2075  1.6715
 7401SOL    HW233666   2.418   1.856   6.131 -0.8699 -1.8989  1.9527
 7402SOL     OW33667   0.682   0.674   1.688 -0.1254 -0.0450  0.2598
 7402SOL    HW133668   0.675   0.733   1.612  0.9775  0.2940  0.4235
 7402SOL    HW233669   0.732   0.727   1.750  2.2453 -2.6906  0.6051
 7403SOL     OW33670   3.924   4.715  15.306  0.2401 -0.4626 -0.3305
 7403SOL    HW133671   3.981   0.061  15.332 -0.4780 -0.1406  0.3582
 7403SOL    HW233672   3.861   0.047  15.263  0.8965  1.1775  0.8884
 7404SOL     OW33673   2.286   1.148  10.670  0.1588  0.5692  0.2221
 7404SOL    HW133674   2.289   1.079  10.737 -1.8554  1.3845  1.1585
 7404SOL    HW233675   2.363   1.197  10.696  0.2986  0.1964  0.5166
 7405SOL     OW33676   3.941   1.205   3.529 -0.1241 -0.0515 -0.2279
 7405SOL    HW133677   3.846   1.188   3.527 -0.1493 -0.2494  2.5512
 7405SOL    HW233678   3.940   1.295   3.559 -1.4433  0.3710 -1.4913
 7406SOL     OW33679   0.199   0.070   4.319  0.2214 -0.5171  0.7913
 7406SOL    HW133680   0.265   0.028   4.264 -0.4713 -0.2601 -0.2321
 7406SOL    HW233681   0.207   0.153   4.271 -0.3601 -0.0937  1.4189
 7407SOL     OW33682   0.118   1.544  16.897  0.4142 -0.0975  0.4235
 7407SOL    HW133683   0.063   1.475  16.936  0.2830 -1.2682 -1.8090
 7407SOL    HW233684   0.046   1.600  16.866 -0.6009 -0.4355  2.1552
 7408SOL     OW33685   0.430   4.635  10.590 -0.1695 -0.4503  0.2672
 7408SOL    HW133686   0.398   4.544  10.595 -1.8971  0.0178 -2.2351
 7408SOL    HW233687   0.390   4.666  10.671  0.4584 -1.7519  1.0736
 7409SOL     OW33688   2.375   2.505  12.083 -0.5273 -0.2034  0.4602
 7409SOL    HW133689   2.328   2.423  12.094 -0.3590 -0.2129  1.1513
 7409SOL    HW233690   2.328   2.571  12.134  0.5258 -0.1907  1.4287
 7410SOL     OW33691   0.429   3.391   4.767  0.5079 -0.2040 -0.1292
 7410SOL    HW133692   0.445   3.436   4.684 -1.1210  1.4224  0.4404
 7410SOL    HW233693   0.484   3.450   4.817 -0.4012  0.9843 -0.5348
 7411SOL     OW33694   4.266   4.451  17.261 -0.0246 -0.5050  0.5520
 7411SOL    HW133695   4.354   4.480  17.283  0.0977 -0.9600  0.6553
 7411SOL    HW233696   4.208   4.492  17.326  0.0199  0.5846 -0.0934
 7412SOL     OW33697   0.179   0.335   2.103 -0.8526 -0.0218 -0.0880
 7412SOL    HW133698   0.122   0.281   2.159  2.1198 -2.0992  0.9423
 7412SOL    HW233699   0.253   0.275   2.095 -2.1807 -1.6364 -0.4725
 7413SOL     OW33700   2.442   0.994  13.607  0.2109 -0.5304  0.4147
 7413SOL    HW133701   2.495   0.935  13.553  1.4422 -1.0750  2.2095
 7413SOL    HW233702   2.487   1.077  13.588 -0.8536  0.7004  3.2228
 7414SOL     OW33703   3.854   0.010   8.380 -0.1125  0.2401  0.2469
 7414SOL    HW133704   3.919   0.080   8.389 -2.2487  2.6346 -3.4757
 7414SOL    HW233705   3.895   4.682   8.312  1.6386  0.3423  1.2169
 7415SOL     OW33706   1.678   3.924  17.030 -0.4944  0.5577  0.2000
 7415SOL    HW133707   1.738   3.958  17.096 -2.0338 -0.4753  2.1053
 7415SOL    HW233708   1.615   3.880  17.087  0.1002  0.0030  0.4384
 7416SOL     OW33709   2.107   3.273  13.228  0.8823  0.1149  0.2064
 7416SOL    HW133710   2.162   3.284  13.306  0.8833 -1.5716  0.4329
 7416SOL    HW233711   2.166   3.212  13.183  0.6088 -0.1418  0.2037
 7417SOL     OW33712   1.411   3.426   8.649  0.3312  0.0467  0.2326
 7417SOL    HW133713   1.388   3.334   8.640  3.3800 -0.9957  3.1854
 7417SOL    HW233714   1.429   3.422   8.742 -0.7108 -0.7819  0.4027
 7418SOL     OW33715   3.432   1.716   5.711  0.3362 -0.0088  0.3858
 7418SOL    HW133716   3.487   1.705   5.789  0.4031  0.2507  0.3766
 7418SOL    HW233717   3.421   1.811   5.714  0.6917  0.0742 -0.9580
 7419SOL     OW33718   4.409   2.351   9.268  0.0981  0.3104 -0.2337
 7419SOL    HW133719   4.413   2.270   9.217  0.1101  0.5059 -0.5413
 7419SOL    HW233720   4.337   2.335   9.329  0.5518 -0.4171  0.1124
 7420SOL     OW33721   1.603   2.741   4.061 -0.0782 -0.3306  0.7547
 7420SOL    HW133722   1.611   2.751   3.966 -1.4231  1.8577  0.8599
 7420SOL    HW233723   1.567   2.653   4.072 -0.8512 -0.3997 -2.1786
 7421SOL     OW33724   2.633   3.814   7.848  0.0572  0.0225 -0.0486
 7421SOL    HW133725   2.686   3.833   7.925 -0.0269  0.4552 -0.0963
 7421SOL    HW233726   2.559   3.781   7.899  0.2196 -1.3308 -0.6938
 7422SOL     OW33727   1.551   3.526   9.812 -0.9650  0.6575  0.5228
 7422SOL    HW133728   1.559   3.618   9.839 -3.4040  0.6409  1.3206
 7422SOL    HW233729   1.590   3.479   9.886  0.1713  2.4751  1.0823
 7423SOL     OW33730   0.778   0.310  14.795  0.4182 -0.2689 -0.4873
 7423SOL    HW133731   0.705   0.276  14.847  1.7535 -3.6825 -0.8235
 7423SOL    HW233732   0.853   0.275  14.843 -1.5796 -2.7180  0.8402
 7424SOL     OW33733   1.717   2.984  15.716 -0.2217  0.2748  0.0675
 7424SOL    HW133734   1.637   3.021  15.755  0.1870 -2.1292  3.2246
 7424SOL    HW233735   1.752   2.927  15.785 -2.9483 -1.9408 -0.3907
 7425SOL     OW33736   4.663   0.569   3.822 -0.2843  0.2596  0.2726
 7425SOL    HW133737   4.612   0.605   3.750  0.3163  0.2826 -0.1397
 7425SOL    HW233738   0.013   0.626   3.834 -0.4243  0.8399 -1.6378
 7426SOL     OW33739   2.475   1.427   9.075  0.0330 -0.1446  0.1329
 7426SOL    HW133740   2.555   1.456   9.120 -0.5740  1.1896  0.3314
 7426SOL    HW233741   2.494   1.483   9.000  0.0269  0.4715  0.5939
 7427SOL     OW33742   4.218   0.795   6.971  0.5975  0.1776  0.6600
 7427SOL    HW133743   4.211   0.888   6.949  0.0893  0.0466  0.2490
 7427SOL    HW233744   4.267   0.791   7.053  1.4204 -0.0958  0.1604
 7428SOL     OW33745   2.488   3.497  11.328  0.2754 -0.2183 -0.0267
 7428SOL    HW133746   2.397   3.468  11.315 -0.0847  0.8572  0.0588
 7428SOL    HW233747   2.477   3.504  11.423 -0.2655  2.1236 -0.2657
 7429SOL     OW33748   1.182   0.468   1.473  0.4215  0.6219 -0.0943
 7429SOL    HW133749   1.149   0.469   1.383 -2.6426 -3.0135  0.9783
 7429SOL    HW233750   1.147   0.551   1.504 -0.9208  0.0175 -0.0143
 7430SOL     OW33751   1.046   2.774  12.982 -0.4024 -0.3573  0.0193
 7430SOL    HW133752   1.118   2.713  12.996  1.2426  1.5737 -0.0510
 7430SOL    HW233753   1.005   2.750  12.898 -1.3626  3.5973 -0.6155
 7431SOL     OW33754   0.291   1.255   8.173 -0.4406  0.0398  0.3287
 7431SOL    HW133755   0.313   1.168   8.205 -2.2666 -0.4493  0.2541
 7431SOL    HW233756   0.196   1.251   8.188 -0.6064  1.5403 -0.2427
 7432SOL     OW33757   1.122   1.284  15.047 -0.1683 -0.0182 -0.2597
 7432SOL    HW133758   1.210   1.263  15.077 -0.9449 -1.5404  0.9807
 7432SOL    HW233759   1.128   1.272  14.952 -0.9314  1.6084 -0.5205
 7433SOL     OW33760   1.835   0.805   5.783  0.0002 -0.1283 -0.2833
 7433SOL    HW133761   1.757   0.772   5.827  0.2856 -0.4333 -0.0065
 7433SOL    HW233762   1.800   0.858   5.711 -0.9032  0.1587  0.3631
 7434SOL     OW33763   0.801   1.646   4.540 -0.0226 -0.0676  0.0692
 7434SOL    HW133764   0.746   1.707   4.590  0.3625 -0.1178  0.5519
 7434SOL    HW233765   0.741   1.575   4.519 -1.0989  1.6823 -2.8894
 7435SOL     OW33766   1.868   3.091   8.497  0.1387 -0.2698  0.0124
 7435SOL    HW133767   1.862   3.011   8.549 -1.7634  0.7179  1.3180
 7435SOL    HW233768   1.817   3.144   8.558  0.3537 -1.0438  0.8840
 7436SOL     OW33769   0.415   0.569   1.851 -0.4614 -0.5011 -0.1452
 7436SOL    HW133770   0.487   0.578   1.789 -0.0431 -0.6126  0.3224
 7436SOL    HW233771   0.460   0.529   1.925  0.5827 -3.7882 -2.5544
 7437SOL     OW33772   3.985   0.928  12.679  0.1435 -0.1437 -0.1718
 7437SOL    HW133773   4.007   0.856  12.738  0.1227 -0.3888 -0.4599
 7437SOL    HW233774   3.889   0.924  12.677  0.2528 -2.4624 -0.4868
 7438SOL     OW33775   0.901   2.379  12.147 -0.1536  0.3646  0.1638
 7438SOL    HW133776   0.995   2.376  12.127 -0.0897  2.7050  0.1981
 7438SOL    HW233777   0.887   2.285  12.162  0.1654  0.0020 -1.7377
 7439SOL     OW33778   1.206   0.237  17.630  0.1728 -0.0969 -0.5830
 7439SOL    HW133779   1.122   0.217  17.671  0.2260 -0.2267 -0.5386
 7439SOL    HW233780   1.204   0.333  17.628  0.4181 -0.0674  0.5096
 7440SOL     OW33781   3.893   3.006   6.999 -0.7483  0.1386 -0.3813
 7440SOL    HW133782   3.855   2.947   7.065  0.3437  0.8333  0.8667
 7440SOL    HW233783   3.818   3.032   6.945  0.1522 -2.4868 -2.9167
 7441SOL     OW33784   0.359   3.875  14.031 -0.0288  0.3601 -0.0574
 7441SOL    HW133785   0.405   3.806  13.983  2.5680  3.4244 -1.9993
 7441SOL    HW233786   0.415   3.953  14.028  2.0745 -1.1034  1.1480
 7442SOL     OW33787   4.602   4.422  11.465 -0.0503  0.1814 -0.0159
 7442SOL    HW133788   4.522   4.383  11.430 -0.0473 -1.3834  1.7202
 7442SOL    HW233789   4.671   4.367  11.427  1.1790 -0.4211  3.1032
 7443SOL     OW33790   2.533   0.579   8.712  0.2111 -0.2555 -0.2874
 7443SOL    HW133791   2.600   0.527   8.667  1.5377 -1.1928  2.7791
 7443SOL    HW233792   2.462   0.516   8.708 -0.6749  0.7423 -0.3493
 7444SOL     OW33793   0.549   2.410   3.396  0.0609 -0.6298  0.1899
 7444SOL    HW133794   0.465   2.372   3.370 -0.0521 -0.4763  0.3284
 7444SOL    HW233795   0.548   2.435   3.489  0.1480 -1.5568  0.4412
 7445SOL     OW33796   3.605   2.935   6.556  0.0047  0.1365  0.0750
 7445SOL    HW133797   3.510   2.927   6.552  0.1713 -1.7457  0.0282
 7445SOL    HW233798   3.627   2.845   6.577 -1.5080 -0.3395 -0.3495
 7446SOL     OW33799   2.595   3.795   6.361  0.5575  0.1334 -0.0584
 7446SOL    HW133800   2.628   3.705   6.372  3.2394  1.2475  1.1887
 7446SOL    HW233801   2.656   3.845   6.416  0.8466  0.2828 -0.5079
 7447SOL     OW33802   4.686   3.641  16.564  0.5868 -0.5903  0.1922
 7447SOL    HW133803   4.670   3.591  16.644  1.2543  1.0911  1.3708
 7447SOL    HW233804   0.016   3.582  16.513 -0.9178 -0.4612 -1.5883
 7448SOL     OW33805   2.350   2.068  11.987 -0.4107 -0.6625 -0.5970
 7448SOL    HW133806   2.360   1.973  11.989  1.9006 -0.4194 -0.6393
 7448SOL    HW233807   2.431   2.093  11.943  0.8480 -0.5901  1.7398
 7449SOL     OW33808   2.666   1.688   2.828  0.5729  0.3950  0.1265
 7449SOL    HW133809   2.695   1.732   2.748 -0.8600  2.9527  1.0323
 7449SOL    HW233810   2.580   1.729   2.837  0.4994  0.4985 -1.0296
 7450SOL     OW33811   3.442   3.479   5.450 -0.3499 -0.0629  0.0817
 7450SOL    HW133812   3.348   3.465   5.437 -0.2452 -0.2485 -0.4684
 7450SOL    HW233813   3.480   3.511   5.368  0.0433  1.6064  0.9200
 7451SOL     OW33814   1.288   1.172   7.428 -0.1926 -0.1725  0.2650
 7451SOL    HW133815   1.354   1.123   7.380 -0.8225  0.1106 -0.8887
 7451SOL    HW233816   1.284   1.116   7.506 -0.3929 -1.0087 -0.3437
 7452SOL     OW33817   4.230   2.146   7.633  0.5745  0.1561 -0.3143
 7452SOL    HW133818   4.285   2.081   7.589 -0.0995 -2.0971  2.1622
 7452SOL    HW233819   4.153   2.097   7.663 -0.1826  0.2016 -2.1714
 7453SOL     OW33820   2.416   2.329   5.479  0.2922  0.5117  0.0085
 7453SOL    HW133821   2.375   2.301   5.398 -1.3037  0.1149  0.9539
 7453SOL    HW233822   2.344   2.317   5.541  2.6549 -1.1034  2.4671
 7454SOL     OW33823   0.716   2.093   3.559  0.3421  0.2316 -0.5016
 7454SOL    HW133824   0.769   2.159   3.517 -0.5222  1.2532  0.0030
 7454SOL    HW233825   0.729   2.016   3.504  0.6936  0.5817 -0.8972
 7455SOL     OW33826   0.500   4.233   3.263 -0.4112 -0.3124  0.4530
 7455SOL    HW133827   0.546   4.220   3.346 -1.2463  2.0491  1.2661
 7455SOL    HW233828   0.538   4.159   3.215  2.1258  0.3300  1.4760
 7456SOL     OW33829   1.903   2.773   8.513 -0.7821  0.5118 -0.0645
 7456SOL    HW133830   1.841   2.801   8.445  0.5362 -0.8806 -1.8211
 7456SOL    HW233831   1.851   2.699   8.543 -1.5697  1.2266  0.3409
 7457SOL     OW33832   3.163   2.997   1.655  0.1032  0.4360  0.2076
 7457SOL    HW133833   3.157   2.932   1.585  0.1687  1.8859 -1.1141
 7457SOL    HW233834   3.244   2.972   1.699 -1.2536 -2.0653  1.3579
 7458SOL     OW33835   0.545   3.740   6.798  0.1316  0.1796  0.4588
 7458SOL    HW133836   0.468   3.743   6.855 -0.4494 -2.3777 -0.2066
 7458SOL    HW233837   0.598   3.668   6.831  1.5535  0.2703 -1.6008
 7459SOL     OW33838   2.999   4.497   3.817 -0.3497 -0.1962  0.4369
 7459SOL    HW133839   2.920   4.447   3.833  0.2613 -0.7947  1.6378
 7459SOL    HW233840   2.991   4.552   3.896  0.4219 -0.2941  0.5837
 7460SOL     OW33841   1.684   2.119   3.931 -0.7623 -0.7654  0.1138
 7460SOL    HW133842   1.614   2.182   3.952  0.8561  2.5303 -4.3354
 7460SOL    HW233843   1.680   2.139   3.837  0.6154 -0.1143  0.1931
 7461SOL     OW33844   4.185   0.332  10.956 -0.2231  0.3215  0.3365
 7461SOL    HW133845   4.148   0.417  10.930  0.4194  0.8008  1.0004
 7461SOL    HW233846   4.265   0.369  10.994 -0.9749  4.1723 -1.6980
 7462SOL     OW33847   3.832   1.190   9.080 -0.3833  0.0149 -0.3378
 7462SOL    HW133848   3.822   1.117   9.018  0.6538 -0.3983 -0.0127
 7462SOL    HW233849   3.838   1.273   9.033 -0.6651  0.4629  0.4255
 7463SOL     OW33850   1.179   2.491   4.268  0.0709  0.7676  0.5529
 7463SOL    HW133851   1.148   2.424   4.207  3.0328  1.0166 -1.2437
 7463SOL    HW233852   1.252   2.529   4.220  1.0368 -0.0792  1.3487
 7464SOL     OW33853   3.883   1.361   5.969  0.5524  0.0962 -0.1443
 7464SOL    HW133854   3.855   1.270   5.960 -1.3626  0.7797 -1.1384
 7464SOL    HW233855   3.870   1.386   5.877  0.1000  1.6239  0.3340
 7465SOL     OW33856   3.217   2.291   9.691  0.1063  0.1898  0.0545
 7465SOL    HW133857   3.213   2.197   9.707  0.4514  0.4261  1.5332
 7465SOL    HW233858   3.293   2.307   9.747  0.1480 -0.0339  0.0623
 7466SOL     OW33859   4.448   1.513   0.772  0.1679  0.8479 -0.0893
 7466SOL    HW133860   4.453   1.547   0.861  2.4652 -0.6178  0.3376
 7466SOL    HW233861   4.476   1.594   0.730 -1.0433  2.3105  1.9305
 7467SOL     OW33862   3.667   0.860   3.481 -0.3233  0.2737  0.0092
 7467SOL    HW133863   3.710   0.859   3.396  0.4130  1.0958  0.3653
 7467SOL    HW233864   3.637   0.770   3.490  0.1969  0.2675  1.7692
 7468SOL     OW33865   2.996   1.177   6.584 -0.6495 -0.0010  0.0946
 7468SOL    HW133866   2.929   1.116   6.553 -0.1974  0.7191 -2.2777
 7468SOL    HW233867   2.942   1.247   6.620  1.5822  1.6354  0.2426
 7469SOL     OW33868   3.105   3.246   1.800 -0.2366  0.0948 -0.6754
 7469SOL    HW133869   3.149   3.187   1.862 -1.9531 -0.0401  0.4004
 7469SOL    HW233870   3.123   3.198   1.719 -0.2543  1.6923 -1.6225
 7470SOL     OW33871   3.423   3.133   7.315  0.1162 -0.7554 -0.6719
 7470SOL    HW133872   3.362   3.074   7.360 -0.1476 -0.7873 -1.0773
 7470SOL    HW233873   3.407   3.215   7.362  1.1599 -1.7877  1.5309
 7471SOL     OW33874   4.120   0.954  16.858  0.6181  0.1951  0.7351
 7471SOL    HW133875   4.184   1.018  16.827  0.7565 -1.6475 -2.7074
 7471SOL    HW233876   4.043   1.002  16.888  0.1777 -1.0542  1.5986
 7472SOL     OW33877   4.485   4.180   3.029 -0.9832  0.2412 -0.2901
 7472SOL    HW133878   4.406   4.230   3.007 -0.9656  1.9336  3.4402
 7472SOL    HW233879   4.439   4.096   3.023  2.1532 -1.4883  0.1430
 7473SOL     OW33880   0.602   3.731  11.714  0.8472 -0.0846  0.4705
 7473SOL    HW133881   0.574   3.815  11.677 -0.5105 -1.3920 -1.4861
 7473SOL    HW233882   0.696   3.737  11.701  0.4848  1.0869 -1.6396
 7474SOL     OW33883   0.817   0.252   6.369  0.2217 -0.2335  0.5290
 7474SOL    HW133884   0.788   0.294   6.288  0.4890  1.2843  1.2209
 7474SOL    HW233885   0.852   0.173   6.328  0.6870  0.2806 -0.0554
 7475SOL     OW33886   0.223   1.238  16.388  0.2797 -0.4040 -0.0388
 7475SOL    HW133887   0.230   1.265  16.479 -1.7799  1.4194 -0.4235
 7475SOL    HW233888   0.313   1.208  16.380  0.5644  0.2578  0.7458
 7476SOL     OW33889   1.868   0.158   6.034  0.2883  0.6853  0.2117
 7476SOL    HW133890   1.813   0.186   6.107  1.0093 -0.9056  1.3576
 7476SOL    HW233891   1.934   0.110   6.084  0.5899  0.4686 -0.3998
 7477SOL     OW33892   3.737   1.860   3.968 -0.1125  0.0366  0.5628
 7477SOL    HW133893   3.671   1.826   4.028  0.5954 -0.8675  0.8316
 7477SOL    HW233894   3.693   1.863   3.883 -0.0299  1.7444  0.5816
 7478SOL     OW33895   3.673   0.451   4.227 -0.3896  0.4664 -0.1528
 7478SOL    HW133896   3.629   0.471   4.144 -0.0923 -0.5796 -0.5626
 7478SOL    HW233897   3.766   0.463   4.207  0.2522 -1.1194  1.9049
 7479SOL     OW33898   2.347   2.706  16.624 -0.6036  0.7190  0.0554
 7479SOL    HW133899   2.319   2.615  16.633  0.6869  0.2438 -0.6116
 7479SOL    HW233900   2.325   2.732  16.713  0.7386 -1.2203  0.9572
 7480SOL     OW33901   1.762   4.260   1.063 -0.0994  0.0896  0.0893
 7480SOL    HW133902   1.746   4.246   0.970  1.5232 -0.9860 -0.0300
 7480SOL    HW233903   1.674   4.256   1.101  0.5353  3.0775  1.8976
 7481SOL     OW33904   1.719   2.341   2.471  0.3499  0.2604  0.6593
 7481SOL    HW133905   1.687   2.252   2.457 -1.7301  1.3401 -1.4991
 7481SOL    HW233906   1.643   2.388   2.508 -0.4367  1.6304 -2.6714
 7482SOL     OW33907   4.428   2.949  14.662  0.3626  0.1963 -0.2035
 7482SOL    HW133908   4.408   3.036  14.628 -0.0781 -0.6105 -2.0117
 7482SOL    HW233909   4.360   2.897  14.618  0.2759  0.8900 -0.8767
 7483SOL     OW33910   3.670   0.920   0.344 -0.0106 -0.0060 -0.0693
 7483SOL    HW133911   3.739   0.938   0.280 -0.5222  1.1281 -0.3141
 7483SOL    HW233912   3.621   1.001   0.328  1.0934  0.3343 -1.6870
 7484SOL     OW33913   1.679   3.441   2.436 -0.0319 -0.2534 -0.7818
 7484SOL    HW133914   1.751   3.494   2.401  0.1017 -1.9584 -3.0384
 7484SOL    HW233915   1.681   3.360   2.386  0.4686 -0.7316  0.0115
 7485SOL     OW33916   3.476   1.304   2.824  0.5601  0.1286  0.0234
 7485SOL    HW133917   3.500   1.336   2.911 -0.7930 -0.8752  0.7792
 7485SOL    HW233918   3.430   1.222   2.846 -1.6014  1.2013 -0.5002
 7486SOL     OW33919   4.597   4.200   1.971  0.4937 -0.2080 -0.6371
 7486SOL    HW133920   4.656   4.212   2.045  0.1955  2.6383 -0.8657
 7486SOL    HW233921   4.513   4.214   2.016 -0.0126  1.1629 -1.9879
 7487SOL     OW33922   3.256   4.117   7.917 -0.2168 -0.8535 -0.5015
 7487SOL    HW133923   3.270   4.199   7.871  0.4682  0.2618  1.6971
 7487SOL    HW233924   3.256   4.156   8.005  1.7512 -0.3380 -0.7324
 7488SOL     OW33925   3.107   1.653   8.474  0.2156  0.7371 -0.2626
 7488SOL    HW133926   3.040   1.625   8.536  0.3740  0.2401 -0.3166
 7488SOL    HW233927   3.086   1.746   8.484  0.4723  0.7272  0.3359
 7489SOL     OW33928   2.307   0.945   0.051 -0.0793  0.5479  0.5023
 7489SOL    HW133929   2.248   1.020   0.046  0.2189  0.7079 -0.4713
 7489SOL    HW233930   2.359   0.970   0.128  0.0067 -1.0026  0.9457
 7490SOL     OW33931   0.191   1.824   7.117 -0.3085 -0.4844 -0.2007
 7490SOL    HW133932   0.221   1.902   7.072 -1.8613 -0.1814 -0.7258
 7490SOL    HW233933   0.251   1.814   7.191  0.1196 -0.0548 -0.4915
 7491SOL     OW33934   2.139   0.556  14.972  0.3831  1.1218 -0.2486
 7491SOL    HW133935   2.203   0.490  14.946 -0.7192 -1.0154  2.5025
 7491SOL    HW233936   2.158   0.571  15.064  2.0048 -0.6195 -0.3151
 7492SOL     OW33937   1.375   3.497   8.378  0.0793 -0.1018 -0.1500
 7492SOL    HW133938   1.377   3.503   8.474 -0.1680 -0.6049 -0.1178
 7492SOL    HW233939   1.284   3.480   8.358 -0.1383  0.9022 -0.0461
 7493SOL     OW33940   1.526   1.922  11.042 -0.4058 -0.4559  0.0680
 7493SOL    HW133941   1.540   1.916  10.947  1.4066 -0.4317  0.3222
 7493SOL    HW233942   1.578   1.848  11.073  1.1656  0.7228  0.2405
 7494SOL     OW33943   2.803   0.056  16.315 -0.0880 -0.2950 -0.0011
 7494SOL    HW133944   2.740   0.119  16.280  2.3630  1.5941 -0.9138
 7494SOL    HW233945   2.865   0.046  16.243 -0.6052 -0.7184 -0.3876
 7495SOL     OW33946   1.439   3.947   3.114 -0.2703 -0.1880  0.8892
 7495SOL    HW133947   1.361   3.907   3.075  0.1274  1.1703 -1.3194
 7495SOL    HW233948   1.515   3.920   3.063  0.2659 -3.3838  3.4379
 7496SOL     OW33949   4.309   0.790   7.781 -0.2403 -0.1727 -0.1538
 7496SOL    HW133950   4.316   0.736   7.702  0.4089  0.9942 -0.8861
 7496SOL    HW233951   4.213   0.790   7.789 -0.2353  0.1092 -0.1157
 7497SOL     OW33952   3.395   0.677  12.139  0.1659 -0.1858 -0.3300
 7497SOL    HW133953   3.440   0.667  12.055 -0.6585 -0.8028 -0.7117
 7497SOL    HW233954   3.312   0.718  12.112  1.1331  2.4070  0.6512
 7498SOL     OW33955   1.305   4.067   3.936 -0.1288  0.0155  0.2165
 7498SOL    HW133956   1.255   4.019   3.870 -0.4723  2.8473 -1.5422
 7498SOL    HW233957   1.313   4.000   4.004  1.2594 -0.7811 -0.7252
 7499SOL     OW33958   0.429   3.428   7.114 -0.7625  0.0003  0.1289
 7499SOL    HW133959   0.334   3.434   7.114 -0.8903 -1.9417  2.0568
 7499SOL    HW233960   0.454   3.453   7.025 -0.9505 -0.1415  0.0377
 7500SOL     OW33961   4.552   2.573   2.307 -0.0207  0.0121  0.1642
 7500SOL    HW133962   4.510   2.557   2.223 -1.4915  4.1960  0.1122
 7500SOL    HW233963   4.518   2.495   2.350  2.2008 -2.3422 -2.3443
 7501SOL     OW33964   4.148   1.663   7.085  0.4450  0.2506  0.1722
 7501SOL    HW133965   4.148   1.569   7.068  0.3113  0.2795  0.0106
 7501SOL    HW233966   4.142   1.697   6.996  0.2333 -0.8396 -0.2330
 7502SOL     OW33967   2.244   1.745   1.524  0.5230  0.1763  0.5423
 7502SOL    HW133968   2.202   1.664   1.496  1.0790  0.1229 -0.1186
 7502SOL    HW233969   2.171   1.808   1.523 -0.7179 -1.2816 -0.5600
 7503SOL     OW33970   1.160   0.590   6.317  0.3625  0.3781 -0.2233
 7503SOL    HW133971   1.157   0.627   6.229  0.1722  0.8234 -0.0269
 7503SOL    HW233972   1.108   0.510   6.311  1.9058 -0.7338  0.9159
 7504SOL     OW33973   3.078   2.345  11.892 -0.4531  0.4099 -0.3360
 7504SOL    HW133974   3.075   2.432  11.853 -2.4157  0.2783 -0.4920
 7504SOL    HW233975   3.082   2.288  11.815 -0.9378  1.8593 -1.4347
 7505SOL     OW33976   1.113   1.905   9.928 -0.2023 -0.2834  0.3395
 7505SOL    HW133977   1.038   1.938   9.977  0.5307  0.8719  0.6930
 7505SOL    HW233978   1.128   1.816   9.960 -0.0752 -0.2183  0.4666
 7506SOL     OW33979   4.612   3.973   9.432 -0.1031 -0.3503 -0.3220
 7506SOL    HW133980   4.591   4.038   9.365  0.0933 -2.0284 -2.0167
 7506SOL    HW233981   4.674   4.022   9.485 -0.2312 -0.9414  0.3696
 7507SOL     OW33982   0.327   0.659  12.621 -0.2958 -0.1685 -0.0995
 7507SOL    HW133983   0.237   0.692  12.615  0.0793  0.4994 -1.7782
 7507SOL    HW233984   0.305   0.586  12.679  0.1897 -0.4827 -0.3063
 7508SOL     OW33985   3.473   0.358  16.697 -0.6043 -0.5701 -0.1373
 7508SOL    HW133986   3.559   0.332  16.666 -0.6086  0.9694 -1.4354
 7508SOL    HW233987   3.492   0.440  16.744  1.6526 -0.9075 -0.4728
 7509SOL     OW33988   2.056   0.126  15.851  0.2886  0.0646  0.0745
 7509SOL    HW133989   1.990   0.134  15.781  0.8790  0.5532 -0.4186
 7509SOL    HW233990   2.015   0.053  15.898  1.6394 -0.9144 -0.2576
 7510SOL     OW33991   0.916   0.590   9.217 -0.1604 -0.1100 -0.4187
 7510SOL    HW133992   0.932   0.618   9.127 -0.4945 -0.4254 -0.5806
 7510SOL    HW233993   0.944   0.498   9.216 -2.1280 -0.7202  0.0721
 7511SOL     OW33994   0.591   0.382  11.910  0.1498  0.5542  0.2402
 7511SOL    HW133995   0.577   0.474  11.885 -1.5510  0.0576 -0.6631
 7511SOL    HW233996   0.505   0.344  11.891 -1.0775  2.1257  2.7462
 7512SOL     OW33997   0.612   2.474  10.624  0.0660 -0.0240 -0.1110
 7512SOL    HW133998   0.653   2.545  10.673  0.9215 -1.9460  1.9363
 7512SOL    HW233999   0.557   2.528  10.566  2.4449 -0.0403 -2.3958
 7513SOL     OW34000   0.999   2.261   2.878 -0.0748  0.3637 -0.2967
 7513SOL    HW134001   0.957   2.291   2.797 -2.0495  0.0078  0.5873
 7513SOL    HW234002   1.049   2.190   2.838  1.1074 -0.3666  2.4647
 7514SOL     OW34003   0.527   2.659   7.938 -0.4668 -0.0702 -0.3650
 7514SOL    HW134004   0.533   2.616   7.853  2.5344  0.6799 -0.5358
 7514SOL    HW234005   0.593   2.728   7.935  0.9412 -1.4415 -1.5179
 7515SOL     OW34006   3.490   4.192   5.464 -0.1793  0.2109 -0.1946
 7515SOL    HW134007   3.560   4.253   5.440  1.5438 -1.2798  1.0487
 7515SOL    HW234008   3.428   4.208   5.393 -0.5628  1.2023  0.3747
 7516SOL     OW34009   4.690   0.886   9.784 -0.8658  0.0019  0.1848
 7516SOL    HW134010   4.685   0.791   9.769  2.0658 -0.2015  0.5616
 7516SOL    HW234011   0.038   0.886   9.845  0.4383 -0.7972 -1.3796
 7517SOL     OW34012   0.592   1.463   4.482  0.3784 -0.0031 -0.6634
 7517SOL    HW134013   0.498   1.474   4.475  0.1958 -1.2031  0.0257
 7517SOL    HW234014   0.593   1.432   4.572  2.4084 -0.1144 -0.7048
 7518SOL     OW34015   4.623   4.015   7.961  0.6573 -0.5155  0.1409
 7518SOL    HW134016   4.656   3.976   7.880  1.5014  2.4878 -0.9656
 7518SOL    HW234017   4.676   4.094   7.972  0.9384 -0.3079 -2.6171
 7519SOL     OW34018   1.004   1.071   4.019  0.2177  0.5745  0.2059
 7519SOL    HW134019   0.984   1.131   4.091  0.8652  0.1864  0.7053
 7519SOL    HW234020   1.076   1.016   4.050  0.6156  0.8379 -0.2564
 7520SOL     OW34021   4.132   2.670   9.657  0.3989  0.3805  0.1037
 7520SOL    HW134022   4.125   2.609   9.730 -1.1745  0.2856 -0.1286
 7520SOL    HW234023   4.224   2.696   9.665 -0.0902  2.3361 -0.5247
 7521SOL     OW34024   3.283   3.076   5.321  0.4772 -0.4082 -0.0707
 7521SOL    HW134025   3.357   3.090   5.380 -0.7540  0.6428  1.1916
 7521SOL    HW234026   3.312   3.136   5.253  3.9296 -0.4552  1.3808
 7522SOL     OW34027   0.590   0.121  14.832  0.5313 -0.3064 -0.1706
 7522SOL    HW134028   0.586   0.089  14.922  0.1773 -2.4397 -0.9414
 7522SOL    HW234029   0.557   0.052  14.776 -2.7942  0.9847  0.2233
 7523SOL     OW34030   2.541   4.140   3.149 -0.1737 -0.3869 -0.0764
 7523SOL    HW134031   2.480   4.181   3.211  2.1462  3.3754 -0.3121
 7523SOL    HW234032   2.560   4.218   3.097  1.3147 -0.7762 -0.1268
 7524SOL     OW34033   2.212   1.310   3.196  0.2586  0.0637 -0.1106
 7524SOL    HW134034   2.133   1.363   3.197 -0.5641 -1.1683 -1.5278
 7524SOL    HW234035   2.178   1.222   3.186 -0.4452  0.1410  1.5739
 7525SOL     OW34036   0.397   3.346   6.661 -0.3476 -0.2096 -0.5001
 7525SOL    HW134037   0.420   3.284   6.731  2.6229  1.6457  0.1484
 7525SOL    HW234038   0.366   3.417   6.717 -1.0779 -1.8177  1.1521
 7526SOL     OW34039   4.669   4.709   4.225  0.2412 -0.5032  0.5987
 7526SOL    HW134040   0.030   4.723   4.264  0.8727  1.2476 -1.4302
 7526SOL    HW234041   4.678   4.646   4.153  1.8520 -0.0308  0.3887
 7527SOL     OW34042   0.354   0.302   7.119  0.1696 -0.2772 -0.0247
 7527SOL    HW134043   0.442   0.328   7.147  0.7951 -2.2520 -0.1296
 7527SOL    HW234044   0.360   0.208   7.102  0.8334 -0.5512  1.6801
 7528SOL     OW34045   3.423   2.409  14.058  0.2765 -0.0280 -0.5429
 7528SOL    HW134046   3.447   2.328  14.014  0.4751  0.5938 -1.5755
 7528SOL    HW234047   3.383   2.361  14.131 -0.6130 -0.0566 -1.0455
 7529SOL     OW34048   0.195   0.830   0.123  0.3293 -0.0534  0.3912
 7529SOL    HW134049   0.145   0.911   0.134  1.9696  0.6899  2.3471
 7529SOL    HW234050   0.122   0.770   0.135  0.0985 -0.5807 -3.7232
 7530SOL     OW34051   0.687   2.716  11.564  0.1633  0.1868 -0.6918
 7530SOL    HW134052   0.714   2.630  11.532  0.3579  0.1899 -0.5364
 7530SOL    HW234053   0.770   2.758  11.584 -0.3304  1.0283 -0.3931
 7531SOL     OW34054   1.379   0.517   5.072  0.2549  0.3952 -0.1526
 7531SOL    HW134055   1.336   0.525   4.987 -0.2828  0.1684  0.0988
 7531SOL    HW234056   1.346   0.438   5.113  1.7394 -0.0793  0.1423
 7532SOL     OW34057   2.982   4.407   5.951 -0.0755 -0.3179 -0.3429
 7532SOL    HW134058   2.996   4.496   5.982  2.0191 -0.8813  0.3666
 7532SOL    HW234059   3.021   4.413   5.864 -0.7662  0.0391 -0.6230
 7533SOL     OW34060   1.895   3.842   9.076 -0.5592  0.2516  0.1656
 7533SOL    HW134061   1.925   3.765   9.028 -1.1853 -0.5338  1.0332
 7533SOL    HW234062   1.813   3.805   9.110 -0.2264 -0.0995  0.5870
 7534SOL     OW34063   0.563   2.694   3.377 -0.3195  0.0217  0.3177
 7534SOL    HW134064   0.527   2.606   3.389  0.8990 -0.7863 -1.9740
 7534SOL    HW234065   0.658   2.679   3.375 -0.1393  1.1673  0.5356
 7535SOL     OW34066   4.659   1.931  15.802 -0.2567 -0.4385  0.3203
 7535SOL    HW134067   0.010   1.907  15.749 -2.3059  0.1542 -2.9105
 7535SOL    HW234068   4.706   1.980  15.869 -1.2049  1.9945 -0.8157
 7536SOL     OW34069   1.365   2.446   3.783 -0.2524  0.3833 -0.3498
 7536SOL    HW134070   1.323   2.362   3.765  2.0763 -0.5498 -1.6026
 7536SOL    HW234071   1.443   2.451   3.726  1.7745 -0.3350  2.3587
 7537SOL     OW34072   3.149   0.305   2.654 -0.0145 -0.0713  0.0622
 7537SOL    HW134073   3.147   0.212   2.630  1.4634 -0.4390  1.2741
 7537SOL    HW234074   3.110   0.290   2.740  1.5263  1.3372  1.0073
 7538SOL     OW34075   1.874   0.090   3.915  0.4896  0.2290 -0.4065
 7538SOL    HW134076   1.912   0.159   3.968  0.6258  1.6700 -2.4037
 7538SOL    HW234077   1.861   0.144   3.837 -1.5247 -2.1627 -1.7495
 7539SOL     OW34078   3.984   3.119   5.524  0.3055  0.4970 -0.3126
 7539SOL    HW134079   3.983   3.215   5.530 -1.6176  0.5296 -1.1497
 7539SOL    HW234080   4.077   3.101   5.531  0.7162  2.4321 -0.6291
 7540SOL     OW34081   2.617   4.497   7.072 -0.0069  0.0495  0.4594
 7540SOL    HW134082   2.598   4.420   7.018 -1.7455  0.0180  1.1203
 7540SOL    HW234083   2.536   4.499   7.122 -0.8733  0.7272 -0.9729
 7541SOL     OW34084   1.872   0.673   5.370  0.0907  0.2147 -0.2479
 7541SOL    HW134085   1.852   0.737   5.438 -1.9452 -1.5114  0.7711
 7541SOL    HW234086   1.784   0.685   5.335  0.3107 -2.0659 -1.6249
 7542SOL     OW34087   3.270   1.191   9.608 -0.3135  0.3906 -0.7878
 7542SOL    HW134088   3.347   1.146   9.643 -0.1459  1.7840  0.6777
 7542SOL    HW234089   3.220   1.204   9.689 -0.4422 -2.7786 -0.3730
 7543SOL     OW34090   2.106   2.441   3.124  0.4713 -0.3135 -0.3681
 7543SOL    HW134091   2.088   2.535   3.124 -0.8103 -0.5562  1.6014
 7543SOL    HW234092   2.057   2.424   3.044  0.6682 -0.1849 -0.5156
 7544SOL     OW34093   2.844   2.464   4.994  0.3296 -0.0403 -0.4635
 7544SOL    HW134094   2.772   2.451   5.056  0.0180 -2.1821 -1.2582
 7544SOL    HW234095   2.801   2.537   4.949  1.0447  1.6087  1.5444
 7545SOL     OW34096   0.471   2.010  17.012  0.9786 -0.1153 -0.1300
 7545SOL    HW134097   0.538   1.964  16.961  2.7259  0.6726  1.4662
 7545SOL    HW234098   0.499   2.100  16.995  1.3560 -0.3192 -0.6191
 7546SOL     OW34099   4.690   3.415   4.850  0.3317  0.5138 -0.4707
 7546SOL    HW134100   0.048   3.371   4.834  0.7875  1.0445  0.5070
 7546SOL    HW234101   4.629   3.345   4.873  2.4957 -0.9914  0.6853
 7547SOL     OW34102   0.589   4.570   8.213  0.2386 -0.0784 -0.3236
 7547SOL    HW134103   0.499   4.590   8.239 -0.0199 -1.4548 -0.1465
 7547SOL    HW234104   0.567   4.490   8.165  1.0505  0.0362 -0.8843
 7548SOL     OW34105   4.628   2.289   5.826 -0.8355 -0.8873 -0.0531
 7548SOL    HW134106   4.685   2.323   5.757  1.2466 -0.2024  2.0472
 7548SOL    HW234107   4.566   2.235   5.776 -1.5658 -1.2749  1.2852
 7549SOL     OW34108   1.784   4.070   1.528  0.0898  0.4044  0.3337
 7549SOL    HW134109   1.727   4.036   1.460 -0.1839  2.7904 -0.6279
 7549SOL    HW234110   1.852   4.107   1.472  0.4255  1.5275  1.4761
 7550SOL     OW34111   1.957   0.281   9.120 -0.1964 -0.7140  0.0182
 7550SOL    HW134112   1.911   0.198   9.132 -1.3963 -0.1927 -0.9100
 7550SOL    HW234113   1.929   0.336   9.193  2.4729 -1.2757  1.4705
 7551SOL     OW34114   3.208   2.502  13.372 -0.0157 -0.0769 -0.4604
 7551SOL    HW134115   3.195   2.579  13.427  1.7315  0.4585 -0.8142
 7551SOL    HW234116   3.288   2.463  13.405  0.2528 -2.0975 -3.5441
 7552SOL     OW34117   0.825   0.723   4.225  0.0908 -0.0911  0.2815
 7552SOL    HW134118   0.817   0.643   4.275  0.5949  2.1017  3.8508
 7552SOL    HW234119   0.818   0.787   4.296 -2.3278  1.0076 -0.9460
 7553SOL     OW34120   4.139   2.676   8.928  0.1516  0.1939 -0.1107
 7553SOL    HW134121   4.096   2.602   8.887  0.6467 -1.6871  2.7877
 7553SOL    HW234122   4.064   2.725   8.962 -0.5393 -1.0622  0.1510
 7554SOL     OW34123   2.798   3.694  12.121  0.3286 -0.0020 -0.0365
 7554SOL    HW134124   2.781   3.724  12.032  1.2264  2.3138  0.5656
 7554SOL    HW234125   2.734   3.625  12.139 -0.9744  1.2549  0.2079
 7555SOL     OW34126   0.270   1.354  17.598  0.1749  0.2793 -0.2394
 7555SOL    HW134127   0.248   1.395  17.514 -0.1012  1.9566  0.6706
 7555SOL    HW234128   0.339   1.292  17.573  0.2728  0.9554 -1.7058
 7556SOL     OW34129   3.276   1.192  17.249 -0.5532  0.2773 -0.9162
 7556SOL    HW134130   3.295   1.176  17.341 -4.1038 -0.9060 -0.3980
 7556SOL    HW234131   3.181   1.185  17.247 -0.5922  0.6002  0.3068
 7557SOL     OW34132   0.566   4.039   2.114 -0.3065  0.4233 -0.1968
 7557SOL    HW134133   0.651   4.081   2.132  0.6334 -1.9220  0.7838
 7557SOL    HW234134   0.562   3.975   2.185  1.5531  0.5812  0.0607
 7558SOL     OW34135   4.446   0.049   5.730  0.1057  0.6298  0.6953
 7558SOL    HW134136   4.510   0.099   5.680 -1.3696 -0.6588 -2.4377
 7558SOL    HW234137   4.460   0.097   5.812 -3.3736  1.3684  0.8291
 7559SOL     OW34138   0.279   1.124   2.786 -0.0716 -0.2412 -0.5846
 7559SOL    HW134139   0.323   1.203   2.817 -0.1213 -0.6982  0.6472
 7559SOL    HW234140   0.201   1.128   2.842  1.0027 -0.9970  0.9758
 7560SOL     OW34141   1.673   2.235   9.266 -0.2432 -0.0706  1.0323
 7560SOL    HW134142   1.661   2.152   9.312 -0.7708 -1.2001 -1.1647
 7560SOL    HW234143   1.751   2.254   9.319  1.2613 -1.1656 -0.8282
 7561SOL     OW34144   0.177   3.319   9.544  0.2043  0.3850  0.4153
 7561SOL    HW134145   0.176   3.368   9.461  2.8988  1.0555  0.7787
 7561SOL    HW234146   0.268   3.338   9.564  0.9488 -1.0646 -1.5470
 7562SOL     OW34147   1.170   1.480   2.021 -0.0333 -0.1326  0.4233
 7562SOL    HW134148   1.249   1.522   1.986 -0.6039 -1.5766 -2.5977
 7562SOL    HW234149   1.192   1.481   2.115  0.4919 -2.7477  0.3284
 7563SOL     OW34150   0.315   1.652   3.437  0.0621 -0.3540  0.5436
 7563SOL    HW134151   0.331   1.655   3.342 -1.4301 -0.5058  0.2966
 7563SOL    HW234152   0.265   1.571   3.432 -2.1999  1.1309 -0.8795
 7564SOL     OW34153   2.530   2.685   9.172  0.4126  0.1092  0.3834
 7564SOL    HW134154   2.607   2.680   9.228  3.0817  0.6389 -3.2218
 7564SOL    HW234155   2.519   2.590   9.165  1.3168 -0.1198  2.0357
 7565SOL     OW34156   2.453   3.492   6.463  0.6109  0.2884  0.4936
 7565SOL    HW134157   2.486   3.536   6.541 -2.6260  2.7306  0.4656
 7565SOL    HW234158   2.530   3.487   6.407  0.6026  1.4305  0.3908
 7566SOL     OW34159   2.562   3.228   6.239 -0.1958  0.3329 -0.1069
 7566SOL    HW134160   2.488   3.196   6.291  0.5611 -0.0738  0.7209
 7566SOL    HW234161   2.530   3.241   6.149 -1.1573 -2.3957 -0.1729
 7567SOL     OW34162   3.339   3.871  12.262 -0.4671  0.7736  0.0383
 7567SOL    HW134163   3.281   3.881  12.186 -0.9817 -0.6169  0.2501
 7567SOL    HW234164   3.427   3.885  12.227 -0.8806  0.2736 -1.2000
 7568SOL     OW34165   1.690   4.099   3.884  0.3696  0.1153 -0.2028
 7568SOL    HW134166   1.668   4.040   3.956 -1.9531  1.0123 -0.1907
 7568SOL    HW234167   1.631   4.172   3.904  0.8673  0.8838 -1.5407
 7569SOL     OW34168   3.695   3.817   3.916  0.1341 -0.7060  0.1012
 7569SOL    HW134169   3.713   3.781   4.003 -1.0298 -0.3440  0.4911
 7569SOL    HW234170   3.762   3.884   3.908 -0.0095 -0.6208 -0.3911
 7570SOL     OW34171   0.467   1.872   5.306 -0.0610 -0.3274  0.6140
 7570SOL    HW134172   0.439   1.963   5.296 -0.0784 -0.3616  0.3596
 7570SOL    HW234173   0.552   1.882   5.264  0.3669 -0.3841  1.4671
 7571SOL     OW34174   0.424   1.930   6.464  0.0586 -0.1075  0.0386
 7571SOL    HW134175   0.353   1.866   6.470 -0.1309  0.0499 -0.5786
 7571SOL    HW234176   0.421   1.975   6.549  1.1469 -0.6006  0.3372
 7572SOL     OW34177   0.556   1.531   2.326 -0.7741  0.1904  0.1368
 7572SOL    HW134178   0.468   1.567   2.326 -1.9140 -2.5913 -1.9186
 7572SOL    HW234179   0.531   1.453   2.277  1.5192 -2.7425  3.5628
 7573SOL     OW34180   3.859   4.309  12.112 -0.4356 -0.0747 -0.0506
 7573SOL    HW134181   3.795   4.270  12.053  0.6255 -2.9375  0.6883
 7573SOL    HW234182   3.939   4.312  12.059  0.6857 -2.6115  1.4814
 7574SOL     OW34183   0.448   3.221   6.269 -0.3283  0.0449 -0.3350
 7574SOL    HW134184   0.398   3.279   6.212 -0.8649  1.0697  1.1657
 7574SOL    HW234185   0.444   3.139   6.220  1.4783 -0.6607  0.6663
 7575SOL     OW34186   3.058   2.527  16.365  0.5565 -0.4851 -0.0114
 7575SOL    HW134187   3.056   2.558  16.274 -2.6160 -0.3121  0.1243
 7575SOL    HW234188   2.970   2.493  16.381 -0.9767  2.8333 -1.5437
 7576SOL     OW34189   0.368   3.848  12.005  0.6563  0.0226 -0.6999
 7576SOL    HW134190   0.318   3.892  11.936 -1.6428  2.7691  2.6705
 7576SOL    HW234191   0.366   3.909  12.079  1.7338  0.8670 -1.3670
 7577SOL     OW34192   2.237   2.546   8.975  0.0770 -0.7716 -0.5804
 7577SOL    HW134193   2.320   2.515   9.011 -0.1059  1.1456  1.4706
 7577SOL    HW234194   2.187   2.576   9.051 -0.2168 -1.3672 -0.5354
 7578SOL     OW34195   0.034   1.444   1.447  0.1487  0.3677  0.4962
 7578SOL    HW134196   0.051   1.377   1.381  1.7817 -0.1947  1.4957
 7578SOL    HW234197   0.123   1.453   1.482  0.7439  2.1710 -1.4203
 7579SOL     OW34198   2.724   0.541   4.661  0.3314  0.2973 -0.3298
 7579SOL    HW134199   2.753   0.523   4.750 -0.3019  0.8441 -0.0123
 7579SOL    HW234200   2.811   0.566   4.630  0.0475  0.5387 -0.9243
 7580SOL     OW34201   3.719   0.371  15.004 -0.4026 -0.5494 -0.2443
 7580SOL    HW134202   3.798   0.423  14.992 -0.7773  0.1559  0.3524
 7580SOL    HW234203   3.738   0.294  14.949  2.4456 -0.4610  0.6152
 7581SOL     OW34204   0.831   1.268   4.130  0.2426 -0.5525 -0.3156
 7581SOL    HW134205   0.798   1.327   4.198  0.6142 -1.9121  1.0691
 7581SOL    HW234206   0.835   1.330   4.058  1.1229  0.5001  0.6352
 7582SOL     OW34207   4.190   2.677   2.014 -0.3560 -0.1765 -0.5025
 7582SOL    HW134208   4.276   2.640   1.996  0.3823  0.3924  1.8633
 7582SOL    HW234209   4.179   2.736   1.939  2.5030  1.0009  0.0007
 7583SOL     OW34210   0.685   0.749   2.218 -0.4229  0.2742 -0.0664
 7583SOL    HW134211   0.613   0.800   2.255  1.4591  1.7639  1.5651
 7583SOL    HW234212   0.753   0.764   2.283 -2.0586  2.8093  1.0387
 7584SOL     OW34213   3.912   0.128  14.509  0.1794  0.2497  0.5837
 7584SOL    HW134214   3.893   0.221  14.491  0.2814  0.1898  0.1701
 7584SOL    HW234215   3.833   0.094  14.467  0.9231 -0.7052 -0.0318
 7585SOL     OW34216   3.102   3.690   4.111 -1.1644 -0.2506  0.1868
 7585SOL    HW134217   3.147   3.616   4.069 -0.3350  0.6165 -0.4370
 7585SOL    HW234218   3.108   3.655   4.200 -0.7921 -1.4086 -0.2912
 7586SOL     OW34219   0.521   2.239   6.455  0.1506 -0.0153 -0.3743
 7586SOL    HW134220   0.586   2.207   6.393  2.0609  3.1874 -0.0020
 7586SOL    HW234221   0.496   2.159   6.501 -0.3971 -0.6118 -1.7062
 7587SOL     OW34222   1.901   2.445   3.304 -0.2225  0.0029 -0.4061
 7587SOL    HW134223   1.922   2.531   3.341 -0.8337  0.1016 -0.2804
 7587SOL    HW234224   1.978   2.428   3.250  0.4450  2.1103 -0.1067
 7588SOL     OW34225   3.927   4.494   5.080 -0.0929  0.7097  0.2666
 7588SOL    HW134226   3.876   4.464   5.005  0.6537 -0.3742  0.1944
 7588SOL    HW234227   4.002   4.527   5.030  0.7202 -0.1111  0.9473
 7589SOL     OW34228   3.802   0.945   7.139 -0.4708 -0.3705 -0.2942
 7589SOL    HW134229   3.799   1.014   7.205  0.3990 -0.2018 -0.4266
 7589SOL    HW234230   3.748   0.969   7.063 -0.1829 -0.6731 -0.5935
 7590SOL     OW34231   4.503   0.787  12.156 -0.2757  0.1634 -0.0346
 7590SOL    HW134232   4.468   0.760  12.241 -2.8118  1.2164 -0.7387
 7590SOL    HW234233   4.503   0.881  12.171 -1.7759 -0.0239  1.1908
 7591SOL     OW34234   4.588   0.073   5.264  0.6866  0.2488 -0.2090
 7591SOL    HW134235   4.538   0.012   5.318 -0.3534  0.6193 -0.7571
 7591SOL    HW234236   4.665   0.071   5.321  0.9476  4.6255 -0.3743
 7592SOL     OW34237   3.682   3.490   6.799 -0.5588 -0.3994 -0.3248
 7592SOL    HW134238   3.643   3.409   6.832 -1.1802  0.8296  2.0047
 7592SOL    HW234239   3.608   3.540   6.765  0.3914  2.2149  1.4365
 7593SOL     OW34240   2.958   4.144   6.054 -0.1066  0.2343 -0.4079
 7593SOL    HW134241   2.982   4.231   6.022 -1.1604  1.2290  1.4721
 7593SOL    HW234242   2.896   4.177   6.119 -1.2531 -1.3049 -0.7131
 7594SOL     OW34243   2.507   4.427   6.796 -0.6203 -0.0106 -0.0320
 7594SOL    HW134244   2.549   4.493   6.742 -2.2360  0.4762 -0.7035
 7594SOL    HW234245   2.415   4.451   6.782 -0.8391 -2.2009 -2.5554
 7595SOL     OW34246   2.416   4.530   0.371  0.0465 -0.0481  0.0327
 7595SOL    HW134247   2.388   4.479   0.446  1.0503 -3.4976 -1.9579
 7595SOL    HW234248   2.493   4.580   0.399  0.1961 -0.1662 -0.1650
 7596SOL     OW34249   4.543   3.931  15.578 -0.5163  0.0562 -0.0083
 7596SOL    HW134250   4.494   4.014  15.580 -1.1462 -0.3850  2.1462
 7596SOL    HW234251   4.521   3.914  15.486 -0.4367  1.7018 -0.3444
 7597SOL     OW34252   2.480   2.444   6.756 -0.0964 -0.4673 -0.2700
 7597SOL    HW134253   2.459   2.350   6.761 -0.2123 -0.3271  1.7156
 7597SOL    HW234254   2.398   2.481   6.789 -1.2624 -3.1483 -0.0877
 7598SOL     OW34255   1.285   3.404  14.818  0.6953  0.3180 -0.2045
 7598SOL    HW134256   1.317   3.325  14.775  0.0271  0.7000 -1.3884
 7598SOL    HW234257   1.325   3.402  14.905  1.5346 -0.5238 -0.6117
 7599SOL     OW34258   3.955   2.924   5.768  0.4174 -0.2512 -0.1498
 7599SOL    HW134259   3.897   2.971   5.708  4.3962  3.3962 -1.2052
 7599SOL    HW234260   4.028   2.907   5.708  0.9441  0.4060  0.2963
 7600SOL     OW34261   2.620   1.097   8.887 -0.0529 -0.3278  0.0521
 7600SOL    HW134262   2.695   1.156   8.890  0.1883 -0.6896  1.2515
 7600SOL    HW234263   2.617   1.049   8.970  0.9663 -2.4432 -1.1222
 7601SOL     OW34264   3.496   3.299   5.736 -0.2027  0.1933  0.7584
 7601SOL    HW134265   3.545   3.381   5.737 -1.2413  0.8134  0.0480
 7601SOL    HW234266   3.453   3.309   5.821 -2.1453  0.8305 -0.3131
 7602SOL     OW34267   1.958   0.511   1.574  0.3226 -0.5584 -0.3421
 7602SOL    HW134268   2.013   0.439   1.541  1.2702 -0.1679  0.3670
 7602SOL    HW234269   1.887   0.512   1.510  1.4921 -0.7471 -1.6670
 7603SOL     OW34270   3.780   4.009  12.418 -0.0633  0.6099 -0.2534
 7603SOL    HW134271   3.807   4.077  12.480 -0.2922  1.9201 -1.5901
 7603SOL    HW234272   3.859   4.007  12.363 -0.4506  3.5627 -0.9290
 7604SOL     OW34273   0.404   1.435  13.470 -0.2482 -0.5530 -0.3526
 7604SOL    HW134274   0.406   1.521  13.427  0.2837 -0.8120 -0.8544
 7604SOL    HW234275   0.480   1.389  13.434  0.0083 -1.2095  1.0007
 7605SOL     OW34276   3.955   2.175   3.156  0.1785 -0.4441  0.0459
 7605SOL    HW134277   4.005   2.104   3.197 -1.1128  0.0169  2.4723
 7605SOL    HW234278   3.896   2.123   3.101 -1.2550 -0.1008  1.2443
 7606SOL     OW34279   4.059   3.085  15.786 -0.0687  0.4692  0.4158
 7606SOL    HW134280   4.147   3.092  15.822 -0.6168 -0.2022  1.9054
 7606SOL    HW234281   4.077   3.103  15.694  2.5846  2.9723  1.4450
 7607SOL     OW34282   2.057   1.192   3.433 -0.1606 -0.2043 -0.0133
 7607SOL    HW134283   2.108   1.221   3.358  0.5260 -1.3846 -0.0012
 7607SOL    HW234284   1.991   1.131   3.400  1.2474 -1.3581 -0.6652
 7608SOL     OW34285   0.998   2.200  17.250  0.7547 -0.4508  0.3229
 7608SOL    HW134286   1.026   2.279  17.297 -0.4617  0.8070 -1.0780
 7608SOL    HW234287   0.994   2.134  17.318 -0.4432  2.9470  3.5732
 7609SOL     OW34288   0.182   3.464   9.298  0.5120 -0.4266  0.0473
 7609SOL    HW134289   0.157   3.374   9.276 -0.3613  0.1891 -1.4941
 7609SOL    HW234290   0.208   3.491   9.210  3.0482 -1.7518  0.3882
 7610SOL     OW34291   0.350   3.105  14.258  0.0943 -0.5409 -0.6266
 7610SOL    HW134292   0.305   3.119  14.176  0.4694  0.3260 -0.6893
 7610SOL    HW234293   0.275   3.116  14.316 -1.4488 -0.1546 -2.7066
 7611SOL     OW34294   2.901   0.602   9.545 -0.2141 -0.0548 -0.0998
 7611SOL    HW134295   2.898   0.534   9.478 -2.1185 -0.9285  0.8611
 7611SOL    HW234296   2.817   0.648   9.537 -0.9793 -1.4358  0.0157
 7612SOL     OW34297   3.713   1.874   8.361 -0.3927  0.2992 -0.1298
 7612SOL    HW134298   3.669   1.797   8.398  0.4655  0.7435  1.8078
 7612SOL    HW234299   3.756   1.908   8.440  0.0513  0.1360 -0.3051
 7613SOL     OW34300   0.410   2.417   8.459  0.1365  0.0687  0.6429
 7613SOL    HW134301   0.414   2.325   8.485 -0.7196 -0.7032 -2.0128
 7613SOL    HW234302   0.343   2.445   8.522  1.5180  0.8021  1.8163
 7614SOL     OW34303   0.188   3.654  14.959 -0.2470 -0.9745 -0.2971
 7614SOL    HW134304   0.262   3.608  14.920 -0.6704 -0.9877 -1.0720
 7614SOL    HW234305   0.136   3.629  14.882 -1.2932 -0.3092  0.1880
 7615SOL     OW34306   0.292   2.044  17.251 -0.5276  0.0604 -0.3693
 7615SOL    HW134307   0.349   2.017  17.179 -1.2990  1.4781 -1.5026
 7615SOL    HW234308   0.213   1.991  17.240 -1.4103  1.7167 -1.9171
 7616SOL     OW34309   0.064   0.053   6.785 -0.5760  1.0285  0.1569
 7616SOL    HW134310   4.713   0.064   6.841 -0.4626  0.4010  0.4321
 7616SOL    HW234311   0.031   0.039   6.696 -0.7236 -0.3378  0.4173
 7617SOL     OW34312   0.537   3.039  17.208 -0.1889 -0.7263  0.1396
 7617SOL    HW134313   0.482   3.005  17.279  0.0032 -1.7027 -0.1828
 7617SOL    HW234314   0.508   3.130  17.215  0.3870 -0.4827 -0.6013
 7618SOL     OW34315   0.928   2.465  11.733  0.2639 -0.0900 -0.3326
 7618SOL    HW134316   0.847   2.428  11.768  0.1840  0.7252  0.3378
 7618SOL    HW234317   0.913   2.463  11.638 -2.1906  1.8863  0.0150
 7619SOL     OW34318   0.809   1.082   2.141 -0.1280  0.4361 -0.7042
 7619SOL    HW134319   0.739   1.037   2.095  0.1258 -0.1721 -0.4905
 7619SOL    HW234320   0.757   1.145   2.191  1.8625  1.3544  0.1933
 7620SOL     OW34321   2.621   2.633   6.592  0.3207 -0.3519 -0.5098
 7620SOL    HW134322   2.592   2.601   6.677 -2.0139  0.7997 -0.8608
 7620SOL    HW234323   2.531   2.645   6.561  0.0847 -2.9109 -0.8042
 7621SOL     OW34324   3.682   1.297   8.223 -0.0478 -0.0185  0.5049
 7621SOL    HW134325   3.616   1.294   8.293 -1.1450  0.1825 -0.5254
 7621SOL    HW234326   3.732   1.217   8.240  0.4512 -0.0449 -1.1194
 7622SOL     OW34327   3.527   3.272   6.878 -0.2839 -0.2843  0.0075
 7622SOL    HW134328   3.551   3.180   6.864  1.3660  0.0240  0.7725
 7622SOL    HW234329   3.544   3.280   6.972  1.4218 -0.5768 -0.2769
 7623SOL     OW34330   3.216   0.322   4.915  0.1463  0.2081  0.3477
 7623SOL    HW134331   3.234   0.234   4.948 -0.1085  0.2793  0.6795
 7623SOL    HW234332   3.120   0.320   4.921  0.1048  0.8227 -0.1222
 7624SOL     OW34333   4.229   0.072  17.670 -0.1236  0.6627 -0.0078
 7624SOL    HW134334   4.243   4.721   0.022 -0.1928  0.3742 -0.3916
 7624SOL    HW234335   4.172   0.130   0.017  0.9228  1.4978  0.2152
 7625SOL     OW34336   3.452   4.458   7.149 -0.0618  0.0731  0.0857
 7625SOL    HW134337   3.424   4.549   7.159 -0.6125 -0.0862  0.0073
 7625SOL    HW234338   3.395   4.413   7.086  2.3048 -1.7907 -0.7109
 7626SOL     OW34339   1.874   3.568  11.393  0.1025 -0.0105  0.5037
 7626SOL    HW134340   1.905   3.659  11.397 -0.9825  0.4794 -2.3590
 7626SOL    HW234341   1.964   3.542  11.413  1.3386  2.0553 -2.4096
 7627SOL     OW34342   2.031   3.800  11.427  0.3453 -0.4359  0.5965
 7627SOL    HW134343   2.010   3.883  11.468 -1.2104  1.0812 -3.2510
 7627SOL    HW234344   2.113   3.781  11.473 -0.7424 -1.1191  2.2112
 7628SOL     OW34345   2.416   2.632   0.263 -0.3444  0.2320  0.0460
 7628SOL    HW134346   2.473   2.581   0.321 -0.3460 -0.9579 -1.0093
 7628SOL    HW234347   2.386   2.690   0.333  1.5387  1.7384 -0.3954
 7629SOL     OW34348   2.854   1.710   7.903 -0.2072  0.0300 -0.4646
 7629SOL    HW134349   2.795   1.635   7.914 -0.1187  0.1923  1.1568
 7629SOL    HW234350   2.853   1.732   7.810  0.8765  1.8282 -0.0414
 7630SOL     OW34351   0.685   2.220   6.001 -0.0333  0.3833 -0.6081
 7630SOL    HW134352   0.590   2.226   6.015 -0.1814  0.1772 -1.4651
 7630SOL    HW234353   0.688   2.137   5.953 -1.5776  0.5142 -0.9237
 7631SOL     OW34354   0.137   2.191   3.405  0.2146  0.0478  0.0522
 7631SOL    HW134355   0.174   2.251   3.470  0.2110  0.0847  0.0198
 7631SOL    HW234356   0.128   2.111   3.457 -0.7183 -0.2837 -0.6121
 7632SOL     OW34357   2.191   1.216   9.630  0.2154  0.7054 -0.4672
 7632SOL    HW134358   2.233   1.172   9.556 -1.3689  0.8749 -1.4579
 7632SOL    HW234359   2.221   1.153   9.695  1.2867 -0.1608 -1.7875
 7633SOL     OW34360   4.345   0.781  14.975  0.7467 -0.3590 -0.2164
 7633SOL    HW134361   4.310   0.866  14.946  1.2457  0.1474  0.6943
 7633SOL    HW234362   4.435   0.808  14.991  0.6197 -1.2123  1.8915
 7634SOL     OW34363   3.378   1.968   5.376 -0.1812 -0.4834  0.0593
 7634SOL    HW134364   3.300   1.934   5.420 -0.4363  0.9894  0.7092
 7634SOL    HW234365   3.441   1.895   5.370 -0.2964 -0.6484  0.8794
 7635SOL     OW34366   0.203   1.696   5.263  0.0359  0.0005  0.1026
 7635SOL    HW134367   0.112   1.707   5.292 -0.1231 -1.2137  0.0575
 7635SOL    HW234368   0.242   1.781   5.285 -0.1344  0.3630 -1.0043
 7636SOL     OW34369   2.443   2.937  12.910 -0.2637  0.1334  0.8069
 7636SOL    HW134370   2.491   2.900  12.984 -0.2663 -1.1555  0.1630
 7636SOL    HW234371   2.516   2.964  12.855  0.1891 -4.8338 -1.0206
 7637SOL     OW34372   1.013   2.409   3.732  0.8601 -0.1757  0.2742
 7637SOL    HW134373   0.971   2.335   3.777 -0.2376 -0.0737 -0.6026
 7637SOL    HW234374   1.014   2.383   3.640  2.0450  3.5641 -0.7521
 7638SOL     OW34375   4.700   4.472   5.449  0.4247 -0.1566  0.0385
 7638SOL    HW134376   0.014   4.473   5.536  2.7324 -1.8284 -0.9941
 7638SOL    HW234377   4.716   4.565   5.431 -1.6884  0.1052 -0.5414
 7639SOL     OW34378   1.331   2.881   7.963  0.5337 -0.2375  0.1348
 7639SOL    HW134379   1.400   2.821   7.993  1.4504  0.7524  0.0296
 7639SOL    HW234380   1.383   2.960   7.949 -3.1073  1.9359 -1.1329
 7640SOL     OW34381   4.353   4.649   7.940  0.3484 -0.0981  0.3118
 7640SOL    HW134382   4.353   4.555   7.922  0.3568  0.4941 -2.9043
 7640SOL    HW234383   4.305   4.681   7.864 -0.7053 -0.0561  1.0010
 7641SOL     OW34384   2.796   3.014   5.761 -0.1180 -0.7945 -0.6480
 7641SOL    HW134385   2.880   3.013   5.807  0.4507 -1.1961 -1.6662
 7641SOL    HW234386   2.753   2.938   5.801  0.8018 -0.3416  1.1781
 7642SOL     OW34387   3.283   0.825  10.526  0.3736  0.2184 -0.0979
 7642SOL    HW134388   3.360   0.834  10.583  0.2364  1.9888 -0.1817
 7642SOL    HW234389   3.214   0.825  10.592  1.1241  1.6042  0.6796
 7643SOL     OW34390   1.150   2.433  13.721 -0.3973  0.3589 -0.0139
 7643SOL    HW134391   1.081   2.499  13.733  1.1489  2.2257 -1.4573
 7643SOL    HW234392   1.109   2.353  13.753 -1.9940  0.2275 -2.4393
 7644SOL     OW34393   3.731   2.676   2.500 -0.1129 -0.2385 -0.3358
 7644SOL    HW134394   3.804   2.624   2.467 -0.7196 -1.5795  0.4254
 7644SOL    HW234395   3.672   2.603   2.482 -2.0800  0.6720  2.4082
 7645SOL     OW34396   2.313   3.939   6.666 -0.3564 -0.0230  0.0489
 7645SOL    HW134397   2.253   3.969   6.734  0.0413 -1.1834  0.9133
 7645SOL    HW234398   2.268   3.860   6.637 -0.6839  0.2708 -0.2459
 7646SOL     OW34399   1.512   3.830   8.568  0.1617  0.5599 -0.6576
 7646SOL    HW134400   1.566   3.892   8.616 -0.2534  0.9099 -0.6494
 7646SOL    HW234401   1.572   3.758   8.546  1.6353  0.5462  3.3775
 7647SOL     OW34402   2.595   0.755   4.837  0.7528  0.3357  0.1369
 7647SOL    HW134403   2.533   0.696   4.880  0.1313 -0.7489 -2.2641
 7647SOL    HW234404   2.609   0.708   4.755 -1.1524  0.9984 -0.5590
 7648SOL     OW34405   2.773   1.236   3.259  0.2859 -0.2732  0.4810
 7648SOL    HW134406   2.863   1.255   3.232 -0.0081  1.8933  1.0284
 7648SOL    HW234407   2.734   1.301   3.201  0.8786  1.8203  2.4670
 7649SOL     OW34408   1.517   2.542  10.875 -0.2466 -0.3715  0.3420
 7649SOL    HW134409   1.551   2.567  10.961  0.3300  1.3096 -0.3742
 7649SOL    HW234410   1.470   2.464  10.904 -2.2470  0.8789  0.4605
 7650SOL     OW34411   3.788   0.860  10.630 -0.3574  0.8916 -0.1306
 7650SOL    HW134412   3.795   0.841  10.536  0.4948  0.6010 -0.0075
 7650SOL    HW234413   3.864   0.916  10.638 -0.1917  0.5557  0.6193
 7651SOL     OW34414   1.988   0.333  12.650 -0.6504 -0.0506 -0.1217
 7651SOL    HW134415   2.003   0.410  12.705 -1.0758  0.2285 -0.4003
 7651SOL    HW234416   1.937   0.371  12.579  0.7706  0.1982 -1.0279
 7652SOL     OW34417   3.942   0.007   1.642  0.1906 -0.0275  0.1466
 7652SOL    HW134418   4.015   0.058   1.678  0.2363 -1.0501  1.5101
 7652SOL    HW234419   3.888   0.006   1.721  1.0075  0.5996  0.7251
 7653SOL     OW34420   1.367   2.789   6.480 -0.3330 -0.1116  0.4362
 7653SOL    HW134421   1.457   2.759   6.492 -0.0553 -0.1291 -1.7257
 7653SOL    HW234422   1.373   2.797   6.385 -0.7257  2.2648  0.6220
 7654SOL     OW34423   3.801   2.527  17.100  0.1669  0.4818  0.9925
 7654SOL    HW134424   3.734   2.588  17.068 -1.4326 -0.2669  2.9222
 7654SOL    HW234425   3.751   2.460  17.146  1.0871  1.4236  3.3753
 7655SOL     OW34426   4.485   2.568   2.037  0.1561  0.6431  0.7011
 7655SOL    HW134427   4.496   2.503   1.967 -1.6791  0.8749  0.1952
 7655SOL    HW234428   4.551   2.636   2.027  1.1998 -0.9851 -3.4408
 7656SOL     OW34429   3.909   3.430   6.182  0.2236  0.2529 -0.3423
 7656SOL    HW134430   3.917   3.525   6.184  2.3090  0.0584 -0.3552
 7656SOL    HW234431   3.814   3.421   6.173 -0.0459  1.2765  1.3182
 7657SOL     OW34432   4.089   2.685   5.427 -0.3884 -0.3684  0.6302
 7657SOL    HW134433   4.152   2.622   5.392  0.2894  0.6376  0.0309
 7657SOL    HW234434   4.144   2.747   5.475 -1.0672  0.0309  0.8791
 7658SOL     OW34435   0.682   4.587  17.111  0.1181  0.1063  0.2662
 7658SOL    HW134436   0.603   4.629  17.145  0.3714  0.7755  0.0273
 7658SOL    HW234437   0.710   4.548  17.194  0.6209  0.5093  0.2919
 7659SOL     OW34438   0.333   0.337   8.836 -0.3884  0.4597  0.2053
 7659SOL    HW134439   0.271   0.272   8.868 -0.2891  0.7997  1.1053
 7659SOL    HW234440   0.349   0.391   8.914 -1.0453  0.0770  0.5972
 7660SOL     OW34441   2.905   3.129   8.222  0.1697  0.0762 -0.6531
 7660SOL    HW134442   2.942   3.110   8.136 -0.1368  0.0998 -0.7916
 7660SOL    HW234443   2.969   3.083   8.276  0.6419  0.9839 -0.4554
 7661SOL     OW34444   3.605   3.858   7.615 -0.1128  0.3106  0.1362
 7661SOL    HW134445   3.635   3.921   7.549 -2.6162  0.2454 -1.0746
 7661SOL    HW234446   3.566   3.919   7.678  3.9382  3.4453 -0.3344
 7662SOL     OW34447   2.413   4.621   7.863  0.0024 -0.1057 -0.0338
 7662SOL    HW134448   2.330   4.624   7.912  0.8771  2.1305  1.3105
 7662SOL    HW234449   2.410   4.534   7.824 -1.2791  0.3155 -0.8918
 7663SOL     OW34450   0.608   3.904   6.337  0.2844  0.1562 -0.1719
 7663SOL    HW134451   0.540   3.957   6.296 -0.0566 -0.2312 -0.1084
 7663SOL    HW234452   0.597   3.818   6.296  2.3692  0.0092 -0.4695
 7664SOL     OW34453   1.508   3.261   3.015  0.2386 -0.6017 -0.1787
 7664SOL    HW134454   1.571   3.328   2.989 -0.3711  0.9134  2.2238
 7664SOL    HW234455   1.549   3.180   2.985  1.4840  0.9821 -2.7032
 7665SOL     OW34456   3.243   3.179   3.596 -0.1877  0.3897  0.7504
 7665SOL    HW134457   3.332   3.214   3.598 -0.2166  0.4939  0.3322
 7665SOL    HW234458   3.246   3.086   3.576 -1.2322  0.5644 -0.2440
 7666SOL     OW34459   1.198   2.658   2.201 -0.6464  0.9103  0.7219
 7666SOL    HW134460   1.213   2.566   2.182 -1.6545  0.4339  2.3382
 7666SOL    HW234461   1.136   2.695   2.138  0.5303 -0.3289 -1.1541
 7667SOL     OW34462   1.609   2.036   4.544 -0.3178 -0.0775 -0.2360
 7667SOL    HW134463   1.650   1.955   4.512 -1.9293 -0.1200 -2.2466
 7667SOL    HW234464   1.670   2.049   4.616  0.7259 -0.3230 -1.0722
 7668SOL     OW34465   2.688   1.913   4.724 -0.0594  0.7790 -0.5562
 7668SOL    HW134466   2.623   1.849   4.697  1.6506 -0.5698 -1.4380
 7668SOL    HW234467   2.756   1.914   4.657  0.3886 -1.3396 -0.1256
 7669SOL     OW34468   2.471   0.719   7.901 -0.6253  0.1530 -0.1495
 7669SOL    HW134469   2.437   0.797   7.856  0.7786  1.1359  0.4968
 7669SOL    HW234470   2.557   0.703   7.862 -1.6475  0.2955 -2.4562
 7670SOL     OW34471   3.003   2.140   0.162 -0.4484 -0.3583  0.8043
 7670SOL    HW134472   3.026   2.047   0.159  1.9664  0.3416 -1.9024
 7670SOL    HW234473   3.037   2.163   0.075  1.6705 -1.6045  1.2926
 7671SOL     OW34474   4.147   2.002   4.578  0.1663 -0.5873  0.1348
 7671SOL    HW134475   4.116   1.912   4.592  0.8169 -0.5484  1.7927
 7671SOL    HW234476   4.088   2.059   4.628 -2.5751 -1.7721 -1.7580
 7672SOL     OW34477   2.761   2.819   9.814 -0.1544 -0.5051  0.1382
 7672SOL    HW134478   2.788   2.789   9.901  1.1428 -0.9311 -0.4202
 7672SOL    HW234479   2.676   2.775   9.806 -1.7136  2.4325  0.7701
 7673SOL     OW34480   0.210   2.877   9.019 -0.0222 -0.1711  0.5085
 7673SOL    HW134481   0.169   2.963   9.016 -0.9225 -0.6062  0.2491
 7673SOL    HW234482   0.263   2.876   8.940 -0.8612 -1.7331 -0.0269
 7674SOL     OW34483   1.660   0.988  13.958 -0.2981 -0.0323  0.1154
 7674SOL    HW134484   1.692   1.078  13.966  2.5634 -0.9647 -0.7133
 7674SOL    HW234485   1.666   0.961  14.049 -0.2981  0.9004  0.3884
 7675SOL     OW34486   2.135   2.279   5.019  0.5437  0.3296  0.7954
 7675SOL    HW134487   2.064   2.337   4.990  1.3013  0.6557 -0.4240
 7675SOL    HW234488   2.094   2.193   5.009  0.6057  0.6696 -2.4909
 7676SOL     OW34489   2.823   3.952  12.652 -0.4586  0.3216  0.4374
 7676SOL    HW134490   2.839   4.024  12.713 -0.5168  0.3387  0.4331
 7676SOL    HW234491   2.898   3.896  12.670 -2.2797 -1.9364  0.9954
 7677SOL     OW34492   0.977   2.429   5.900  0.2383 -0.3842 -0.5582
 7677SOL    HW134493   0.973   2.352   5.956  0.5305 -0.2335 -0.3307
 7677SOL    HW234494   0.947   2.496   5.961  2.6127  0.4660 -0.3150
 7678SOL     OW34495   1.554   4.263   7.561 -0.1213 -0.1545  0.0871
 7678SOL    HW134496   1.638   4.234   7.526 -0.3326 -0.3858 -0.2332
 7678SOL    HW234497   1.494   4.204   7.515  0.3527 -0.2400 -0.4178
 7679SOL     OW34498   4.354   2.934   8.314 -0.3157  0.9698 -0.1140
 7679SOL    HW134499   4.298   2.931   8.391  0.0392 -3.3523 -0.0537
 7679SOL    HW234500   4.312   2.869   8.257  3.7874 -0.2937 -1.7037
 7680SOL     OW34501   2.129   4.718   5.905 -0.0679 -0.6611 -0.1627
 7680SOL    HW134502   2.116   4.628   5.934  0.4935 -0.3807  0.9604
 7680SOL    HW234503   2.053   0.000   5.846 -0.7187 -0.2784  0.7281
 7681SOL     OW34504   3.962   0.189   3.986  0.1602 -0.2184  0.0086
 7681SOL    HW134505   3.977   0.120   3.922  1.1664  0.3689 -0.3857
 7681SOL    HW234506   3.894   0.240   3.942  1.7287 -0.1428 -2.3383
 7682SOL     OW34507   0.769   1.732   7.965  0.0487  0.0954  0.2596
 7682SOL    HW134508   0.686   1.776   7.983  0.0692 -0.0894  0.7849
 7682SOL    HW234509   0.758   1.647   8.007 -0.9922  0.5520  0.8968
 7683SOL     OW34510   2.149   1.754   7.842 -0.0981  0.0850  0.1460
 7683SOL    HW134511   2.112   1.810   7.910 -0.2052 -0.5658  0.6236
 7683SOL    HW234512   2.218   1.715   7.896 -0.0203 -1.3122 -0.9471
 7684SOL     OW34513   2.034   3.413  12.056 -0.6014  0.3602 -0.2698
 7684SOL    HW134514   2.008   3.332  12.100 -0.2457  1.9048  2.8006
 7684SOL    HW234515   2.086   3.440  12.132 -0.3308  0.1796 -0.3906
 7685SOL     OW34516   0.360   3.264   5.339  0.4256  0.1457 -0.5988
 7685SOL    HW134517   0.396   3.203   5.274  2.3839  0.2979  0.3331
 7685SOL    HW234518   0.354   3.214   5.420 -0.2380 -2.4154 -2.2237
 7686SOL     OW34519   1.148   1.632   7.174  0.4322  0.2601 -0.4353
 7686SOL    HW134520   1.144   1.721   7.209  0.5087  0.0301  0.1605
 7686SOL    HW234521   1.099   1.580   7.238  0.6074  0.0201 -0.4999
 7687SOL     OW34522   2.277   0.973   7.546 -0.0985 -0.0738  0.1058
 7687SOL    HW134523   2.268   1.042   7.480  0.5743  2.0098  2.1856
 7687SOL    HW234524   2.253   0.899   7.490  0.0815  2.2080 -3.0239
 7688SOL     OW34525   1.273   0.315  15.583  0.0813 -0.6745  0.6351
 7688SOL    HW134526   1.200   0.376  15.592 -1.0256 -2.4338  3.4279
 7688SOL    HW234527   1.329   0.358  15.518 -1.0881 -0.4018 -0.1811
 7689SOL     OW34528   0.034   4.016   4.701 -0.0309 -0.0153  0.1305
 7689SOL    HW134529   0.088   4.091   4.728  3.7966 -2.1020 -1.7638
 7689SOL    HW234530   0.007   4.033   4.610  2.0055 -0.5605 -0.5806
 7690SOL     OW34531   0.209   2.655   0.702 -0.1399 -0.3365  0.1134
 7690SOL    HW134532   0.242   2.568   0.678 -0.1087  0.5026 -2.7780
 7690SOL    HW234533   0.281   2.674   0.763  1.5021 -0.9660 -1.6064
 7691SOL     OW34534   1.454   4.409   6.777  0.4822 -0.3206  0.8359
 7691SOL    HW134535   1.407   4.427   6.859  0.0877 -2.1234  0.9948
 7691SOL    HW234536   1.544   4.435   6.796  0.8623 -1.9588  1.2661
 7692SOL     OW34537   3.595   3.214   3.960 -0.0878  0.0719  0.3007
 7692SOL    HW134538   3.648   3.140   3.989  2.2260  2.3381  1.8106
 7692SOL    HW234539   3.652   3.286   3.985  0.6288 -0.6200  0.6581
 7693SOL     OW34540   3.251   1.286   4.196 -0.5430 -0.6346  0.5049
 7693SOL    HW134541   3.208   1.371   4.200  2.0635  0.6619  1.3366
 7693SOL    HW234542   3.298   1.274   4.279  1.0722 -0.9583 -0.4480
 7694SOL     OW34543   4.371   4.095   1.719 -0.1001  0.4963  0.1402
 7694SOL    HW134544   4.428   4.019   1.701 -1.3244 -0.1337 -1.0222
 7694SOL    HW234545   4.327   4.058   1.796  1.6995  0.9608  1.4014
 7695SOL     OW34546   2.661   3.422   9.201  0.3688  0.5247  0.1589
 7695SOL    HW134547   2.577   3.400   9.240  0.7411 -0.4950  0.3734
 7695SOL    HW234548   2.650   3.373   9.120  2.8319  0.4476 -0.1416
 7696SOL     OW34549   3.045   1.543   6.656  0.4442 -0.4194  0.4109
 7696SOL    HW134550   3.023   1.546   6.749  3.0415 -0.8083  1.0386
 7696SOL    HW234551   3.140   1.544   6.665  0.5363  0.8631 -0.8412
 7697SOL     OW34552   0.488   3.674   7.953  0.1141  0.4012 -0.2986
 7697SOL    HW134553   0.579   3.700   7.942  0.2466  0.0906  0.0674
 7697SOL    HW234554   0.485   3.634   8.040  0.2390  1.6959  0.2978
 7698SOL     OW34555   3.561   0.906   6.030 -0.4133 -0.2970  0.3476
 7698SOL    HW134556   3.606   0.828   6.064 -0.8834 -0.8912 -0.3795
 7698SOL    HW234557   3.545   0.948   6.114  1.3465 -0.9284  0.9998
 7699SOL     OW34558   1.513   3.718   8.280 -0.3485 -0.6050  0.3913
 7699SOL    HW134559   1.449   3.649   8.298 -1.5991  0.7255  1.1036
 7699SOL    HW234560   1.468   3.771   8.214  2.2624  0.6646 -0.3724
 7700SOL     OW34561   0.483   3.618  11.968  0.1942  0.1683 -0.0053
 7700SOL    HW134562   0.473   3.713  11.969  2.3552  0.4019 -0.8753
 7700SOL    HW234563   0.566   3.620  12.015  2.1659 -0.4880 -3.4605
 7701SOL     OW34564   2.815   1.957   8.871  0.1097  0.2785  0.6492
 7701SOL    HW134565   2.902   1.958   8.832 -0.2725  0.9280 -0.1938
 7701SOL    HW234566   2.764   1.905   8.809  1.8079  0.5181 -0.9504
 7702SOL     OW34567   2.903   4.198   7.094  0.0655 -1.0199  0.1283
 7702SOL    HW134568   2.850   4.242   7.028  2.5084 -0.6725 -1.6014
 7702SOL    HW234569   2.970   4.262   7.118  1.0453 -1.3329 -1.7381
 7703SOL     OW34570   3.435   3.080   2.718 -0.5584  0.0822 -0.4296
 7703SOL    HW134571   3.455   3.125   2.636  0.3112  1.6297  0.6288
 7703SOL    HW234572   3.357   3.126   2.747  0.9400  1.5088  1.3249
 7704SOL     OW34573   3.933   1.686   5.128  0.0649  0.0992 -0.3366
 7704SOL    HW134574   3.840   1.691   5.149  0.2420 -1.4572  0.7967
 7704SOL    HW234575   3.967   1.698   5.217 -0.4403 -1.3861  0.0502
 7705SOL     OW34576   3.389   1.855   7.524 -0.0230  0.2822 -0.4342
 7705SOL    HW134577   3.399   1.828   7.615 -0.3030 -0.8308 -0.7236
 7705SOL    HW234578   3.308   1.905   7.529 -0.7726 -1.0923  0.9890
 7706SOL     OW34579   0.706   4.657  10.574 -0.1740 -0.5174  0.5236
 7706SOL    HW134580   0.724   4.684  10.484 -1.3824 -0.3310  0.3416
 7706SOL    HW234581   0.614   4.682  10.584  0.1167  0.2119  1.3173
 7707SOL     OW34582   4.331   0.649   9.535  0.3585 -0.2217 -0.2054
 7707SOL    HW134583   4.419   0.670   9.504 -0.3164  0.6576 -1.5209
 7707SOL    HW234584   4.323   0.719   9.600  0.6125 -1.2647  0.9466
 7708SOL     OW34585   3.635   2.573  14.122 -0.0069  0.1461 -0.1509
 7708SOL    HW134586   3.600   2.646  14.071  1.3020  3.3519  3.4946
 7708SOL    HW234587   3.558   2.518  14.104 -0.4715  1.1984 -1.3235
 7709SOL     OW34588   4.446   1.353   8.781 -0.2057  0.0851  0.4174
 7709SOL    HW134589   4.496   1.280   8.744  0.8599  1.3634 -0.6655
 7709SOL    HW234590   4.416   1.322   8.866 -0.1548  2.9732  1.4836
 7710SOL     OW34591   0.748   2.764  14.433 -0.3489 -0.2020 -0.4403
 7710SOL    HW134592   0.732   2.764  14.527  1.0443  0.7147 -0.1969
 7710SOL    HW234593   0.794   2.681  14.424  0.6323  0.2760  0.1880
 7711SOL     OW34594   2.466   3.361   1.720 -0.2552 -0.4455  0.5339
 7711SOL    HW134595   2.412   3.438   1.700  0.6209  0.2452  0.8258
 7711SOL    HW234596   2.448   3.304   1.645  0.1159 -0.2397  0.2892
 7712SOL     OW34597   2.118   4.475  10.328 -0.5401 -0.0926  0.4025
 7712SOL    HW134598   2.116   4.386  10.363  1.4132 -0.6156 -0.8429
 7712SOL    HW234599   2.089   4.524  10.405 -1.6573  0.4879 -0.3929
 7713SOL     OW34600   0.902   1.933   4.746 -0.0649 -1.1629  0.4285
 7713SOL    HW134601   0.818   1.895   4.722 -0.9216 -0.1416  1.8068
 7713SOL    HW234602   0.872   1.996   4.813 -1.3131 -0.2173 -1.0146
 7714SOL     OW34603   1.967   1.438   5.094 -0.1783 -0.1910  0.1171
 7714SOL    HW134604   1.954   1.364   5.035 -0.5190  0.3332 -0.4681
 7714SOL    HW234605   1.886   1.422   5.141  0.4911 -0.1922  1.2709
 7715SOL     OW34606   4.023   1.767  12.814  0.4380 -0.0908 -0.5033
 7715SOL    HW134607   4.018   1.848  12.864 -1.3076  0.3861 -1.4371
 7715SOL    HW234608   4.117   1.751  12.809  0.4621  0.3624 -1.6079
 7716SOL     OW34609   2.491   0.697  14.837  0.3092 -0.1199  0.0382
 7716SOL    HW134610   2.494   0.750  14.916 -2.8651  0.7733 -0.4339
 7716SOL    HW234611   2.444   0.618  14.865 -0.9485  1.0542  1.2499
 7717SOL     OW34612   2.831   4.599  11.864 -0.0138 -0.0176  0.0483
 7717SOL    HW134613   2.788   4.556  11.791 -0.8194  0.2964  0.3309
 7717SOL    HW234614   2.917   4.627  11.835  0.2130  0.1694  0.9058
 7718SOL     OW34615   1.787   3.691   6.151 -0.8905  0.3706  0.2935
 7718SOL    HW134616   1.721   3.664   6.087  0.5964 -1.2019 -0.5531
 7718SOL    HW234617   1.820   3.773   6.112 -1.0335  1.0331  1.5722
 7719SOL     OW34618   3.370   2.698   2.113  0.2026 -0.0784 -0.5809
 7719SOL    HW134619   3.362   2.644   2.192 -0.9486 -0.1197 -0.7265
 7719SOL    HW234620   3.308   2.769   2.129  0.5518 -0.4335  2.2292
 7720SOL     OW34621   1.050   4.432   8.239 -0.1069 -1.0169 -0.2448
 7720SOL    HW134622   1.095   4.434   8.323  2.0192  0.7802 -1.4273
 7720SOL    HW234623   1.120   4.406   8.179  2.7119  0.8086  2.2933
 7721SOL     OW34624   0.791   0.048   7.344  0.1539 -0.1265  0.0821
 7721SOL    HW134625   0.720   0.091   7.392 -0.4449 -0.1586 -0.7921
 7721SOL    HW234626   0.871   0.071   7.393  0.3104  1.0731 -0.7301
 7722SOL     OW34627   4.145   0.032   9.043  0.0444 -0.1778 -0.0916
 7722SOL    HW134628   4.201   0.008   9.117 -0.7722 -1.4472  0.1118
 7722SOL    HW234629   4.105   0.112   9.075 -2.4526 -0.6603 -2.0302
 7723SOL     OW34630   1.073   1.939   6.384  0.1978 -0.4503 -0.6255
 7723SOL    HW134631   1.082   1.846   6.407 -1.2102 -0.5315 -0.3994
 7723SOL    HW234632   1.165   1.963   6.393 -0.0705  1.0074 -1.8962
 7724SOL     OW34633   2.498   3.292   1.451 -0.1207  0.3731 -0.3773
 7724SOL    HW134634   2.483   3.368   1.394 -0.0465  0.0738 -0.7933
 7724SOL    HW234635   2.593   3.288   1.447  0.0158  0.2472  2.7018
 7725SOL     OW34636   2.777   2.135  15.771  0.6254  0.4106  0.5374
 7725SOL    HW134637   2.803   2.226  15.758  2.8792 -0.0314  1.9928
 7725SOL    HW234638   2.718   2.109  15.700  0.0851 -0.8702  1.4685
 7726SOL     OW34639   0.133   0.342   2.969  0.1366 -0.0873 -0.0032
 7726SOL    HW134640   0.117   0.329   2.875  0.5163  1.4976 -0.2854
 7726SOL    HW234641   0.097   0.430   2.975 -0.9521 -0.6923  2.0544
 7727SOL     OW34642   2.290   0.175   7.883 -0.1875 -0.1892 -0.2364
 7727SOL    HW134643   2.379   0.149   7.858 -0.1968 -1.4502  1.0379
 7727SOL    HW234644   2.250   0.092   7.907 -0.9379  1.2936  3.6343
 7728SOL     OW34645   1.259   3.020   3.819  0.2743  0.2092 -0.0410
 7728SOL    HW134646   1.212   2.976   3.748  0.9832  2.6341 -2.0079
 7728SOL    HW234647   1.320   3.071   3.767  0.1333 -1.1617 -1.5292
 7729SOL     OW34648   1.374   1.261  15.130 -0.4953 -0.0672  0.2082
 7729SOL    HW134649   1.441   1.200  15.162  0.2509 -0.8212 -2.8106
 7729SOL    HW234650   1.425   1.328  15.084 -1.3172 -0.2297 -0.9132
 7730SOL     OW34651   1.738   0.401   7.253 -0.0173  0.1509  0.5907
 7730SOL    HW134652   1.702   0.480   7.213 -0.8025  0.0986  1.2101
 7730SOL    HW234653   1.735   0.330   7.189  1.5616  0.9857 -0.4457
 7731SOL     OW34654   0.665   3.287  14.707  0.4306 -0.5143  0.1654
 7731SOL    HW134655   0.697   3.372  14.738 -1.5491  0.3983 -0.3045
 7731SOL    HW234656   0.593   3.312  14.649  0.9176 -0.7783 -0.5515
 7732SOL     OW34657   2.538   0.657   3.045 -0.2173  0.6094  0.2035
 7732SOL    HW134658   2.537   0.582   3.105  4.0956 -0.3617 -0.9146
 7732SOL    HW234659   2.470   0.637   2.981  0.3136  0.8564 -0.4438
 7733SOL     OW34660   2.620   1.444   6.408  0.0024 -0.1496 -0.4119
 7733SOL    HW134661   2.693   1.428   6.348  0.7365  1.8712 -0.0552
 7733SOL    HW234662   2.558   1.381   6.370  0.5940  0.1016 -1.7941
 7734SOL     OW34663   3.464   4.437   5.984 -0.3573 -0.2230 -0.7183
 7734SOL    HW134664   3.479   4.352   6.027 -2.1981  0.0800  0.5304
 7734SOL    HW234665   3.556   4.462   5.979  0.0170 -1.9420 -2.5550
 7735SOL     OW34666   3.534   3.057  14.793  0.1360 -0.2782 -0.6840
 7735SOL    HW134667   3.508   2.973  14.830 -2.6743  1.9671  2.4790
 7735SOL    HW234668   3.484   3.122  14.843  1.7930 -0.5442  1.3146
 7736SOL     OW34669   3.936   2.112   1.689  0.0694  0.3540 -0.6426
 7736SOL    HW134670   3.910   2.204   1.680  1.2420  0.6297 -1.2493
 7736SOL    HW234671   3.857   2.071   1.655  0.6312 -1.2757  0.0102
 7737SOL     OW34672   1.414   1.256   8.017  0.3903  0.2014 -0.3214
 7737SOL    HW134673   1.333   1.229   8.060  0.7344  0.8755  0.7220
 7737SOL    HW234674   1.469   1.178   8.011  0.3961  0.2583 -1.0368
 7738SOL     OW34675   2.051   3.474   3.554  0.2116 -0.3177 -0.5182
 7738SOL    HW134676   2.147   3.478   3.555  0.2232 -0.6411 -0.5279
 7738SOL    HW234677   2.042   3.401   3.615 -2.5315  2.0023  1.8574
 7739SOL     OW34678   2.049   3.564  13.110 -0.1379 -0.1668 -0.5363
 7739SOL    HW134679   2.084   3.476  13.123 -2.4631 -0.7393  1.9466
 7739SOL    HW234680   2.117   3.609  13.160  1.0038 -0.4859 -1.8221
 7740SOL     OW34681   2.534   1.179   0.057 -0.3596 -0.4913  0.6775
 7740SOL    HW134682   2.596   1.107   0.065  2.4268  1.8051 -0.1469
 7740SOL    HW234683   2.469   1.129   0.006  0.6479 -1.1803  0.0781
 7741SOL     OW34684   2.891   4.363  12.819  0.4376  0.2634 -0.2748
 7741SOL    HW134685   2.915   4.428  12.885 -0.0341 -0.5496  0.6887
 7741SOL    HW234686   2.816   4.412  12.785 -0.2496 -1.0856 -0.6823
 7742SOL     OW34687   0.382   1.748  14.185  0.3380 -0.2950 -0.0786
 7742SOL    HW134688   0.361   1.757  14.278  0.9621 -4.0331  0.3933
 7742SOL    HW234689   0.319   1.812  14.151  0.5857  1.6708  3.2071
 7743SOL     OW34690   3.745   2.569   6.472 -0.5071  0.3131 -0.0969
 7743SOL    HW134691   3.733   2.566   6.377  0.3819 -0.0809 -0.1903
 7743SOL    HW234692   3.655   2.565   6.505 -0.0343  0.3716  1.2071
 7744SOL     OW34693   3.441   3.285   4.451  0.0465  0.4745  0.7013
 7744SOL    HW134694   3.346   3.298   4.453 -0.6212 -3.4422 -3.6024
 7744SOL    HW234695   3.470   3.326   4.370  2.5999 -1.1129  0.7923
 7745SOL     OW34696   1.398   0.184  14.236  0.1476  0.1032 -0.4989
 7745SOL    HW134697   1.359   0.097  14.243 -0.0352  0.1636 -0.8186
 7745SOL    HW234698   1.321   0.240  14.228  1.9128  2.1276 -3.3654
 7746SOL     OW34699   3.427   3.606   3.982 -0.1384 -0.1922 -0.0127
 7746SOL    HW134700   3.507   3.596   3.931 -1.5562 -0.6305 -2.1368
 7746SOL    HW234701   3.391   3.678   3.931 -3.2414 -1.7151  0.0271
 7747SOL     OW34702   0.867   4.015  11.313  0.2964 -0.2942  0.0745
 7747SOL    HW134703   0.837   3.985  11.227  1.8635 -1.9432  0.1179
 7747SOL    HW234704   0.928   4.085  11.288  0.7857 -1.5944 -2.3125
 7748SOL     OW34705   0.412   3.539   2.650 -0.1635  0.0134 -0.0151
 7748SOL    HW134706   0.472   3.510   2.719  0.9693 -1.6676 -1.7022
 7748SOL    HW234707   0.333   3.496   2.682 -0.0060 -1.4639 -1.6383
 7749SOL     OW34708   3.198   3.467   3.542  0.1711  0.2312  0.3046
 7749SOL    HW134709   3.199   3.385   3.592  0.6358  1.3244  2.1005
 7749SOL    HW234710   3.283   3.511   3.555  0.5850 -0.6263  0.5145
 7750SOL     OW34711   2.370   4.396   3.981  0.2451 -0.3580  0.5062
 7750SOL    HW134712   2.375   4.310   4.022  0.3991 -0.3751  0.4527
 7750SOL    HW234713   2.358   4.451   4.058 -2.0200  1.1760 -0.9606
 7751SOL     OW34714   1.264   0.284  12.073  0.1279  0.0573 -0.1497
 7751SOL    HW134715   1.345   0.273  12.123 -0.5253  0.8630  1.0961
 7751SOL    HW234716   1.196   0.288  12.140  1.2042 -0.9822  0.9747
 7752SOL     OW34717   3.165   2.449   6.430 -0.3247 -0.1996  0.2292
 7752SOL    HW134718   3.146   2.502   6.353 -1.2101  1.3936  1.5362
 7752SOL    HW234719   3.106   2.376   6.411  2.9408 -2.6522 -0.4996
 7753SOL     OW34720   0.306   2.776   5.282  0.2161  0.0298 -0.1212
 7753SOL    HW134721   0.252   2.710   5.238 -0.4260 -0.3568  1.2363
 7753SOL    HW234722   0.396   2.766   5.249  0.8246  1.1158  1.1861
 7754SOL     OW34723   4.128   2.576   9.246 -0.0977  0.3598 -0.3870
 7754SOL    HW134724   4.203   2.614   9.292 -0.0251  0.6795 -0.7635
 7754SOL    HW234725   4.153   2.585   9.154  0.2247  1.4868 -0.1857
 7755SOL     OW34726   1.415   1.659  16.630  0.3761 -0.2460  0.1037
 7755SOL    HW134727   1.433   1.654  16.724  1.8119 -0.3346 -0.1735
 7755SOL    HW234728   1.464   1.588  16.589 -0.6772 -0.0952 -1.4535
 7756SOL     OW34729   1.217   4.383   4.560  0.2095  0.2469  0.2790
 7756SOL    HW134730   1.148   4.358   4.499 -0.5211 -1.6546  1.8971
 7756SOL    HW234731   1.181   4.346   4.640 -0.3466 -2.8599 -1.4102
 7757SOL     OW34732   1.349   3.801   4.915 -0.5030  0.2133 -0.0996
 7757SOL    HW134733   1.276   3.793   4.854 -0.9267  0.2377  0.4040
 7757SOL    HW234734   1.325   3.762   5.000 -1.2809  1.6647  0.3348
 7758SOL     OW34735   2.482   0.532   4.205 -0.1357  0.1230  0.3430
 7758SOL    HW134736   2.410   0.594   4.196  0.2655  0.7076  1.2043
 7758SOL    HW234737   2.503   0.541   4.298  1.5969  0.6010 -0.0870
 7759SOL     OW34738   1.695   0.454   0.962  0.2520 -0.1721 -0.0657
 7759SOL    HW134739   1.673   0.537   0.920 -0.0548 -1.2031 -1.9326
 7759SOL    HW234740   1.767   0.487   1.015  2.3463 -3.0433 -1.1179
 7760SOL     OW34741   0.947   3.497   4.078 -0.5847  0.2328  0.1210
 7760SOL    HW134742   0.949   3.404   4.056 -0.9300  0.2009  0.2327
 7760SOL    HW234743   0.983   3.530   3.996 -0.2269  0.8466  0.5239
 7761SOL     OW34744   2.693   2.064   1.604 -0.4542 -0.7594  0.4051
 7761SOL    HW134745   2.604   2.031   1.590 -0.4461 -1.1667  1.3215
 7761SOL    HW234746   2.727   1.989   1.654 -2.0707 -2.3481 -0.8636
 7762SOL     OW34747   3.263   4.103   6.644 -0.2697  0.2798  0.1901
 7762SOL    HW134748   3.308   4.159   6.581  0.0007 -0.5912 -0.3848
 7762SOL    HW234749   3.173   4.138   6.641 -0.4489 -0.2787 -0.6351
 7763SOL     OW34750   2.206   1.634  11.784 -0.1281 -0.1238  0.0917
 7763SOL    HW134751   2.214   1.704  11.719  2.1395  1.1399  1.7574
 7763SOL    HW234752   2.258   1.674  11.854  2.9122 -0.7787 -1.8412
 7764SOL     OW34753   1.252   1.188   1.590 -0.1918 -0.4601  0.6485
 7764SOL    HW134754   1.192   1.135   1.643  0.0136 -0.0665  1.2778
 7764SOL    HW234755   1.197   1.267   1.585 -1.2456 -1.3760 -2.0444
 7765SOL     OW34756   3.567   4.298   4.423 -0.1408  0.1464 -0.0818
 7765SOL    HW134757   3.651   4.286   4.467 -0.9451 -2.6372  0.6960
 7765SOL    HW234758   3.572   4.386   4.385 -1.5373 -0.1675 -1.0197
 7766SOL     OW34759   1.390   2.265   7.309  0.2379  0.0954  0.5736
 7766SOL    HW134760   1.448   2.227   7.244 -0.3333 -0.0396  0.1453
 7766SOL    HW234761   1.403   2.358   7.287  3.3205 -0.2659  0.7901
 7767SOL     OW34762   1.076   3.401  14.398 -0.2881  0.0363 -0.2743
 7767SOL    HW134763   1.157   3.375  14.354  0.2132 -0.7151  1.0680
 7767SOL    HW234764   1.072   3.351  14.480  1.7592  1.7091  0.8360
 7768SOL     OW34765   1.355   1.089   3.063 -0.0613  0.5564  0.0508
 7768SOL    HW134766   1.263   1.113   3.059 -0.2552 -0.2378 -0.2322
 7768SOL    HW234767   1.344   0.994   3.073 -1.7614  0.4469 -3.1177
 7769SOL     OW34768   2.219   4.434   6.913 -0.4069 -0.1336  0.0967
 7769SOL    HW134769   2.180   4.498   6.853 -1.2242 -0.9609 -0.2633
 7769SOL    HW234770   2.221   4.482   6.995 -2.5354 -1.4593  0.9140
 7770SOL     OW34771   3.236   0.697   7.171  0.0341  0.1965  0.1579
 7770SOL    HW134772   3.292   0.644   7.114  0.3496  0.0160  0.6374
 7770SOL    HW234773   3.174   0.725   7.103 -0.6518  1.0863  1.1393
 7771SOL     OW34774   3.928   1.327   4.882  0.3829  0.9197 -0.3068
 7771SOL    HW134775   3.834   1.337   4.872  0.5997  0.0500 -3.0774
 7771SOL    HW234776   3.937   1.243   4.839  0.4198  0.1053  1.2868
 7772SOL     OW34777   4.337   4.383   8.324  0.4148  0.2269 -0.1604
 7772SOL    HW134778   4.305   4.295   8.340  2.3731 -0.5264 -0.3424
 7772SOL    HW234779   4.378   4.381   8.237  0.6368  1.9203 -0.0992
 7773SOL     OW34780   3.468   4.247  11.899  0.1470  0.1340  0.1841
 7773SOL    HW134781   3.503   4.324  11.944  0.5535 -0.3132  0.6450
 7773SOL    HW234782   3.415   4.287  11.831  0.9117  0.7154 -0.0699
 7774SOL     OW34783   1.815   0.504  17.225 -0.2511  0.1666  0.1703
 7774SOL    HW134784   1.773   0.457  17.153  0.4091 -0.4678  0.1990
 7774SOL    HW234785   1.904   0.514  17.190 -0.7276  1.7991 -0.5484
 7775SOL     OW34786   2.022   0.308   2.991 -0.3768 -0.4135 -0.4592
 7775SOL    HW134787   2.085   0.277   2.926  1.1479 -0.8113  1.2200
 7775SOL    HW234788   1.947   0.255   2.961 -0.0277  1.2830 -4.3222
 7776SOL     OW34789   3.046   1.597   2.631  0.7261  0.0389  0.1400
 7776SOL    HW134790   3.136   1.567   2.644  0.2632 -2.0972 -1.6211
 7776SOL    HW234791   3.041   1.605   2.536 -0.1460  1.1520  0.2812
 7777SOL     OW34792   1.707   2.791  10.426 -0.5280 -0.1709  0.0007
 7777SOL    HW134793   1.751   2.732  10.364 -1.9508 -1.5387  0.2861
 7777SOL    HW234794   1.703   2.734  10.502 -0.9342 -1.5832 -1.0743
 7778SOL     OW34795   3.876   2.081   9.871 -0.2510 -0.3194  0.2272
 7778SOL    HW134796   3.812   2.151   9.883 -2.5924 -2.8387  2.2914
 7778SOL    HW234797   3.864   2.062   9.778  2.3993  1.4157 -0.4719
 7779SOL     OW34798   1.800   2.745   2.321 -0.0921 -0.0961 -0.2670
 7779SOL    HW134799   1.771   2.833   2.298 -0.4608 -0.0686  0.2981
 7779SOL    HW234800   1.801   2.699   2.237 -1.9343  0.5052 -0.6147
 7780SOL     OW34801   0.504   2.407   1.178  0.2950 -0.5161 -0.4087
 7780SOL    HW134802   0.507   2.477   1.244 -1.1903  1.1621 -2.1016
 7780SOL    HW234803   0.524   2.331   1.233 -1.7537 -0.9028 -0.1779
 7781SOL     OW34804   2.066   1.431   5.573 -0.0158  0.1879 -0.8001
 7781SOL    HW134805   2.115   1.425   5.491  1.1732  0.7334 -0.1319
 7781SOL    HW234806   1.974   1.408   5.560  0.3919 -0.7903 -1.8375
 7782SOL     OW34807   0.617   2.027   7.873 -0.2298  0.6001  0.1415
 7782SOL    HW134808   0.544   1.965   7.871  0.4102 -0.1481 -0.1347
 7782SOL    HW234809   0.607   2.064   7.786  2.1740  0.7664 -0.0559
 7783SOL     OW34810   0.953   2.920   5.587  0.4693 -0.6948  0.3278
 7783SOL    HW134811   0.976   2.828   5.575 -1.5852 -1.2270  0.4706
 7783SOL    HW234812   0.868   2.915   5.630 -0.6484  0.2364 -1.7942
 7784SOL     OW34813   0.567   2.762   5.216 -0.5619 -0.1327 -0.5265
 7784SOL    HW134814   0.612   2.772   5.299  0.0307 -2.7325 -0.5258
 7784SOL    HW234815   0.616   2.829   5.168  2.7444 -1.0026  1.6541
 7785SOL     OW34816   3.375   2.548  11.766  0.2680  0.3265  0.1244
 7785SOL    HW134817   3.430   2.480  11.728  0.1930  0.7620 -0.7562
 7785SOL    HW234818   3.286   2.522  11.745 -0.0046  2.9312 -1.8549
 7786SOL     OW34819   2.691   3.298   1.880 -0.3200  0.0886  0.0449
 7786SOL    HW134820   2.723   3.370   1.824 -0.0120  1.3161  1.8058
 7786SOL    HW234821   2.605   3.289   1.838 -0.2457 -4.1226  0.8355
 7787SOL     OW34822   0.624   4.202   4.045 -0.2056 -0.4629 -0.6123
 7787SOL    HW134823   0.583   4.126   4.088 -0.8684  0.5428  0.5652
 7787SOL    HW234824   0.592   4.273   4.101  3.1419  0.6745 -0.1681
 7788SOL     OW34825   0.445   4.235   0.346 -0.1862  0.7396  0.5075
 7788SOL    HW134826   0.388   4.257   0.419  0.9950  0.1768  1.5873
 7788SOL    HW234827   0.388   4.254   0.271  0.4283 -1.3896 -0.5162
 7789SOL     OW34828   2.805   1.887   3.431  0.2396  0.0105  0.1418
 7789SOL    HW134829   2.854   1.805   3.425  2.1249  1.1630  0.0933
 7789SOL    HW234830   2.759   1.888   3.347 -0.3245 -0.1865  0.4463
 7790SOL     OW34831   0.128   0.041  17.575 -0.2947 -0.4061 -0.0780
 7790SOL    HW134832   0.187   4.694  17.599  0.2429  0.2511  0.5749
 7790SOL    HW234833   0.177   0.115  17.610 -0.3312  0.6386 -2.2936
 7791SOL     OW34834   3.255   0.113   9.322 -0.3310 -0.0340  0.3223
 7791SOL    HW134835   3.336   0.068   9.348  0.2433  0.2855 -0.8983
 7791SOL    HW234836   3.246   0.091   9.229 -0.7629 -0.0582  0.3686
 7792SOL     OW34837   0.795   4.377   5.520 -0.4604  0.6291 -0.3117
 7792SOL    HW134838   0.708   4.347   5.547 -0.6028  0.4841 -0.9206
 7792SOL    HW234839   0.847   4.298   5.533 -0.3980  1.1086  2.1992
 7793SOL     OW34840   2.352   1.424   7.432  0.4515 -0.5122 -0.3662
 7793SOL    HW134841   2.434   1.377   7.419 -0.1483 -1.5526 -0.3532
 7793SOL    HW234842   2.374   1.506   7.476 -0.5504 -0.3494 -0.1674
 7794SOL     OW34843   2.990   4.401  11.579  0.3379 -0.4592  0.0050
 7794SOL    HW134844   2.901   4.434  11.580  0.0717 -1.2254  1.8060
 7794SOL    HW234845   3.016   4.448  11.659  4.1450 -0.6944 -1.0655
 7795SOL     OW34846   2.063   0.521   9.651 -0.3225  0.2107  0.0947
 7795SOL    HW134847   1.988   0.465   9.630  0.5613 -1.1466  0.5740
 7795SOL    HW234848   2.098   0.526   9.562 -0.5358 -0.8232 -0.0503
 7796SOL     OW34849   4.049   2.292   5.555 -0.1192  0.1291 -0.2640
 7796SOL    HW134850   4.067   2.354   5.626  1.9807 -0.5692 -0.2011
 7796SOL    HW234851   4.032   2.211   5.602  1.7663 -0.5882 -0.8332
 7797SOL     OW34852   4.535   3.302   7.391  0.3449 -0.1201 -0.5084
 7797SOL    HW134853   4.592   3.379   7.387 -2.6018  2.1536  1.1521
 7797SOL    HW234854   4.447   3.336   7.380  1.2653  2.3520 -0.2766
 7798SOL     OW34855   0.683   1.812   7.173 -0.4003 -0.3528 -0.4376
 7798SOL    HW134856   0.714   1.879   7.234  0.9612 -1.0255 -0.3851
 7798SOL    HW234857   0.761   1.756   7.170  2.1937  3.3100 -1.3391
 7799SOL     OW34858   4.538   0.367   7.177  0.6082 -0.0425 -0.0947
 7799SOL    HW134859   4.531   0.310   7.254 -1.4361  0.9185  0.4370
 7799SOL    HW234860   4.574   0.450   7.209  0.4252 -0.0760  0.1966
 7800SOL     OW34861   3.982   3.380  13.869  0.0486  0.1434 -0.2606
 7800SOL    HW134862   3.969   3.330  13.789 -0.1408  0.8122 -0.6463
 7800SOL    HW234863   4.050   3.439  13.835  1.0609 -0.6586  0.3764
 7801SOL     OW34864   3.018   2.267   4.984  0.1874  0.5407 -0.5422
 7801SOL    HW134865   2.964   2.190   5.004  0.1506  0.2792 -1.6882
 7801SOL    HW234866   2.944   2.328   4.994  0.7364  0.6547  2.9484
 7802SOL     OW34867   4.081   1.646   7.563 -0.4259 -0.3951  0.0098
 7802SOL    HW134868   4.105   1.554   7.576  1.2521 -0.0733 -0.8370
 7802SOL    HW234869   4.167   1.687   7.574 -0.1873 -1.4424  2.1045
 7803SOL     OW34870   2.544   1.225   4.833 -0.5133  0.1286 -0.1854
 7803SOL    HW134871   2.620   1.277   4.807  1.5091 -3.0521 -0.7551
 7803SOL    HW234872   2.590   1.168   4.895 -1.2401  0.8110  0.9699
 7804SOL     OW34873   3.564   0.842   9.732 -0.0909 -0.3391  0.6147
 7804SOL    HW134874   3.491   0.846   9.671  1.3586  0.0913 -1.1120
 7804SOL    HW234875   3.628   0.833   9.661  1.3397 -1.7127  2.0906
 7805SOL     OW34876   2.899   3.915   7.061 -0.0418 -0.0538  0.3239
 7805SOL    HW134877   2.989   3.913   7.027  0.7778 -3.3753  2.7180
 7805SOL    HW234878   2.896   4.007   7.087  0.0972  0.1688 -0.4413
 7806SOL     OW34879   3.869   3.527   5.082 -0.1258 -0.2553  0.3805
 7806SOL    HW134880   3.964   3.535   5.080 -0.0230 -1.7046 -0.7379
 7806SOL    HW234881   3.862   3.483   5.167 -0.7447  0.5193  0.7247
 7807SOL     OW34882   3.010   1.219   1.915 -0.0097 -0.3769  0.2389
 7807SOL    HW134883   3.015   1.126   1.893 -0.2096 -0.3848  0.2275
 7807SOL    HW234884   3.095   1.229   1.958  0.8744  0.4022 -1.6500
 7808SOL     OW34885   1.590   0.675   0.761  0.8678  0.1663 -0.6400
 7808SOL    HW134886   1.601   0.603   0.699  0.4201 -2.0214  1.7945
 7808SOL    HW234887   1.498   0.694   0.744  0.4700 -0.1685  1.0894
 7809SOL     OW34888   0.794   0.664  15.629 -0.1490 -0.6318  0.2397
 7809SOL    HW134889   0.877   0.704  15.602 -1.1919  2.0726  1.0422
 7809SOL    HW234890   0.789   0.583  15.579 -0.7217 -1.2777  1.3313
 7810SOL     OW34891   2.557   2.959   7.924 -0.1184  0.3966  0.4838
 7810SOL    HW134892   2.546   2.865   7.919 -0.5974  0.5513 -1.2343
 7810SOL    HW234893   2.475   2.997   7.893 -0.3637 -1.0215 -0.5743
 7811SOL     OW34894   3.435   4.714  15.864 -0.4824 -0.0534 -0.1597
 7811SOL    HW134895   3.393   0.045  15.800  1.0829 -2.3053 -3.2037
 7811SOL    HW234896   3.371   4.649  15.892  0.4724 -0.7706  0.3770
 7812SOL     OW34897   4.173   0.349   4.001  0.3284 -0.0321 -0.0202
 7812SOL    HW134898   4.104   0.282   3.996  0.6152 -0.2970 -0.4917
 7812SOL    HW234899   4.179   0.378   3.909  1.4276  1.0705  0.4040
 7813SOL     OW34900   0.526   0.359   0.430  0.3732 -0.3004  0.4162
 7813SOL    HW134901   0.497   0.428   0.370  0.8699 -0.5704 -0.1383
 7813SOL    HW234902   0.450   0.311   0.463 -0.1403 -0.5007 -1.0537
 7814SOL     OW34903   1.445   2.353   8.336  0.0839 -0.1635 -0.1094
 7814SOL    HW134904   1.518   2.415   8.337 -0.3406  0.2990  2.1289
 7814SOL    HW234905   1.471   2.297   8.263 -0.0642  1.3282 -1.2994
 7815SOL     OW34906   0.594   0.505   7.865 -0.2855 -0.0934  0.4756
 7815SOL    HW134907   0.560   0.594   7.863  0.0679  0.0191 -0.3678
 7815SOL    HW234908   0.687   0.518   7.882 -0.3436  0.3563  0.4399
 7816SOL     OW34909   0.157   4.527   2.864  0.5972  0.6569 -0.0899
 7816SOL    HW134910   0.150   4.497   2.954  0.9469 -0.2394 -0.3604
 7816SOL    HW234911   0.215   4.463   2.822 -0.0308 -0.0109  0.0673
 7817SOL     OW34912   1.447   3.993   0.886  0.4150  0.2411 -0.2605
 7817SOL    HW134913   1.357   4.015   0.910  0.5278 -0.4280  0.7647
 7817SOL    HW234914   1.495   4.019   0.965 -0.2345 -3.4989  1.3613
 7818SOL     OW34915   0.349   0.634  17.562 -0.1385 -0.0908 -0.6609
 7818SOL    HW134916   0.321   0.723  17.540  0.1865 -0.2156 -1.5960
 7818SOL    HW234917   0.440   0.625  17.535 -0.0779 -0.4266 -0.3330
 7819SOL     OW34918   2.767   3.395   8.690  0.0159  0.4725 -0.5783
 7819SOL    HW134919   2.756   3.457   8.762 -3.7905 -1.3482  0.4071
 7819SOL    HW234920   2.723   3.437   8.616  1.3901  0.0685 -1.6241
 7820SOL     OW34921   0.328   1.013   5.309  0.3620  0.3740 -0.0038
 7820SOL    HW134922   0.380   1.061   5.374 -2.2818  3.8157 -0.3952
 7820SOL    HW234923   0.344   0.920   5.325  0.0251  0.1743 -0.8281
 7821SOL     OW34924   3.579   1.589   5.503  0.2933  0.3141 -0.3755
 7821SOL    HW134925   3.531   1.513   5.471  0.1364 -0.5299  1.8684
 7821SOL    HW234926   3.512   1.633   5.556  0.6755 -0.6029  0.8775
 7822SOL     OW34927   0.630   1.920   6.912 -0.1485  0.3972  0.1801
 7822SOL    HW134928   0.714   1.965   6.920 -0.4051  0.9372 -0.1440
 7822SOL    HW234929   0.630   1.881   7.000  0.6483  0.6945  0.3082
 7823SOL     OW34930   4.289   2.208  12.058 -0.0072  0.0952 -0.5254
 7823SOL    HW134931   4.212   2.153  12.077 -0.5914  1.9551  2.4797
 7823SOL    HW234932   4.251   2.295  12.049 -0.9189 -0.2599 -0.1981
 7824SOL     OW34933   3.529   1.470   9.891 -0.4787  0.1892  0.0638
 7824SOL    HW134934   3.479   1.550   9.909 -0.5188  0.3962 -0.9411
 7824SOL    HW234935   3.606   1.477   9.946  0.1804 -0.3979 -0.7844
 7825SOL     OW34936   4.493   2.958   5.674 -0.1567  0.4662 -0.1697
 7825SOL    HW134937   4.553   2.982   5.745 -0.8501  2.1246 -0.1555
 7825SOL    HW234938   4.487   3.037   5.620 -0.0795  0.3528 -0.3426
 7826SOL     OW34939   4.179   2.093   3.333  0.1487  0.7597  0.2154
 7826SOL    HW134940   4.156   2.046   3.413 -3.9864  2.1661 -0.1474
 7826SOL    HW234941   4.274   2.098   3.344  0.3201 -0.7288 -0.6637
 7827SOL     OW34942   2.482   0.692   6.367  0.2497  0.4287  0.3574
 7827SOL    HW134943   2.559   0.727   6.412 -0.6806  0.1469  2.1436
 7827SOL    HW234944   2.462   0.614   6.419  3.4885 -0.1190  0.7817
 7828SOL     OW34945   1.092   1.202   7.235 -0.5115 -0.3202  0.1274
 7828SOL    HW134946   1.032   1.172   7.302  0.2396 -1.9419  0.0758
 7828SOL    HW234947   1.170   1.202   7.290  0.9057 -0.5686 -1.8690
 7829SOL     OW34948   4.703   3.263   2.965  0.4670  0.4006  0.3827
 7829SOL    HW134949   4.706   3.345   2.917  1.2324  0.7470  1.0133
 7829SOL    HW234950   4.644   3.286   3.037  0.7073 -1.3445  1.1590
 7830SOL     OW34951   4.510   1.539   5.438 -0.2225 -0.1500  0.3385
 7830SOL    HW134952   4.531   1.453   5.475 -0.0485 -0.5423 -0.6439
 7830SOL    HW234953   4.414   1.539   5.437 -0.2067  0.9275 -1.2696
 7831SOL     OW34954   1.277   3.882   9.101  0.4679  0.0346 -0.4604
 7831SOL    HW134955   1.265   3.932   9.182 -1.3644 -1.7252  0.3562
 7831SOL    HW234956   1.207   3.917   9.047  1.2250 -0.3768 -1.6935
 7832SOL     OW34957   4.650   1.216   8.467 -0.8864  0.0872  0.7147
 7832SOL    HW134958   4.574   1.185   8.417 -0.4541 -0.5012  0.4098
 7832SOL    HW234959   4.719   1.216   8.401  1.2552 -1.8722  2.9290
 7833SOL     OW34960   2.052   4.376  13.876  1.1653 -0.3998 -0.2626
 7833SOL    HW134961   2.095   4.457  13.903  1.5867 -0.5339 -0.5345
 7833SOL    HW234962   2.051   4.383  13.781  1.0117  1.4091 -0.1360
 7834SOL     OW34963   0.145   1.435   5.111 -0.2944 -0.1120  0.6969
 7834SOL    HW134964   0.112   1.524   5.102 -1.3116 -0.5353  0.2062
 7834SOL    HW234965   0.230   1.442   5.068 -1.1761  0.7346 -0.9175
 7835SOL     OW34966   3.454   3.709   7.312  0.4031 -0.2412  0.1578
 7835SOL    HW134967   3.441   3.769   7.238 -0.7923 -1.1051 -0.3288
 7835SOL    HW234968   3.540   3.726   7.350 -0.0918 -0.2366  1.2573
 7836SOL     OW34969   2.623   0.450   6.577 -0.4488 -0.1535  0.3800
 7836SOL    HW134970   2.645   0.377   6.635  1.5810 -0.2132 -0.4792
 7836SOL    HW234971   2.530   0.439   6.555 -0.0733 -0.3231 -1.0831
 7837SOL     OW34972   3.600   4.528   3.604  0.7977  0.0091  0.1752
 7837SOL    HW134973   3.617   4.604   3.658  0.2958  0.9897 -1.0399
 7837SOL    HW234974   3.535   4.483   3.658  0.5305  1.0747  0.7415
 7838SOL     OW34975   0.971   4.224   3.002 -0.3606 -0.4117  0.1305
 7838SOL    HW134976   0.974   4.284   3.077 -1.2912 -0.9941  0.6387
 7838SOL    HW234977   1.003   4.273   2.927 -0.1891 -1.9915 -0.8403
 7839SOL     OW34978   3.015   1.710   4.584  0.2561  0.2008  0.4437
 7839SOL    HW134979   2.966   1.744   4.509 -0.4931 -1.3355  0.2324
 7839SOL    HW234980   3.020   1.789   4.638  1.6049  1.1940 -1.1149
 7840SOL     OW34981   3.288   4.532  11.049 -0.7816  0.2791 -0.8550
 7840SOL    HW134982   3.294   4.451  10.999 -0.3879 -0.6624  0.7006
 7840SOL    HW234983   3.350   4.585  10.999  0.3772 -0.9436 -0.7030
 7841SOL     OW34984   2.029   3.087   7.437 -0.0129 -0.2488 -0.1656
 7841SOL    HW134985   2.059   3.105   7.347  2.1088  0.0770  0.6117
 7841SOL    HW234986   1.935   3.070   7.423 -0.5105  1.8565  0.7740
 7842SOL     OW34987   2.345   2.261   3.160 -0.1773 -0.4253  0.0591
 7842SOL    HW134988   2.263   2.309   3.152  0.9179  1.3835 -0.2452
 7842SOL    HW234989   2.398   2.315   3.101  0.1061  0.8391  1.4709
 7843SOL     OW34990   4.684   4.312  12.173  0.3556  0.1991 -0.3119
 7843SOL    HW134991   4.640   4.232  12.204  2.7663 -0.7220  0.7086
 7843SOL    HW234992   4.623   4.384  12.186  0.0215  0.0456 -0.9813
 7844SOL     OW34993   0.994   0.815   0.289  0.0879  0.3150  0.1390
 7844SOL    HW134994   0.933   0.785   0.221  2.1955 -1.5825 -0.9279
 7844SOL    HW234995   0.932   0.858   0.348 -2.2397  0.0778 -2.1418
 7845SOL     OW34996   3.272   4.366   0.368  0.0527 -0.4583  0.8209
 7845SOL    HW134997   3.189   4.394   0.330 -0.2835 -0.8389  1.2630
 7845SOL    HW234998   3.275   4.404   0.456 -0.0705  0.1951  0.5426
 7846SOL     OW34999   0.637   2.605   7.650  0.0381  0.6188 -0.7316
 7846SOL    HW135000   0.551   2.575   7.621  0.4527 -2.0092  0.7482
 7846SOL    HW235001   0.638   2.696   7.620  0.5496  1.5584  2.0642
 7847SOL     OW35002   0.703   0.724   5.800 -0.0805  0.3128  0.1109
 7847SOL    HW135003   0.691   0.787   5.729  1.0944  1.6513  1.0979
 7847SOL    HW235004   0.798   0.710   5.804 -0.4010 -2.2465 -1.4903
 7848SOL     OW35005   3.994   2.855   7.802 -0.0474 -0.3159 -0.2457
 7848SOL    HW135006   3.956   2.860   7.890  0.3200 -0.4742 -0.0733
 7848SOL    HW235007   4.013   2.946   7.782  1.0019 -0.7098 -1.0475
 7849SOL     OW35008   4.219   3.370   9.655  0.7921 -0.9376  0.5924
 7849SOL    HW135009   4.268   3.402   9.579  1.5743  0.6976  1.7844
 7849SOL    HW235010   4.148   3.326   9.609 -0.3549  1.0845  0.4295
 7850SOL     OW35011   0.926   2.198   4.259 -0.2595  0.5747 -0.2181
 7850SOL    HW135012   0.980   2.222   4.184  1.0526 -3.6005 -0.6090
 7850SOL    HW235013   0.911   2.107   4.234  0.7915  0.4460 -0.4097
 7851SOL     OW35014   3.397   0.486   5.263 -0.2710 -0.0879  0.0075
 7851SOL    HW135015   3.389   0.392   5.251  0.7037 -0.3931  1.7166
 7851SOL    HW235016   3.313   0.497   5.307  0.4290  2.2199  0.7702
 7852SOL     OW35017   0.570   4.535  15.063 -0.2534  0.1434 -0.4246
 7852SOL    HW135018   0.617   4.489  14.994 -1.5964 -1.4643 -0.2880
 7852SOL    HW235019   0.617   4.618  15.061  0.9971 -0.6148 -1.8297
 7853SOL     OW35020   1.037   1.339   3.400  0.4996 -0.0200 -0.0174
 7853SOL    HW135021   1.102   1.288   3.352 -0.0432 -2.9604  2.3912
 7853SOL    HW235022   1.096   1.398   3.447  0.6831  1.9659 -2.7588
 7854SOL     OW35023   1.687   2.939   6.020 -0.1253  0.2121 -0.2971
 7854SOL    HW135024   1.737   3.018   5.998 -0.5940  0.9292  1.1609
 7854SOL    HW235025   1.660   2.902   5.937  1.1826 -0.4267 -0.4455
 7855SOL     OW35026   0.875   0.592   4.876  0.5016  0.3115 -0.1683
 7855SOL    HW135027   0.904   0.682   4.893 -3.0701  1.3253  0.6202
 7855SOL    HW235028   0.944   0.539   4.914 -1.4772 -2.0016  0.1528
 7856SOL     OW35029   3.267   1.719  11.793  0.0011 -0.1377  0.2266
 7856SOL    HW135030   3.251   1.727  11.699  2.1128 -1.2882 -0.2157
 7856SOL    HW235031   3.187   1.678  11.827  0.2130  0.0938  0.9875
 7857SOL     OW35032   1.227   3.003   7.456  0.3929  0.2157  0.3017
 7857SOL    HW135033   1.144   2.968   7.424 -0.9248  1.7598  1.9968
 7857SOL    HW235034   1.210   3.093   7.486 -3.9538  0.0873 -1.8299
 7858SOL     OW35035   1.651   3.459   4.389  0.3037  0.0100 -0.2468
 7858SOL    HW135036   1.704   3.428   4.462  1.2345  1.9058 -0.1027
 7858SOL    HW235037   1.609   3.541   4.415  1.7926  0.4625  0.7302
 7859SOL     OW35038   3.403   2.874  14.923  0.3662  0.1152 -0.0225
 7859SOL    HW135039   3.384   2.847  15.013  1.8917  1.0866  0.6024
 7859SOL    HW235040   3.341   2.823  14.871  0.8990 -1.1855  0.6047
 7860SOL     OW35041   2.464   3.740   3.131  0.6830  0.2730  0.4150
 7860SOL    HW135042   2.509   3.690   3.063 -1.2690 -1.7151  0.5784
 7860SOL    HW235043   2.531   3.805   3.155 -1.0736  2.0619  0.5070
 7861SOL     OW35044   2.807   3.384   5.392  0.2491 -0.6566  0.2210
 7861SOL    HW135045   2.816   3.349   5.480 -1.2651 -0.6936  0.3566
 7861SOL    HW235046   2.713   3.396   5.381 -0.2717 -3.3027  1.9987
 7862SOL     OW35047   1.061   2.435  12.952 -0.0492  0.6588 -0.5497
 7862SOL    HW135048   1.032   2.477  13.033  0.6241  1.5999 -0.7978
 7862SOL    HW235049   1.036   2.499  12.885 -1.5389  2.0008  1.2747
 7863SOL     OW35050   4.699   2.570  11.050 -0.0818 -0.1853  0.2525
 7863SOL    HW135051   0.054   2.617  11.068  0.4946 -1.9323  2.2614
 7863SOL    HW235052   4.660   2.565  11.137 -1.1655 -0.2842 -0.2259
 7864SOL     OW35053   1.674   0.981   6.480 -0.3982 -0.0485 -0.6834
 7864SOL    HW135054   1.629   1.039   6.541 -0.6627 -1.8640  0.8462
 7864SOL    HW235055   1.637   0.897   6.508 -2.6462  1.1170 -0.1786
 7865SOL     OW35056   2.615   2.060  10.270  0.0692  0.1818 -0.1220
 7865SOL    HW135057   2.588   1.970  10.291 -1.1587  0.6011  0.0741
 7865SOL    HW235058   2.597   2.065  10.176  2.2338 -0.1405 -0.5643
 7866SOL     OW35059   3.117   0.475   7.777  0.4023 -0.6235  0.2855
 7866SOL    HW135060   3.208   0.502   7.790  0.1704  0.0053  0.6227
 7866SOL    HW235061   3.094   0.567   7.763  4.1000 -0.0672 -2.1490
 7867SOL     OW35062   3.673   0.125  14.357  0.0535 -0.3311 -0.2657
 7867SOL    HW135063   3.687   0.208  14.311 -0.2184  1.0629  2.1288
 7867SOL    HW235064   3.581   0.119  14.331 -0.2257  1.5253  0.3180
 7868SOL     OW35065   2.182   3.336   3.309  0.4600  0.1914  0.9107
 7868SOL    HW135066   2.152   3.255   3.352  0.8654  0.8444  2.4246
 7868SOL    HW235067   2.264   3.298   3.278  1.3995  1.1497  2.1816
 7869SOL     OW35068   1.648   2.959  16.191  0.2638 -0.3825 -0.3162
 7869SOL    HW135069   1.642   2.870  16.155 -1.0034 -0.1241 -0.7216
 7869SOL    HW235070   1.691   2.936  16.273 -4.7550  0.9778  2.6425
 7870SOL     OW35071   4.420   1.391  16.077 -0.0541  0.0030  0.0161
 7870SOL    HW135072   4.340   1.443  16.074 -0.7269 -0.8990  1.9430
 7870SOL    HW235073   4.485   1.456  16.052  1.0037 -1.3556 -0.7781
 7871SOL     OW35074   4.039   1.744  10.238  0.8609  0.4374  0.2388
 7871SOL    HW135075   4.032   1.730  10.332 -2.0797  0.7519  0.0675
 7871SOL    HW235076   4.109   1.808  10.247  0.7203  0.4265  1.4290
 7872SOL     OW35077   2.322   2.941   6.240 -0.4833 -0.2848 -0.3149
 7872SOL    HW135078   2.311   2.938   6.335 -0.4464 -0.3070 -0.3112
 7872SOL    HW235079   2.236   2.967   6.209 -0.0143  0.2249 -1.1859
 7873SOL     OW35080   4.529   4.001   3.744 -0.3523 -0.0739  0.1463
 7873SOL    HW135081   4.469   4.003   3.669 -0.6476 -0.0672  0.3833
 7873SOL    HW235082   4.489   3.948   3.813  0.1114 -1.1706 -0.4343
 7874SOL     OW35083   1.016   0.719   5.809 -0.4356  0.3136  0.2644
 7874SOL    HW135084   1.007   0.804   5.853 -0.3744  0.5167 -0.1224
 7874SOL    HW235085   1.064   0.739   5.729  0.1478 -0.6827  0.3684
 7875SOL     OW35086   4.038   3.627   4.787  0.1281 -0.5082  0.5806
 7875SOL    HW135087   4.015   3.591   4.873 -1.3429  0.5643  0.6351
 7875SOL    HW235088   4.128   3.595   4.786  0.5679  0.7603 -0.0380
 7876SOL     OW35089   4.433   3.832   1.720  0.4638  0.2938  0.3914
 7876SOL    HW135090   4.375   3.775   1.770  0.4202  0.0149  0.0237
 7876SOL    HW235091   4.473   3.765   1.664 -1.8088 -0.7017 -0.0490
 7877SOL     OW35092   4.310   0.684   4.970 -0.0021 -0.2458  0.2206
 7877SOL    HW135093   4.360   0.688   5.051  0.5778  0.2543 -0.1551
 7877SOL    HW235094   4.361   0.733   4.905 -0.2579 -1.0913 -0.6160
 7878SOL     OW35095   0.865   4.164   0.093 -0.1348 -0.1848 -0.2765
 7878SOL    HW135096   0.937   4.106   0.068  0.8761  0.4065  1.2630
 7878SOL    HW235097   0.804   4.141   0.023  1.2189  0.1730 -1.5750
 7879SOL     OW35098   2.696   0.813   2.606  0.3646  0.3192  0.4179
 7879SOL    HW135099   2.711   0.904   2.630 -1.1575  0.6685  0.0815
 7879SOL    HW235100   2.738   0.770   2.680  0.4629 -1.5382 -0.7290
 7880SOL     OW35101   0.920   3.300   5.350 -0.4109  0.2106  0.0480
 7880SOL    HW135102   0.982   3.229   5.369 -1.6720 -0.5731  1.1566
 7880SOL    HW235103   0.847   3.283   5.408 -3.1245 -0.0205 -3.4444
 7881SOL     OW35104   2.514   0.292  10.729  0.3599 -0.1586  0.2667
 7881SOL    HW135105   2.582   0.355  10.754 -0.5224  1.2029 -0.7528
 7881SOL    HW235106   2.569   0.216  10.746 -0.4174 -0.7320  0.2154
 7882SOL     OW35107   3.788   1.255   8.679 -0.1354 -0.4655  0.2896
 7882SOL    HW135108   3.835   1.174   8.659 -0.2247 -0.4375 -0.0229
 7882SOL    HW235109   3.707   1.219   8.714 -1.4826  0.8008 -1.5620
 7883SOL     OW35110   2.162   1.555  11.510 -0.0817  0.3167 -0.2685
 7883SOL    HW135111   2.107   1.559  11.589  1.6597 -0.0096  0.9772
 7883SOL    HW235112   2.238   1.607  11.534  1.7462 -0.7615 -3.7872
 7884SOL     OW35113   4.642   0.070  17.397 -0.4216  0.2159  0.6436
 7884SOL    HW135114   4.591   0.139  17.439  0.1608 -1.3749  3.9076
 7884SOL    HW235115   4.708   0.056  17.465  1.9364 -0.2989 -1.7203
 7885SOL     OW35116   0.047   1.905   9.307  0.2263  0.3541  0.6519
 7885SOL    HW135117   0.011   1.939   9.225  2.5035  0.4216 -0.3145
 7885SOL    HW235118   0.076   1.821   9.273 -2.8710  0.8120 -3.0224
 7886SOL     OW35119   3.198   4.645   9.971  0.4634 -0.2187 -0.7209
 7886SOL    HW135120   3.248   4.637   9.890  1.7617  0.8817 -0.0290
 7886SOL    HW235121   3.231   0.004  10.000 -2.1870 -0.1932  2.2506
 7887SOL     OW35122   1.294   1.333  11.022 -0.8022  0.1473 -0.8759
 7887SOL    HW135123   1.207   1.361  10.995 -2.2655 -1.4047  2.2107
 7887SOL    HW235124   1.331   1.421  11.028 -0.7802  0.1102 -0.4462
 7888SOL     OW35125   0.206   1.439  16.613 -0.0472  0.4807  0.7648
 7888SOL    HW135126   0.114   1.459  16.629 -0.7680 -0.0540 -2.7090
 7888SOL    HW235127   0.209   1.362  16.671  1.4311  0.1287  0.2023
 7889SOL     OW35128   3.700   1.187  10.187  0.4372  0.1500  0.0230
 7889SOL    HW135129   3.609   1.161  10.173  0.9435 -1.4469 -0.2629
 7889SOL    HW235130   3.707   1.192  10.283 -2.2178 -0.1395  0.2371
 7890SOL     OW35131   1.064   4.600   3.966  0.3280 -0.5376  0.2286
 7890SOL    HW135132   1.120   4.673   3.994  0.1420 -0.1133 -0.4874
 7890SOL    HW235133   1.115   4.520   3.965  0.3648 -0.5087 -0.3479
 7891SOL     OW35134   0.168   3.852  17.229 -0.2366  0.2052  0.0103
 7891SOL    HW135135   0.124   3.790  17.171  0.1480 -0.5717  0.5537
 7891SOL    HW235136   0.185   3.800  17.307 -0.3212  0.4429  0.1868
 7892SOL     OW35137   4.118   1.089  10.392 -0.0183  0.5001 -0.3086
 7892SOL    HW135138   4.139   1.071  10.300 -0.1925 -0.2594 -0.1977
 7892SOL    HW235139   4.117   1.185  10.392  0.7573  0.5190 -1.6069
 7893SOL     OW35140   1.174   0.979   8.013  0.1584  0.7250 -0.2825
 7893SOL    HW135141   1.189   1.051   8.074  0.8612  1.0448 -0.8252
 7893SOL    HW235142   1.080   0.966   8.025  0.7767 -3.6080 -0.0478
 7894SOL     OW35143   2.220   3.363   4.238  0.0384  0.2973  0.3670
 7894SOL    HW135144   2.162   3.366   4.162  1.4269  0.1750 -0.6965
 7894SOL    HW235145   2.211   3.276   4.276 -0.5250  0.5283  0.7644
 7895SOL     OW35146   4.358   0.039   3.861 -0.3145  0.4059  0.5085
 7895SOL    HW135147   4.369   4.718   3.778 -2.1216  1.0220 -0.0757
 7895SOL    HW235148   4.345   0.127   3.827  2.0458  0.5399 -0.0601
 7896SOL     OW35149   2.140   1.511   3.993 -0.2399 -0.4770 -0.4890
 7896SOL    HW135150   2.072   1.519   3.927  0.1961  2.0316 -0.6553
 7896SOL    HW235151   2.185   1.431   3.967  0.5804 -0.3279  0.4439
 7897SOL     OW35152   4.018   1.458   2.982  0.2299 -0.4182 -0.3832
 7897SOL    HW135153   3.968   1.461   2.900  0.2234  0.7201 -0.3316
 7897SOL    HW235154   4.068   1.539   2.981 -0.3704 -0.0442  0.8488
 7898SOL     OW35155   2.989   1.496   6.922 -0.4130 -0.2766 -0.1724
 7898SOL    HW135156   3.040   1.434   6.975 -1.6219 -0.8755  0.2815
 7898SOL    HW235157   2.897   1.491   6.946 -0.7755  0.5210 -1.4102
 7899SOL     OW35158   3.473   2.618   6.545 -0.1900 -0.2629  0.1575
 7899SOL    HW135159   3.460   2.536   6.499 -1.1254 -1.1036  1.9132
 7899SOL    HW235160   3.482   2.580   6.632 -2.0134  0.8133  0.8182
 7900SOL     OW35161   0.547   1.098  15.710 -0.5141 -0.2788 -0.3411
 7900SOL    HW135162   0.539   1.042  15.787  0.4183 -0.2878 -0.2606
 7900SOL    HW235163   0.594   1.035  15.655 -0.0334  0.6857 -1.0342
 7901SOL     OW35164   0.788   2.619   4.601 -0.4806 -0.1201 -0.6415
 7901SOL    HW135165   0.732   2.677   4.653  3.1720  2.3231  0.5181
 7901SOL    HW235166   0.868   2.671   4.613  0.2657 -1.1424 -1.2564
 7902SOL     OW35167   3.414   3.013  14.209  0.1131 -0.4719 -0.2479
 7902SOL    HW135168   3.383   2.932  14.251 -0.5197 -0.3562 -0.4992
 7902SOL    HW235169   3.493   2.972  14.173  0.3478 -2.7130  2.7361
 7903SOL     OW35170   1.336   3.731   2.357 -0.4194  0.6597 -0.2778
 7903SOL    HW135171   1.339   3.635   2.356  1.9330  0.7203  1.0777
 7903SOL    HW235172   1.312   3.752   2.267  0.6191  1.9151 -0.2600
 7904SOL     OW35173   3.313   0.839   0.440  0.1565 -0.3197 -0.3719
 7904SOL    HW135174   3.286   0.922   0.477 -1.9314 -1.9883  1.8463
 7904SOL    HW235175   3.301   0.781   0.515 -1.3745  2.2825  1.3594
 7905SOL     OW35176   2.419   4.200   8.570  1.0634  0.3457 -0.3074
 7905SOL    HW135177   2.504   4.215   8.528  1.1814  0.3643 -0.0609
 7905SOL    HW235178   2.463   4.186   8.654  0.1065 -1.3418 -0.0846
 7906SOL     OW35179   4.403   4.269  13.091 -0.2709  0.0587 -0.1186
 7906SOL    HW135180   4.333   4.218  13.131  0.3987 -0.9234 -0.1691
 7906SOL    HW235181   4.443   4.205  13.031 -3.8231 -2.6255  0.3353
 7907SOL     OW35182   4.427   2.720  16.571  0.5565 -0.0045  0.2254
 7907SOL    HW135183   4.335   2.700  16.589  0.1800  0.6487 -0.9734
 7907SOL    HW235184   4.438   2.814  16.585 -0.0250  0.3909 -1.9121
 7908SOL     OW35185   4.206   2.847  10.072 -0.1391 -0.5193  0.5265
 7908SOL    HW135186   4.144   2.894  10.017 -0.4028 -1.2249  0.2280
 7908SOL    HW235187   4.289   2.874  10.033  0.3046 -1.0221  1.1125
 7909SOL     OW35188   4.282   3.898   5.288  0.0881 -0.0143 -0.1589
 7909SOL    HW135189   4.241   3.854   5.214 -0.5234  0.8718 -0.3543
 7909SOL    HW235190   4.340   3.953   5.234 -1.9285  0.5969 -1.7235
 7910SOL     OW35191   3.664   4.673   8.564 -0.2616 -0.0752  0.2341
 7910SOL    HW135192   3.729   4.692   8.497 -3.0487 -0.6659 -2.6909
 7910SOL    HW235193   3.657   0.033   8.606  0.0778  0.0516  0.0233
 7911SOL     OW35194   2.541   2.197   6.417  0.4325 -0.2025  0.3592
 7911SOL    HW135195   2.562   2.212   6.324  0.4567  1.8312  0.6912
 7911SOL    HW235196   2.451   2.230   6.413 -0.3796 -2.4543  0.1608
 7912SOL     OW35197   0.855   3.569  13.605 -0.2625  0.2289  0.3695
 7912SOL    HW135198   0.942   3.591  13.574 -0.4305  1.4102  0.7665
 7912SOL    HW235199   0.843   3.486  13.558 -1.0990  0.2386  0.5667
 7913SOL     OW35200   3.468   3.879   8.042 -0.2679  0.3098 -0.4592
 7913SOL    HW135201   3.483   3.830   8.123 -1.3878  0.4835 -0.1528
 7913SOL    HW235202   3.432   3.957   8.082  2.2684  0.8006  0.8386
 7914SOL     OW35203   2.857   3.917   4.545 -0.0342  0.3589 -0.2733
 7914SOL    HW135204   2.808   3.860   4.485 -1.7328  0.2604  1.2055
 7914SOL    HW235205   2.925   3.856   4.574 -1.1929 -0.9980 -0.3961
 7915SOL     OW35206   2.819   3.046   3.781 -0.4309 -0.1731  0.4068
 7915SOL    HW135207   2.834   3.018   3.691 -1.0783 -0.9980  0.5515
 7915SOL    HW235208   2.860   3.131   3.768 -2.8997  1.2124  1.5450
 7916SOL     OW35209   2.592   4.578  16.714 -0.0346  0.1076  0.3968
 7916SOL    HW135210   2.592   4.655  16.771  0.6818 -0.0179  0.5560
 7916SOL    HW235211   2.500   4.566  16.689  0.3297  0.1448 -1.0019
 7917SOL     OW35212   2.881   2.910   9.220 -0.6947  0.3879 -0.1470
 7917SOL    HW135213   2.965   2.951   9.243 -1.2955  0.0704  2.5452
 7917SOL    HW235214   2.896   2.822   9.253  0.2731  0.7033  0.2643
 7918SOL     OW35215   2.489   3.138   0.353  0.2550 -0.6183 -0.3683
 7918SOL    HW135216   2.442   3.216   0.381  1.9564  0.5709 -0.7763
 7918SOL    HW235217   2.482   3.084   0.431 -1.0106 -0.5869 -0.4657
 7919SOL     OW35218   2.705   0.390   4.945  0.4417  0.5245 -0.8755
 7919SOL    HW135219   2.619   0.347   4.943  0.4003  0.7204 -3.0190
 7919SOL    HW235220   2.709   0.415   5.038  0.3542 -3.2666  0.1350
 7920SOL     OW35221   2.806   0.709  17.273  0.6301 -0.0833 -0.4340
 7920SOL    HW135222   2.834   0.653  17.201  1.1867  0.4673 -0.6391
 7920SOL    HW235223   2.751   0.773  17.229 -0.7980  1.4889  3.6166
 7921SOL     OW35224   4.425   3.200   8.348 -0.1357  0.1126  0.0781
 7921SOL    HW135225   4.395   3.109   8.354  2.8680 -0.8496  0.1594
 7921SOL    HW235226   4.373   3.250   8.412  0.4153  1.1905 -0.3077
 7922SOL     OW35227   0.209   0.321   7.601 -0.5283 -0.8069 -0.0739
 7922SOL    HW135228   0.215   0.331   7.506 -2.3905  2.1556  0.1217
 7922SOL    HW235229   0.300   0.323   7.631 -0.7445  1.5796  0.4180
 7923SOL     OW35230   4.415   2.544   9.080 -0.4710  0.2057 -0.5510
 7923SOL    HW135231   4.438   2.500   9.161  0.6655  2.7857  0.5194
 7923SOL    HW235232   4.358   2.477   9.042 -1.4295  0.9266 -0.4090
 7924SOL     OW35233   4.212   0.271   1.108 -0.7568  0.5273  0.2574
 7924SOL    HW135234   4.133   0.225   1.079  1.4863 -3.6721  0.7658
 7924SOL    HW235235   4.263   0.199   1.144 -0.9659 -0.2059 -0.9227
 7925SOL     OW35236   3.985   3.437   5.567 -0.7574  0.0914 -0.7576
 7925SOL    HW135237   4.004   3.399   5.653 -0.8985  1.9296  0.0783
 7925SOL    HW235238   4.040   3.515   5.558 -1.1962  0.5030  0.2217
 7926SOL     OW35239   3.768   3.562  16.994 -0.3915 -0.5602  0.1945
 7926SOL    HW135240   3.728   3.480  16.967 -0.8326  0.2275 -1.5575
 7926SOL    HW235241   3.707   3.605  17.055  0.7524  1.8706 -0.3705
 7927SOL     OW35242   3.049   0.203   6.345  0.4163  0.6554  0.7633
 7927SOL    HW135243   3.094   0.250   6.416  0.5538  0.2385  0.9516
 7927SOL    HW235244   2.972   0.164   6.385 -0.1747 -0.5647 -1.5862
 7928SOL     OW35245   0.163   1.851   0.869 -0.0695 -0.5127 -0.2429
 7928SOL    HW135246   0.242   1.857   0.816 -0.1568 -1.6967 -0.5095
 7928SOL    HW235247   0.196   1.875   0.955 -1.0828 -2.7756  0.7685
 7929SOL     OW35248   4.247   3.152   5.548  0.2043 -0.0581 -0.2568
 7929SOL    HW135249   4.271   3.187   5.634 -0.8007 -0.1937  0.0709
 7929SOL    HW235250   4.259   3.237   5.506 -0.7554  0.1777 -0.0581
 7930SOL     OW35251   0.518   4.288  17.541  0.0472  0.2445 -0.1585
 7930SOL    HW135252   0.476   4.346  17.605 -1.6158 -1.2920  0.1362
 7930SOL    HW235253   0.592   4.342  17.512 -0.5836  0.8268 -0.6883
 7931SOL     OW35254   0.950   3.869  17.030 -0.5456  0.1480  0.8125
 7931SOL    HW135255   0.952   3.801  16.962 -0.0597 -1.0750  2.0403
 7931SOL    HW235256   0.871   3.852  17.081 -0.1791  1.0477  1.6729
 7932SOL     OW35257   1.192   0.133  17.132  0.1927  0.2518 -0.1189
 7932SOL    HW135258   1.164   0.058  17.081 -1.6134  0.4189  0.6350
 7932SOL    HW235259   1.240   0.195  17.076 -0.7071  1.1310  0.0894
 7933SOL     OW35260   4.522   4.074  14.728  0.0121  0.1320  0.0735
 7933SOL    HW135261   4.561   4.128  14.659 -2.2180 -0.3803 -1.5810
 7933SOL    HW235262   4.432   4.096  14.705 -0.3243 -0.8607  0.4451
 7934SOL     OW35263   1.191   1.682  10.096 -0.2735 -0.3812 -0.0835
 7934SOL    HW135264   1.171   1.684  10.190 -0.7396 -0.2053 -0.1886
 7934SOL    HW235265   1.275   1.725  10.081  1.1538 -2.1866  2.7014
 7935SOL     OW35266   0.016   1.700   3.315 -0.0462  0.4170  0.3381
 7935SOL    HW135267   0.093   1.746   3.350  0.7036  1.5565 -2.8158
 7935SOL    HW235268   4.716   1.633   3.379  1.5313  0.2076  0.7583
 7936SOL     OW35269   2.758   1.457  10.263  0.0003 -0.4152 -0.3402
 7936SOL    HW135270   2.682   1.478  10.317  1.3046 -2.2584  2.1604
 7936SOL    HW235271   2.802   1.540  10.283  0.8308 -1.0172  0.3363
 7937SOL     OW35272   1.580   2.077   0.970  0.7138  0.6731 -0.2409
 7937SOL    HW135273   1.497   2.032   0.987  0.6176 -0.1490 -2.8454
 7937SOL    HW235274   1.575   2.155   1.025 -1.1429  1.3152 -1.3221
 7938SOL     OW35275   4.382   1.172   0.196 -0.4625  0.1512  0.3239
 7938SOL    HW135276   4.334   1.118   0.258 -0.5392 -0.7594 -0.5188
 7938SOL    HW235277   4.448   1.217   0.249 -0.7162  3.9481 -2.5977
 7939SOL     OW35278   1.101   1.901  17.167  0.6677 -0.2048 -0.0747
 7939SOL    HW135279   1.020   1.867  17.204  0.5867  0.1051  0.0395
 7939SOL    HW235280   1.173   1.870  17.222 -1.3411 -0.4627  2.4163
 7940SOL     OW35281   1.959   4.582   4.652  0.6429  0.1227  0.1251
 7940SOL    HW135282   1.990   4.630   4.575  0.6042  0.5556  0.3780
 7940SOL    HW235283   1.863   4.585   4.655  0.6726  0.8513  0.3422
 7941SOL     OW35284   3.951   2.225   2.437  0.2710  0.0445 -0.7703
 7941SOL    HW135285   3.999   2.146   2.461 -1.3369 -0.7022  0.0092
 7941SOL    HW235286   3.862   2.189   2.439  0.6910 -0.9472  0.2595
 7942SOL     OW35287   2.323   1.881   9.787  0.2438  0.6067  0.5058
 7942SOL    HW135288   2.280   1.874   9.702  0.9293  2.9561 -0.0144
 7942SOL    HW235289   2.242   1.896   9.835 -0.9520 -0.3234 -1.2024
 7943SOL     OW35290   3.375   1.438  14.087  0.3815  0.1096  0.2737
 7943SOL    HW135291   3.412   1.373  14.027 -0.8373 -1.2066  0.9463
 7943SOL    HW235292   3.333   1.497  14.024  0.5924 -1.1821 -1.0925
 7944SOL     OW35293   1.822   2.659   7.918 -0.6750  0.5387 -0.3741
 7944SOL    HW135294   1.849   2.576   7.957 -0.8098  0.0207 -1.4119
 7944SOL    HW235295   1.829   2.649   7.823 -4.0084 -0.7938 -0.4443
 7945SOL     OW35296   1.693   2.149   6.489 -0.0346 -0.3528  0.0825
 7945SOL    HW135297   1.612   2.200   6.490 -0.3886 -0.9051 -0.4309
 7945SOL    HW235298   1.667   2.072   6.438  0.8097  0.6701 -1.8802
 7946SOL     OW35299   1.114   0.548   0.290 -0.9476  0.2901  0.3169
 7946SOL    HW135300   1.196   0.544   0.241 -1.6241  1.4699 -0.8986
 7946SOL    HW235301   1.094   0.641   0.301  0.1950  0.4632  0.9584
 7947SOL     OW35302   0.148   3.021  14.610 -0.4771  0.3086  0.1543
 7947SOL    HW135303   0.152   3.029  14.515  0.8257  0.8437  0.2519
 7947SOL    HW235304   0.219   3.076  14.644  0.4758 -1.1868  0.5809
 7948SOL     OW35305   0.467   0.993   3.116 -0.5020  0.8688  0.5521
 7948SOL    HW135306   0.419   0.938   3.178  0.4820 -0.6311 -0.0314
 7948SOL    HW235307   0.551   1.001   3.162 -1.1664  1.5163  1.6735
 7949SOL     OW35308   0.512   3.313  17.248 -0.1335  0.1950 -0.0213
 7949SOL    HW135309   0.491   3.399  17.211 -3.4090 -1.7145 -2.6595
 7949SOL    HW235310   0.463   3.317  17.331 -0.9542  1.4471 -0.5600
 7950SOL     OW35311   4.176   4.579  15.339  0.1486 -0.3057 -0.4831
 7950SOL    HW135312   4.226   4.647  15.384 -1.2999  1.2915 -1.2977
 7950SOL    HW235313   4.092   4.617  15.313 -0.4383  0.5015  2.6394
 7951SOL     OW35314   2.221   3.403  12.255  0.6035  0.0495  0.0716
 7951SOL    HW135315   2.252   3.492  12.273 -0.5145  0.7943 -1.6107
 7951SOL    HW235316   2.167   3.381  12.330  1.5019 -0.8260  0.4633
 7952SOL     OW35317   0.015   1.881   3.639 -0.1532  0.0303  0.1595
 7952SOL    HW135318   0.004   1.965   3.683  1.0353 -0.4115  1.2896
 7952SOL    HW235319   4.649   1.855   3.627 -1.4369  3.6769  2.1847
 7953SOL     OW35320   1.674   2.450  14.062 -0.1603 -0.1145  0.1639
 7953SOL    HW135321   1.581   2.430  14.058 -0.3219  0.6399  0.1708
 7953SOL    HW235322   1.688   2.397  14.141 -1.3007 -0.5033  0.1021
 7954SOL     OW35323   4.671   3.026   5.862  0.2553 -0.2774  0.1812
 7954SOL    HW135324   0.011   3.089   5.833 -0.9416  0.9629  0.1480
 7954SOL    HW235325   4.670   3.048   5.955 -0.0732  0.8496 -0.0898
 7955SOL     OW35326   0.266   2.994   7.138  0.1762  0.6041  0.2121
 7955SOL    HW135327   0.260   3.023   7.229 -2.4754  0.6853  0.0108
 7955SOL    HW235328   0.240   3.081   7.107 -1.6291 -0.7601 -2.0528
 7956SOL     OW35329   1.619   2.218  11.437  0.4481  0.0851 -0.1802
 7956SOL    HW135330   1.678   2.143  11.427 -2.6562 -2.3651 -0.2190
 7956SOL    HW235331   1.611   2.235  11.343 -1.9241 -1.4767 -0.2390
 7957SOL     OW35332   3.125   4.448   5.091  0.2030 -0.4129  0.1800
 7957SOL    HW135333   3.189   4.501   5.044  0.6653  0.3088  1.6283
 7957SOL    HW235334   3.130   4.495   5.175 -2.8890  1.9105 -0.9457
 7958SOL     OW35335   3.787   2.583  10.463 -0.0648  0.1581 -0.5708
 7958SOL    HW135336   3.867   2.609  10.506 -0.3811  2.1319 -1.1954
 7958SOL    HW235337   3.726   2.634  10.516 -1.2332 -1.3874 -0.4278
 7959SOL     OW35338   0.710   0.260   0.230  0.6191 -0.4941 -0.3327
 7959SOL    HW135339   0.795   0.274   0.271  0.4835  0.9472 -0.5385
 7959SOL    HW235340   0.650   0.315   0.282 -0.3742 -1.3823 -0.5371
 7960SOL     OW35341   2.752   4.622   5.786 -0.1704  0.1704 -0.4535
 7960SOL    HW135342   2.750   4.576   5.870 -1.5709  3.0924  1.0862
 7960SOL    HW235343   2.719   4.709   5.809  0.5457  0.6784 -1.3505
 7961SOL     OW35344   3.020   2.698   7.791  0.1775 -0.2929  0.3701
 7961SOL    HW135345   3.082   2.625   7.792  0.5530  0.0104 -1.1607
 7961SOL    HW235346   3.074   2.762   7.837 -0.3196  0.2357  0.2202
 7962SOL     OW35347   3.948   0.840   0.148  0.5631 -0.3337 -0.1354
 7962SOL    HW135348   3.894   0.815   0.073  0.2067 -2.8218  0.9537
 7962SOL    HW235349   4.022   0.874   0.098  0.2919  3.7283  2.2367
 7963SOL     OW35350   2.209   3.598   6.382 -0.2117  0.6774 -0.3430
 7963SOL    HW135351   2.252   3.643   6.310 -0.9348  1.4052 -0.3184
 7963SOL    HW235352   2.281   3.537   6.398  0.0083  0.2842 -2.7608
 7964SOL     OW35353   2.028   0.691  15.595 -0.2461 -0.6534 -0.1566
 7964SOL    HW135354   2.033   0.624  15.528 -0.4566 -0.9736  0.1499
 7964SOL    HW235355   2.119   0.722  15.604  0.5905 -2.0369 -3.7326
 7965SOL     OW35356   2.765   1.328   8.669  0.3088  0.3518 -0.1242
 7965SOL    HW135357   2.773   1.316   8.764 -0.4681  3.6442  0.3374
 7965SOL    HW235358   2.671   1.336   8.657  0.2430 -0.5852 -0.2806
 7966SOL     OW35359   0.943   1.577  15.981  0.4505 -0.3404 -0.0761
 7966SOL    HW135360   0.998   1.541  15.911  1.5767  1.5131 -0.1405
 7966SOL    HW235361   1.006   1.570  16.053  0.8505  2.6469 -0.1686
 7967SOL     OW35362   3.387   0.032  17.247  0.5595  0.4647  0.2784
 7967SOL    HW135363   3.379   4.679  17.193 -2.4744  0.7370  0.3143
 7967SOL    HW235364   3.319   0.089  17.209 -0.1199 -0.7738 -0.3558
 7968SOL     OW35365   3.005   0.056  16.092 -0.3578 -0.3014 -0.3481
 7968SOL    HW135366   3.024   0.001  16.016 -2.0846 -1.9959  0.4655
 7968SOL    HW235367   3.096   0.068  16.121 -0.2164 -1.7092 -0.1853
 7969SOL     OW35368   2.025   3.758   7.514 -0.3941 -0.0463  0.6482
 7969SOL    HW135369   2.026   3.757   7.609 -2.7408 -1.5511  0.6531
 7969SOL    HW235370   2.091   3.697   7.482 -2.0796 -1.0386 -0.9491
 7970SOL     OW35371   3.841   3.790  16.805 -1.0684 -0.1971 -0.4133
 7970SOL    HW135372   3.773   3.849  16.838 -2.3868 -0.5548 -2.4571
 7970SOL    HW235373   3.820   3.714  16.860  1.6019 -1.1105 -0.6352
 7971SOL     OW35374   2.582   1.286   7.427  0.2491  0.7442  0.2674
 7971SOL    HW135375   2.619   1.211   7.476  0.5800  0.1937 -0.8206
 7971SOL    HW235376   2.619   1.267   7.341 -0.4738 -4.7186  1.1308
 7972SOL     OW35377   1.382   0.876   3.321  0.5272  0.4924  0.5203
 7972SOL    HW135378   1.329   0.837   3.390  0.0273  0.9833  0.4132
 7972SOL    HW235379   1.473   0.866   3.348  0.5360 -2.5813 -0.6721
 7973SOL     OW35380   1.518   2.444   8.961  0.3229  0.0325  0.6127
 7973SOL    HW135381   1.605   2.462   8.997  0.3999  1.8278 -0.5066
 7973SOL    HW235382   1.529   2.373   8.898 -0.6299  0.2322  0.2224
 7974SOL     OW35383   3.138   4.300  12.747 -0.5140  0.5853  0.2007
 7974SOL    HW135384   3.044   4.317  12.757 -0.6596 -0.3708  0.4608
 7974SOL    HW235385   3.141   4.300  12.651  1.4550 -0.0998  0.2578
 7975SOL     OW35386   1.716   2.790   8.968  0.0095 -0.5724  0.1158
 7975SOL    HW135387   1.709   2.875   8.925  2.3667 -1.9873 -3.0054
 7975SOL    HW235388   1.810   2.772   8.966 -0.1679 -1.4052 -0.6841
 7976SOL     OW35389   2.926   3.829   1.819 -0.1819  0.2400  0.2171
 7976SOL    HW135390   2.977   3.829   1.738 -1.6408 -0.9446 -0.7047
 7976SOL    HW235391   2.983   3.863   1.888 -0.0075  0.8110 -0.2045
 7977SOL     OW35392   0.760   1.672   3.740 -0.4085 -0.9714  0.4583
 7977SOL    HW135393   0.826   1.718   3.687 -1.3310  1.2473  1.2500
 7977SOL    HW235394   0.702   1.645   3.669 -1.5341 -3.1132  2.1849
 7978SOL     OW35395   3.684   2.256   9.867 -0.1761 -0.4463  0.3153
 7978SOL    HW135396   3.618   2.308   9.821 -0.0336  0.5444  1.2481
 7978SOL    HW235397   3.632   2.205   9.929  0.8338 -0.5542  1.0809
 7979SOL     OW35398   3.167   4.304  13.096 -0.0402  0.2348  0.4222
 7979SOL    HW135399   3.111   4.227  13.093  0.1840  0.2019 -2.7905
 7979SOL    HW235400   3.246   4.277  13.050 -0.0975  0.4205  0.2161
 7980SOL     OW35401   3.513   2.106  16.925 -0.2666  0.3542  0.2445
 7980SOL    HW135402   3.516   2.188  16.876  0.4262  0.3103  0.2210
 7980SOL    HW235403   3.429   2.063  16.905 -0.4659  0.2263  1.3581
 7981SOL     OW35404   0.576   1.938   1.525 -0.0878 -0.3212  0.4789
 7981SOL    HW135405   0.629   1.889   1.462 -0.5354  1.7044 -1.4312
 7981SOL    HW235406   0.634   1.941   1.602  0.3770 -1.9246  0.2022
 7982SOL     OW35407   1.859   2.371   0.167 -0.3706  0.3716 -0.3077
 7982SOL    HW135408   1.938   2.424   0.176  1.0710 -1.8681  0.2885
 7982SOL    HW235409   1.785   2.430   0.156 -0.5554  0.0422 -0.8259
 7983SOL     OW35410   0.726   3.990   5.409 -0.1388 -0.0278  0.5788
 7983SOL    HW135411   0.746   3.995   5.502 -0.3987  1.0776  0.5749
 7983SOL    HW235412   0.810   3.964   5.371 -0.4276  0.3721 -0.3436
 7984SOL     OW35413   2.389   3.015  10.021  0.5205 -0.3278  0.6134
 7984SOL    HW135414   2.400   3.007   9.926 -2.6409 -0.0243  0.2263
 7984SOL    HW235415   2.438   3.098  10.022 -0.9031  0.4841  4.6853
 7985SOL     OW35416   1.445   3.385   3.904 -0.1347 -0.1875 -0.0456
 7985SOL    HW135417   1.501   3.396   3.981  2.1219 -0.7639 -1.5906
 7985SOL    HW235418   1.422   3.476   3.884  0.7775  0.8204  3.6317
 7986SOL     OW35419   4.417   2.088   6.714 -0.4357  0.1475  0.1827
 7986SOL    HW135420   4.339   2.136   6.686 -1.3925 -1.7564 -0.3785
 7986SOL    HW235421   4.377   2.033   6.782 -3.9299 -0.3357 -2.2692
 7987SOL     OW35422   3.267   3.088   5.997 -0.0790 -0.3262 -0.5302
 7987SOL    HW135423   3.341   3.032   6.020  0.9759  2.0681  1.8873
 7987SOL    HW235424   3.312   3.172   5.985  0.3590 -0.3898  0.6788
 7988SOL     OW35425   1.373   1.322   8.845  0.0616 -0.0446  0.2874
 7988SOL    HW135426   1.309   1.271   8.896  1.1359  1.3565  3.0538
 7988SOL    HW235427   1.337   1.408   8.868 -0.2199 -0.1159  0.1145
 7989SOL     OW35428   0.887   3.839   6.390  0.2619  0.0237  0.5646
 7989SOL    HW135429   0.801   3.839   6.347  1.7399  0.9006 -2.3251
 7989SOL    HW235430   0.898   3.934   6.390 -2.3700  0.3401 -0.7313
 7990SOL     OW35431   2.689   0.526  16.200 -0.2400 -0.3674  0.2560
 7990SOL    HW135432   2.674   0.432  16.211 -0.2884 -0.4393 -0.3934
 7990SOL    HW235433   2.695   0.539  16.105 -2.3855  3.9389  0.6990
 7991SOL     OW35434   1.329   2.096  13.210 -0.4348 -0.6548  0.2782
 7991SOL    HW135435   1.282   2.037  13.150 -1.5280  1.7991 -1.2928
 7991SOL    HW235436   1.414   2.108  13.168  0.3939 -2.5437  1.4422
 7992SOL     OW35437   0.139   2.209   6.242 -0.4882 -0.3098 -0.7627
 7992SOL    HW135438   0.074   2.279   6.242  1.9926  1.9640  1.8966
 7992SOL    HW235439   0.101   2.161   6.316 -0.5584 -0.3647 -0.8336
 7993SOL     OW35440   0.870   0.815  17.679  0.1357  0.1645  0.0497
 7993SOL    HW135441   0.880   0.908  17.697 -0.8684  0.2443  0.1864
 7993SOL    HW235442   0.930   0.815  17.604  0.3960  2.6974  0.2628
 7994SOL     OW35443   0.598   2.437  17.690 -0.3813 -0.4697  0.1840
 7994SOL    HW135444   0.671   2.415  17.633 -1.1150 -0.5906 -0.7000
 7994SOL    HW235445   0.586   2.527  17.661  0.5962  0.1625  1.7088
 7995SOL     OW35446   2.477   0.724   7.276 -0.5251 -0.4303 -0.0728
 7995SOL    HW135447   2.387   0.753   7.286  1.1687  4.5595  0.5788
 7995SOL    HW235448   2.518   0.755   7.357 -1.6984  0.2195  0.2696
 7996SOL     OW35449   1.741   0.836  11.057 -0.1155 -0.7681  0.5993
 7996SOL    HW135450   1.711   0.901  10.994 -0.4045  0.3739  1.9002
 7996SOL    HW235451   1.810   0.887  11.101 -0.3027  0.8754 -1.0528
 7997SOL     OW35452   2.163   4.011   4.387 -0.2975  0.1289  0.0718
 7997SOL    HW135453   2.223   3.970   4.451 -2.2560 -0.0046  1.8246
 7997SOL    HW235454   2.191   4.102   4.395 -2.0378  0.7641 -1.0227
 7998SOL     OW35455   2.241   3.292   8.530 -0.2228  0.0966  0.1950
 7998SOL    HW135456   2.212   3.224   8.469  1.3655 -0.7909  0.4185
 7998SOL    HW235457   2.329   3.299   8.491  0.1995  0.8292  1.3010
 7999SOL     OW35458   2.425   1.732   8.279  0.2408 -0.2477 -0.0152
 7999SOL    HW135459   2.401   1.824   8.274 -2.3214 -0.8554  0.6264
 7999SOL    HW235460   2.513   1.740   8.315  0.6323  0.6305 -1.1766
 8000SOL     OW35461   1.931   1.302   9.315 -0.3498  0.1096  0.2051
 8000SOL    HW135462   1.839   1.289   9.290 -0.0073  1.1359 -1.5785
 8000SOL    HW235463   1.936   1.397   9.313 -1.0400  0.1237 -0.7766
 8001SOL     OW35464   3.539   2.917   2.400  0.3208 -0.9732 -0.1997
 8001SOL    HW135465   3.588   2.842   2.365  1.2307 -1.0369  1.2090
 8001SOL    HW235466   3.591   2.935   2.479 -0.0217  1.4837 -0.5517
 8002SOL     OW35467   0.020   4.698   1.583 -0.5013 -0.0221  0.0797
 8002SOL    HW135468   0.039   4.648   1.663 -0.9669  0.2808  0.3841
 8002SOL    HW235469   0.046   0.054   1.627 -0.2334 -0.1622  0.1826
 8003SOL     OW35470   0.203   4.123  11.417  0.2341 -0.5378  0.4103
 8003SOL    HW135471   0.295   4.105  11.438  0.7060  0.0643 -1.1491
 8003SOL    HW235472   0.173   4.125  11.508  0.6300 -1.2249  0.5619
 8004SOL     OW35473   0.847   4.118   1.889 -0.6044  0.1970  0.1913
 8004SOL    HW135474   0.817   4.133   1.978  1.0521 -0.0087  0.7851
 8004SOL    HW235475   0.889   4.201   1.864  1.5469 -1.2877 -1.1083
 8005SOL     OW35476   0.662   2.576   8.293  0.7552  0.1034  0.4587
 8005SOL    HW135477   0.739   2.600   8.241 -0.4092  2.1708 -0.2942
 8005SOL    HW235478   0.654   2.652   8.350 -0.0334  1.3208 -1.2913
 8006SOL     OW35479   1.278   2.068   7.667 -0.3087  0.0664 -0.7376
 8006SOL    HW135480   1.256   2.159   7.651 -0.6259 -0.1921 -1.7343
 8006SOL    HW235481   1.194   2.029   7.647  0.6340 -2.2509 -0.1990
 8007SOL     OW35482   4.071   4.098   2.806 -0.1610  0.1789  0.1613
 8007SOL    HW135483   4.059   4.012   2.766 -0.1413  0.2269  0.0513
 8007SOL    HW235484   4.044   4.093   2.898 -0.3742  0.4996  0.1160
 8008SOL     OW35485   1.972   4.376  13.204  0.2690 -0.3237 -0.4143
 8008SOL    HW135486   1.879   4.388  13.183 -0.0063  1.1434  1.6937
 8008SOL    HW235487   2.021   4.401  13.125 -0.4699  0.5661 -0.6032
 8009SOL     OW35488   1.880   3.045   9.174  0.5079 -0.2840  0.5933
 8009SOL    HW135489   1.851   3.014   9.260 -1.9285 -0.3723 -0.2769
 8009SOL    HW235490   1.853   3.136   9.181  2.4799  0.5030 -2.3419
 8010SOL     OW35491   3.257   3.624   9.200 -0.0830  0.0668  0.3103
 8010SOL    HW135492   3.293   3.642   9.113  0.3476  0.5696  0.5900
 8010SOL    HW235493   3.305   3.545   9.224  0.4416  0.8514  1.8201
 8011SOL     OW35494   3.594   4.624   4.615  0.4337 -0.0375 -0.4849
 8011SOL    HW135495   3.562   4.700   4.663 -0.3386 -0.5020 -0.2670
 8011SOL    HW235496   3.563   4.552   4.670 -0.3621 -0.4581 -1.4790
 8012SOL     OW35497   4.628   0.858   1.836  0.3790 -0.0904 -0.4313
 8012SOL    HW135498   4.586   0.931   1.882 -1.8072  0.1723 -2.8651
 8012SOL    HW235499   4.641   0.902   1.751  0.7730 -2.3821 -1.5492
 8013SOL     OW35500   4.334   2.862   7.872 -0.1192  0.7984 -0.3534
 8013SOL    HW135501   4.286   2.849   7.954  0.7250  2.4465  0.3954
 8013SOL    HW235502   4.384   2.782   7.858 -1.2534  0.3665 -1.9063
 8014SOL     OW35503   2.994   2.673   8.304  0.3363 -0.1251 -0.1552
 8014SOL    HW135504   3.008   2.766   8.324 -0.4886  0.3240 -1.6971
 8014SOL    HW235505   2.973   2.676   8.211  0.9460 -0.4272 -0.3036
 8015SOL     OW35506   4.645   2.277   6.545 -0.4270 -0.2758  0.8799
 8015SOL    HW135507   4.671   2.196   6.500  0.9035  1.7959 -2.0623
 8015SOL    HW235508   4.704   2.336   6.498 -0.3559 -1.2069 -0.2026
 8016SOL     OW35509   2.621   0.011   0.388  0.4576 -0.0333  0.5132
 8016SOL    HW135510   2.567   0.077   0.345  2.1404  1.1560  0.2383
 8016SOL    HW235511   2.666   0.069   0.451  1.0723 -0.2146  0.2425
 8017SOL     OW35512   4.125   2.640  16.259 -0.1600 -0.0638 -0.3592
 8017SOL    HW135513   4.193   2.696  16.221 -0.4180  1.0843  0.8479
 8017SOL    HW235514   4.050   2.683  16.219  0.5951  2.0876  0.4851
 8018SOL     OW35515   1.911   2.632   4.482  0.0724 -0.2369  0.3075
 8018SOL    HW135516   1.880   2.554   4.435 -1.1683  0.4169  0.0427
 8018SOL    HW235517   1.858   2.696   4.436  0.5316 -0.8460 -1.0576
 8019SOL     OW35518   1.448   4.091   0.511  0.2549  0.8446 -0.1425
 8019SOL    HW135519   1.372   4.063   0.563  2.9218 -1.4522  2.5238
 8019SOL    HW235520   1.488   4.170   0.546 -0.3768  1.2524 -0.3437
 8020SOL     OW35521   0.760   1.295   8.833  0.4051 -0.1849 -0.0247
 8020SOL    HW135522   0.734   1.272   8.922  0.0939 -2.6090 -0.7467
 8020SOL    HW235523   0.731   1.387   8.833  1.8606  0.2840  0.4040
 8021SOL     OW35524   4.319   3.370   6.793 -0.0428  0.1820 -0.2532
 8021SOL    HW135525   4.357   3.408   6.872 -1.4057  2.4394 -0.6862
 8021SOL    HW235526   4.240   3.423   6.786  0.6086  0.7815 -3.3463
 8022SOL     OW35527   3.230   2.400   3.124  0.0076  0.2472 -0.4737
 8022SOL    HW135528   3.289   2.329   3.097 -0.2661  0.5235 -1.7677
 8022SOL    HW235529   3.263   2.415   3.213  0.2469 -0.6386 -0.4029
 8023SOL     OW35530   3.917   3.410   9.144 -0.0077  0.1158  0.4803
 8023SOL    HW135531   3.940   3.498   9.174  0.0945  0.3652 -0.3347
 8023SOL    HW235532   3.986   3.359   9.185 -1.4219 -1.0980  1.3753
 8024SOL     OW35533   1.628   4.669  11.652 -0.6659  0.1319  0.2790
 8024SOL    HW135534   1.606   4.610  11.725  0.3034 -1.2773 -0.5779
 8024SOL    HW235535   1.569   4.632  11.586 -0.0443  0.1335 -0.2717
 8025SOL     OW35536   3.954   3.839   5.356  0.1884 -0.0783  0.2287
 8025SOL    HW135537   3.887   3.905   5.339 -0.9825 -1.2134  0.4679
 8025SOL    HW235538   4.010   3.880   5.422 -0.6644 -0.4806  1.1930
 8026SOL     OW35539   4.531   1.561   1.361 -0.2118  0.0838  0.1605
 8026SOL    HW135540   4.540   1.532   1.270 -0.1920  1.4490 -0.2687
 8026SOL    HW235541   4.616   1.541   1.398  0.2315  2.0742  0.2136
 8027SOL     OW35542   1.319   3.630   9.218  0.4413  0.6679  0.4933
 8027SOL    HW135543   1.327   3.713   9.171 -1.5343 -0.1018 -1.2043
 8027SOL    HW235544   1.224   3.620   9.222  0.3782  0.8829 -0.5198
 8028SOL     OW35545   2.684   3.016   4.866 -0.2901  0.2799 -0.5026
 8028SOL    HW135546   2.685   3.016   4.770 -3.3746 -0.2734 -0.5406
 8028SOL    HW235547   2.752   3.082   4.881 -0.5209  0.6375 -1.0122
 8029SOL     OW35548   2.784   3.108   4.047 -0.5093  0.2395  0.4669
 8029SOL    HW135549   2.720   3.167   4.006  0.9037  1.7465  0.4159
 8029SOL    HW235550   2.824   3.080   3.965 -0.3768  1.3160  0.1591
 8030SOL     OW35551   0.134   4.644   5.109  0.2648 -0.2977  0.1363
 8030SOL    HW135552   0.161   4.654   5.017 -0.1983 -2.6935 -0.2613
 8030SOL    HW235553   0.215   4.632   5.158  0.8887  1.8666 -0.3853
 8031SOL     OW35554   0.492   1.391   6.250 -0.1440 -0.0872  0.4634
 8031SOL    HW135555   0.430   1.339   6.199  0.7923 -0.3443 -0.4129
 8031SOL    HW235556   0.496   1.474   6.201  0.3036 -0.1928  0.3201
 8032SOL     OW35557   3.950   3.149  10.501 -0.2391  0.2243 -0.1463
 8032SOL    HW135558   3.871   3.177  10.547 -0.4698 -0.0883 -0.3607
 8032SOL    HW235559   3.962   3.069  10.552 -0.8371 -0.2857 -0.8055
 8033SOL     OW35560   3.309   2.655  13.909 -0.2330 -0.0480  0.4050
 8033SOL    HW135561   3.403   2.664  13.895 -0.2446 -1.1920 -0.4219
 8033SOL    HW235562   3.300   2.563  13.934 -0.5698 -0.0800  0.1587
 8034SOL     OW35563   3.676   3.042   5.195  0.0234  0.4422  0.2018
 8034SOL    HW135564   3.697   2.999   5.278 -0.7256 -1.2023 -0.4387
 8034SOL    HW235565   3.747   3.106   5.198 -1.4659  2.1064 -0.4039
 8035SOL     OW35566   0.853   0.608   8.259 -0.1452 -0.0543 -0.3649
 8035SOL    HW135567   0.863   0.676   8.326  0.3697  0.0060 -0.5062
 8035SOL    HW235568   0.890   0.657   8.186 -2.0064 -2.5445 -2.9747
 8036SOL     OW35569   2.801   1.087   1.675  0.2593 -0.0005  0.0212
 8036SOL    HW135570   2.730   1.075   1.737 -0.9609 -2.2552 -1.7820
 8036SOL    HW235571   2.750   1.116   1.599  1.3448 -2.5356 -1.7002
 8037SOL     OW35572   1.855   4.692   2.523 -0.1094 -0.1760 -0.9554
 8037SOL    HW135573   1.823   4.602   2.526 -0.7319 -0.0046 -2.5227
 8037SOL    HW235574   1.835   4.710   2.431  1.2647 -0.8916 -1.3965
 8038SOL     OW35575   0.342   1.963  15.410 -0.5005 -0.6253  0.7549
 8038SOL    HW135576   0.359   1.947  15.317  1.7443 -0.5321  1.1544
 8038SOL    HW235577   0.346   1.872  15.438  0.3052 -0.8837 -0.2000
 8039SOL     OW35578   0.083   3.446  13.540 -0.4570 -0.0268 -0.0681
 8039SOL    HW135579   0.045   3.408  13.460 -0.2825  1.6461 -0.9641
 8039SOL    HW235580   0.003   3.487  13.574 -1.4094 -1.3923 -0.6507
 8040SOL     OW35581   2.095   2.930  10.533 -0.0626  0.0539 -0.7818
 8040SOL    HW135582   2.182   2.971  10.536  0.1733 -0.3245 -2.1150
 8040SOL    HW235583   2.088   2.916  10.438  1.1141  1.3330 -1.0749
 8041SOL     OW35584   0.881   4.042   5.963 -0.9028  0.2649  0.2035
 8041SOL    HW135585   0.908   4.129   5.992 -0.8058 -0.5875  2.6649
 8041SOL    HW235586   0.792   4.038   5.998 -1.1474  0.3953 -0.4058
 8042SOL     OW35587   1.451   2.016   7.904  0.1722  0.7405  0.1894
 8042SOL    HW135588   1.376   1.958   7.914  1.4813 -1.1211 -0.9001
 8042SOL    HW235589   1.418   2.048   7.820  1.1864  0.5877 -0.2723
 8043SOL     OW35590   1.261   1.771  15.744 -0.4321  0.0904  0.1709
 8043SOL    HW135591   1.176   1.798  15.709  1.0943  3.3180 -1.0751
 8043SOL    HW235592   1.314   1.850  15.738 -2.0671  1.3682  2.2574
 8044SOL     OW35593   3.406   0.647  10.357  0.0147  0.4117  0.4565
 8044SOL    HW135594   3.367   0.684  10.436  0.9287  1.9812  0.1713
 8044SOL    HW235595   3.497   0.650  10.386  0.5702 -0.0157 -1.2677
 8045SOL     OW35596   3.975   3.814   2.779  0.5675  0.3301 -0.3236
 8045SOL    HW135597   3.897   3.865   2.757  0.3356 -0.4387 -1.2773
 8045SOL    HW235598   3.954   3.793   2.870  0.1505 -0.4362 -0.6000
 8046SOL     OW35599   3.620   3.751   8.925 -0.0388 -0.0667  0.0419
 8046SOL    HW135600   3.638   3.773   8.833 -0.7457  0.1525 -0.0419
 8046SOL    HW235601   3.575   3.667   8.919  0.2423 -0.0923 -1.6454
 8047SOL     OW35602   0.379   4.482   9.091  0.2197 -0.1646  0.3292
 8047SOL    HW135603   0.401   4.493   8.999  2.0829 -0.6065  0.7241
 8047SOL    HW235604   0.452   4.510   9.147 -0.3032  0.3941  0.7233
 8048SOL     OW35605   0.213   0.139  10.415 -0.2970 -0.9787 -0.2693
 8048SOL    HW135606   0.263   0.059  10.397  0.8651 -0.4660  0.7382
 8048SOL    HW235607   0.135   0.119  10.362  0.6380 -1.5585 -1.4388
 8049SOL     OW35608   3.259   2.393   8.707  0.2188  0.2532  0.4242
 8049SOL    HW135609   3.176   2.431   8.734 -0.3980  1.3509 -3.0010
 8049SOL    HW235610   3.229   2.317   8.658  2.7695 -0.1787 -0.4750
 8050SOL     OW35611   4.327   3.711   8.792  0.1684 -0.1640  0.4706
 8050SOL    HW135612   4.310   3.805   8.783  1.4264  0.1395  1.4004
 8050SOL    HW235613   4.327   3.701   8.887 -0.6018 -0.4984  0.4382
 8051SOL     OW35614   1.144   0.119  14.737  0.2626 -0.0062 -0.3719
 8051SOL    HW135615   1.087   0.048  14.766 -2.2956  2.8704  1.6512
 8051SOL    HW235616   1.206   0.131  14.810  0.6833  1.0092 -0.8899
 8052SOL     OW35617   1.566   0.285  17.452  0.2273 -0.3520 -0.2029
 8052SOL    HW135618   1.523   0.365  17.422  0.8344  0.1938  0.3903
 8052SOL    HW235619   1.525   0.220  17.395 -0.0855 -2.1364  2.0623
 8053SOL     OW35620   2.426   3.105  13.769  0.2339  0.0012 -0.2657
 8053SOL    HW135621   2.463   3.193  13.766  2.4187 -1.0003 -3.2358
 8053SOL    HW235622   2.334   3.117  13.747 -0.5236 -0.0516  2.9233
 8054SOL     OW35623   0.488   4.175   7.598 -0.0781  0.1787  0.0234
 8054SOL    HW135624   0.451   4.237   7.660  0.2688  0.0727  0.3381
 8054SOL    HW235625   0.426   4.171   7.525  1.8948 -1.1394 -1.6169
 8055SOL     OW35626   1.789   2.124   8.553  0.2008  0.0161  0.4822
 8055SOL    HW135627   1.717   2.136   8.492 -1.1945  3.6513  2.8187
 8055SOL    HW235628   1.841   2.204   8.542 -2.4965  1.6677 -0.3743
 8056SOL     OW35629   1.063   3.772   7.684 -0.1487 -0.3533 -0.2437
 8056SOL    HW135630   0.975   3.787   7.717  0.6438  2.2100  0.6718
 8056SOL    HW235631   1.113   3.840   7.728 -3.7878  0.0476  3.2229
 8057SOL     OW35632   2.860   4.184   6.324  0.0713 -0.1781 -0.1866
 8057SOL    HW135633   2.908   4.224   6.397 -3.4971  2.8795  0.5055
 8057SOL    HW235634   2.768   4.181   6.352 -0.2070 -2.2438 -1.3133
 8058SOL     OW35635   2.078   2.550   7.947 -0.5768 -0.2683 -0.1682
 8058SOL    HW135636   2.089   2.586   8.034 -0.9808 -1.0988  0.2298
 8058SOL    HW235637   2.150   2.585   7.894  2.0672 -0.5893  3.2334
 8059SOL     OW35638   1.006   2.068   8.443 -0.0674 -0.2657  0.4656
 8059SOL    HW135639   1.091   2.053   8.402 -0.7912  1.4660 -1.6671
 8059SOL    HW235640   0.997   2.162   8.427 -0.7802 -0.0744  2.0505
 8060SOL     OW35641   1.341   4.724  11.199 -0.2001 -0.1199  0.4905
 8060SOL    HW135642   1.377   0.025  11.115 -0.6725 -0.7981  0.0778
 8060SOL    HW235643   1.412   4.679  11.244  0.3806  1.5051  1.2086
 8061SOL     OW35644   2.727   4.012   3.972  0.1901 -0.7239 -0.1654
 8061SOL    HW135645   2.769   3.930   3.996  0.5259 -0.7525 -0.8443
 8061SOL    HW235646   2.746   4.061   4.052  0.5909  1.0707 -1.3540
 8062SOL     OW35647   1.738   4.652   1.114 -0.2836  0.0887  0.0071
 8062SOL    HW135648   1.778   0.000   1.070  0.9733  0.8782  2.4783
 8062SOL    HW235649   1.792   4.637   1.192  0.9366 -0.1286 -0.8861
 8063SOL     OW35650   1.413   1.233  14.025 -0.2939  0.2521 -0.0834
 8063SOL    HW135651   1.444   1.207  13.939 -0.5474 -1.1005  0.2320
 8063SOL    HW235652   1.496   1.272  14.053  0.6898 -2.2506  0.4979
 8064SOL     OW35653   0.526   2.994   7.032  0.2378 -0.5826 -0.0204
 8064SOL    HW135654   0.450   2.957   7.076  0.6624 -0.9310  0.4307
 8064SOL    HW235655   0.571   2.917   6.997 -0.6128 -0.6659 -0.9174
 8065SOL     OW35656   2.676   3.050  12.809  0.3345  0.0650 -0.1390
 8065SOL    HW135657   2.706   3.071  12.721 -2.3350  0.8745 -0.8425
 8065SOL    HW235658   2.720   3.121  12.857  1.4400  0.7780 -2.2133
 8066SOL     OW35659   4.076   3.763   5.090  0.2970  0.2114  0.4017
 8066SOL    HW135660   4.019   3.761   5.166  0.9212  0.4677  0.8787
 8066SOL    HW235661   4.004   3.770   5.027  0.2334 -1.2021  0.3173
 8067SOL     OW35662   0.592   0.119   7.498 -0.2880 -0.7500 -0.2284
 8067SOL    HW135663   0.578   0.213   7.510  1.4405 -0.2175 -2.3521
 8067SOL    HW235664   0.550   0.081   7.575  1.6981  0.8333  1.6234
 8068SOL     OW35665   1.978   1.857   2.840 -0.3565 -0.1907  0.4052
 8068SOL    HW135666   1.996   1.883   2.749 -0.7093  0.7037  0.5917
 8068SOL    HW235667   1.913   1.788   2.827  0.6246 -1.2587  1.2317
 8069SOL     OW35668   2.488   4.711   7.329  0.3462  0.6128 -0.5824
 8069SOL    HW135669   2.447   4.626   7.313 -1.8725  1.9579 -2.1172
 8069SOL    HW235670   2.469   0.033   7.248 -0.8595  0.1539 -0.5784
 8070SOL     OW35671   2.803   1.455   4.958  0.0740 -0.7099 -0.2169
 8070SOL    HW135672   2.820   1.434   4.866  0.8598  1.1261 -0.4936
 8070SOL    HW235673   2.831   1.376   5.005  2.3174 -0.4399 -1.1089
 8071SOL     OW35674   0.044   3.520   4.474 -0.3912  0.0927 -0.5398
 8071SOL    HW135675   0.104   3.582   4.433  0.8912 -0.5058  0.4424
 8071SOL    HW235676   0.067   3.433   4.442 -0.5058 -0.0637 -0.1998
 8072SOL     OW35677   1.945   1.110   7.186  0.0478  0.6914 -0.1548
 8072SOL    HW135678   1.984   1.023   7.194 -1.6998 -0.0639  0.3033
 8072SOL    HW235679   1.857   1.086   7.157  0.2000 -2.0804  1.6491
 8073SOL     OW35680   3.094   2.490   5.338 -0.6522  0.2173 -0.0835
 8073SOL    HW135681   3.019   2.438   5.312 -0.8344  2.1994 -3.4395
 8073SOL    HW235682   3.095   2.560   5.272 -1.3280 -1.4027 -1.7987
 8074SOL     OW35683   3.153   2.636   5.839  0.7087  0.0405  0.5434
 8074SOL    HW135684   3.199   2.709   5.797 -1.2796  2.0739  1.8543
 8074SOL    HW235685   3.111   2.590   5.766  2.6239 -3.5420  1.7491
 8075SOL     OW35686   2.267   0.714   6.131  0.1953  0.6760  0.0276
 8075SOL    HW135687   2.354   0.678   6.118  0.3614  1.1637 -0.2058
 8075SOL    HW235688   2.254   0.714   6.226 -1.9903  1.6857 -0.2749
 8076SOL     OW35689   0.337   4.149   2.399  0.0444  0.1346  0.4452
 8076SOL    HW135690   0.320   4.122   2.490  1.7330  2.1660  1.3602
 8076SOL    HW235691   0.271   4.105   2.346  1.0227  1.8526 -2.1864
 8077SOL     OW35692   1.448   3.757   9.596 -0.8628  0.1824 -0.3057
 8077SOL    HW135693   1.359   3.724   9.602 -0.6962 -0.0330  1.0732
 8077SOL    HW235694   1.443   3.837   9.649  0.1722 -0.4709  0.7657
 8078SOL     OW35695   1.501   1.111   4.638 -0.6716  0.5029 -0.0097
 8078SOL    HW135696   1.443   1.145   4.570  0.3096  0.6304 -0.7863
 8078SOL    HW235697   1.448   1.118   4.718  0.6243  0.7783  0.8277
 8079SOL     OW35698   2.375   3.481   4.697 -0.0751  0.4924  0.2825
 8079SOL    HW135699   2.469   3.490   4.681 -0.1860  2.2504  0.5674
 8079SOL    HW235700   2.359   3.391   4.671 -1.9892  0.5947  1.0981
 8080SOL     OW35701   0.140   1.022  12.004  0.1829 -0.7319 -0.3836
 8080SOL    HW135702   0.112   0.968  11.930 -0.5250  0.6515 -1.1394
 8080SOL    HW235703   0.159   0.954  12.068  2.0119 -0.5667 -0.7533
 8081SOL     OW35704   1.098   0.868   6.314  0.4458  0.0005 -0.1215
 8081SOL    HW135705   1.173   0.920   6.341 -0.2110  1.7963 -1.7773
 8081SOL    HW235706   1.133   0.788   6.354  0.1633  0.8289  1.7545
 8082SOL     OW35707   3.125   0.729   2.325  0.0049  0.4846 -0.0205
 8082SOL    HW135708   3.033   0.705   2.314 -0.5947  2.5746  0.4002
 8082SOL    HW235709   3.134   0.772   2.239 -0.9964  1.8635  0.5678
 8083SOL     OW35710   2.773   2.022   0.261 -0.1060 -0.3310 -0.9198
 8083SOL    HW135711   2.724   2.085   0.314 -2.2863 -1.3648 -1.7094
 8083SOL    HW235712   2.851   2.073   0.238  1.7737 -2.1484  1.3769
 8084SOL     OW35713   3.490   4.518   2.726  0.3383 -0.0306  0.1228
 8084SOL    HW135714   3.396   4.534   2.716  0.4364 -0.6860 -1.7473
 8084SOL    HW235715   3.518   4.493   2.638  1.1873 -0.4886  0.5123
 8085SOL     OW35716   4.077   0.210   0.745 -0.3181 -0.5811 -0.4337
 8085SOL    HW135717   4.078   0.120   0.777  1.7427 -0.5746 -0.4550
 8085SOL    HW235718   3.995   0.235   0.789  0.3413  0.0452  0.4634
 8086SOL     OW35719   4.483   4.534   3.237 -0.4256  0.5281  0.3575
 8086SOL    HW135720   4.511   4.588   3.163 -1.5568 -1.9237 -1.8537
 8086SOL    HW235721   4.537   4.454   3.235 -0.7130  0.3701 -1.4367
 8087SOL     OW35722   0.368   4.266   6.917 -0.5366  0.0682  0.7645
 8087SOL    HW135723   0.461   4.257   6.897 -0.6859  0.1127  0.0312
 8087SOL    HW235724   0.363   4.235   7.007  0.4655 -1.5385  0.2715
 8088SOL     OW35725   2.571   3.878   4.968 -0.0431  0.7793  0.6121
 8088SOL    HW135726   2.595   3.933   5.042 -1.8737 -0.9239  2.4889
 8088SOL    HW235727   2.475   3.878   4.969 -0.0271  2.1180  1.6151
 8089SOL     OW35728   2.135   3.233   9.311 -0.2884 -0.1526  0.1944
 8089SOL    HW135729   2.074   3.243   9.385 -0.7920  0.7029 -0.3436
 8089SOL    HW235730   2.158   3.141   9.323 -0.3035 -0.4112 -1.8638
 8090SOL     OW35731   0.372   2.543  11.427 -0.1854  0.4859 -0.1693
 8090SOL    HW135732   0.387   2.623  11.477  2.2208 -0.1262  0.0840
 8090SOL    HW235733   0.277   2.546  11.413 -0.2014  1.9077  0.2756
 8091SOL     OW35734   3.925   2.618  12.088 -0.5995  0.6669  0.1630
 8091SOL    HW135735   3.990   2.687  12.075 -0.4179  0.1247 -1.8999
 8091SOL    HW235736   3.850   2.677  12.102  0.8293  2.7142 -0.8263
 8092SOL     OW35737   1.500   2.772  17.269  0.5956  0.1579  0.1739
 8092SOL    HW135738   1.521   2.865  17.257 -1.2006  0.5218 -0.1158
 8092SOL    HW235739   1.541   2.738  17.190 -1.8282  3.2593 -2.4199
 8093SOL     OW35740   1.801   1.185   9.548 -0.2356 -0.0677 -0.6981
 8093SOL    HW135741   1.752   1.103   9.543  0.1588 -0.4590  1.9807
 8093SOL    HW235742   1.849   1.193   9.465 -1.2979 -2.0372 -1.5057
 8094SOL     OW35743   0.242   0.709   2.988  0.2407 -0.1184 -0.7216
 8094SOL    HW135744   0.292   0.791   2.991 -0.1826  0.1050  0.1639
 8094SOL    HW235745   0.303   0.645   3.026 -0.3755 -0.2968 -0.0368
 8095SOL     OW35746   3.208   4.678   7.579  0.2255 -0.3981  0.0141
 8095SOL    HW135747   3.266   4.604   7.597  0.7958  0.6733  2.4869
 8095SOL    HW235748   3.148   4.674   7.653 -0.7652  0.9114 -0.7192
 8096SOL     OW35749   1.812   3.825   5.613  0.0037 -0.1419  0.1042
 8096SOL    HW135750   1.738   3.767   5.629 -0.3172 -0.1357 -1.3204
 8096SOL    HW235751   1.766   3.880   5.550  2.2878  1.2003 -0.3971
 8097SOL     OW35752   4.054   3.971   1.637 -0.6915 -0.8515  0.0144
 8097SOL    HW135753   4.046   4.067   1.639  1.3379 -0.6692 -0.3962
 8097SOL    HW235754   4.100   3.951   1.555  1.1707  1.4461  0.5021
 8098SOL     OW35755   2.407   0.539   4.829  0.0288 -0.1063 -0.3346
 8098SOL    HW135756   2.408   0.493   4.745  1.5857 -0.8378  0.0928
 8098SOL    HW235757   2.423   0.469   4.892  2.9051  1.4088  0.6169
 8099SOL     OW35758   4.686   4.380   7.857  0.0441 -0.2682 -0.2854
 8099SOL    HW135759   4.621   4.394   7.788  0.6794 -3.2002 -1.4892
 8099SOL    HW235760   0.022   4.441   7.816 -0.4136 -2.0625 -3.6573
 8100SOL     OW35761   4.652   4.538  13.470  0.5472  0.1302  1.0830
 8100SOL    HW135762   4.567   4.497  13.483  0.4824 -0.0579  0.0606
 8100SOL    HW235763   4.710   4.482  13.521  1.5302  1.3045  1.2645
 8101SOL     OW35764   2.879   1.716   7.152  0.2690  0.1308  0.1122
 8101SOL    HW135765   2.930   1.714   7.233 -0.5931 -0.4834  0.6471
 8101SOL    HW235766   2.907   1.804   7.129 -0.0734  0.7452  2.0048
 8102SOL     OW35767   3.262   3.518   7.919 -0.2821  0.3393 -0.4417
 8102SOL    HW135768   3.207   3.594   7.900 -1.7342 -1.3023 -2.8164
 8102SOL    HW235769   3.279   3.498   7.827  1.4659  0.7364 -0.2038
 8103SOL     OW35770   1.852   3.255   2.056  0.0714 -0.7319 -0.5962
 8103SOL    HW135771   1.909   3.332   2.053 -1.0013  0.0653 -0.4083
 8103SOL    HW235772   1.881   3.209   1.978  0.6705  0.6221 -1.1672
 8104SOL     OW35773   4.090   1.779  16.031 -0.1008  0.3538  0.1803
 8104SOL    HW135774   4.043   1.780  15.948  0.2275 -1.2398 -0.0245
 8104SOL    HW235775   4.155   1.711  16.013  1.6586  1.2248  3.2676
 8105SOL     OW35776   2.722   1.462   3.080 -0.7426  0.6085 -0.4845
 8105SOL    HW135777   2.736   1.478   2.986 -1.2391  0.6393 -0.5530
 8105SOL    HW235778   2.629   1.484   3.092 -1.2869 -2.3380  0.6917
 8106SOL     OW35779   4.164   2.989   4.852  0.7581 -0.1994  0.4430
 8106SOL    HW135780   4.114   2.907   4.860  0.3518 -0.1574 -1.7155
 8106SOL    HW235781   4.235   2.965   4.792 -1.2445  0.5647 -2.2346
 8107SOL     OW35782   4.363   2.749   1.683  0.3194 -0.1788 -0.0862
 8107SOL    HW135783   4.406   2.826   1.720 -2.7012  1.7964 -0.7138
 8107SOL    HW235784   4.275   2.766   1.716 -0.0497 -0.0753 -1.1286
 8108SOL     OW35785   3.209   3.944   0.165 -0.7428  0.0266 -0.1180
 8108SOL    HW135786   3.227   3.863   0.212  0.8927 -0.1364 -1.0043
 8108SOL    HW235787   3.117   3.935   0.139 -0.5175  1.7479 -1.5285
 8109SOL     OW35788   0.295   3.688   9.384 -0.4790  0.2725 -0.3169
 8109SOL    HW135789   0.378   3.649   9.413 -1.7942 -1.8045  0.7019
 8109SOL    HW235790   0.248   3.606   9.367 -2.1330  1.0785  0.4386
 8110SOL     OW35791   1.019   2.023  11.291 -0.4214  0.5392 -0.3438
 8110SOL    HW135792   1.057   1.953  11.344  2.1865 -0.7937 -4.0275
 8110SOL    HW235793   0.931   1.996  11.265 -1.3826  1.4728  1.9447
 8111SOL     OW35794   3.461   1.211   6.966  0.1083 -0.5726 -0.3095
 8111SOL    HW135795   3.432   1.196   6.876  3.4086 -1.4711 -1.2157
 8111SOL    HW235796   3.486   1.123   6.993  0.5408 -1.2905 -3.1334
 8112SOL     OW35797   2.029   3.859  16.328 -0.4583 -0.1779 -0.4829
 8112SOL    HW135798   1.983   3.940  16.305  4.0558  2.5161  0.0439
 8112SOL    HW235799   1.970   3.824  16.394  2.7661 -2.4473  1.2112
 8113SOL     OW35800   1.514   1.713   3.204 -0.0123 -0.2375 -0.5918
 8113SOL    HW135801   1.573   1.766   3.149  2.1351  0.9637  2.8514
 8113SOL    HW235802   1.581   1.675   3.261 -0.3116 -1.7403 -1.2410
 8114SOL     OW35803   2.801   1.206   2.787 -0.2149  0.0368 -0.0063
 8114SOL    HW135804   2.896   1.205   2.789 -0.2188 -0.7854 -0.1681
 8114SOL    HW235805   2.785   1.298   2.767  0.3540  0.0892 -0.2010
 8115SOL     OW35806   2.687   2.273   1.419  0.2828  0.0536 -0.1507
 8115SOL    HW135807   2.754   2.342   1.416  2.0619 -1.5864  1.8534
 8115SOL    HW235808   2.684   2.255   1.513 -0.9312 -0.9118 -0.3708
 8116SOL     OW35809   4.388   3.188   3.120  0.6032  0.1774  0.4257
 8116SOL    HW135810   4.381   3.194   3.215  0.8226  1.0187  0.3932
 8116SOL    HW235811   4.443   3.266   3.112  2.2412 -1.3533 -3.0219
 8117SOL     OW35812   2.266   2.095  12.350  0.1764  0.5926 -0.3544
 8117SOL    HW135813   2.235   2.174  12.396 -0.6588  0.1107 -0.0871
 8117SOL    HW235814   2.195   2.077  12.288  1.9093  0.9487 -2.4207
 8118SOL     OW35815   0.114   1.327   3.838 -0.5626 -0.4370  0.0158
 8118SOL    HW135816   0.052   1.300   3.771 -0.7155  1.1523 -0.4709
 8118SOL    HW235817   0.104   1.268   3.913  0.6726 -1.1578 -0.3858
 8119SOL     OW35818   0.698   0.171  13.556  0.5347  0.3428  0.8092
 8119SOL    HW135819   0.769   0.119  13.594 -0.2884 -1.4874 -0.1233
 8119SOL    HW235820   0.725   0.257  13.588 -2.0358  1.0257  1.1279
 8120SOL     OW35821   4.272   0.361   8.981  0.7033 -0.4429  0.4086
 8120SOL    HW135822   4.261   0.269   8.956  0.4042 -0.1595 -0.5014
 8120SOL    HW235823   4.354   0.356   9.030  0.4111  0.9212  1.0380
 8121SOL     OW35824   1.853   4.115   0.472  0.3807  0.0770  0.7307
 8121SOL    HW135825   1.804   4.159   0.402  1.8762 -0.8565 -0.8948
 8121SOL    HW235826   1.924   4.073   0.424  0.4544 -0.6974  1.5269
 8122SOL     OW35827   0.751   4.331   6.702 -0.1385 -0.2813 -0.2834
 8122SOL    HW135828   0.736   4.244   6.665 -1.6188 -0.0689 -0.1599
 8122SOL    HW235829   0.700   4.393   6.650  0.2206 -0.0222 -0.3261
 8123SOL     OW35830   0.079   3.725   6.062  0.1795  0.1202 -0.4644
 8123SOL    HW135831   0.086   3.740   6.156 -2.0041  0.4459 -0.3459
 8123SOL    HW235832   0.160   3.759   6.026 -0.0866  0.1206 -1.0632
 8124SOL     OW35833   1.553   0.848  15.177  0.0798 -0.1170  0.7792
 8124SOL    HW135834   1.492   0.816  15.111 -0.7136 -0.0119  1.4631
 8124SOL    HW235835   1.563   0.779  15.242 -0.7385  0.2047  1.2512
 8125SOL     OW35836   3.489   1.825   8.196 -0.6450 -0.3068  0.6406
 8125SOL    HW135837   3.571   1.847   8.241 -0.6746  2.3652 -0.5856
 8125SOL    HW235838   3.429   1.865   8.259 -0.8341  1.6547 -0.7623
 8126SOL     OW35839   2.259   0.559   0.011  0.0276  0.2061 -0.4060
 8126SOL    HW135840   2.239   0.529   0.099  1.3642  1.7357  0.4275
 8126SOL    HW235841   2.179   0.554  17.663  1.4304  1.0910 -2.6813
 8127SOL     OW35842   1.772   2.081   4.770  0.4651  0.0458  0.2281
 8127SOL    HW135843   1.842   2.079   4.835  0.1071  2.2326  0.6716
 8127SOL    HW235844   1.831   2.077   4.694  0.9184  2.5028  0.4253
 8128SOL     OW35845   1.045   1.735   3.297  0.9240  0.1672  0.4145
 8128SOL    HW135846   0.964   1.738   3.246  1.4418  1.3007 -0.3472
 8128SOL    HW235847   1.110   1.741   3.227  1.6256 -0.9475  0.9759
 8129SOL     OW35848   3.440   4.660   3.406  0.0774 -0.2552  0.1179
 8129SOL    HW135849   3.486   4.594   3.457  1.5191 -1.3738 -2.6396
 8129SOL    HW235850   3.409   4.724   3.470 -1.5552  0.2021 -1.1463
 8130SOL     OW35851   4.377   3.264   8.070  0.1265  0.5702 -0.3693
 8130SOL    HW135852   4.455   3.210   8.055 -0.3989 -0.6304  1.1878
 8130SOL    HW235853   4.362   3.245   8.163  2.7874 -0.9014 -0.2205
 8131SOL     OW35854   1.253   0.214   9.116  0.0703 -0.8267 -0.4091
 8131SOL    HW135855   1.228   0.154   9.046  0.0368 -1.2143 -0.0655
 8131SOL    HW235856   1.342   0.185   9.140 -0.6240 -1.5741  1.3032
 8132SOL     OW35857   3.640   2.393  11.818  0.0404 -1.0594  0.2675
 8132SOL    HW135858   3.719   2.423  11.772 -0.0820 -1.1388  0.0066
 8132SOL    HW235859   3.614   2.464  11.876  1.0708 -0.1988 -0.3118
 8133SOL     OW35860   3.020   2.143   7.361 -0.0128 -0.3297  0.5468
 8133SOL    HW135861   2.941   2.102   7.397  0.7844 -2.3698 -0.0261
 8133SOL    HW235862   3.081   2.069   7.361  0.5025  0.0899  0.4266
 8134SOL     OW35863   2.618   4.660   6.661 -0.1602 -0.2545  0.3776
 8134SOL    HW135864   2.562   4.643   6.586 -0.0826 -3.8328  1.1024
 8134SOL    HW235865   2.709   4.664   6.632 -0.8377 -1.3087 -1.8944
 8135SOL     OW35866   0.429   3.827   5.527 -0.1135  0.6993 -0.1830
 8135SOL    HW135867   0.363   3.809   5.460 -1.6826 -2.1964  2.1471
 8135SOL    HW235868   0.490   3.890   5.489  0.4467 -0.8270 -1.8006
 8136SOL     OW35869   3.096   1.428   3.652  0.1430 -0.0537  0.0960
 8136SOL    HW135870   3.131   1.388   3.732  0.6201  1.3126  0.5658
 8136SOL    HW235871   3.019   1.472   3.686 -0.9546  0.0353 -2.5082
 8137SOL     OW35872   1.514   0.054   7.628  0.0047 -0.0054  0.2323
 8137SOL    HW135873   1.602   0.018   7.614 -1.8327 -3.1577 -3.1033
 8137SOL    HW235874   1.474   4.698   7.598  3.0924 -1.0033 -1.2133
 8138SOL     OW35875   2.711   1.055   7.555 -0.3489 -0.0378 -0.0310
 8138SOL    HW135876   2.748   1.022   7.637 -2.0880  0.0033  0.7872
 8138SOL    HW235877   2.787   1.096   7.514 -0.7810  1.8149  0.9741
 8139SOL     OW35878   3.531   0.256   9.542 -0.2321 -0.8130 -0.1919
 8139SOL    HW135879   3.608   0.213   9.579  0.0769 -1.6473 -1.7751
 8139SOL    HW235880   3.520   0.325   9.607  0.4370 -1.4186  0.5610
 8140SOL     OW35881   1.386   2.744   5.420 -0.1079 -0.4796  0.0573
 8140SOL    HW135882   1.481   2.744   5.405 -0.4111  1.5056 -1.7752
 8140SOL    HW235883   1.345   2.746   5.334 -0.5817  2.8530  0.3635
 8141SOL     OW35884   3.466   3.032   8.559  0.1362  0.7730  0.0990
 8141SOL    HW135885   3.410   2.999   8.629 -1.9266  1.4988 -1.2080
 8141SOL    HW235886   3.546   2.983   8.576  0.7527  1.4205 -0.8735
 8142SOL     OW35887   3.841   0.484   7.443  0.0401  0.0676 -0.3204
 8142SOL    HW135888   3.754   0.497   7.405  0.1988 -0.5248 -0.8780
 8142SOL    HW235889   3.829   0.410   7.503 -1.1017 -0.0954 -0.7346
 8143SOL     OW35890   4.344   4.300   4.753  0.0382  0.3263  0.0162
 8143SOL    HW135891   4.301   4.378   4.788 -1.2503 -0.7141  0.8062
 8143SOL    HW235892   4.310   4.235   4.815 -1.4362  3.7411  2.7558
 8144SOL     OW35893   2.202   3.009   0.546 -0.5483 -0.4735  0.5432
 8144SOL    HW135894   2.121   2.975   0.507  0.0051 -2.1288  0.8397
 8144SOL    HW235895   2.159   3.062   0.612 -2.2809 -0.7781 -0.3436
 8145SOL     OW35896   3.129   1.113   3.729  0.6787 -0.6345  0.3174
 8145SOL    HW135897   3.039   1.106   3.761 -0.1650  5.3002 -0.8478
 8145SOL    HW235898   3.118   1.052   3.656 -0.0486  1.9062 -1.6640
 8146SOL     OW35899   0.143   0.164   8.949  0.4933 -0.0347  0.0957
 8146SOL    HW135900   0.173   0.121   9.029 -0.8982  0.5892  0.9605
 8146SOL    HW235901   0.136   0.090   8.889 -0.4353 -0.4584  0.7290
 8147SOL     OW35902   1.617   0.023   6.013 -0.1788 -0.5971 -0.3197
 8147SOL    HW135903   1.706   0.040   6.040 -0.9156  0.2204  1.5508
 8147SOL    HW235904   1.609   4.668   6.064 -1.9116  0.9190  1.8150
 8148SOL     OW35905   1.239   3.279   7.508  0.2373  0.2831  0.3061
 8148SOL    HW135906   1.317   3.245   7.552  1.9233  2.2844 -1.1827
 8148SOL    HW235907   1.208   3.349   7.565 -0.3514  0.8437 -0.7043
 8149SOL     OW35908   3.724   3.280   1.055  0.3308  0.0586 -0.1465
 8149SOL    HW135909   3.682   3.363   1.032  0.3415  0.7497  2.3819
 8149SOL    HW235910   3.786   3.319   1.116  1.6545 -0.9060 -0.8669
 8150SOL     OW35911   0.423   2.093   4.037 -0.4442  0.0881 -0.0066
 8150SOL    HW135912   0.340   2.120   3.998 -0.1958 -0.1118 -0.6726
 8150SOL    HW235913   0.481   2.094   3.960 -0.8806  1.3283 -0.3199
 8151SOL     OW35914   4.223   3.692   0.588 -0.3800 -0.2925  0.4908
 8151SOL    HW135915   4.289   3.635   0.626 -1.3860 -0.1072  2.5257
 8151SOL    HW235916   4.219   3.763   0.652 -1.9545  0.8615 -0.8667
 8152SOL     OW35917   1.245   1.916   3.630  0.0918  0.1265  0.0978
 8152SOL    HW135918   1.272   1.861   3.555 -2.1278  1.4101 -1.6373
 8152SOL    HW235919   1.321   1.914   3.688 -0.5706 -1.3191  0.9277
 8153SOL     OW35920   2.383   4.689  16.913  0.1913 -0.3526 -0.0300
 8153SOL    HW135921   2.367   4.673  16.820 -1.6986 -2.1940  0.6035
 8153SOL    HW235922   2.392   4.601  16.950  0.5407 -0.5322 -0.5491
 8154SOL     OW35923   2.881   1.046   9.639  0.0824  0.1701  0.2407
 8154SOL    HW135924   2.910   1.136   9.621 -0.2475  0.3191  0.4587
 8154SOL    HW235925   2.933   1.034   9.718  0.5379 -1.5036 -0.3122
 8155SOL     OW35926   4.190   1.328  16.715  0.0680 -0.0211 -0.0336
 8155SOL    HW135927   4.105   1.319  16.757 -0.6440  0.8753 -1.2919
 8155SOL    HW235928   4.211   1.238  16.691 -0.8032 -0.1443 -0.3455
 8156SOL     OW35929   3.615   2.661   9.459  0.7877  0.0040  0.3011
 8156SOL    HW135930   3.677   2.726   9.491  2.4309 -0.3078 -2.3048
 8156SOL    HW235931   3.603   2.594   9.527  0.8281  0.4903  0.7837
 8157SOL     OW35932   4.613   3.882  17.371 -0.3174  0.0911 -0.3246
 8157SOL    HW135933   4.533   3.932  17.354 -1.2372 -1.2114  0.2525
 8157SOL    HW235934   4.644   3.854  17.285  0.5296 -0.1434  0.0595
 8158SOL     OW35935   0.769   4.373   5.877  0.4170 -0.3559 -0.3351
 8158SOL    HW135936   0.783   4.458   5.835  2.9753  0.3677  2.0605
 8158SOL    HW235937   0.687   4.394   5.922  0.2260 -0.6498 -0.5422
 8159SOL     OW35938   0.356   4.061   4.044  0.0814  0.4600  0.2533
 8159SOL    HW135939   0.361   3.976   4.001  2.4850  1.5759 -1.6985
 8159SOL    HW235940   0.338   4.040   4.135 -0.6093 -1.4313 -0.3250
 8160SOL     OW35941   2.806   4.508  16.258  0.5306 -0.3020  0.7387
 8160SOL    HW135942   2.787   4.601  16.271  0.7297  0.1553 -2.1617
 8160SOL    HW235943   2.871   4.489  16.325 -1.9553  0.2999  3.3013
 8161SOL     OW35944   4.452   1.635   1.016 -0.5104  0.5786  0.4554
 8161SOL    HW135945   4.373   1.657   1.066 -0.9210 -1.1245  0.5588
 8161SOL    HW235946   4.500   1.717   1.028 -0.4491  0.7455 -0.9413
 8162SOL     OW35947   1.643   3.673   7.985 -0.3247 -0.0716 -0.1333
 8162SOL    HW135948   1.603   3.672   8.072 -1.2535 -0.6531 -0.5577
 8162SOL    HW235949   1.733   3.661   8.015 -0.5508 -1.6742 -0.1160
 8163SOL     OW35950   3.163   2.877   2.870 -0.2379 -0.3585  0.2532
 8163SOL    HW135951   3.256   2.856   2.884 -0.2524 -0.9046 -0.4165
 8163SOL    HW235952   3.152   2.832   2.786 -0.2147 -2.2677  1.2698
 8164SOL     OW35953   2.978   4.067   8.319 -0.7069  0.1850  0.5644
 8164SOL    HW135954   2.944   4.031   8.237  2.4335 -2.5239  0.4382
 8164SOL    HW235955   2.957   4.159   8.300  3.2404  0.5982 -1.9720
 8165SOL     OW35956   3.362   1.156   7.494  0.0987 -0.3221  0.0953
 8165SOL    HW135957   3.442   1.175   7.543  0.5371 -1.1079 -0.3190
 8165SOL    HW235958   3.329   1.083   7.546  0.9291  0.4400  1.6878
 8166SOL     OW35959   0.052   0.810  14.226  0.0821  0.8338  0.5424
 8166SOL    HW135960   0.043   0.743  14.158 -0.1413  0.1399  1.2627
 8166SOL    HW235961   0.110   0.767  14.289  0.4736 -0.9759 -1.0712
 8167SOL     OW35962   1.763   0.488   2.357  0.2307 -0.1189  0.0631
 8167SOL    HW135963   1.776   0.577   2.388 -0.5957  0.0590 -0.0974
 8167SOL    HW235964   1.855   0.465   2.355  0.7728  2.0143  0.3764
 8168SOL     OW35965   2.197   1.756   8.457  0.2953  0.5444 -0.1895
 8168SOL    HW135966   2.291   1.772   8.457 -0.0457  2.5964 -1.2046
 8168SOL    HW235967   2.161   1.829   8.507 -1.9585 -1.3089  0.9127
 8169SOL     OW35968   2.081   0.786   7.784 -0.4765  0.2149  0.2929
 8169SOL    HW135969   2.010   0.798   7.720 -0.7276  0.9418  0.7000
 8169SOL    HW235970   2.074   0.876   7.816 -2.5607 -0.5064  1.8370
 8170SOL     OW35971   1.318   0.302   1.286 -0.2060  0.1784  0.1749
 8170SOL    HW135972   1.250   0.351   1.238 -1.6567  0.1142  2.1670
 8170SOL    HW235973   1.275   0.217   1.294  1.6484 -0.7880 -0.4107
 8171SOL     OW35974   3.263   1.126  17.521  0.3629 -0.4996 -0.0696
 8171SOL    HW135975   3.217   1.047  17.550 -2.9290  1.1123 -0.9076
 8171SOL    HW235976   3.218   1.197  17.567  1.3831  0.1227 -0.0217
 8172SOL     OW35977   3.027   3.246   6.071  0.7650 -0.5693  0.0435
 8172SOL    HW135978   3.098   3.183   6.058  2.7889  1.8255 -0.5831
 8172SOL    HW235979   3.063   3.317   6.018  0.3956 -0.4200 -0.0067
 8173SOL     OW35980   2.062   0.454   7.016 -0.3129 -0.0734 -0.3245
 8173SOL    HW135981   2.092   0.540   6.987  0.6478 -0.1933  0.3405
 8173SOL    HW235982   2.027   0.470   7.104  0.5985  1.5192 -0.2510
 8174SOL     OW35983   4.395   1.053   1.252 -0.4270 -0.3221  0.0188
 8174SOL    HW135984   4.411   1.007   1.170 -2.3624 -1.1724  0.1364
 8174SOL    HW235985   4.450   1.132   1.248  0.6575 -1.1557 -1.3100
 8175SOL     OW35986   4.472   1.877   2.844 -0.3895  0.1148  0.3361
 8175SOL    HW135987   4.469   1.940   2.916  1.8483 -3.1621  3.2806
 8175SOL    HW235988   4.549   1.822   2.860  0.2142  0.7494 -0.3745
 8176SOL     OW35989   4.311   2.112   8.963  0.6784  0.2930  0.1657
 8176SOL    HW135990   4.309   2.034   8.909 -0.2830 -0.7857  1.7330
 8176SOL    HW235991   4.357   2.073   9.037 -0.2739 -1.1730 -0.0164
 8177SOL     OW35992   3.291   2.821   4.056  0.1676 -0.1039  0.1375
 8177SOL    HW135993   3.280   2.727   4.040 -2.5278  0.1460  0.4111
 8177SOL    HW235994   3.272   2.818   4.150  1.1239  1.6679  0.3829
 8178SOL     OW35995   1.128   4.538  13.931  0.4748 -0.4728 -0.0400
 8178SOL    HW135996   1.112   4.603  13.862  2.2857  0.3254  0.2981
 8178SOL    HW235997   1.209   4.497  13.901  0.1063 -1.1792 -0.0686
 8179SOL     OW35998   2.324   0.577  13.333 -0.2077 -0.1603  0.8429
 8179SOL    HW135999   2.270   0.500  13.348 -1.0318  0.2275 -0.1637
 8179SOL    HW236000   2.312   0.590  13.239 -0.5218  1.2549  1.0828
 8180SOL     OW36001   3.647   3.665   9.377  0.4798  0.1025 -0.5742
 8180SOL    HW136002   3.586   3.669   9.451 -0.4913 -1.2677 -1.2922
 8180SOL    HW236003   3.709   3.725   9.418 -2.4043  3.2567 -0.7392
 8181SOL     OW36004   0.698   1.005   3.273 -0.0742 -0.5290  0.1014
 8181SOL    HW136005   0.776   0.955   3.252 -2.6165 -4.5814  0.3657
 8181SOL    HW236006   0.676   0.954   3.351 -1.5030 -2.4434 -1.5405
 8182SOL     OW36007   4.201   3.903  10.267  0.3487 -0.1302 -0.5157
 8182SOL    HW136008   4.189   3.842  10.340 -0.6748  0.2171 -0.3948
 8182SOL    HW236009   4.297   3.899  10.269  0.3262 -0.6942 -0.4287
 8183SOL     OW36010   2.404   4.424  15.529 -0.0060 -0.7336 -0.1614
 8183SOL    HW136011   2.336   4.491  15.525  3.2363  2.4893 -1.5804
 8183SOL    HW236012   2.353   4.346  15.507 -0.2611 -1.3049  2.4030
 8184SOL     OW36013   3.891   4.624   3.845  0.1244 -0.5285 -0.1636
 8184SOL    HW136014   3.903   4.532   3.821 -0.8211 -0.7911  0.3639
 8184SOL    HW236015   3.822   4.656   3.787  0.3152 -0.7141 -0.4926
 8185SOL     OW36016   1.155   0.687   7.423 -0.2813 -0.4470  1.0096
 8185SOL    HW136017   1.178   0.685   7.516 -1.1018  1.6293  1.2522
 8185SOL    HW236018   1.164   0.593   7.409  0.6607 -0.6151  2.7626
 8186SOL     OW36019   2.717   2.564   7.369  0.4748 -0.2198  0.0877
 8186SOL    HW136020   2.635   2.604   7.398 -0.2745 -1.2417 -0.6394
 8186SOL    HW236021   2.786   2.609   7.418 -0.4899  1.0289  0.2981
 8187SOL     OW36022   1.709   2.166   5.628 -0.2954  0.3965  0.1748
 8187SOL    HW136023   1.670   2.118   5.554  0.9109 -1.0827  0.5014
 8187SOL    HW236024   1.723   2.091   5.685 -1.7665  0.5436  0.7475
 8188SOL     OW36025   3.079   3.754  10.430 -0.1370  0.4132  0.0831
 8188SOL    HW136026   2.989   3.787  10.430 -0.4187 -0.3261  2.2534
 8188SOL    HW236027   3.065   3.715  10.517 -0.2958  0.3206  0.0166
 8189SOL     OW36028   3.994   4.641   4.366 -0.1987  0.2946 -0.1666
 8189SOL    HW136029   4.030   4.663   4.280 -0.2741  0.2352 -0.2138
 8189SOL    HW236030   3.928   4.574   4.347  1.1838 -1.5767  1.6747
 8190SOL     OW36031   2.762   2.237  12.560 -0.1645  0.3187  0.6027
 8190SOL    HW136032   2.817   2.305  12.520  0.9617 -1.1980 -0.4659
 8190SOL    HW236033   2.739   2.177  12.489 -0.5104 -0.1981  1.1492
 8191SOL     OW36034   0.947   4.500  10.411 -1.1394 -0.0572  0.0766
 8191SOL    HW136035   0.955   4.414  10.369 -0.4421 -0.1880  0.4781
 8191SOL    HW236036   0.936   4.551  10.330 -1.3186 -0.6233 -0.2589
 8192SOL     OW36037   3.485   3.970   3.655  0.5701  0.3273  0.1451
 8192SOL    HW136038   3.397   3.985   3.620 -0.6221 -1.3032  2.4955
 8192SOL    HW236039   3.519   3.957   3.566 -0.1002 -2.1536  0.2572
 8193SOL     OW36040   1.351   1.623  14.301  0.5085  0.3374 -0.4402
 8193SOL    HW136041   1.378   1.631  14.210 -0.7910  0.5264 -0.8182
 8193SOL    HW236042   1.323   1.532  14.305 -0.8891  0.6719 -2.4813
 8194SOL     OW36043   1.338   1.980   5.289  0.0741 -0.3024 -0.4656
 8194SOL    HW136044   1.407   1.996   5.353 -0.8352 -0.6216  0.5965
 8194SOL    HW236045   1.289   1.911   5.334  0.2111 -0.9876 -1.3510
 8195SOL     OW36046   0.527   3.151   2.906  0.0462  0.1913  0.0412
 8195SOL    HW136047   0.464   3.136   2.836 -0.6984 -0.9132  0.9588
 8195SOL    HW236048   0.611   3.170   2.863 -0.1560  0.2814 -0.3057
 8196SOL     OW36049   2.215   1.580   8.692  0.0010 -0.0061 -0.1624
 8196SOL    HW136050   2.203   1.635   8.615 -0.2118  0.9072  0.5230
 8196SOL    HW236051   2.190   1.650   8.752 -2.9214 -1.3844  0.2278
 8197SOL     OW36052   1.216   1.753   1.507 -0.8836  0.7077 -0.1425
 8197SOL    HW136053   1.211   1.765   1.602  1.9740 -0.4832  0.1701
 8197SOL    HW236054   1.128   1.776   1.477 -0.1856 -0.2967 -2.9399
 8198SOL     OW36055   4.583   0.330   2.574 -0.0034  0.0605  0.0328
 8198SOL    HW136056   4.570   0.414   2.617  1.7079  0.4785 -0.2384
 8198SOL    HW236057   4.641   0.285   2.635  2.0108  1.3599 -0.9182
 8199SOL     OW36058   2.932   3.883   8.902  0.0496  0.0045 -0.5742
 8199SOL    HW136059   2.909   3.794   8.931  1.1660 -0.4284 -1.0272
 8199SOL    HW236060   2.846   3.925   8.901 -0.3373 -0.6748  1.5679
 8200SOL     OW36061   0.533   1.628  11.949  0.0654  0.0043  0.1004
 8200SOL    HW136062   0.556   1.535  11.954 -1.5024 -0.4115 -0.4040
 8200SOL    HW236063   0.465   1.622  11.882  1.1182  1.6534 -1.1000
 8201SOL     OW36064   3.997   4.347   4.764  0.2130  0.2100  0.1792
 8201SOL    HW136065   3.975   4.424   4.712  0.8144  0.4626  0.3006
 8201SOL    HW236066   4.072   4.326   4.707  2.1778 -0.0921  2.8621
 8202SOL     OW36067   3.138   0.388   4.606 -0.2180  0.4843 -0.2452
 8202SOL    HW136068   3.187   0.369   4.525  0.2936  0.7691  0.0004
 8202SOL    HW236069   3.113   0.303   4.641 -1.5333  1.7326  1.8247
 8203SOL     OW36070   2.541   3.350   5.307 -0.3474 -0.0294  0.1870
 8203SOL    HW136071   2.447   3.354   5.319 -0.5767 -1.0620 -1.2470
 8203SOL    HW236072   2.547   3.375   5.215  0.0194 -0.6458  0.0403
 8204SOL     OW36073   4.200   0.343   1.443  0.1737  0.9166  0.1320
 8204SOL    HW136074   4.188   0.280   1.371  4.0031  2.0980 -1.5497
 8204SOL    HW236075   4.240   0.419   1.400  0.7146  0.4449 -0.2229
 8205SOL     OW36076   0.130   3.042   3.054  0.0467  0.6776 -0.2309
 8205SOL    HW136077   0.208   3.098   3.052  0.0248  0.7442  0.7175
 8205SOL    HW236078   0.068   3.106   3.020  0.1603  0.4708 -0.8273
 8206SOL     OW36079   1.590   3.720   6.315 -0.0649  0.1725 -0.3584
 8206SOL    HW136080   1.618   3.808   6.340  1.5358 -0.1527 -1.0153
 8206SOL    HW236081   1.671   3.696   6.270  0.4556 -0.1948  0.7864
 8207SOL     OW36082   3.029   1.381   9.090 -0.1674 -0.1973 -0.1064
 8207SOL    HW136083   3.044   1.471   9.118 -3.3800 -0.0635  1.1081
 8207SOL    HW236084   3.118   1.345   9.085  0.3031  0.8829  0.4615
 8208SOL     OW36085   2.391   4.462   0.629  0.4804  0.1621  0.1246
 8208SOL    HW136086   2.363   4.377   0.662  2.4395 -0.2743  0.6686
 8208SOL    HW236087   2.397   4.500   0.716  1.7196 -0.4834  0.3106
 8209SOL     OW36088   1.857   3.329   8.197 -0.1459 -0.2127  0.2461
 8209SOL    HW136089   1.865   3.384   8.119 -2.3673  0.0733  0.1969
 8209SOL    HW236090   1.770   3.294   8.177  0.0011 -0.6068  0.2932
 8210SOL     OW36091   1.764   0.017   0.409 -0.6494  0.3657  0.0636
 8210SOL    HW136092   1.820   0.028   0.485  0.2282  1.0797 -0.6927
 8210SOL    HW236093   1.742   0.106   0.383 -0.2096  1.1144  2.2916
 8211SOL     OW36094   1.406   3.992   8.366  0.5911  0.6832  0.0231
 8211SOL    HW136095   1.446   3.932   8.428  1.9350 -0.5283 -1.9963
 8211SOL    HW236096   1.484   4.031   8.327 -0.0456 -0.6029 -2.5678
 8212SOL     OW36097   1.015   1.321   3.739  0.4620 -0.2161  0.2665
 8212SOL    HW136098   1.061   1.256   3.793 -0.0830  0.4068  1.4721
 8212SOL    HW236099   1.090   1.364   3.698  1.5024 -1.4508  0.8805
 8213SOL     OW36100   3.813   4.175   9.540  0.0334  0.1109  0.5424
 8213SOL    HW136101   3.828   4.261   9.578 -0.7888 -0.2410  1.6870
 8213SOL    HW236102   3.718   4.184   9.529  0.3412  1.4021 -0.9853
 8214SOL     OW36103   0.351   0.171   4.676  0.5690 -0.2508  0.4561
 8214SOL    HW136104   0.400   0.248   4.648  0.6704  0.6366  3.0401
 8214SOL    HW236105   0.393   0.134   4.754  0.2381  0.2560  0.8779
 8215SOL     OW36106   0.836   4.711   6.300  0.4285  0.2039 -0.0298
 8215SOL    HW136107   0.858   4.703   6.208 -1.9207 -0.0612 -0.5833
 8215SOL    HW236108   0.747   4.674   6.300  0.7352 -0.5223 -0.9240
 8216SOL     OW36109   0.190   1.305   5.636  0.0811 -0.0954 -0.0634
 8216SOL    HW136110   0.227   1.393   5.632 -1.3175  0.5117  0.1052
 8216SOL    HW236111   0.265   1.262   5.676 -0.2425 -1.2291 -0.6861
 8217SOL     OW36112   1.225   3.649   3.320  0.3043  0.1700  0.2375
 8217SOL    HW136113   1.291   3.716   3.336 -1.2330  1.2976  1.8789
 8217SOL    HW236114   1.274   3.575   3.358 -0.7201 -1.5659 -1.7908
 8218SOL     OW36115   1.796   2.433   5.577 -0.5023 -0.2341 -0.4356
 8218SOL    HW136116   1.716   2.454   5.529  0.0967  0.1391 -1.2521
 8218SOL    HW236117   1.796   2.338   5.589 -0.5707 -0.4478 -2.1935
 8219SOL     OW36118   0.087   2.846   2.765  0.1361 -0.2839  0.1663
 8219SOL    HW136119   4.725   2.837   2.729  0.2179  0.7584 -0.2796
 8219SOL    HW236120   0.139   2.793   2.704  1.6720 -0.3054  1.4718
 8220SOL     OW36121   0.895   2.651  14.129 -0.4598 -0.5829  0.0317
 8220SOL    HW136122   0.828   2.585  14.111  0.8953 -2.2687  1.0411
 8220SOL    HW236123   0.900   2.698  14.046  1.0596 -0.0408  0.4306
 8221SOL     OW36124   0.573   3.381   1.434  0.7388  0.0607  0.2547
 8221SOL    HW136125   0.608   3.297   1.464 -0.3255  0.2424  1.9847
 8221SOL    HW236126   0.577   3.431   1.515  0.3604 -1.7531  1.3797
 8222SOL     OW36127   1.647   3.260   7.401  0.1308 -0.2447  0.9438
 8222SOL    HW136128   1.566   3.229   7.362  1.6115 -3.5330  0.4874
 8222SOL    HW236129   1.621   3.255   7.493 -0.0396  3.6187  1.0960
 8223SOL     OW36130   2.159   2.739  10.706 -0.5242 -0.5310 -0.7277
 8223SOL    HW136131   2.094   2.679  10.671  1.0721 -1.9651 -1.2235
 8223SOL    HW236132   2.131   2.822  10.667 -1.5354  0.6614  2.5252
 8224SOL     OW36133   2.007   2.904   5.874  0.2059  0.3481  0.3772
 8224SOL    HW136134   1.970   2.823   5.840 -1.4298  1.8081 -1.2681
 8224SOL    HW236135   2.088   2.902   5.823 -0.4289  0.0222 -0.5979
 8225SOL     OW36136   3.936   2.713   9.390 -0.0561  0.2103  0.0388
 8225SOL    HW136137   3.866   2.706   9.325  0.4073  0.5108 -0.4953
 8225SOL    HW236138   4.004   2.666   9.340 -0.9180 -1.0747  0.0573
 8226SOL     OW36139   2.029   3.480   7.090  0.1040 -0.3794  0.1410
 8226SOL    HW136140   2.119   3.471   7.121  1.0441  2.8378 -1.6175
 8226SOL    HW236141   2.003   3.388   7.091 -0.4078 -0.2341 -0.1100
 8227SOL     OW36142   3.990   4.321   2.642  0.1769  0.0772  0.0177
 8227SOL    HW136143   3.896   4.302   2.642  0.1458  0.2283 -0.1143
 8227SOL    HW236144   4.036   4.251   2.689  1.1114 -2.7216 -4.9892
 8228SOL     OW36145   0.788   4.718  15.003 -0.5943  0.1158  0.4337
 8228SOL    HW136146   0.821   0.072  15.045 -1.2700 -0.7353  2.5737
 8228SOL    HW236147   0.858   4.688  14.945  0.9833  0.2862  2.2225
 8229SOL     OW36148   0.387   3.247   3.451  0.1768  0.2634  0.8083
 8229SOL    HW136149   0.345   3.197   3.381  0.2215  0.2584  0.7852
 8229SOL    HW236150   0.469   3.198   3.451  1.0124  1.6637  1.3018
 8230SOL     OW36151   2.416   0.645   1.979 -0.2726 -0.6127  0.3901
 8230SOL    HW136152   2.439   0.602   1.897  1.9468 -0.6889  1.0503
 8230SOL    HW236153   2.414   0.735   1.947  0.9516 -1.5195 -2.2557
 8231SOL     OW36154   1.818   2.674   4.761  0.0492 -0.4915 -0.3766
 8231SOL    HW136155   1.870   2.639   4.688 -0.9320  0.9508 -1.7713
 8231SOL    HW236156   1.885   2.683   4.829 -0.6257 -1.2470  0.3948
 8232SOL     OW36157   0.511   1.488   5.741 -0.5208  0.2516  0.5544
 8232SOL    HW136158   0.471   1.556   5.688  0.4048  1.0915  0.9274
 8232SOL    HW236159   0.549   1.435   5.671  1.2101 -0.4400  2.0260
 8233SOL     OW36160   3.694   2.780   2.151 -0.2732  0.5241 -0.2241
 8233SOL    HW136161   3.761   2.715   2.130  0.0137  0.1971  1.6739
 8233SOL    HW236162   3.619   2.748   2.101  0.8002 -0.4090 -1.2357
 8234SOL     OW36163   2.426   3.731   8.376 -0.3139  0.4739  0.4244
 8234SOL    HW136164   2.383   3.800   8.426 -0.7203 -0.2514  1.0609
 8234SOL    HW236165   2.357   3.677   8.337  0.5168 -0.5623  0.3607
 8235SOL     OW36166   2.902   3.532   5.625  0.1924 -0.1615 -0.0256
 8235SOL    HW136167   2.847   3.466   5.668 -1.2696  1.0020 -0.1163
 8235SOL    HW236168   2.841   3.571   5.562 -1.9458 -2.7347  0.4509
 8236SOL     OW36169   3.421   4.575  11.476 -0.2057 -0.1866 -0.4022
 8236SOL    HW136170   3.413   4.615  11.389  0.1254 -2.7826 -1.6278
 8236SOL    HW236171   3.443   4.649  11.532 -1.2801 -0.7159  0.7172
 8237SOL     OW36172   1.524   4.301   5.376  0.1776 -0.2580  0.3757
 8237SOL    HW136173   1.469   4.227   5.400  0.1815 -0.6119 -0.7112
 8237SOL    HW236174   1.532   4.289   5.281  1.6749 -1.9477  0.7120
 8238SOL     OW36175   3.775   3.030  14.428 -0.5176 -0.6953 -0.3380
 8238SOL    HW136176   3.720   3.101  14.460 -1.9535 -1.4915 -1.0452
 8238SOL    HW236177   3.856   3.050  14.475 -1.7675 -0.9053  1.8788
 8239SOL     OW36178   3.728   1.796   2.648  0.1377 -0.2954 -0.3806
 8239SOL    HW136179   3.711   1.807   2.741  1.5686  3.5612 -0.5494
 8239SOL    HW236180   3.813   1.751   2.646 -1.1617 -2.6833 -0.9277
 8240SOL     OW36181   0.111   1.742   1.185 -0.2236 -0.5582  0.0953
 8240SOL    HW136182   0.201   1.730   1.215 -0.9297  0.7169  2.7329
 8240SOL    HW236183   0.065   1.761   1.267 -0.4536 -0.7162  0.0030
 8241SOL     OW36184   4.300   0.941  11.929  0.0478 -0.5394 -0.1151
 8241SOL    HW136185   4.318   0.868  11.870  0.4934  0.6217 -1.4345
 8241SOL    HW236186   4.379   0.996  11.927 -1.7659  2.1037  0.8700
 8242SOL     OW36187   4.592   1.046   8.006 -0.7516 -0.1035  0.5015
 8242SOL    HW136188   4.679   1.007   7.992 -0.8169 -0.9926  2.6540
 8242SOL    HW236189   4.560   0.995   8.080  1.7002 -0.4887  1.3139
 8243SOL     OW36190   3.297   2.052   9.517 -0.2127  0.7140 -0.7591
 8243SOL    HW136191   3.298   2.126   9.455  1.6735  0.0675 -1.4749
 8243SOL    HW236192   3.379   2.073   9.561 -0.7427  1.0338  0.0717
 8244SOL     OW36193   2.182   2.234   8.142  0.3563  0.0365 -0.4495
 8244SOL    HW136194   2.153   2.320   8.173  0.0451  0.1084 -0.9257
 8244SOL    HW236195   2.188   2.192   8.228 -3.0811 -1.2402 -0.8358
 8245SOL     OW36196   1.424   2.732   9.273 -0.0825 -0.1229  0.3011
 8245SOL    HW136197   1.348   2.678   9.251  0.3238 -0.6004  0.0552
 8245SOL    HW236198   1.441   2.713   9.365 -0.7603 -2.5220 -0.0731
 8246SOL     OW36199   3.460   3.948   9.059  0.4528 -0.6284  0.1629
 8246SOL    HW136200   3.509   3.876   9.020  0.8039 -0.8468  1.0171
 8246SOL    HW236201   3.468   3.935   9.153 -1.2807 -2.0666  0.1141
 8247SOL     OW36202   2.593   2.868   2.738  0.0068 -0.0701 -0.4350
 8247SOL    HW136203   2.572   2.958   2.714 -0.7383  0.7518  3.3645
 8247SOL    HW236204   2.582   2.831   2.650 -0.4032  0.1050 -0.4594
 8248SOL     OW36205   0.727   2.868   8.004 -0.6437 -0.0741  0.3806
 8248SOL    HW136206   0.719   2.961   7.983  2.1420  0.0767  0.0600
 8248SOL    HW236207   0.810   2.880   8.049  0.3431 -1.9338 -0.9905
 8249SOL     OW36208   0.628   1.755  11.239 -0.0098 -0.4129  0.2109
 8249SOL    HW136209   0.699   1.805  11.197 -1.8056 -0.1338 -2.4994
 8249SOL    HW236210   0.619   1.688  11.171  0.6143 -2.2671  1.9563
 8250SOL     OW36211   0.953   1.510   5.052 -0.1634  0.6223 -0.2506
 8250SOL    HW136212   0.877   1.538   5.104  0.8974  0.9408  1.1316
 8250SOL    HW236213   0.959   1.585   4.993  0.5378  0.8784  0.1485
 8251SOL     OW36214   2.590   0.022   5.012 -0.2395 -0.5408  0.3594
 8251SOL    HW136215   2.662   0.041   5.072 -1.8953  0.1871  2.1458
 8251SOL    HW236216   2.525   4.705   5.068 -0.5377  3.1765  2.8302
 8252SOL     OW36217   4.023   0.705  10.276  0.1693 -0.5053  0.0371
 8252SOL    HW136218   4.072   0.653  10.340 -1.8063 -2.1106  0.2564
 8252SOL    HW236219   4.088   0.767  10.244 -0.3646  0.1721  0.2634
 8253SOL     OW36220   1.666   1.557   3.879  0.3461  0.0981  0.4895
 8253SOL    HW136221   1.760   1.567   3.863  0.1644 -0.1733 -0.7244
 8253SOL    HW236222   1.643   1.486   3.820 -4.1492  1.9015  0.0457
 8254SOL     OW36223   1.340   3.882   6.453  0.4796  0.3125 -0.2669
 8254SOL    HW136224   1.335   3.792   6.485 -1.2210  0.3619 -0.4185
 8254SOL    HW236225   1.429   3.894   6.418  0.2096  1.9496 -0.3669
 8255SOL     OW36226   2.291   2.987  14.528  0.0021 -0.0698  0.3917
 8255SOL    HW136227   2.357   2.920  14.541  0.9827  0.7684 -0.3279
 8255SOL    HW236228   2.262   3.000  14.618  0.3501  0.7456  0.3894
 8256SOL     OW36229   4.479   1.918   1.634  0.0436 -0.3062  0.1512
 8256SOL    HW136230   4.386   1.896   1.632  0.2132 -0.8736 -2.1863
 8256SOL    HW236231   4.480   2.002   1.587 -0.6894 -0.1782  0.3767
 8257SOL     OW36232   3.044   3.998   9.425  1.3042  0.0894  0.3913
 8257SOL    HW136233   3.069   3.907   9.438 -0.1515 -0.1130  1.8647
 8257SOL    HW236234   2.970   3.989   9.365  2.0387 -1.7651 -0.2310
 8258SOL     OW36235   0.425   4.369   0.774 -0.5015  0.4982 -0.4730
 8258SOL    HW136236   0.463   4.448   0.813  0.8650 -1.4647  2.1789
 8258SOL    HW236237   0.503   4.319   0.751 -0.5261 -0.3532  1.3351
 8259SOL     OW36238   0.729   0.381  14.185  0.3893 -0.9925 -0.0236
 8259SOL    HW136239   0.674   0.394  14.107 -1.7229 -0.0547  1.6148
 8259SOL    HW236240   0.672   0.427  14.246  0.0971 -0.7250 -0.4900
 8260SOL     OW36241   2.279   4.437   9.687 -0.2473  0.3750  0.6066
 8260SOL    HW136242   2.250   4.528   9.684 -2.7224 -0.4164  0.3912
 8260SOL    HW236243   2.301   4.418   9.595 -1.5336  1.7588 -0.0032
 8261SOL     OW36244   2.440   2.891   3.088 -0.2769 -0.1453  0.3267
 8261SOL    HW136245   2.528   2.907   3.123  0.6916 -1.3666 -1.5072
 8261SOL    HW236246   2.437   2.972   3.039  1.0594 -0.1766  0.1824
 8262SOL     OW36247   2.751   1.254   6.226 -0.3983  0.0504 -0.0603
 8262SOL    HW136248   2.751   1.170   6.272 -2.4466 -0.7949 -1.6284
 8262SOL    HW236249   2.760   1.219   6.138  1.4677 -0.1151  0.2036
 8263SOL     OW36250   0.804   3.789  15.490  0.0942  0.3863 -0.2658
 8263SOL    HW136251   0.761   3.870  15.516 -1.3662 -1.2796  2.5237
 8263SOL    HW236252   0.733   3.725  15.497 -0.1350  0.8353  1.5027
 8264SOL     OW36253   4.283   0.767   1.793 -0.2145  0.2017  0.5328
 8264SOL    HW136254   4.310   0.707   1.724 -0.5810  0.1216  0.4547
 8264SOL    HW236255   4.329   0.726   1.866  0.6360 -0.2336 -0.2566
 8265SOL     OW36256   1.761   2.370   8.763  0.1520  0.5444 -0.1235
 8265SOL    HW136257   1.769   2.394   8.855  4.9439 -0.1437 -0.3626
 8265SOL    HW236258   1.694   2.301   8.766  1.0289 -0.3252 -0.6747
 8266SOL     OW36259   1.158   1.287  13.025 -0.2983 -0.4318 -0.9958
 8266SOL    HW136260   1.063   1.283  13.034  0.1895 -2.7785  2.8455
 8266SOL    HW236261   1.182   1.195  13.030  1.9972  0.2364  0.6113
 8267SOL     OW36262   1.322   2.401  17.168  0.1000  0.6948  0.5487
 8267SOL    HW136263   1.330   2.322  17.221 -0.0860  1.3840  1.5937
 8267SOL    HW236264   1.248   2.390  17.109  2.7776 -0.8368 -2.5404
 8268SOL     OW36265   2.324   2.864   8.355  0.1519 -0.2845 -0.6220
 8268SOL    HW136266   2.348   2.837   8.444  0.1115  1.2806 -0.1242
 8268SOL    HW236267   2.398   2.903   8.309 -0.3580  1.1958 -0.1850
 8269SOL     OW36268   4.653   3.815   5.263 -0.0127 -0.1249  0.4196
 8269SOL    HW136269   4.615   3.740   5.309 -0.7208  1.5355  2.5569
 8269SOL    HW236270   4.717   3.855   5.323  2.3458 -0.2230 -2.0219
 8270SOL     OW36271   1.719   3.346   3.651  0.3985  0.4626  0.0230
 8270SOL    HW136272   1.805   3.362   3.689 -0.1308  1.6388  0.7207
 8270SOL    HW236273   1.695   3.428   3.608 -0.7738  1.3497  2.3359
 8271SOL     OW36274   1.525   4.043   7.881  0.3887 -0.3374  0.8247
 8271SOL    HW136275   1.519   4.138   7.877 -1.0674 -0.3965  1.6762
 8271SOL    HW236276   1.616   4.043   7.850  0.3008  2.4610  0.5895
 8272SOL     OW36277   3.723   0.204  15.235 -0.2519 -0.1398 -0.3901
 8272SOL    HW136278   3.683   0.271  15.180  0.5166  0.9206  0.3269
 8272SOL    HW236279   3.713   0.252  15.317  1.6869  0.1655 -0.3169
 8273SOL     OW36280   2.823   3.820   5.517  0.2868  0.2352 -0.5573
 8273SOL    HW136281   2.812   3.754   5.448  2.8283  0.9967 -1.6930
 8273SOL    HW236282   2.914   3.846   5.502  0.2721 -0.4584 -1.8236
 8274SOL     OW36283   4.662   0.188   7.993 -0.0188  0.2792 -0.1870
 8274SOL    HW136284   0.000   0.190   8.065  1.3593  1.8401 -1.4454
 8274SOL    HW236285   4.609   0.112   8.016  0.1310  0.5378  1.0258
 8275SOL     OW36286   3.150   3.101   6.948  0.3122 -0.1741  0.1966
 8275SOL    HW136287   3.068   3.140   6.977 -0.4573 -2.2044  0.7641
 8275SOL    HW236288   3.211   3.154   6.999  1.3124 -1.5814  0.4805
 8276SOL     OW36289   3.505   4.334   7.384 -0.4701  0.4339  0.1715
 8276SOL    HW136290   3.478   4.359   7.296  1.0418 -1.2224 -0.7896
 8276SOL    HW236291   3.420   4.324   7.427  0.2632 -1.3368  1.2191
 8277SOL     OW36292   4.077   2.445   5.777  0.0689  0.2869  0.7673
 8277SOL    HW136293   4.017   2.515   5.802 -0.5046  0.2926 -0.6305
 8277SOL    HW236294   4.042   2.381   5.839  0.9170  0.6554  1.6246
 8278SOL     OW36295   2.032   3.908   0.333  0.4308  0.4386 -0.1654
 8278SOL    HW136296   2.050   3.883   0.242  1.2449  0.1934  0.0697
 8278SOL    HW236297   2.118   3.909   0.373  0.2642  0.9550  0.1801
 8279SOL     OW36298   2.889   2.405   1.033  0.1184 -0.5034 -0.3890
 8279SOL    HW136299   2.877   2.373   0.944  4.3067 -1.4646 -0.6450
 8279SOL    HW236300   2.985   2.405   1.035  0.1165 -0.7477 -0.3385
 8280SOL     OW36301   4.562   4.319   5.268  0.0329 -0.1320 -0.5638
 8280SOL    HW136302   4.595   4.384   5.206  0.1924 -0.2512 -0.6032
 8280SOL    HW236303   4.583   4.375   5.342 -0.2187 -1.7497  0.7243
 8281SOL     OW36304   0.230   4.204   0.869  0.0651  0.0182 -0.1604
 8281SOL    HW136305   0.242   4.126   0.814 -1.3155 -0.0857 -0.3154
 8281SOL    HW236306   0.293   4.269   0.838  1.1565  0.1799  2.4212
 8282SOL     OW36307   4.527   0.871  13.724  0.5056  0.0710 -1.0235
 8282SOL    HW136308   4.485   0.785  13.722  2.1337 -0.7544  0.8629
 8282SOL    HW236309   4.504   0.902  13.636  0.8088  0.9660 -0.7868
 8283SOL     OW36310   3.853   4.181   6.694 -0.1425  0.3284 -0.3433
 8283SOL    HW136311   3.792   4.255   6.691 -1.0516 -0.4531 -1.4976
 8283SOL    HW236312   3.871   4.159   6.602  0.2673  1.4612 -0.5387
 8284SOL     OW36313   2.572   3.618   3.646  0.5575 -0.4687 -0.3081
 8284SOL    HW136314   2.576   3.607   3.551 -0.4215  1.0222 -0.5310
 8284SOL    HW236315   2.664   3.608   3.669  0.0729  1.9259  2.8203
 8285SOL     OW36316   4.670   2.235   4.108 -0.1195 -0.2767  0.2667
 8285SOL    HW136317   4.592   2.282   4.079  1.3628  3.0575  1.6249
 8285SOL    HW236318   4.629   2.151   4.090  0.0415  0.0445 -1.5821
 8286SOL     OW36319   2.896   0.716   3.719  0.0949 -0.2387  0.3758
 8286SOL    HW136320   2.804   0.700   3.741 -0.0802 -1.6810 -1.4664
 8286SOL    HW236321   2.900   0.806   3.687  0.9280 -0.4189 -0.0318
 8287SOL     OW36322   0.363   3.758  17.427 -0.4908 -0.1699 -0.6073
 8287SOL    HW136323   0.310   3.708  17.489  1.8975 -1.3683  0.4502
 8287SOL    HW236324   0.378   3.841  17.473  2.0819 -0.9129 -0.0826
 8288SOL     OW36325   3.775   1.465  10.072 -0.1164 -0.0373  0.5108
 8288SOL    HW136326   3.784   1.376  10.105 -0.8109 -0.4151 -0.3169
 8288SOL    HW236327   3.829   1.455   9.993 -3.3093  0.1774 -1.7095
 8289SOL     OW36328   1.916   0.168  17.317 -0.4976 -0.8463  0.0139
 8289SOL    HW136329   1.920   0.255  17.357  0.3968 -0.7667 -0.2475
 8289SOL    HW236330   1.989   0.136  17.371  0.0861 -1.5638 -1.2066
 8290SOL     OW36331   1.911   1.083   9.097  0.0379  0.4613 -0.3441
 8290SOL    HW136332   1.908   1.002   9.046 -1.3424  0.3738 -0.1357
 8290SOL    HW236333   1.825   1.123   9.081 -1.0518 -0.3500  3.5327
 8291SOL     OW36334   0.285   4.090   5.305 -0.0862 -0.0119 -0.2425
 8291SOL    HW136335   0.219   4.040   5.353  1.4458 -0.1713  1.6871
 8291SOL    HW236336   0.288   4.049   5.218 -2.3930 -1.3965  0.3179
 8292SOL     OW36337   1.996   2.937   3.176 -0.5871 -0.3799 -0.3957
 8292SOL    HW136338   2.046   2.989   3.114 -0.7130  0.5677  0.3074
 8292SOL    HW236339   1.918   2.909   3.129 -1.2068 -0.7122  0.8264
 8293SOL     OW36340   3.054   2.974   5.893 -0.1632  0.4499 -0.0743
 8293SOL    HW136341   3.116   3.040   5.925 -1.1390  1.1942  0.3220
 8293SOL    HW236342   3.109   2.919   5.837  0.9953  0.0888  1.4430
 8294SOL     OW36343   2.202   0.333   4.278  0.2953 -0.4472 -0.2721
 8294SOL    HW136344   2.123   0.384   4.300  0.9936 -0.2466  1.7941
 8294SOL    HW236345   2.277   0.383   4.312 -0.4735 -0.4721  1.4393
 8295SOL     OW36346   1.293   0.567   6.561 -0.0958 -0.3012 -0.2938
 8295SOL    HW136347   1.256   0.575   6.473  0.4843  1.7642 -0.3650
 8295SOL    HW236348   1.273   0.479   6.591 -0.9620  0.6535  1.9300
 8296SOL     OW36349   3.057   0.681   1.099 -0.5923  0.0896 -0.2509
 8296SOL    HW136350   3.042   0.587   1.088 -0.6297 -0.1956  2.2541
 8296SOL    HW236351   2.976   0.705   1.144 -0.0041 -1.6431  1.7260
 8297SOL     OW36352   3.314   2.931   8.759  0.5929 -0.4296  0.4805
 8297SOL    HW136353   3.331   2.838   8.770  2.8335 -0.2022 -0.9359
 8297SOL    HW236354   3.294   2.964   8.847  0.0038 -1.5668  0.7705
 8298SOL     OW36355   1.141   3.945   8.575  0.4166 -0.6448 -0.2462
 8298SOL    HW136356   1.181   3.869   8.615 -0.6986 -0.7693  0.6331
 8298SOL    HW236357   1.151   3.936   8.480  1.0022 -1.4103 -0.1027
 8299SOL     OW36358   1.672   1.394   8.073  0.0047  0.2991  0.2231
 8299SOL    HW136359   1.593   1.364   8.027 -1.3000  3.4198  0.4168
 8299SOL    HW236360   1.644   1.373   8.162 -2.6092  1.6155 -0.2642
 8300SOL     OW36361   2.931   4.536   0.486  0.2614 -0.2995  0.3263
 8300SOL    HW136362   2.857   4.505   0.539  0.9782 -0.5734  1.1528
 8300SOL    HW236363   2.994   4.504   0.551  0.8694  1.6027  0.6652
 8301SOL     OW36364   3.277   2.356   5.098  0.2655  0.0169  0.6138
 8301SOL    HW136365   3.186   2.333   5.080  0.8197 -2.4548  0.9121
 8301SOL    HW236366   3.307   2.274   5.137  2.3948  1.4998  2.1121
 8302SOL     OW36367   0.171   0.770   4.102 -0.5022  0.0026 -0.2947
 8302SOL    HW136368   0.215   0.837   4.154 -3.2880  1.0266  0.7436
 8302SOL    HW236369   0.106   0.743   4.167  0.6442 -0.3755  0.6789
 8303SOL     OW36370   3.415   0.568   8.088 -0.1074  0.5695  0.0308
 8303SOL    HW136371   3.468   0.579   8.009  0.7255  0.8604  0.6204
 8303SOL    HW236372   3.369   0.487   8.069 -1.7485  2.1554 -2.7877
 8304SOL     OW36373   4.204   4.034   2.074  0.1969 -0.2809 -0.6871
 8304SOL    HW136374   4.253   4.116   2.073 -0.2009 -0.0052  1.3360
 8304SOL    HW236375   4.267   3.968   2.049  1.1241 -0.1784  1.3536
 8305SOL     OW36376   3.521   2.643  15.094 -0.0949  0.0828  0.3674
 8305SOL    HW136377   3.463   2.717  15.110 -3.2294 -1.8456 -1.9965
 8305SOL    HW236378   3.583   2.674  15.027  1.2327  0.4462  1.7504
 8306SOL     OW36379   3.308   1.929  10.028  0.3201 -0.2192  0.0746
 8306SOL    HW136380   3.374   1.997  10.040  2.4131 -2.7274  2.8072
 8306SOL    HW236381   3.250   1.940  10.104  0.5437 -0.8332  0.3357
 8307SOL     OW36382   3.411   1.207   6.675 -0.1797 -0.4595  0.0646
 8307SOL    HW136383   3.375   1.295   6.668  1.1751  0.2487  1.9742
 8307SOL    HW236384   3.484   1.216   6.614 -0.3823 -3.1977 -0.6085
 8308SOL     OW36385   3.943   4.530   4.603  0.4208  0.2011  0.0458
 8308SOL    HW136386   3.855   4.551   4.572  0.6578 -0.3200 -0.9735
 8308SOL    HW236387   3.994   4.580   4.540 -0.2367 -0.0283 -0.6742
 8309SOL     OW36388   1.515   2.678  15.844  0.1996  0.2498  0.8217
 8309SOL    HW136389   1.576   2.691  15.916 -0.3067 -3.0464  1.8625
 8309SOL    HW236390   1.578   2.696  15.774  0.9629 -0.5491  1.2919
 8310SOL     OW36391   1.546   0.232   8.906  0.4240 -0.3305  0.0118
 8310SOL    HW136392   1.521   0.323   8.923 -0.3940 -0.5150 -0.2415
 8310SOL    HW236393   1.469   0.198   8.861  1.4302 -1.0077 -1.1857
 8311SOL     OW36394   4.097   1.878   8.427 -0.0689 -0.0032  0.0186
 8311SOL    HW136395   4.093   1.969   8.398  1.1048 -0.1154 -0.4906
 8311SOL    HW236396   4.144   1.886   8.511  1.8067 -0.1163 -1.0107
 8312SOL     OW36397   2.282   3.315  17.414  0.0895 -0.6367 -0.1979
 8312SOL    HW136398   2.345   3.354  17.474 -0.2565 -2.5496  1.4245
 8312SOL    HW236399   2.195   3.340  17.445 -0.0067 -0.4239 -0.6348
 8313SOL     OW36400   0.033   3.593   6.403  0.2798  0.0670  0.1542
 8313SOL    HW136401   4.683   3.559   6.355 -0.6769 -2.0296  3.1471
 8313SOL    HW236402   4.724   3.682   6.409  2.8026  0.9549  1.2655
 8314SOL     OW36403   1.507   3.482   6.401  0.4744 -0.4730  0.5251
 8314SOL    HW136404   1.417   3.455   6.386  0.9923 -2.1618  0.5407
 8314SOL    HW236405   1.490   3.576   6.387  1.5192 -0.3303  0.2276
 8315SOL     OW36406   1.137   2.289   4.048 -0.3568  0.0879 -0.5359
 8315SOL    HW136407   1.207   2.239   4.007 -0.9426  0.0827 -1.5325
 8315SOL    HW236408   1.088   2.314   3.970 -0.9501  2.1889  0.5076
 8316SOL     OW36409   3.835   4.012   8.800  0.0668  1.0278 -0.0565
 8316SOL    HW136410   3.740   4.010   8.795  0.1407  3.6032 -2.2758
 8316SOL    HW236411   3.853   4.076   8.731 -2.2496  1.2853 -0.4062
 8317SOL     OW36412   3.680   0.769   4.278 -0.3469 -0.3628 -0.3858
 8317SOL    HW136413   3.618   0.734   4.215 -1.2003  2.9290 -1.3242
 8317SOL    HW236414   3.756   0.764   4.220 -0.0568 -1.1556  0.0551
 8318SOL     OW36415   0.160   4.520  16.546 -0.0517  0.1265 -0.0512
 8318SOL    HW136416   0.252   4.514  16.523 -0.1374 -1.2216 -0.0237
 8318SOL    HW236417   0.117   4.459  16.486 -1.3159  2.0352 -1.0697
 8319SOL     OW36418   4.237   2.189   0.083  0.0531 -0.2513 -0.1120
 8319SOL    HW136419   4.282   2.169   0.001 -1.5677  0.1168 -1.0880
 8319SOL    HW236420   4.148   2.167   0.054  0.1331  0.4587 -0.9098
 8320SOL     OW36421   1.788   0.712  12.346 -0.2046 -0.1463 -0.1571
 8320SOL    HW136422   1.757   0.764  12.272  1.3347 -1.2913 -1.5945
 8320SOL    HW236423   1.880   0.700  12.323 -0.5142  1.8944 -2.4265
 8321SOL     OW36424   4.201   4.126  13.244  0.4890  0.0165  0.0904
 8321SOL    HW136425   4.221   4.101  13.334 -0.5985  0.2852  0.4124
 8321SOL    HW236426   4.160   4.046  13.213 -2.1582  0.7502  1.6050
 8322SOL     OW36427   2.935   2.766   1.260  0.1089  0.3062 -0.1209
 8322SOL    HW136428   2.963   2.826   1.191  3.3168 -0.4740  0.4677
 8322SOL    HW236429   2.985   2.795   1.336  0.0580  0.1439 -0.0254
 8323SOL     OW36430   3.951   1.906   6.272  0.0765  0.0779  0.1275
 8323SOL    HW136431   3.965   1.942   6.360 -0.9407  2.1265 -0.5486
 8323SOL    HW236432   3.997   1.973   6.222  1.6179 -1.1411 -0.0677
 8324SOL     OW36433   4.460   3.220   9.512  0.4033  0.3819  0.6444
 8324SOL    HW136434   4.453   3.314   9.494  0.7839 -0.1138 -2.1744
 8324SOL    HW236435   4.522   3.215   9.584  2.0055  0.2912 -0.7432
 8325SOL     OW36436   1.078   2.068  17.506  0.3220 -0.3044 -0.1499
 8325SOL    HW136437   1.010   2.046  17.570  2.1634 -1.2537  1.4960
 8325SOL    HW236438   1.149   2.106  17.557 -1.0145  0.7075  0.9589
 8326SOL     OW36439   4.556   1.746   1.855 -0.2207  0.1030 -0.1725
 8326SOL    HW136440   4.649   1.767   1.845  0.1370 -1.8972 -1.1774
 8326SOL    HW236441   4.522   1.799   1.784  0.1079 -0.6000 -0.8544
 8327SOL     OW36442   0.166   2.750  14.681 -0.0987  0.3626  0.7645
 8327SOL    HW136443   0.088   2.697  14.691  0.6591 -1.0503 -0.7216
 8327SOL    HW236444   0.130   2.839  14.670  0.9253  0.5631 -1.0735
 8328SOL     OW36445   3.232   0.788   1.771 -0.0140  0.0253  0.0925
 8328SOL    HW136446   3.281   0.750   1.698 -1.0123 -2.0495  0.5123
 8328SOL    HW236447   3.144   0.753   1.760 -0.5082  1.2449  0.1096
 8329SOL     OW36448   2.001   2.916   6.996  0.1304 -0.5653 -0.0999
 8329SOL    HW136449   1.989   2.925   6.901  0.4122 -0.8887 -0.1674
 8329SOL    HW236450   1.936   2.848   7.017 -0.2663 -0.5404 -1.2231
 8330SOL     OW36451   4.187   1.016  14.902  0.0468 -0.1646  0.4925
 8330SOL    HW136452   4.104   1.062  14.914  0.3110 -0.1099  2.1911
 8330SOL    HW236453   4.245   1.029  14.978 -0.9366 -0.6696  1.3336
 8331SOL     OW36454   2.168   4.454  13.608  0.3577  0.4470  0.2567
 8331SOL    HW136455   2.230   4.512  13.563  1.0637 -0.4857  0.0049
 8331SOL    HW236456   2.131   4.399  13.540 -1.4039 -0.7728  2.2208
 8332SOL     OW36457   3.193   2.129  16.541  0.3275  0.0028  0.2359
 8332SOL    HW136458   3.236   2.207  16.504  0.5470 -0.2429 -0.0338
 8332SOL    HW236459   3.191   2.083  16.457 -1.5829  1.2201 -0.3832
 8333SOL     OW36460   2.489   4.316   3.463 -0.2974  0.1753  0.2217
 8333SOL    HW136461   2.446   4.318   3.548 -1.2132  2.3210 -0.2974
 8333SOL    HW236462   2.544   4.238   3.470  0.2616  0.3500 -2.0564
 8334SOL     OW36463   1.175   2.716   8.826 -0.1095 -0.2861 -0.1737
 8334SOL    HW136464   1.195   2.704   8.919 -1.3215  0.8245  0.2325
 8334SOL    HW236465   1.210   2.805   8.817  0.6193 -0.5848 -0.3151
 8335SOL     OW36466   0.024   2.040   6.445  0.3145  0.2560  0.1262
 8335SOL    HW136467   0.005   1.964   6.390  0.7836  0.0457  0.2585
 8335SOL    HW236468   0.069   1.997   6.517  2.1678 -0.2046 -1.2999
 8336SOL     OW36469   2.237   2.522  10.007  0.4096 -0.1326  0.3113
 8336SOL    HW136470   2.288   2.441  10.015  0.7679  0.0484 -0.1425
 8336SOL    HW236471   2.191   2.530  10.091 -0.6254 -0.6802 -0.2071
 8337SOL     OW36472   0.940   2.377  14.712 -0.4410 -0.1920  0.1301
 8337SOL    HW136473   0.985   2.423  14.782 -0.3138  0.9973 -0.7426
 8337SOL    HW236474   0.848   2.386  14.735 -0.8990  0.7563 -2.1176
 8338SOL     OW36475   2.495   2.428   9.093 -0.3918 -0.2220 -0.2011
 8338SOL    HW136476   2.443   2.353   9.123  0.4528 -1.1345 -1.0377
 8338SOL    HW236477   2.573   2.379   9.067 -0.0751 -0.9733  2.1340
 8339SOL     OW36478   2.144   0.005   4.789  0.4049 -0.2764  0.3695
 8339SOL    HW136479   2.077   4.679   4.743 -0.2030  0.7421  0.1091
 8339SOL    HW236480   2.224   4.686   4.762  0.8356  0.4276  0.4767
 8340SOL     OW36481   4.040   4.654  17.152 -0.0803  0.0973 -0.2239
 8340SOL    HW136482   3.961   4.703  17.174 -0.4787 -1.0086  0.8121
 8340SOL    HW236483   4.033   4.576  17.207  0.4383  0.3111  0.1528
 8341SOL     OW36484   0.244   2.966  13.282  0.0117 -0.0327 -0.1354
 8341SOL    HW136485   0.248   3.042  13.225  0.6118  0.8507  1.0819
 8341SOL    HW236486   0.282   2.899  13.225 -0.4141 -0.3519 -0.0443
 8342SOL     OW36487   0.505   0.436   6.387  0.2173 -0.4494  0.1275
 8342SOL    HW136488   0.462   0.406   6.467  1.2965 -0.8710  0.5543
 8342SOL    HW236489   0.546   0.515   6.421  0.5156  0.3181 -2.0196
 8343SOL     OW36490   3.823   2.831   7.307 -0.0950 -0.0091 -0.0160
 8343SOL    HW136491   3.897   2.778   7.277 -0.2811  0.3712 -1.1425
 8343SOL    HW236492   3.794   2.785   7.386 -0.6360  1.3356  0.5612
 8344SOL     OW36493   3.891   0.780  14.065 -0.1322  0.1724  0.6705
 8344SOL    HW136494   3.926   0.870  14.061  3.2946 -1.0757  2.2093
 8344SOL    HW236495   3.931   0.739  14.141 -1.2664 -2.9102 -0.4053
 8345SOL     OW36496   1.965   2.402   8.316  0.3149  0.2930  0.1551
 8345SOL    HW136497   1.955   2.363   8.403 -0.2238 -0.6180 -0.3116
 8345SOL    HW236498   2.042   2.454   8.336  1.7264 -1.9736  0.6859
 8346SOL     OW36499   0.854   1.658   1.513  0.3162 -0.1286  0.2339
 8346SOL    HW136500   0.789   1.612   1.567 -2.0438  0.7872 -1.8344
 8346SOL    HW236501   0.881   1.723   1.577 -1.2814 -0.2149  0.9967
 8347SOL     OW36502   4.688   2.538   8.140 -0.2782  0.3145  0.1433
 8347SOL    HW136503   0.048   2.506   8.113  0.3690  0.1820  2.3259
 8347SOL    HW236504   4.710   2.631   8.152 -0.0346  0.1445  1.0758
 8348SOL     OW36505   2.452   0.606  10.011 -0.2621 -0.1443  0.2761
 8348SOL    HW136506   2.500   0.528  10.037  1.1164  1.2040  1.7603
 8348SOL    HW236507   2.393   0.578   9.941 -1.4289  0.3651  1.0574
 8349SOL     OW36508   2.478   4.212   8.155 -0.1197 -0.0769  0.2445
 8349SOL    HW136509   2.550   4.185   8.212  0.3063  0.2711 -0.1293
 8349SOL    HW236510   2.463   4.303   8.181 -0.6537 -0.1034  0.0210
 8350SOL     OW36511   3.403   4.083   0.017  0.3497 -0.3730  0.0761
 8350SOL    HW136512   3.395   4.167   0.062  2.9285 -0.3893  0.5240
 8350SOL    HW236513   3.336   4.035   0.066  0.5395 -0.5707  0.1402
 8351SOL     OW36514   2.804   0.084   9.617  0.0545  0.2291  0.4233
 8351SOL    HW136515   2.872   0.057   9.555 -1.0366  1.5608 -1.3773
 8351SOL    HW236516   2.751   0.124   9.548 -1.0206 -0.8979  0.5973
 8352SOL     OW36517   1.440   0.365  15.343 -0.1956  0.2386  0.0504
 8352SOL    HW136518   1.490   0.445  15.328  1.4504 -1.2209 -2.0961
 8352SOL    HW236519   1.514   0.310  15.368 -1.7557 -1.4301  0.9534
 8353SOL     OW36520   3.381   0.506  10.699 -0.1894  0.2335 -0.1780
 8353SOL    HW136521   3.391   0.601  10.691 -0.4902  0.3942  1.2855
 8353SOL    HW236522   3.376   0.500  10.794 -1.3425  0.7392 -0.2130
 8354SOL     OW36523   0.679   2.588   2.979  0.1223  0.0778  0.0511
 8354SOL    HW136524   0.597   2.601   2.931 -0.2888 -0.9320  0.4757
 8354SOL    HW236525   0.710   2.677   2.998 -0.5337  0.6804 -1.6679
 8355SOL     OW36526   2.591   4.391   2.404  0.4315  0.4580 -0.1164
 8355SOL    HW136527   2.647   4.395   2.326 -0.3354  1.0118 -0.6428
 8355SOL    HW236528   2.591   4.486   2.416 -0.7665  0.5087 -0.4211
 8356SOL     OW36529   3.524   4.204   3.156 -0.1526 -0.2961 -0.0921
 8356SOL    HW136530   3.541   4.258   3.233 -0.8465 -0.1334 -0.0553
 8356SOL    HW236531   3.435   4.232   3.132  0.1250 -1.2248 -2.2388
 8357SOL     OW36532   1.518   3.221   7.664 -0.1435  0.2482  0.4092
 8357SOL    HW136533   1.524   3.133   7.701 -0.5037  0.1044  0.1119
 8357SOL    HW236534   1.528   3.273   7.744 -0.8684  0.8542  0.1054
 8358SOL     OW36535   1.012   4.418  16.855 -0.5709  1.3169 -1.2029
 8358SOL    HW136536   0.997   4.344  16.797 -0.6476  1.4900 -1.4054
 8358SOL    HW236537   0.944   4.407  16.921 -1.2207  0.3374 -2.0333
 8359SOL     OW36538   2.209   2.274  12.076 -0.0717 -0.1881 -0.6100
 8359SOL    HW136539   2.130   2.249  12.123  0.9514 -1.3363  0.4944
 8359SOL    HW236540   2.260   2.193  12.071  2.1809  1.3335 -2.3902
 8360SOL     OW36541   2.590   4.713   2.357  0.2990 -0.3785  0.1674
 8360SOL    HW136542   2.505   0.009   2.317  1.5144 -1.2265 -2.8437
 8360SOL    HW236543   2.639   4.690   2.279  0.6470  1.7466 -0.2504
 8361SOL     OW36544   4.477   0.093   4.966 -0.0883 -0.0123  0.4292
 8361SOL    HW136545   4.410   0.161   4.969  1.3760  1.4800 -0.1923
 8361SOL    HW236546   4.514   0.098   5.054 -0.6694 -2.4735  0.7995
 8362SOL     OW36547   4.163   4.627   5.997 -0.2106  0.0398 -0.2479
 8362SOL    HW136548   4.124   4.663   5.918  0.5733  1.3525 -0.0484
 8362SOL    HW236549   4.117   4.681   6.061  1.0070  1.5021 -0.5965
 8363SOL     OW36550   1.115   1.713   9.516 -0.1466  0.0522 -0.3583
 8363SOL    HW136551   1.077   1.795   9.485 -2.2857 -1.3834 -1.4818
 8363SOL    HW236552   1.176   1.759   9.575 -1.5566 -0.8711  1.8019
 8364SOL     OW36553   0.263   3.100   6.638 -0.1539  0.4637 -0.0131
 8364SOL    HW136554   0.274   3.153   6.717 -0.4570  0.2785  0.1543
 8364SOL    HW236555   0.349   3.059   6.633 -1.0917 -1.5787  0.2360
 8365SOL     OW36556   3.599   3.143   4.647 -0.9611  0.0324 -0.1213
 8365SOL    HW136557   3.636   3.078   4.587  0.0863 -2.7731  3.5752
 8365SOL    HW236558   3.546   3.185   4.579 -0.6975 -1.0170 -0.9748
 8366SOL     OW36559   2.373   0.876   3.828  1.1295 -0.3307 -0.3160
 8366SOL    HW136560   2.327   0.866   3.745 -1.7100  3.0594  0.8405
 8366SOL    HW236561   2.315   0.833   3.891 -2.2707  0.7247 -2.7354
 8367SOL     OW36562   1.409   3.925  16.787 -0.2982 -0.0630  0.8245
 8367SOL    HW136563   1.373   3.942  16.875  0.3523  0.9910  0.8790
 8367SOL    HW236564   1.478   3.991  16.794  0.0968 -0.4666  0.6861
 8368SOL     OW36565   1.251   1.795   9.103  0.0484 -0.5539 -0.5043
 8368SOL    HW136566   1.324   1.733   9.096  0.8152  0.4933 -1.8015
 8368SOL    HW236567   1.298   1.872   9.134  0.6718 -0.5313 -1.4867
 8369SOL     OW36568   2.995   3.956   5.164 -0.3259 -0.3789 -0.3617
 8369SOL    HW136569   3.031   3.941   5.251 -0.2877  1.5707 -0.0520
 8369SOL    HW236570   3.033   3.890   5.106 -0.2997 -0.0812 -0.6826
 8370SOL     OW36571   0.349   1.160  11.126 -0.4657  0.0358 -0.5246
 8370SOL    HW136572   0.390   1.240  11.157  1.4017 -1.3292  0.5194
 8370SOL    HW236573   0.263   1.198  11.146 -0.0698  1.0069 -0.6506
 8371SOL     OW36574   2.245   1.381   5.814  0.3371 -0.2236  0.0834
 8371SOL    HW136575   2.301   1.417   5.746  1.3152  0.7181  1.4074
 8371SOL    HW236576   2.174   1.366   5.751  0.8126  1.0359 -0.7486
 8372SOL     OW36577   0.582   0.951   6.209  0.7888 -0.4848  0.1922
 8372SOL    HW136578   0.550   1.017   6.272  0.1324  1.6868 -2.4005
 8372SOL    HW236579   0.510   0.888   6.211  2.7339 -2.6995  0.3119
 8373SOL     OW36580   1.407   1.224   4.187 -0.1833 -0.0706  0.1815
 8373SOL    HW136581   1.447   1.160   4.127  0.2839  0.2304  0.1748
 8373SOL    HW236582   1.461   1.299   4.161  1.2943 -0.8097  1.1245
 8374SOL     OW36583   2.717   0.302   6.290  0.8737  0.0662 -0.0593
 8374SOL    HW136584   2.731   0.273   6.200 -0.4037  1.6892 -0.7824
 8374SOL    HW236585   2.791   0.363   6.288  1.1544 -0.2223  1.4963
 8375SOL     OW36586   3.988   3.746   6.065 -0.1070  0.1434 -0.0066
 8375SOL    HW136587   4.047   3.796   6.009 -0.4921  2.2001  1.4348
 8375SOL    HW236588   4.027   3.759   6.151 -0.2350  0.2779  0.0314
 8376SOL     OW36589   0.144   0.036   4.586 -0.1824  0.2358 -0.1198
 8376SOL    HW136590   0.228   0.080   4.602 -0.6012  0.6033  1.0358
 8376SOL    HW236591   0.145   0.030   4.490 -0.2000  2.4387 -0.2630
 8377SOL     OW36592   3.829   2.352   1.639  0.0213 -0.0973 -0.0275
 8377SOL    HW136593   3.784   2.435   1.624 -0.4389 -0.4042 -0.3810
 8377SOL    HW236594   3.752   2.300   1.613  0.0920 -1.5357  2.5979
 8378SOL     OW36595   4.531   1.440   7.825 -0.3654 -0.2124 -0.3808
 8378SOL    HW136596   4.571   1.354   7.833 -0.6308 -0.4850 -1.8949
 8378SOL    HW236597   4.577   1.478   7.749  2.1107 -2.9282 -0.2167
 8379SOL     OW36598   2.666   0.747   9.873  0.1540  0.0593  0.0769
 8379SOL    HW136599   2.721   0.795   9.935  1.3494 -0.1672 -0.7958
 8379SOL    HW236600   2.609   0.695   9.930  1.8560 -2.6045 -0.6239
 8380SOL     OW36601   3.862   4.568   0.718  0.1190  0.4780  0.4611
 8380SOL    HW136602   3.777   4.528   0.701  0.5041 -0.4841  0.8188
 8380SOL    HW236603   3.888   4.582   0.627 -2.0026  0.4231 -0.1554
 8381SOL     OW36604   2.654   0.151   5.830 -0.3788 -0.1360  0.3075
 8381SOL    HW136605   2.688   0.149   5.919  1.2692  2.4309 -0.2796
 8381SOL    HW236606   2.594   0.225   5.840 -1.2073 -0.7637  0.0800
 8382SOL     OW36607   4.191   2.302   7.185 -0.0065 -0.7087  0.2101
 8382SOL    HW136608   4.202   2.374   7.123  1.2054 -1.9842 -1.0286
 8382SOL    HW236609   4.281   2.282   7.212 -0.2757 -1.6840  0.3773
 8383SOL     OW36610   1.908   1.122   5.514  0.2034 -0.5188 -0.5266
 8383SOL    HW136611   1.914   1.136   5.608  1.8343  2.1013 -1.0092
 8383SOL    HW236612   1.855   1.200   5.494  1.1749 -0.4159 -2.7087
 8384SOL     OW36613   3.021   1.005   3.080 -0.4041 -0.4663 -0.0004
 8384SOL    HW136614   3.032   1.092   3.042 -0.0024 -0.4320  0.1873
 8384SOL    HW236615   3.048   0.941   3.014  0.6313  0.8102 -0.8035
 8385SOL     OW36616   2.026   3.350   5.424 -0.4669  0.2246 -0.8126
 8385SOL    HW136617   2.102   3.358   5.366  0.3958 -0.6273  0.1960
 8385SOL    HW236618   2.005   3.441   5.446 -4.2511 -0.8215 -0.0306
 8386SOL     OW36619   3.173   4.321   6.175  0.1520 -0.0288 -0.1524
 8386SOL    HW136620   3.101   4.333   6.236  0.4761 -1.2685  0.4869
 8386SOL    HW236621   3.181   4.409   6.139  0.1911  0.3532  0.7979
 8387SOL     OW36622   0.529   1.532   0.907  0.5367 -0.2773 -0.0202
 8387SOL    HW136623   0.516   1.455   0.852 -1.6007  0.9584 -1.2690
 8387SOL    HW236624   0.623   1.543   0.900  0.6827 -0.6470  1.2113
 8388SOL     OW36625   1.352   0.542   0.157 -0.5855 -0.4234  0.0234
 8388SOL    HW136626   1.412   0.472   0.180 -1.3131 -0.9535  0.2778
 8388SOL    HW236627   1.364   0.551   0.062 -0.4823  1.3707  0.1986
 8389SOL     OW36628   2.104   4.312   6.338  0.6338 -0.0497 -0.1031
 8389SOL    HW136629   2.018   4.300   6.297 -0.1679 -0.7513  1.7708
 8389SOL    HW236630   2.124   4.226   6.375 -1.3948  0.2382  1.6783
 8390SOL     OW36631   0.904   1.516   1.983 -0.2720 -0.4936 -0.0932
 8390SOL    HW136632   0.906   1.611   1.972 -1.1656 -0.6250 -1.3580
 8390SOL    HW236633   0.996   1.490   1.983 -0.7206 -2.0667 -3.6275
 8391SOL     OW36634   1.079   1.923   5.771  0.2258 -0.1193 -0.1770
 8391SOL    HW136635   1.110   1.984   5.704 -1.3677 -0.7057 -1.4558
 8391SOL    HW236636   0.987   1.917   5.744  0.0757  1.6523 -0.0298
 8392SOL     OW36637   3.369   0.459   8.456  0.6024  0.5156  0.1276
 8392SOL    HW136638   3.407   0.454   8.369  2.9422  0.3868  1.1642
 8392SOL    HW236639   3.430   0.521   8.496  1.8639 -0.0952 -0.8813
 8393SOL     OW36640   4.058   4.469   1.116  0.6920 -0.1202 -0.5986
 8393SOL    HW136641   4.134   4.523   1.138  0.6053 -0.5283  0.6967
 8393SOL    HW236642   4.073   4.387   1.163  0.6055 -0.1536 -0.6290
 8394SOL     OW36643   4.377   2.061  16.025 -0.0033  0.3719 -0.3367
 8394SOL    HW136644   4.400   1.976  15.989 -2.2370 -0.7792  0.9151
 8394SOL    HW236645   4.312   2.037  16.092 -0.3335  1.4893 -0.2548
 8395SOL     OW36646   3.812   1.898   8.943  0.0921 -0.3012 -0.0209
 8395SOL    HW136647   3.886   1.845   8.912  0.0849 -1.4624  1.9380
 8395SOL    HW236648   3.784   1.938   8.861 -0.2867 -2.1721 -0.8079
 8396SOL     OW36649   1.092   3.084   8.466 -0.6640  0.0667  0.0150
 8396SOL    HW136650   1.123   3.031   8.392  0.4894  0.0316  0.5403
 8396SOL    HW236651   1.024   3.137   8.424 -0.0815 -0.1056 -1.1327
 8397SOL     OW36652   3.463   1.144   5.053 -0.2015 -0.3609 -0.2712
 8397SOL    HW136653   3.427   1.232   5.065 -0.1439 -0.3261 -0.3551
 8397SOL    HW236654   3.428   1.130   4.965 -0.2515 -2.2500  0.0497
 8398SOL     OW36655   0.454   2.738   9.939  0.4663 -0.5006 -0.4502
 8398SOL    HW136656   0.435   2.769   9.851 -1.0512 -0.6994 -0.1963
 8398SOL    HW236657   0.385   2.671   9.939  1.4738 -1.5494  0.9792
 8399SOL     OW36658   2.003   4.577   8.377 -0.4347  0.1863  0.3050
 8399SOL    HW136659   2.012   4.514   8.449  0.7178  2.2971  2.0201
 8399SOL    HW236660   1.927   4.538   8.335  0.2545  0.7389 -1.4552
 8400SOL     OW36661   3.555   2.885  12.775  0.2353  0.3660 -0.2518
 8400SOL    HW136662   3.632   2.921  12.818  0.4527  1.5324 -1.6345
 8400SOL    HW236663   3.507   2.963  12.748 -1.2495  0.5401  2.9561
 8401SOL     OW36664   1.059   0.084  16.582 -0.1528 -0.2840  0.0243
 8401SOL    HW136665   1.092   0.043  16.503  0.2160  0.4221 -0.1872
 8401SOL    HW236666   1.035   0.006  16.633 -1.0551  0.2908  0.4713
 8402SOL     OW36667   1.087   4.623   3.080  0.0636  0.1404 -0.1748
 8402SOL    HW136668   1.018   4.565   3.113  0.0304 -0.4368 -1.2939
 8402SOL    HW236669   1.053   4.644   2.993 -0.0595 -1.2328 -0.4505
 8403SOL     OW36670   2.370   0.297   2.281  0.3634  0.1544  0.8955
 8403SOL    HW136671   2.332   0.236   2.218  1.8494  1.8024 -1.5989
 8403SOL    HW236672   2.348   0.374   2.228 -1.4771  0.8272  2.6088
 8404SOL     OW36673   3.594   3.560   2.823  0.1284  0.5068 -0.3433
 8404SOL    HW136674   3.518   3.606   2.859 -0.4076 -0.8514  0.2643
 8404SOL    HW236675   3.651   3.555   2.900 -1.0812  0.1419  0.5430
 8405SOL     OW36676   3.211   3.176   2.807  0.2853  0.1770  0.1744
 8405SOL    HW136677   3.181   3.238   2.873  2.0513  0.5001  0.6828
 8405SOL    HW236678   3.183   3.089   2.837 -1.2342  0.8635  0.7057
 8406SOL     OW36679   1.097   0.763  14.917  0.2754 -0.2164 -0.0991
 8406SOL    HW136680   1.033   0.795  14.853  0.0711 -0.1394  0.1401
 8406SOL    HW236681   1.048   0.688  14.951  0.7427 -2.3704 -4.1126
 8407SOL     OW36682   1.997   1.439   4.227 -0.5006 -0.7101 -0.6265
 8407SOL    HW136683   1.929   1.410   4.166 -0.9302 -1.9794  0.4775
 8407SOL    HW236684   2.070   1.442   4.165 -1.7296 -1.4018 -2.0972
 8408SOL     OW36685   2.208   3.559   8.339  0.6008 -0.0535  0.1435
 8408SOL    HW136686   2.129   3.592   8.295 -0.5379  0.3926  2.5544
 8408SOL    HW236687   2.237   3.490   8.279  0.9336  0.6879 -0.5447
 8409SOL     OW36688   1.178   2.696   4.449 -0.2011  0.4222 -0.8229
 8409SOL    HW136689   1.203   2.767   4.391 -0.1025  0.7310 -0.3980
 8409SOL    HW236690   1.193   2.615   4.399 -2.5638 -0.2385 -0.4866
 8410SOL     OW36691   1.252   1.586  14.854  0.1191  0.4685 -0.7208
 8410SOL    HW136692   1.190   1.636  14.800 -0.0385  1.6843  0.5843
 8410SOL    HW236693   1.219   1.497  14.844 -0.6061  0.8112 -1.4775
 8411SOL     OW36694   1.278   1.264   9.261  0.0494 -0.0583  0.0965
 8411SOL    HW136695   1.228   1.344   9.282  0.2408  0.0164  0.2703
 8411SOL    HW236696   1.252   1.196   9.323 -3.7498  0.7878 -0.5531
 8412SOL     OW36697   3.787   3.276   4.946 -0.3370  0.2929 -0.0323
 8412SOL    HW136698   3.739   3.300   4.867 -0.5976  1.7733  0.5774
 8412SOL    HW236699   3.798   3.360   4.990 -1.8799  0.1710  0.6065
 8413SOL     OW36700   0.583   4.263   3.763 -0.1463  0.4019 -0.3435
 8413SOL    HW136701   0.493   4.230   3.770 -0.0782  0.4361  0.6495
 8413SOL    HW236702   0.623   4.249   3.848 -1.0291 -0.0753 -0.0079
 8414SOL     OW36703   3.389   4.707  14.027  0.2005  0.0644  0.3486
 8414SOL    HW136704   3.385   4.622  13.984 -0.5634  0.7639 -0.9766
 8414SOL    HW236705   3.454   0.036  13.984  1.4854 -0.3671  1.7168
 8415SOL     OW36706   0.079   1.168   4.044  0.0477 -0.4447 -0.0224
 8415SOL    HW136707   0.020   1.093   4.040  0.0398 -0.3587 -1.3865
 8415SOL    HW236708   0.065   1.200   4.134 -0.4633 -2.3328  0.5632
 8416SOL     OW36709   3.511   3.821  16.903  0.2803  0.2475  0.6904
 8416SOL    HW136710   3.425   3.854  16.928  0.5652  0.9542  0.7299
 8416SOL    HW236711   3.493   3.786  16.815 -1.4406 -0.0258  1.1504
 8417SOL     OW36712   0.096   3.160   4.929 -0.0971  0.6981 -0.0787
 8417SOL    HW136713   0.066   3.069   4.930 -3.3246  1.7703 -0.4906
 8417SOL    HW236714   0.191   3.146   4.935 -0.4293 -1.1012  0.9720
 8418SOL     OW36715   2.014   1.376   6.401  0.9445 -0.0349 -0.5966
 8418SOL    HW136716   2.091   1.400   6.453 -0.2064  0.6519  0.8098
 8418SOL    HW236717   1.976   1.460   6.376  0.5603 -0.2067 -0.6016
 8419SOL     OW36718   3.467   2.957   0.763  0.3082 -0.5700  0.0582
 8419SOL    HW136719   3.484   3.010   0.841  1.5160  1.2019 -1.4328
 8419SOL    HW236720   3.522   2.993   0.694  0.9295 -1.8528 -0.1095
 8420SOL     OW36721   2.569   2.572   3.918 -0.0790 -0.5539  0.3338
 8420SOL    HW136722   2.532   2.657   3.896  3.0444  1.2567  2.0846
 8420SOL    HW236723   2.612   2.541   3.838  4.0187  0.8579  1.9991
 8421SOL     OW36724   3.463   3.132   7.826  0.2516  0.1485  0.1109
 8421SOL    HW136725   3.479   3.140   7.732  0.5679  0.2489  0.1719
 8421SOL    HW236726   3.508   3.048   7.830  0.1573  0.1224  0.6633
 8422SOL     OW36727   4.044   3.913  12.813 -0.2853  0.1520  0.1316
 8422SOL    HW136728   3.988   3.872  12.747 -0.3100 -0.6562  0.6576
 8422SOL    HW236729   3.991   3.905  12.892 -1.6264 -0.2524 -0.8194
 8423SOL     OW36730   2.309   2.582  17.228 -0.1356 -0.0674 -0.1399
 8423SOL    HW136731   2.304   2.655  17.290 -2.1374  0.9292 -1.4681
 8423SOL    HW236732   2.222   2.546  17.245 -0.4430 -0.3837 -2.4633
 8424SOL     OW36733   3.134   3.116   4.545 -0.6445  1.0455  0.0602
 8424SOL    HW136734   3.069   3.045   4.542  0.4490 -0.0443  2.1103
 8424SOL    HW236735   3.146   3.147   4.456 -1.0353 -0.4639 -0.5187
 8425SOL     OW36736   0.251   1.552   2.309  0.1742 -0.3265 -0.1759
 8425SOL    HW136737   0.178   1.614   2.309  0.7832  0.3954 -1.3265
 8425SOL    HW236738   0.208   1.466   2.313 -0.1015 -0.1436  0.7347
 8426SOL     OW36739   2.491   3.478  14.348 -0.0900 -0.1771  0.0029
 8426SOL    HW136740   2.497   3.383  14.339  1.8486  0.1239 -2.0104
 8426SOL    HW236741   2.409   3.479  14.397 -0.2903  3.2939 -0.3700
 8427SOL     OW36742   1.012   2.041   7.643 -0.2763 -0.1707  0.2337
 8427SOL    HW136743   0.971   1.991   7.573  1.6476  1.2489 -1.8933
 8427SOL    HW236744   0.967   2.123   7.624  1.1937  0.3005 -1.2114
 8428SOL     OW36745   3.169   3.861   8.792  0.6313 -0.0963  0.4456
 8428SOL    HW136746   3.085   3.866   8.839  1.3946  0.5903  1.7130
 8428SOL    HW236747   3.202   3.946   8.821  2.0471 -0.9968  1.4381
 8429SOL     OW36748   2.257   4.045   0.926  0.1730 -0.3715 -0.7618
 8429SOL    HW136749   2.318   4.106   0.885  0.4138 -0.0042  0.1498
 8429SOL    HW236750   2.204   4.103   0.980  2.0329 -0.4969  1.2190
 8430SOL     OW36751   1.816   1.563  11.467 -0.4524  0.3574  0.0659
 8430SOL    HW136752   1.858   1.549  11.552  1.1904 -1.0741 -0.9595
 8430SOL    HW236753   1.791   1.655  11.462  0.6629  0.5985 -1.0356
 8431SOL     OW36754   1.755   2.676  15.681  0.3836  0.2252  0.0028
 8431SOL    HW136755   1.843   2.655  15.652 -0.0576 -0.9888 -0.4737
 8431SOL    HW236756   1.704   2.596  15.667 -0.2894  0.3346  1.7890
 8432SOL     OW36757   3.249   2.127   6.813  0.4851  0.0466 -0.2578
 8432SOL    HW136758   3.232   2.058   6.877 -0.3187  0.0784 -0.4271
 8432SOL    HW236759   3.240   2.069   6.737 -0.8035 -0.3219  0.1758
 8433SOL     OW36760   1.636   2.503   3.145  0.1363  0.4698  0.1028
 8433SOL    HW136761   1.684   2.548   3.075 -0.3175  1.4254  0.4021
 8433SOL    HW236762   1.701   2.529   3.211  1.5771 -1.3501 -0.5919
 8434SOL     OW36763   0.231   0.570   4.344  0.0805 -0.3346 -0.3555
 8434SOL    HW136764   0.172   0.618   4.402 -0.9713  0.1473 -1.8133
 8434SOL    HW236765   0.204   0.483   4.371  1.8855 -0.0975  2.2341
 8435SOL     OW36766   4.162   3.164   8.755  0.2911 -0.2689  0.0263
 8435SOL    HW136767   4.148   3.151   8.849 -0.5517  1.0391  0.0877
 8435SOL    HW236768   4.124   3.083   8.720  2.3862 -1.5640  0.7655
 8436SOL     OW36769   3.033   0.943  17.342 -0.0275 -0.2852 -0.0658
 8436SOL    HW136770   3.057   0.965  17.432 -0.2044  2.6024 -0.6956
 8436SOL    HW236771   3.034   1.031  17.302  0.9866  0.9500  2.6663
 8437SOL     OW36772   2.290   3.168   1.216 -0.0642  0.0978  0.0402
 8437SOL    HW136773   2.372   3.210   1.240  1.3228 -2.6441  0.0087
 8437SOL    HW236774   2.324   3.082   1.193 -2.5208 -1.2741  1.4747
 8438SOL     OW36775   2.954   3.627   2.131  0.3960  0.2364 -0.3818
 8438SOL    HW136776   2.871   3.648   2.087  0.3991  1.6998  0.2954
 8438SOL    HW236777   2.977   3.542   2.094  2.6797  0.3384  0.7896
 8439SOL     OW36778   3.532   0.942   7.022 -0.6195  0.0431 -0.3076
 8439SOL    HW136779   3.542   0.951   7.117 -0.5161 -2.2112 -0.0960
 8439SOL    HW236780   3.501   0.852   7.009 -1.2082  0.2584 -0.3398
 8440SOL     OW36781   0.499   1.625   6.110 -0.4009  0.3220 -0.0347
 8440SOL    HW136782   0.523   1.706   6.153  0.4096 -0.6065  1.2551
 8440SOL    HW236783   0.579   1.615   6.058  1.5735  2.1005  2.6902
 8441SOL     OW36784   2.298   3.349   7.381  0.4069 -0.7563  0.2390
 8441SOL    HW136785   2.327   3.300   7.457 -0.4313  0.2474  1.2008
 8441SOL    HW236786   2.270   3.287   7.313 -0.4695 -0.3647  0.2474
 8442SOL     OW36787   0.622   3.331   5.740  0.5116  0.2687  0.4926
 8442SOL    HW136788   0.671   3.334   5.822  3.9985  1.9562 -1.6634
 8442SOL    HW236789   0.552   3.274   5.771  0.7898 -1.0386 -1.2574
 8443SOL     OW36790   0.859   3.902  17.406 -0.0171 -0.3660 -0.2357
 8443SOL    HW136791   0.797   3.900  17.333 -0.8548 -0.3013  0.4861
 8443SOL    HW236792   0.819   3.835  17.462 -2.1943  1.6357  0.5936
 8444SOL     OW36793   4.237   4.467  16.947  0.1997 -0.4519  0.4493
 8444SOL    HW136794   4.249   4.372  16.953 -0.1028 -0.4642  0.8569
 8444SOL    HW236795   4.270   4.490  17.034  2.0888 -1.1436 -0.0657
 8445SOL     OW36796   1.337   1.460   1.255  0.3456 -0.0143 -0.2127
 8445SOL    HW136797   1.379   1.489   1.336 -1.6967  3.4339 -0.3947
 8445SOL    HW236798   1.340   1.542   1.206  1.3433 -1.1556 -2.0834
 8446SOL     OW36799   4.433   0.253   4.565 -0.1375  0.3520  0.2151
 8446SOL    HW136800   4.493   0.310   4.613  0.7561 -1.9600  1.8754
 8446SOL    HW236801   4.349   0.281   4.602 -0.7111 -0.7858 -0.2153
 8447SOL     OW36802   3.657   3.393  12.393  0.6275 -0.0015  0.1826
 8447SOL    HW136803   3.567   3.422  12.407  1.9278  2.8607  2.4238
 8447SOL    HW236804   3.680   3.340  12.469  0.9510  0.1065  0.1589
 8448SOL     OW36805   2.275   3.575  11.778 -0.1453 -0.3842  0.3601
 8448SOL    HW136806   2.214   3.502  11.787 -0.5354  0.1260  1.7550
 8448SOL    HW236807   2.227   3.620  11.708  2.4637 -0.0823 -1.2517
 8449SOL     OW36808   0.774   3.814   3.904  0.7077  0.1332  0.4541
 8449SOL    HW136809   0.864   3.781   3.905  0.2100 -1.1586  2.8393
 8449SOL    HW236810   0.774   3.843   3.813  0.7625  0.3253  0.5135
 8450SOL     OW36811   4.148   0.148  17.286 -0.0220  0.7782  0.0096
 8450SOL    HW136812   4.229   0.147  17.234  0.5921  0.1870  0.9651
 8450SOL    HW236813   4.095   0.080  17.243 -0.0461  0.1684  1.0112
 8451SOL     OW36814   0.130   3.261   1.709 -0.5942  0.3904  0.4848
 8451SOL    HW136815   0.204   3.272   1.650 -0.6594 -0.4693  0.2416
 8451SOL    HW236816   0.172   3.212   1.779  2.3097  2.3021  0.0582
 8452SOL     OW36817   1.156   3.444   8.254  0.3138 -0.3872 -0.2740
 8452SOL    HW136818   1.128   3.503   8.185 -3.8273 -0.3853  1.3953
 8452SOL    HW236819   1.072   3.402   8.273  0.5539 -0.7018  0.1131
 8453SOL     OW36820   4.297   3.511   9.426 -0.1026  0.1102  0.0131
 8453SOL    HW136821   4.382   3.552   9.440  0.7471 -1.1180 -1.5377
 8453SOL    HW236822   4.301   3.481   9.335 -1.3851 -0.8424  0.2598
 8454SOL     OW36823   1.508   1.483  10.793  0.0849  0.5229  0.3039
 8454SOL    HW136824   1.517   1.550  10.725  1.6602  0.1924  0.1699
 8454SOL    HW236825   1.450   1.524  10.857 -0.1267  0.6761  0.0142
 8455SOL     OW36826   0.533   4.599  14.702  0.0246 -0.0543 -0.3873
 8455SOL    HW136827   0.524   4.506  14.723 -2.7912  0.3447  0.1429
 8455SOL    HW236828   0.561   4.590  14.611  0.1771  1.8462 -0.5357
 8456SOL     OW36829   2.749   3.079   5.286 -0.0935 -0.0680 -0.0436
 8456SOL    HW136830   2.695   3.159   5.292  2.0125  1.2055  1.7522
 8456SOL    HW236831   2.815   3.095   5.353 -0.3011  1.2099 -0.1375
 8457SOL     OW36832   0.003   3.691   7.843  0.0044  0.6240 -0.3178
 8457SOL    HW136833   0.034   3.779   7.820  1.8290 -0.1975 -1.0146
 8457SOL    HW236834   0.017   3.688   7.937  1.4283 -0.1171 -0.5591
 8458SOL     OW36835   1.431   0.718   4.066 -0.3107  0.3308  0.1817
 8458SOL    HW136836   1.488   0.741   4.139  1.2317 -0.6076 -0.7268
 8458SOL    HW236837   1.482   0.724   3.986  0.8613  3.1103  1.1567
 8459SOL     OW36838   3.896   2.687   6.676  0.2207  0.0846 -0.6003
 8459SOL    HW136839   3.964   2.621   6.689  0.8508  1.0037  0.6635
 8459SOL    HW236840   3.842   2.636   6.615 -1.4513  0.1953  0.7669
 8460SOL     OW36841   3.482   2.844   7.448 -0.3356  0.7172  0.1127
 8460SOL    HW136842   3.448   2.786   7.380  0.8134 -0.3561  0.4500
 8460SOL    HW236843   3.405   2.899   7.459 -0.2128  0.9304 -0.0990
 8461SOL     OW36844   3.833   0.003   6.064 -0.5773 -0.1987 -0.2814
 8461SOL    HW136845   3.877   4.678   5.996 -1.9312 -0.0119 -1.2935
 8461SOL    HW236846   3.775   4.658   6.093  0.5934 -0.3831  1.6470
 8462SOL     OW36847   0.002   3.138   4.592  0.8704  0.9103 -0.3027
 8462SOL    HW136848   4.649   3.192   4.588 -0.7435 -1.4048 -0.2671
 8462SOL    HW236849   0.059   3.196   4.642  0.3530  0.2003  1.1351
 8463SOL     OW36850   4.462   1.990   0.149 -0.2962 -0.5762  0.2610
 8463SOL    HW136851   4.378   1.979   0.194  0.1381  0.2167  1.2681
 8463SOL    HW236852   4.437   2.029   0.065  1.9424  0.4384  0.0832
 8464SOL     OW36853   3.821   1.552   9.382  0.3319 -0.0522 -0.0935
 8464SOL    HW136854   3.772   1.513   9.454  1.0880  1.7735  1.4034
 8464SOL    HW236855   3.776   1.637   9.379 -0.3846 -0.4553 -0.6933
 8465SOL     OW36856   3.422   3.226   1.906  0.0207  0.1919  0.0331
 8465SOL    HW136857   3.420   3.247   1.999 -1.6676 -2.3352  0.5661
 8465SOL    HW236858   3.366   3.148   1.904 -1.2731  1.1203  0.1153
 8466SOL     OW36859   4.673   1.215   6.901 -0.2478  0.4659  0.0868
 8466SOL    HW136860   4.580   1.233   6.884 -0.4920 -2.8582 -2.0835
 8466SOL    HW236861   4.701   1.289   6.955  1.6866  0.3293 -0.7257
 8467SOL     OW36862   1.357   1.249   6.630 -0.1268  0.3596  0.2603
 8467SOL    HW136863   1.317   1.215   6.550 -1.4556  0.6717  0.7862
 8467SOL    HW236864   1.284   1.271   6.688 -1.0861 -2.4814  0.1592
 8468SOL     OW36865   0.686   1.976  16.860  0.6496  0.3467  0.3379
 8468SOL    HW136866   0.635   1.913  16.809 -1.2484  1.3846  0.9757
 8468SOL    HW236867   0.709   2.045  16.798 -0.6311 -1.3070 -1.9882
 8469SOL     OW36868   2.792   0.039   3.602 -0.2084  0.1878 -0.0575
 8469SOL    HW136869   2.849   0.064   3.675 -0.8505 -0.9766  0.8310
 8469SOL    HW236870   2.851   4.704   3.557 -0.2333  0.7721 -0.8792
 8470SOL     OW36871   2.605   3.286   2.124  0.2189  0.6398 -0.4387
 8470SOL    HW136872   2.627   3.304   2.033 -0.0950  4.6486  0.2621
 8470SOL    HW236873   2.681   3.233   2.147 -0.6126  0.3511  1.7063
 8471SOL     OW36874   3.691   1.562   8.862  0.2750  0.4342 -0.2219
 8471SOL    HW136875   3.738   1.540   8.943  0.1243 -0.8762 -0.5011
 8471SOL    HW236876   3.766   1.569   8.802  1.4564  0.3273  1.2368
 8472SOL     OW36877   2.700   0.082   9.171  0.5514  0.5261 -0.2218
 8472SOL    HW136878   2.778   0.032   9.145  0.6802  0.7400 -0.2468
 8472SOL    HW236879   2.696   0.150   9.104 -0.4819 -1.0588 -1.7933
 8473SOL     OW36880   3.088   3.159   0.165 -0.1241 -0.3474  0.9779
 8473SOL    HW136881   3.088   3.114   0.249 -0.2270 -1.9893  0.1015
 8473SOL    HW236882   3.001   3.195   0.180 -0.1296 -1.0315  2.5873
 8474SOL     OW36883   2.048   0.094   6.244 -0.4591 -0.0339 -0.2227
 8474SOL    HW136884   2.010   0.161   6.300 -0.6745  0.7656 -1.3167
 8474SOL    HW236885   2.086   0.025   6.298  1.9581  0.8040 -0.8058
 8475SOL     OW36886   4.201   3.758   1.192  0.0200  0.1931  0.5498
 8475SOL    HW136887   4.186   3.717   1.107 -0.8001  1.0647  0.2715
 8475SOL    HW236888   4.266   3.698   1.227 -2.1994 -1.6851  1.4852
 8476SOL     OW36889   3.518   2.366   3.060 -0.2140  0.3008  0.0139
 8476SOL    HW136890   3.536   2.441   3.116 -0.1450 -0.4139  0.9427
 8476SOL    HW236891   3.557   2.300   3.117 -0.8063 -0.3715 -0.3612
 8477SOL     OW36892   4.572   2.461   7.590  0.1274 -0.1007 -0.4801
 8477SOL    HW136893   4.616   2.546   7.596  0.4731 -0.1382 -2.5476
 8477SOL    HW236894   4.489   2.465   7.637  0.8131  0.2266  0.7037
 8478SOL     OW36895   2.111   1.633   4.960 -1.0126  0.9407 -0.4717
 8478SOL    HW136896   2.046   1.579   5.005 -1.1794  0.6854 -1.0248
 8478SOL    HW236897   2.071   1.653   4.875  0.7980 -0.0157 -1.5648
 8479SOL     OW36898   4.420   2.365   4.695 -0.0717  0.6621 -0.7556
 8479SOL    HW136899   4.411   2.338   4.786 -1.3328  4.3544  0.1813
 8479SOL    HW236900   4.336   2.343   4.655  0.8344 -1.6300 -1.4526
 8480SOL     OW36901   2.728   2.674   7.840 -0.0434 -0.4229  0.0535
 8480SOL    HW136902   2.740   2.683   7.934 -3.3582  0.3735  0.4008
 8480SOL    HW236903   2.798   2.731   7.809  0.2895  0.2598  2.0751
 8481SOL     OW36904   2.210   2.845   4.192 -0.2106 -0.0912 -0.3221
 8481SOL    HW136905   2.169   2.903   4.128  3.3494  0.8039 -1.7784
 8481SOL    HW236906   2.239   2.773   4.136  1.3494  0.9104 -0.8089
 8482SOL     OW36907   0.029   1.268  13.030 -0.5225 -0.4273  0.3340
 8482SOL    HW136908   4.673   1.308  13.002  0.4828  0.1426 -1.7977
 8482SOL    HW236909   0.060   1.240  12.944 -0.6633  1.2888 -0.2803
 8483SOL     OW36910   0.358   3.058   7.447  0.1711  0.7116  0.1288
 8483SOL    HW136911   0.372   2.965   7.428 -2.1058  0.8746 -2.2688
 8483SOL    HW236912   0.301   3.044   7.523 -1.8271  0.7832 -1.3611
 8484SOL     OW36913   1.900   4.292   3.021 -0.4778  0.2062 -0.2729
 8484SOL    HW136914   1.956   4.235   3.074 -3.5144 -2.8798 -0.4110
 8484SOL    HW236915   1.861   4.343   3.093  0.3172  0.7325 -0.2148
 8485SOL     OW36916   2.813   4.224  16.246 -0.4941 -0.0255 -0.1829
 8485SOL    HW136917   2.856   4.247  16.164 -0.3184  1.4663  0.3357
 8485SOL    HW236918   2.847   4.138  16.270 -1.0143 -0.5296 -1.2335
 8486SOL     OW36919   3.928   4.020   3.894 -0.6471 -0.5013  0.0712
 8486SOL    HW136920   4.023   4.026   3.903 -0.5215 -2.0169 -0.2147
 8486SOL    HW236921   3.903   3.999   3.984  0.8769 -0.6187  0.4635
 8487SOL     OW36922   3.732   2.494   8.039  0.4312 -0.2931  0.6306
 8487SOL    HW136923   3.685   2.435   8.099 -1.2196 -1.4072 -1.7487
 8487SOL    HW236924   3.717   2.439   7.961  0.3060 -1.6227  1.5820
 8488SOL     OW36925   2.261   2.900   9.633  0.3252 -0.2032 -0.0437
 8488SOL    HW136926   2.272   2.925   9.725 -0.4509  1.2961 -0.3648
 8488SOL    HW236927   2.216   2.816   9.638  0.5469 -0.4150 -1.4915
 8489SOL     OW36928   0.986   3.983  13.142 -0.2046 -0.3807 -0.2421
 8489SOL    HW136929   1.042   4.048  13.183 -0.6873  0.2979 -0.6614
 8489SOL    HW236930   0.926   4.046  13.103  1.3409  2.0728  1.3918
 8490SOL     OW36931   2.735   3.690  11.849  0.7878 -0.2330  0.0894
 8490SOL    HW136932   2.745   3.595  11.838 -3.0700 -0.8086  1.3080
 8490SOL    HW236933   2.665   3.704  11.784 -0.8542 -2.3596  1.3944
 8491SOL     OW36934   2.387   3.510  15.798  0.8820  0.0195  0.2218
 8491SOL    HW136935   2.478   3.479  15.791  0.8571  0.3565 -1.4904
 8491SOL    HW236936   2.386   3.533  15.891 -1.8231 -1.1093  0.4790
 8492SOL     OW36937   0.140   3.728   2.807 -0.0369 -0.6027 -0.0631
 8492SOL    HW136938   0.213   3.738   2.868 -1.2263  0.5491  1.1925
 8492SOL    HW236939   0.066   3.779   2.841  1.5746  2.5744 -1.3342
 8493SOL     OW36940   4.123   1.716   9.388 -1.0727 -0.0997 -0.0638
 8493SOL    HW136941   4.034   1.682   9.400 -1.0271 -0.7669 -1.6510
 8493SOL    HW236942   4.170   1.643   9.429 -1.1805  0.5666  1.2681
 8494SOL     OW36943   1.388   0.175   7.990 -0.5292 -0.3291  0.3157
 8494SOL    HW136944   1.303   0.139   7.965  0.1614 -1.2157 -0.7447
 8494SOL    HW236945   1.377   0.180   8.085 -2.6476  1.4115 -0.0234
 8495SOL     OW36946   2.410   0.736   5.132 -0.3813  0.5261  0.3721
 8495SOL    HW136947   2.490   0.703   5.173  0.5288  1.0278 -1.0362
 8495SOL    HW236948   2.342   0.673   5.155  0.0841 -0.7745 -1.9026
 8496SOL     OW36949   4.396   3.240  14.125  0.8530  0.1709 -0.3044
 8496SOL    HW136950   4.408   3.334  14.113 -0.3047  0.3895  0.3193
 8496SOL    HW236951   4.308   3.214  14.153  0.7958 -0.3871 -1.0108
 8497SOL     OW36952   1.759   3.759   7.664 -0.0538  0.0625 -0.8140
 8497SOL    HW136953   1.768   3.820   7.737 -1.4102 -0.1854 -0.4471
 8497SOL    HW236954   1.848   3.756   7.630  0.5407 -2.6520  0.9954
 8498SOL     OW36955   1.967   3.507   6.287 -0.5477  0.4159 -0.1359
 8498SOL    HW136956   2.047   3.516   6.338 -0.2357  0.1396 -0.5776
 8498SOL    HW236957   1.945   3.597   6.265  1.7153  1.2607  1.1762
 8499SOL     OW36958   2.776   1.009   6.556 -0.4753  0.0172  0.2110
 8499SOL    HW136959   2.761   0.921   6.590 -3.4945  0.5373  0.2463
 8499SOL    HW236960   2.698   1.025   6.502  0.6069  1.8157 -0.7913
 8500SOL     OW36961   3.568   1.149   8.810 -0.4097  0.2245 -0.1664
 8500SOL    HW136962   3.598   1.078   8.867  1.8465  0.2481 -1.3281
 8500SOL    HW236963   3.543   1.222   8.866  0.3014 -1.1851  1.9981
 8501SOL     OW36964   4.679   2.934  11.475 -0.8940 -0.7822  0.1279
 8501SOL    HW136965   4.693   2.900  11.563 -2.3462  1.2090  1.1361
 8501SOL    HW236966   4.714   3.023  11.480 -2.5843 -0.2424  2.7736
 8502SOL     OW36967   0.884   0.772   4.545 -0.3130 -0.0558  0.3175
 8502SOL    HW136968   0.803   0.806   4.507 -0.7694 -1.5113 -0.0303
 8502SOL    HW236969   0.896   0.836   4.615  1.8953 -1.1561  0.9381
 8503SOL     OW36970   2.830   4.695   6.313  0.0718 -0.2166 -0.7440
 8503SOL    HW136971   2.792   0.050   6.348 -1.5901 -0.2347 -2.5062
 8503SOL    HW236972   2.753   4.667   6.264  0.3429 -0.6135 -0.9506
 8504SOL     OW36973   0.339   3.898   7.843 -0.4328  0.2399 -0.8519
 8504SOL    HW136974   0.379   3.817   7.877 -0.6291  0.7186  0.5211
 8504SOL    HW236975   0.306   3.935   7.925 -0.8667 -1.1785 -0.3694
 8505SOL     OW36976   1.158   3.999  15.117  0.4248  0.0841 -0.2593
 8505SOL    HW136977   1.087   3.975  15.177 -1.6438  2.4980 -1.7368
 8505SOL    HW236978   1.221   3.930  15.137  1.8668  1.6180  0.5657
 8506SOL     OW36979   3.929   0.386   6.180  0.3776 -0.5982  0.5874
 8506SOL    HW136980   3.843   0.351   6.154  0.0951 -1.5540  2.8045
 8506SOL    HW236981   3.902   0.436   6.258  1.9724  0.4948  0.4335
 8507SOL     OW36982   1.669   0.318   0.346  0.2185  0.1673 -0.1121
 8507SOL    HW136983   1.654   0.381   0.417 -0.0693  0.6471 -0.6034
 8507SOL    HW236984   1.591   0.278   0.309  1.1629 -0.0751 -1.8624
 8508SOL     OW36985   3.307   3.027   8.040  0.0271  0.3814  0.2072
 8508SOL    HW136986   3.359   3.063   7.969  1.6889 -3.3746 -0.4671
 8508SOL    HW236987   3.375   3.015   8.106 -0.4183 -0.2670  0.5479
 8509SOL     OW36988   3.713   4.557   9.697 -0.4293  0.3920  0.2133
 8509SOL    HW136989   3.641   4.507   9.658  0.8966  0.1242 -1.8515
 8509SOL    HW236990   3.718   4.520   9.785  0.6665  3.0311  1.2508
 8510SOL     OW36991   2.532   4.160   4.354 -0.0031 -0.5720  0.2435
 8510SOL    HW136992   2.594   4.168   4.282  2.1900 -0.2408  2.1707
 8510SOL    HW236993   2.529   4.065   4.359 -0.3615 -0.5304  0.8937
 8511SOL     OW36994   4.395   1.705   0.028 -0.3802 -0.3483 -0.4713
 8511SOL    HW136995   4.364   1.780  17.683  2.6297 -0.0238 -1.8953
 8511SOL    HW236996   4.450   1.757   0.086  0.3738 -0.0051 -1.4934
 8512SOL     OW36997   3.431   1.236   2.547 -0.2168  1.0045  0.9825
 8512SOL    HW136998   3.452   1.232   2.640  0.6569 -1.6072  0.6933
 8512SOL    HW236999   3.453   1.143   2.540 -1.7071  1.0580 -4.1102
 8513SOL     OW37000   1.511   0.953   6.145 -0.9932 -0.3131  0.7731
 8513SOL    HW137001   1.606   0.950   6.155 -0.5465  0.8016 -3.1117
 8513SOL    HW237002   1.505   0.858   6.155  1.1202 -0.6283 -1.0974
 8514SOL     OW37003   3.410   0.874  17.251  0.1344  0.3224 -0.3809
 8514SOL    HW137004   3.458   0.924  17.316 -0.7368 -2.4680  2.4012
 8514SOL    HW237005   3.328   0.923  17.240  0.3629  0.5726 -0.9562
 8515SOL     OW37006   3.670   4.551   1.709 -0.2309 -0.0312 -0.8193
 8515SOL    HW137007   3.742   4.588   1.761 -1.6383  1.7579 -0.1366
 8515SOL    HW237008   3.597   4.552   1.771 -0.1598 -0.8107 -0.7208
 8516SOL     OW37009   2.150   4.045   7.507  0.1826 -0.1288 -0.0842
 8516SOL    HW137010   2.128   3.986   7.435 -0.4679  0.3077 -0.2408
 8516SOL    HW237011   2.157   3.983   7.580 -0.2571 -0.4320 -0.3040
 8517SOL     OW37012   2.154   4.184   5.236 -0.1204 -0.3376 -0.1887
 8517SOL    HW137013   2.139   4.245   5.163  0.9147  0.3462  0.1721
 8517SOL    HW237014   2.202   4.238   5.298  0.1620  0.8217 -1.4085
 8518SOL     OW37015   2.412   4.342   6.241 -0.7329 -0.0657  0.1429
 8518SOL    HW137016   2.361   4.334   6.160  1.3311  1.8078 -1.3409
 8518SOL    HW237017   2.447   4.253   6.240  0.3584  0.3467  1.7233
 8519SOL     OW37018   0.109   1.202  12.778 -0.1957  0.4285 -0.3007
 8519SOL    HW137019   0.146   1.117  12.752  0.3984  0.5453  0.1490
 8519SOL    HW237020   0.018   1.174  12.789 -0.1990  0.0412 -1.2864
 8520SOL     OW37021   0.631   3.930   4.436 -0.0671  0.0338 -0.7015
 8520SOL    HW137022   0.618   3.855   4.493  1.6340 -1.3504 -2.1355
 8520SOL    HW237023   0.664   3.883   4.360 -0.5555  0.3048 -1.0820
 8521SOL     OW37024   3.215   4.047   1.892  0.2387  0.4845 -0.0921
 8521SOL    HW137025   3.188   3.963   1.930 -0.0789 -0.3898 -2.2525
 8521SOL    HW237026   3.188   4.040   1.801  2.7352  1.7799 -0.9127
 8522SOL     OW37027   4.111   4.402   0.799 -0.6159  0.0791  0.1630
 8522SOL    HW137028   4.146   4.432   0.715  0.3084 -1.3321  0.0453
 8522SOL    HW237029   4.184   4.379   0.857 -1.7153 -0.2354  1.4062
 8523SOL     OW37030   1.508   2.211   6.839  0.1949  0.3571  0.2933
 8523SOL    HW137031   1.550   2.189   6.922 -1.9738  0.1594  1.3331
 8523SOL    HW237032   1.473   2.295   6.868 -0.8185  0.4734 -1.2380
 8524SOL     OW37033   1.816   3.979   4.695  0.5420 -0.1101 -0.2837
 8524SOL    HW137034   1.824   3.894   4.653 -0.8745 -0.6173  0.4795
 8524SOL    HW237035   1.898   3.982   4.746 -1.1861  1.2517  2.4068
 8525SOL     OW37036   2.808   1.228  11.807 -0.2762 -0.2672 -0.4175
 8525SOL    HW137037   2.799   1.215  11.713  1.3350  2.2240 -0.9104
 8525SOL    HW237038   2.895   1.268  11.807 -0.1450 -0.5439  0.5525
 8526SOL     OW37039   4.427   2.029   6.423  0.6214 -0.1395 -0.3514
 8526SOL    HW137040   4.448   2.043   6.516  2.4706  0.4634 -0.8719
 8526SOL    HW237041   4.424   2.117   6.387  0.0272 -0.9139 -2.1851
 8527SOL     OW37042   4.061   2.639  10.802 -0.0724  0.1708  0.3068
 8527SOL    HW137043   3.971   2.641  10.770 -0.6873  0.3334  2.0589
 8527SOL    HW237044   4.058   2.710  10.866  2.6734  0.2244  0.3739
 8528SOL     OW37045   1.513   3.067   4.252  0.0928  0.3693  0.1274
 8528SOL    HW137046   1.470   3.093   4.171  2.4019 -1.2527 -1.6395
 8528SOL    HW237047   1.492   3.142   4.307 -1.1324  0.3036 -0.2458
 8529SOL     OW37048   1.320   0.006   6.647 -0.3374 -0.2488 -0.0737
 8529SOL    HW137049   1.243   0.062   6.653  0.0919  0.1240  1.8552
 8529SOL    HW237050   1.347   0.014   6.556  0.8307  0.4775  0.3423
 8530SOL     OW37051   4.656   2.964   7.812 -0.3073 -0.2011  0.1310
 8530SOL    HW137052   4.584   3.002   7.863  0.7260  1.2376  0.5264
 8530SOL    HW237053   0.003   2.945   7.872  0.3510  0.8843 -0.3050
 8531SOL     OW37054   4.159   1.238  12.360  0.2930  0.2721  0.0799
 8531SOL    HW137055   4.203   1.174  12.304 -2.1716 -1.7846  0.4897
 8531SOL    HW237056   4.074   1.233  12.316 -1.4512 -2.0596  3.7002
 8532SOL     OW37057   2.029   1.633   6.704 -0.3789  0.5432  0.3227
 8532SOL    HW137058   2.108   1.676   6.736 -1.0864  0.2860  2.4205
 8532SOL    HW237059   1.982   1.632   6.787 -1.4060 -1.2655 -0.2915
 8533SOL     OW37060   4.148   1.708   0.997 -0.2884  0.3368 -0.0626
 8533SOL    HW137061   4.103   1.746   0.922 -1.5567  0.6891  0.8784
 8533SOL    HW237062   4.102   1.624   0.999  1.7679 -0.7431  2.0969
 8534SOL     OW37063   4.365   2.899   4.646  0.4219  0.1127 -0.1964
 8534SOL    HW137064   4.368   2.804   4.650 -2.1923  0.0396  0.0597
 8534SOL    HW237065   4.296   2.895   4.579 -0.7043  1.5618  0.8710
 8535SOL     OW37066   2.351   0.434  14.859  0.2998  0.3005  0.7921
 8535SOL    HW137067   2.390   0.378  14.926  1.4308  0.4722  0.2678
 8535SOL    HW237068   2.337   0.371  14.788  0.9914  0.9393  0.0859
 8536SOL     OW37069   2.839   1.382   4.282  0.1668  0.4786  0.2366
 8536SOL    HW137070   2.855   1.402   4.375 -0.9125 -2.2164  1.0078
 8536SOL    HW237071   2.791   1.299   4.290 -1.2811  1.1289 -1.7447
 8537SOL     OW37072   1.364   0.868  15.559  0.5668 -0.6282 -0.3346
 8537SOL    HW137073   1.436   0.907  15.509  0.1897  1.0011  0.4097
 8537SOL    HW237074   1.322   0.948  15.590 -0.1911 -1.6283  1.2145
 8538SOL     OW37075   4.007   0.210   3.406 -0.1446 -0.2754 -0.6213
 8538SOL    HW137076   3.979   0.227   3.316  0.6106  2.0759 -0.4061
 8538SOL    HW237077   3.945   0.138   3.420 -0.3871  0.1545  0.5500
 8539SOL     OW37078   3.511   3.664  16.699  0.3940 -0.0901 -0.6204
 8539SOL    HW137079   3.454   3.592  16.723  0.7780 -1.2666 -3.2159
 8539SOL    HW237080   3.593   3.615  16.697  0.3731 -0.1479  0.3444
 8540SOL     OW37081   3.759   1.133   5.945 -0.5251  0.1625  0.1066
 8540SOL    HW137082   3.834   1.079   5.969 -0.1313  2.0062  3.0255
 8540SOL    HW237083   3.687   1.071   5.958 -1.6555  1.6531  0.9186
 8541SOL     OW37084   1.593   4.553  10.576  0.2858  0.1198 -0.3542
 8541SOL    HW137085   1.658   4.537  10.644  1.5490  1.6212 -1.2111
 8541SOL    HW237086   1.515   4.532  10.627  0.6568  0.5287  0.3802
 8542SOL     OW37087   2.370   1.761   2.903 -0.3983  0.2547 -0.0142
 8542SOL    HW137088   2.283   1.795   2.885  0.4975  2.2394 -0.6012
 8542SOL    HW237089   2.392   1.790   2.991 -1.9705 -0.2048  0.5308
 8543SOL     OW37090   3.032   1.462   4.123  0.1131  1.1241 -0.3172
 8543SOL    HW137091   2.954   1.440   4.174 -0.0162  0.1854 -0.9139
 8543SOL    HW237092   3.030   1.557   4.125 -1.0645  1.1079 -1.2945
 8544SOL     OW37093   4.431   0.975   6.832  0.2926 -0.1083 -0.0277
 8544SOL    HW137094   4.349   0.993   6.786 -1.1445 -0.1869  2.4985
 8544SOL    HW237095   4.433   1.018   6.918  1.0612 -0.5457  0.1752
 8545SOL     OW37096   3.825   2.319   8.733 -0.9502 -0.0748 -0.3140
 8545SOL    HW137097   3.913   2.302   8.700 -1.0636 -1.0141 -0.1545
 8545SOL    HW237098   3.850   2.372   8.809 -1.3327  0.9223 -0.8891
 8546SOL     OW37099   3.713   3.531   8.126  0.5022  0.0154 -0.1995
 8546SOL    HW137100   3.771   3.457   8.147  0.0745 -0.3704 -0.3701
 8546SOL    HW237101   3.685   3.486   8.047  2.1461 -2.9248  0.8759
 8547SOL     OW37102   0.970   3.926  14.907  0.0187 -0.3730  0.5339
 8547SOL    HW137103   0.940   4.008  14.867  0.5867 -0.3679  0.1276
 8547SOL    HW237104   1.028   3.956  14.977  1.0943  3.0266 -1.8388
 8548SOL     OW37105   1.231   0.998  16.405 -0.5356  0.4545  0.8204
 8548SOL    HW137106   1.216   1.003  16.499 -0.0791  1.0937  0.8598
 8548SOL    HW237107   1.141   0.993  16.372 -0.6092  2.9051  0.6296
 8549SOL     OW37108   0.205   2.797  16.466  0.3938  0.2177 -0.0487
 8549SOL    HW137109   0.131   2.768  16.413  0.3723  1.0215 -0.4652
 8549SOL    HW237110   0.155   2.847  16.530  0.6463  1.2208 -0.6258
 8550SOL     OW37111   3.384   2.077   2.275 -0.6236  0.3762 -0.2310
 8550SOL    HW137112   3.464   2.036   2.241 -0.9925 -0.0734 -0.5649
 8550SOL    HW237113   3.416   2.140   2.339 -1.8473  0.7193  0.0415
 8551SOL     OW37114   2.931   4.667   9.014  0.2231  0.2033  0.4845
 8551SOL    HW137115   2.905   4.587   9.059  0.5634  0.5008  1.2005
 8551SOL    HW237116   2.856   4.682   8.955  1.3011  1.7370 -0.4998
 8552SOL     OW37117   0.705   0.089   1.814 -0.6416 -0.4644  0.5836
 8552SOL    HW137118   0.788   0.046   1.836  0.4700  2.4115  1.9517
 8552SOL    HW237119   0.716   0.176   1.852 -0.1454  0.4392 -1.6355
 8553SOL     OW37120   3.454   3.859   7.079  0.3612 -0.5809  0.2609
 8553SOL    HW137121   3.459   3.896   6.990 -1.7582  0.4257  0.5679
 8553SOL    HW237122   3.429   3.937   7.127 -0.5937 -1.2270  0.8157
 8554SOL     OW37123   1.128   0.065  14.478  0.1574  0.0257  0.0935
 8554SOL    HW137124   1.137   0.080  14.572  0.4263  1.6716 -0.1885
 8554SOL    HW237125   1.128   0.156  14.448  2.5209 -0.1512 -0.4284
 8555SOL     OW37126   4.656   0.933  12.514 -0.1798 -0.4440  0.1614
 8555SOL    HW137127   4.705   1.000  12.467 -0.4506  0.0473  0.5798
 8555SOL    HW237128   4.569   0.968  12.497  1.0766  1.8509 -1.6157
 8556SOL     OW37129   0.643   3.555   3.968 -0.4166 -0.3615 -0.3448
 8556SOL    HW137130   0.698   3.487   4.007  0.1793 -0.1528 -0.8106
 8556SOL    HW237131   0.707   3.625   3.954 -0.8571  0.2612  0.7432
 8557SOL     OW37132   1.633   2.102   5.174 -0.5850 -0.5184  0.0184
 8557SOL    HW137133   1.605   2.134   5.089  0.5159  0.7316  0.1316
 8557SOL    HW237134   1.711   2.156   5.186 -1.5156  0.5288  1.3518
 8558SOL     OW37135   3.967   2.965   9.771 -0.0064 -0.5696 -0.0113
 8558SOL    HW137136   3.932   3.040   9.724 -1.7684  0.6149  3.1910
 8558SOL    HW237137   4.027   3.017   9.824 -0.9941  2.4069 -1.7969
 8559SOL     OW37138   1.460   0.994   7.329  0.1827  0.0621  1.0729
 8559SOL    HW137139   1.464   0.910   7.284 -1.5793 -0.2235  1.4556
 8559SOL    HW237140   1.506   0.958   7.405 -0.1186  0.2295  1.3344
 8560SOL     OW37141   0.158   1.383  10.769 -0.0032 -0.3858 -1.1733
 8560SOL    HW137142   0.085   1.417  10.820  1.4267  0.9139  0.0416
 8560SOL    HW237143   0.140   1.289  10.766  0.7116 -0.6042  1.3552
 8561SOL     OW37144   1.086   1.033   1.726  0.5307 -0.7847 -0.2443
 8561SOL    HW137145   1.057   1.031   1.817 -1.9835  0.5381 -1.0006
 8561SOL    HW237146   1.004   1.026   1.676  0.5052 -0.7631 -0.2053
 8562SOL     OW37147   0.470   3.803  17.180 -0.1869  0.0056 -0.4511
 8562SOL    HW137148   0.433   3.797  17.268  0.9599  0.1827  0.0392
 8562SOL    HW237149   0.492   3.710  17.170  0.0229 -0.1297  1.1850
 8563SOL     OW37150   2.285   1.284   9.217  0.5572  0.4832  0.3014
 8563SOL    HW137151   2.327   1.303   9.133 -0.8889 -0.0593 -0.5466
 8563SOL    HW237152   2.363   1.295   9.271 -0.3604 -0.6636  1.8419
 8564SOL     OW37153   4.281   4.686   7.050  0.2754  0.1091 -0.2024
 8564SOL    HW137154   4.212   0.025   7.036  1.8352  1.3844 -1.9175
 8564SOL    HW237155   4.266   4.656   7.140  0.9482  1.0899  0.2384
 8565SOL     OW37156   3.440   1.204   5.619  1.1049  0.8148 -0.1714
 8565SOL    HW137157   3.359   1.168   5.657  2.3693 -0.3791  1.3857
 8565SOL    HW237158   3.397   1.272   5.568  0.5282  1.4608  1.1694
 8566SOL     OW37159   4.521   0.075  10.031 -0.3246 -0.3080  0.2320
 8566SOL    HW137160   4.512   0.097   9.938 -0.0211  0.7465  0.4526
 8566SOL    HW237161   4.428   0.073  10.050 -0.4792  1.5338 -0.2969
 8567SOL     OW37162   1.675   2.679   6.158  0.5620 -0.1858 -0.2439
 8567SOL    HW137163   1.672   2.583   6.164  0.9812 -0.2005 -0.1960
 8567SOL    HW237164   1.767   2.706   6.156  0.1220  1.2741 -0.3539
 8568SOL     OW37165   4.105   4.258   3.380 -0.0221 -0.0305 -0.0396
 8568SOL    HW137166   4.014   4.234   3.394 -0.1588  0.4369 -0.1231
 8568SOL    HW237167   4.096   4.349   3.407 -1.1430 -1.0390  2.9058
 8569SOL     OW37168   0.336   0.415  16.965  0.8682  0.2090 -0.3431
 8569SOL    HW137169   0.411   0.401  17.024  1.2343  1.3361 -0.5378
 8569SOL    HW237170   0.330   0.329  16.924  2.0986  0.6001 -1.3457
 8570SOL     OW37171   4.305   1.680   8.544 -0.4727  1.0663 -0.0448
 8570SOL    HW137172   4.335   1.675   8.635  0.5246  0.7419 -0.3931
 8570SOL    HW237173   4.390   1.700   8.505  0.1990 -0.7024  0.5154
 8571SOL     OW37174   2.885   4.360   8.323 -0.0634  0.1443  0.5287
 8571SOL    HW137175   2.806   4.370   8.376  0.2172  0.5528  0.8635
 8571SOL    HW237176   2.871   4.433   8.263 -1.1333  1.4755  2.3914
 8572SOL     OW37177   2.687   1.993   1.909  0.1435 -0.3168  0.1743
 8572SOL    HW137178   2.706   1.922   1.971 -3.0597  0.3678  1.9399
 8572SOL    HW237179   2.756   2.056   1.928 -0.6323  0.3192  0.9241
 8573SOL     OW37180   4.317   0.542   2.822  0.2639  0.5523  0.5392
 8573SOL    HW137181   4.362   0.538   2.738  0.1231 -2.6750  0.6295
 8573SOL    HW237182   4.239   0.586   2.786 -0.1652 -1.1061 -0.5655
 8574SOL     OW37183   1.121   2.255  11.806 -0.2713  0.1919  0.3738
 8574SOL    HW137184   1.056   2.323  11.794 -1.1333 -0.9904 -1.7666
 8574SOL    HW237185   1.151   2.279  11.894 -0.2827 -0.5213  0.5721
 8575SOL     OW37186   0.439   2.891   9.225 -0.0075  0.2384 -0.7736
 8575SOL    HW137187   0.361   2.883   9.170 -0.6305  0.9110  0.0067
 8575SOL    HW237188   0.449   2.985   9.211 -0.4062  0.6055  1.4080
 8576SOL     OW37189   2.700   4.462   2.163 -0.3957 -0.1393 -0.2953
 8576SOL    HW137190   2.695   4.416   2.079 -0.3102  1.3182 -1.0949
 8576SOL    HW237191   2.705   4.553   2.136 -1.9767  0.2515  0.7194
 8577SOL     OW37192   1.288   2.619  12.965  0.0287 -0.9214 -0.4981
 8577SOL    HW137193   1.267   2.536  13.008 -0.6197 -1.2961 -1.5527
 8577SOL    HW237194   1.381   2.623  12.989 -0.9440  0.9484  2.9107
 8578SOL     OW37195   3.945   2.412   9.408 -0.0282 -0.2362  0.1171
 8578SOL    HW137196   3.956   2.480   9.474 -1.0103  0.6056 -0.5911
 8578SOL    HW237197   4.012   2.434   9.343  0.6289  1.3754  1.3660
 8579SOL     OW37198   0.599   4.175  17.200  0.0914  0.3673  0.1944
 8579SOL    HW137199   0.522   4.158  17.147  0.3145  1.2390 -0.4147
 8579SOL    HW237200   0.559   4.208  17.281 -2.6613  1.6177 -1.6809
 8580SOL     OW37201   3.115   3.933   6.913 -0.7091 -0.2453 -0.1737
 8580SOL    HW137202   3.192   3.983   6.938  0.8394 -1.5575 -2.3236
 8580SOL    HW237203   3.158   3.854   6.883  0.3464  0.7448 -1.2718
 8581SOL     OW37204   0.975   2.027   1.458  0.2092 -0.0961 -0.2597
 8581SOL    HW137205   1.059   2.054   1.495 -0.3410  1.8291 -0.4064
 8581SOL    HW237206   0.915   2.080   1.510  0.7634  0.5570 -0.2705
 8582SOL     OW37207   3.102   4.442  14.629  0.0804  0.0058 -0.1405
 8582SOL    HW137208   3.039   4.505  14.594 -0.0313 -1.1345 -1.9826
 8582SOL    HW237209   3.186   4.458  14.587 -0.2765  2.6255  0.1261
 8583SOL     OW37210   3.362   2.535   4.885 -0.6379  0.2687 -0.4834
 8583SOL    HW137211   3.353   2.458   4.941  1.7229  0.4942  0.1984
 8583SOL    HW237212   3.275   2.550   4.849 -0.9286  0.5632  0.3348
 8584SOL     OW37213   4.457   3.851  10.171  0.2033 -0.1804 -0.1965
 8584SOL    HW137214   4.462   3.927  10.113 -0.2643 -0.0728 -0.0956
 8584SOL    HW237215   4.511   3.883  10.243 -0.6069 -0.0202  0.3528
 8585SOL     OW37216   3.261   0.301   6.497 -0.0398 -0.7379  0.5910
 8585SOL    HW137217   3.288   0.225   6.445  0.2417 -0.0888 -0.2073
 8585SOL    HW237218   3.345   0.334   6.528 -0.9593  2.3382 -0.2300
 8586SOL     OW37219   0.920   2.275  15.068 -0.2060  0.0391 -0.5244
 8586SOL    HW137220   0.949   2.232  14.987 -1.0415  1.5392 -1.6343
 8586SOL    HW237221   0.838   2.316  15.039 -1.6882 -0.2332  3.2630
 8587SOL     OW37222   0.122   2.972   5.231  0.1610  0.2574 -0.3428
 8587SOL    HW137223   0.199   2.916   5.240  0.3187  0.7123  1.1572
 8587SOL    HW237224   0.046   2.914   5.224 -0.0657  0.3985  0.8310
 8588SOL     OW37225   0.172   1.841   8.773  0.0464  0.4327 -0.2005
 8588SOL    HW137226   0.184   1.891   8.692 -1.8489 -1.5053 -1.7124
 8588SOL    HW237227   0.220   1.896   8.835 -0.1211  0.5147 -0.1424
 8589SOL     OW37228   0.026   1.685   4.850  0.3747 -0.8927  0.2881
 8589SOL    HW137229   4.714   1.636   4.777  0.1157 -3.0301  1.8560
 8589SOL    HW237230   0.070   1.749   4.794 -2.2877  0.7554  0.0802
 8590SOL     OW37231   3.762   3.948   2.715 -0.0769  0.2452  0.0169
 8590SOL    HW137232   3.713   3.908   2.643 -2.5549  0.3369  1.6442
 8590SOL    HW237233   3.744   4.040   2.694 -0.6946  0.0633 -0.2561
 8591SOL     OW37234   4.403   2.928  12.469  0.7712 -0.7250 -0.2073
 8591SOL    HW137235   4.481   2.891  12.510  0.2426 -0.5390  0.9722
 8591SOL    HW237236   4.357   2.969  12.542 -0.0570 -2.4488  0.2306
 8592SOL     OW37237   1.815   0.455  12.483 -0.1812  0.0412  0.1592
 8592SOL    HW137238   1.811   0.527  12.420  1.0179  1.3958  1.6122
 8592SOL    HW237239   1.769   0.499  12.554 -1.0423 -0.4255 -0.1066
 8593SOL     OW37240   2.043   2.301   4.305  0.6152  0.2353 -0.0770
 8593SOL    HW137241   2.122   2.276   4.354 -0.4102 -1.9675  0.4227
 8593SOL    HW237242   2.081   2.338   4.225 -0.0916 -0.1326 -0.5830
 8594SOL     OW37243   4.231   1.173   0.891 -0.1122 -0.5602  0.2117
 8594SOL    HW137244   4.240   1.214   0.977  3.0185 -2.3527  0.7292
 8594SOL    HW237245   4.186   1.090   0.909 -1.9887  0.6891  1.3807
 8595SOL     OW37246   0.080   3.559   5.133 -0.2905  0.2865 -0.2530
 8595SOL    HW137247   0.034   3.537   5.052  1.2113 -1.3267 -0.6606
 8595SOL    HW237248   0.040   3.645   5.150  0.0266  0.7711 -1.9847
 8596SOL     OW37249   0.589   0.179   8.816  0.4504  0.4691 -0.0508
 8596SOL    HW137250   0.590   0.126   8.737  2.2903 -0.4426  0.5995
 8596SOL    HW237251   0.503   0.219   8.805  1.0807  1.8716  0.0067
 8597SOL     OW37252   3.179   0.640   7.429 -0.1168  0.0928  0.1968
 8597SOL    HW137253   3.223   0.689   7.360  0.7979 -2.5581 -1.1225
 8597SOL    HW237254   3.090   0.676   7.433  0.0942  0.8401 -2.0851
 8598SOL     OW37255   4.155   2.051   7.036  0.5325  0.3549  0.1321
 8598SOL    HW137256   4.166   2.139   7.073  0.2962 -0.3088  1.8181
 8598SOL    HW237257   4.143   2.002   7.118  0.0858  1.8627  0.9767
 8599SOL     OW37258   1.267   0.431   5.770  0.1942 -0.2304 -0.4659
 8599SOL    HW137259   1.247   0.391   5.685  2.0120 -0.8540 -0.5991
 8599SOL    HW237260   1.290   0.356   5.825 -0.3960 -1.0288 -1.2997
 8600SOL     OW37261   3.112   0.479   8.559  0.0761  0.1262  0.2050
 8600SOL    HW137262   3.205   0.472   8.540  0.3682 -1.2538  2.0982
 8600SOL    HW237263   3.114   0.554   8.619  1.0194  0.2668 -0.0046
 8601SOL     OW37264   2.339   0.954   2.356  0.7253  0.2598 -0.0443
 8601SOL    HW137265   2.266   0.987   2.409 -0.9591 -2.8975 -0.4246
 8601SOL    HW237266   2.414   1.003   2.389  0.9125  0.1941 -0.3683
 8602SOL     OW37267   4.299   1.476   0.166  0.1949 -0.4699 -0.4126
 8602SOL    HW137268   4.330   1.515   0.248  1.9305 -0.9859 -0.8160
 8602SOL    HW237269   4.347   1.525   0.099 -0.8116 -3.0155 -3.0132
 8603SOL     OW37270   0.386   2.990  17.435  0.4561  0.7126  0.0392
 8603SOL    HW137271   0.308   3.015  17.387 -0.6730  0.0716  1.5507
 8603SOL    HW237272   0.372   2.897  17.454 -0.7366  0.4926 -1.8627
 8604SOL     OW37273   4.388   1.516   0.483 -0.2472 -0.0412  0.5655
 8604SOL    HW137274   4.443   1.592   0.464 -0.4900 -0.3714 -1.5192
 8604SOL    HW237275   4.410   1.498   0.574 -0.7309 -1.5063  0.4025
 8605SOL     OW37276   1.939   3.895  11.722 -0.2740  0.3994  0.4565
 8605SOL    HW137277   1.927   3.810  11.764 -0.8509  0.2970  0.0762
 8605SOL    HW237278   1.853   3.930  11.744 -1.1008 -1.3344  0.0054
 8606SOL     OW37279   3.473   1.910  10.580 -0.3844  0.3440  0.3160
 8606SOL    HW137280   3.503   1.996  10.550 -0.6911  0.1773 -0.4874
 8606SOL    HW237281   3.382   1.923  10.607 -0.0387  1.4837  0.8948
 8607SOL     OW37282   1.332   0.762   2.702  0.4652 -0.5062 -0.1297
 8607SOL    HW137283   1.295   0.824   2.639 -0.1568 -0.3590  0.3733
 8607SOL    HW237284   1.293   0.681   2.668 -0.6365  0.5074 -1.2750
 8608SOL     OW37285   0.279   4.283   0.562  0.2510 -0.1609 -0.3296
 8608SOL    HW137286   0.307   4.339   0.634  0.2194 -0.6382  0.0540
 8608SOL    HW237287   0.237   4.206   0.600  0.5568  0.3901  1.1086
 8609SOL     OW37288   4.714   3.581   4.086  0.2144 -0.1360  0.6372
 8609SOL    HW137289   0.081   3.565   4.071  0.5788  0.2937  2.5085
 8609SOL    HW237290   4.712   3.648   4.154  1.1570 -0.2110  0.7388
 8610SOL     OW37291   1.092   0.453   2.330  0.0380  0.0667  0.2790
 8610SOL    HW137292   1.032   0.505   2.384 -0.2767 -0.1354  0.1271
 8610SOL    HW237293   1.054   0.365   2.327  1.6883 -0.5641 -1.8488
 8611SOL     OW37294   0.715   3.553   6.250  0.4045 -0.1442  0.7369
 8611SOL    HW137295   0.707   3.472   6.299 -1.7432 -0.0265  0.5762
 8611SOL    HW237296   0.799   3.553   6.206  1.2509 -0.2086  2.3553
 8612SOL     OW37297   4.366   1.161   7.909 -0.3249  0.3447 -0.2630
 8612SOL    HW137298   4.368   1.135   7.817 -1.7291  0.6389 -0.3872
 8612SOL    HW237299   4.449   1.125   7.941 -0.8285 -0.2884  0.3473
 8613SOL     OW37300   2.780   3.114   3.479 -0.4025 -0.0300  0.3980
 8613SOL    HW137301   2.801   3.191   3.428  1.4541  1.1053  2.9093
 8613SOL    HW237302   2.790   3.057   3.402  1.0408 -1.1894  1.4407
 8614SOL     OW37303   4.044   2.224  11.188 -0.1129  0.0061 -0.7912
 8614SOL    HW137304   4.027   2.136  11.153 -1.3959  0.4628 -1.3316
 8614SOL    HW237305   3.985   2.281  11.138 -0.0052  0.3907 -0.4719
 8615SOL     OW37306   1.878   0.607   2.817  0.2525  0.6027 -0.1573
 8615SOL    HW137307   1.803   0.570   2.770 -0.3188  2.1797 -0.4555
 8615SOL    HW237308   1.950   0.552   2.783  0.3032  0.9463 -0.6020
 8616SOL     OW37309   1.932   1.987   6.148  0.5595  0.7369 -0.2757
 8616SOL    HW137310   1.966   1.903   6.179 -2.8036 -0.3755  0.3819
 8616SOL    HW237311   2.006   2.046   6.163  0.0422  1.2535  0.2827
 8617SOL     OW37312   1.653   3.609   5.109  0.0503  0.5842 -0.7660
 8617SOL    HW137313   1.679   3.524   5.072 -0.2592  0.4117 -0.5836
 8617SOL    HW237314   1.587   3.584   5.173  0.8944  1.1980  0.3364
 8618SOL     OW37315   2.410   3.256   3.508  0.3456 -0.8405  0.7035
 8618SOL    HW137316   2.357   3.334   3.524 -2.2769 -2.1911 -1.2865
 8618SOL    HW237317   2.487   3.270   3.563 -0.3535  1.3083  1.1248
 8619SOL     OW37318   4.687   1.222   4.840 -0.4123 -0.0861  0.4871
 8619SOL    HW137319   0.040   1.187   4.798 -0.7386 -0.1335 -0.0808
 8619SOL    HW237320   4.630   1.148   4.859 -0.7074 -0.5959 -2.4342
 8620SOL     OW37321   3.425   2.032  12.202 -0.7467 -0.5772 -0.2907
 8620SOL    HW137322   3.362   2.064  12.136 -1.0522  0.5399  0.5567
 8620SOL    HW237323   3.469   2.115  12.220  1.7255 -1.5853 -1.6646
 8621SOL     OW37324   3.729   2.486   0.815  0.6069 -0.0527  0.3629
 8621SOL    HW137325   3.737   2.417   0.881 -0.6303  0.4111  0.9806
 8621SOL    HW237326   3.638   2.476   0.787  1.6694 -1.5527 -2.5918
 8622SOL     OW37327   2.586   2.757   4.357  0.6083 -0.0447  0.2633
 8622SOL    HW137328   2.646   2.773   4.283 -1.2088  0.1181 -1.1836
 8622SOL    HW237329   2.532   2.690   4.316  0.2452  0.2039  0.3409
 8623SOL     OW37330   1.801   2.331   6.915  0.1247  0.3270 -0.5478
 8623SOL    HW137331   1.776   2.371   6.831 -0.5755  2.2903  0.5843
 8623SOL    HW237332   1.785   2.403   6.977  0.5847 -1.4945  1.6780
 8624SOL     OW37333   1.632   3.301   6.616  0.0729  0.2160  0.1306
 8624SOL    HW137334   1.722   3.317   6.586 -1.0898  1.9552 -2.3635
 8624SOL    HW237335   1.589   3.363   6.558 -1.3478  0.1448  1.0972
 8625SOL     OW37336   3.697   0.050   3.678  0.0052 -0.4167 -0.6726
 8625SOL    HW137337   3.747   0.052   3.597 -0.4941  0.7131 -0.9505
 8625SOL    HW237338   3.620   0.101   3.652 -0.2148  0.7258  2.2665
 8626SOL     OW37339   0.357   0.493   3.334  0.4685 -0.4284 -0.0326
 8626SOL    HW137340   0.364   0.463   3.243 -0.8951  0.5105 -0.4571
 8626SOL    HW237341   0.349   0.416   3.389  0.5510 -0.5298 -0.1632
 8627SOL     OW37342   3.510   2.493  16.983  0.1961 -0.1226 -0.0729
 8627SOL    HW137343   3.495   2.413  16.933  0.2191 -0.0294 -0.2297
 8627SOL    HW237344   3.573   2.526  16.919  1.8229 -1.8952  0.6018
 8628SOL     OW37345   2.098   1.415  14.676 -0.0245 -0.0086  0.4359
 8628SOL    HW137346   2.030   1.351  14.699  0.8286 -0.1836  2.4314
 8628SOL    HW237347   2.139   1.423  14.762 -0.2509 -2.0098  0.7341
 8629SOL     OW37348   3.437   2.167   4.875 -0.4414 -0.4986  0.2052
 8629SOL    HW137349   3.370   2.182   4.808  0.5415  0.8076 -0.4916
 8629SOL    HW237350   3.385   2.124   4.943 -0.5314 -1.9425 -0.7798
 8630SOL     OW37351   4.413   2.988   2.112 -0.2354  0.3310 -0.6061
 8630SOL    HW137352   4.351   2.960   2.180  1.9361 -1.9397  0.4475
 8630SOL    HW237353   4.371   2.988   2.026 -1.3535 -2.5225 -0.0524
 8631SOL     OW37354   3.756   0.117   9.632 -0.6357 -0.2170 -0.0560
 8631SOL    HW137355   3.746   0.024   9.653 -1.1051  0.0782  1.0484
 8631SOL    HW237356   3.849   0.133   9.648 -0.5082  0.5174 -1.5329
 8632SOL     OW37357   0.219   3.337   2.301 -0.0731  0.2329  0.3631
 8632SOL    HW137358   0.235   3.248   2.334 -1.0704 -0.5944 -1.3468
 8632SOL    HW237359   0.260   3.386   2.371  1.5109  1.1213 -1.1803
 8633SOL     OW37360   2.620   4.205   0.090  0.1247  0.0147  0.2538
 8633SOL    HW137361   2.556   4.136   0.105 -0.6797  0.9810  1.3332
 8633SOL    HW237362   2.576   4.282   0.126  0.7349  1.6873 -2.6041
 8634SOL     OW37363   1.876   2.616   6.467 -0.9658  0.2760  0.4367
 8634SOL    HW137364   1.864   2.548   6.401  0.5563 -2.0155  2.5582
 8634SOL    HW237365   1.893   2.687   6.405 -1.6397  0.2765  0.2485
 8635SOL     OW37366   4.485   0.307   3.898 -0.4426 -0.0991 -0.0973
 8635SOL    HW137367   4.580   0.320   3.900 -0.1412 -2.6171  0.9457
 8635SOL    HW237368   4.467   0.285   3.989  0.9318 -0.8432 -0.0119
 8636SOL     OW37369   4.151   0.634   5.299 -0.1959 -0.4304 -0.2988
 8636SOL    HW137370   4.155   0.571   5.371 -1.3292 -0.3908 -0.2108
 8636SOL    HW237371   4.057   0.630   5.280  0.3829  1.6737 -3.7352
 8637SOL     OW37372   1.229   1.114   5.719  0.1170 -0.0337 -0.0357
 8637SOL    HW137373   1.169   1.147   5.653 -0.9368  1.0393  1.4669
 8637SOL    HW237374   1.272   1.044   5.670  2.8259  1.1955  0.5746
 8638SOL     OW37375   0.561   0.590   2.472  0.6669 -0.3784 -0.1483
 8638SOL    HW137376   0.499   0.610   2.402  0.9672  0.9021 -0.0532
 8638SOL    HW237377   0.519   0.513   2.511  0.8935 -1.1821 -1.4993
 8639SOL     OW37378   1.077   1.199   2.698  0.2794  0.7322  0.8306
 8639SOL    HW137379   1.116   1.281   2.668  0.7897 -0.1557 -0.9231
 8639SOL    HW237380   0.989   1.205   2.661  0.1732 -1.4362  0.7351
 8640SOL     OW37381   0.754   0.542  14.608 -0.1589 -0.2036  0.3814
 8640SOL    HW137382   0.845   0.568  14.593  0.5052 -2.9666 -0.3217
 8640SOL    HW237383   0.760   0.470  14.671 -0.1222 -1.3790 -0.9679
 8641SOL     OW37384   0.345   0.626   6.807 -0.0283  0.1413  0.4119
 8641SOL    HW137385   0.285   0.556   6.830  0.2931 -0.4122 -0.4265
 8641SOL    HW237386   0.281   0.696   6.815  0.5795  0.8084 -0.5064
 8642SOL     OW37387   2.328   0.660   3.522  0.4755 -0.5798 -0.4297
 8642SOL    HW137388   2.358   0.608   3.597  0.0481  0.1951  0.2759
 8642SOL    HW237389   2.290   0.741   3.556 -2.9040 -1.9624 -0.8826
 8643SOL     OW37390   0.697   1.301   6.974  0.0178  0.1184 -0.2515
 8643SOL    HW137391   0.719   1.384   6.932 -1.2401  0.9032  0.6314
 8643SOL    HW237392   0.784   1.267   6.992 -0.6924 -0.9657  1.0872
 8644SOL     OW37393   3.977   2.315   6.012  0.2631  0.1617 -0.4207
 8644SOL    HW137394   4.019   2.352   6.089  0.8608 -0.7550 -0.3131
 8644SOL    HW237395   4.003   2.224   6.026 -1.2031 -0.1433  0.3373
 8645SOL     OW37396   3.800   3.008  14.755  0.0999  0.2725  0.0066
 8645SOL    HW137397   3.710   3.023  14.727  0.1033  2.4961  1.1361
 8645SOL    HW237398   3.801   3.011  14.851  3.0118  0.2889 -0.0162
 8646SOL     OW37399   2.919   1.696   2.220 -0.2937 -0.1235  0.8297
 8646SOL    HW137400   2.992   1.756   2.206  0.5428 -1.1226  0.9522
 8646SOL    HW237401   2.963   1.626   2.268  0.6811 -1.1932 -1.6427
 8647SOL     OW37402   1.153   2.972  14.210 -0.5983  0.1901  0.2360
 8647SOL    HW137403   1.227   2.913  14.200 -1.8924 -1.4407  0.2140
 8647SOL    HW237404   1.208   3.050  14.200  0.4686 -0.7395 -1.2391
 8648SOL     OW37405   1.463   0.323   3.602  0.4936  0.1260 -0.4766
 8648SOL    HW137406   1.547   0.293   3.567  0.4132 -2.0240  1.1777
 8648SOL    HW237407   1.407   0.296   3.530  2.1506  1.2201 -2.1761
 8649SOL     OW37408   3.369   0.328  10.277 -0.2565 -0.1048  0.6092
 8649SOL    HW137409   3.340   0.341  10.187  0.4553 -0.1933  0.3694
 8649SOL    HW237410   3.438   0.393  10.266  0.5396 -0.9472  0.6647
 8650SOL     OW37411   3.820   4.248   3.735 -0.8423 -0.0817  0.1053
 8650SOL    HW137412   3.865   4.193   3.799  0.8992  3.3822  1.8735
 8650SOL    HW237413   3.731   4.236   3.768 -1.8637  3.1986 -1.4905
 8651SOL     OW37414   2.610   0.689   5.310 -0.2909  0.3449  0.1238
 8651SOL    HW137415   2.600   0.607   5.359 -0.3649  0.2913  0.0183
 8651SOL    HW237416   2.568   0.752   5.368  0.6843  0.1149  1.0873
 8652SOL     OW37417   3.772   3.056   7.777  0.0171 -0.2806  0.2049
 8652SOL    HW137418   3.769   3.149   7.757 -1.1325 -0.3308  0.1181
 8652SOL    HW237419   3.774   3.056   7.873  1.6977 -1.7466  0.1564
 8653SOL     OW37420   2.395   4.476   8.502  0.0497  0.3887 -0.4127
 8653SOL    HW137421   2.352   4.392   8.523 -0.9308  0.9901 -0.0028
 8653SOL    HW237422   2.366   4.536   8.570 -1.2493 -0.2262 -0.4154
 8654SOL     OW37423   4.110   2.917  11.493 -0.8202 -1.0123 -0.2377
 8654SOL    HW137424   4.097   2.824  11.474 -2.7110 -0.4552 -1.6591
 8654SOL    HW237425   4.103   2.920  11.588 -1.6912 -1.6119 -0.2851
 8655SOL     OW37426   2.906   0.247   1.518 -0.1882  0.0297 -0.0540
 8655SOL    HW137427   2.814   0.265   1.498  0.0772  2.4199  0.8871
 8655SOL    HW237428   2.942   0.220   1.433  0.1738  1.1341 -0.2493
 8656SOL     OW37429   1.617   4.629   8.625  0.3727 -0.5994 -0.5121
 8656SOL    HW137430   1.649   4.627   8.535  3.5493 -1.3882  0.6296
 8656SOL    HW237431   1.523   4.643   8.614  0.6172  1.1502 -0.2511
 8657SOL     OW37432   0.828   4.586   8.702 -0.3621  0.3195 -0.3160
 8657SOL    HW137433   0.758   4.620   8.757 -0.4523 -1.3378  0.5963
 8657SOL    HW237434   0.779   4.558   8.624 -0.3791  1.0881 -0.5849
 8658SOL     OW37435   0.720   1.256   9.091  0.6157  0.0657  0.0514
 8658SOL    HW137436   0.641   1.307   9.072 -0.4538 -0.4012  3.3778
 8658SOL    HW237437   0.692   1.226   9.177  0.1143 -1.1972 -0.5486
 8659SOL     OW37438   2.684   2.527   3.370  0.2203 -0.2033  0.4267
 8659SOL    HW137439   2.720   2.614   3.351  2.0501 -0.5608  2.3108
 8659SOL    HW237440   2.677   2.492   3.281  0.8496 -1.6480  0.9452
 8660SOL     OW37441   2.067   0.700   8.768  0.0150  0.5971  0.0124
 8660SOL    HW137442   2.008   0.671   8.698  1.6310 -0.6227 -0.8477
 8660SOL    HW237443   2.064   0.621   8.823 -0.9140  2.1561  2.2226
 8661SOL     OW37444   3.404   0.926   8.464  0.5310  0.4044  0.1330
 8661SOL    HW137445   3.408   0.887   8.377 -2.0535 -0.8141  0.5401
 8661SOL    HW237446   3.311   0.928   8.489  0.1417  1.2698 -1.4009
 8662SOL     OW37447   3.755   1.334  13.888 -0.0554 -0.4446  0.3033
 8662SOL    HW137448   3.807   1.342  13.968 -1.5486 -1.7140  1.3881
 8662SOL    HW237449   3.731   1.425  13.871  0.7967  0.0409  1.7241
 8663SOL     OW37450   4.302   3.445   4.230  0.2751  0.2224  0.1700
 8663SOL    HW137451   4.275   3.536   4.241 -2.5375 -0.4000 -1.5438
 8663SOL    HW237452   4.237   3.398   4.281  0.6258  1.2726  1.5848
 8664SOL     OW37453   1.732   1.812   7.728  0.3373  0.3291  0.1764
 8664SOL    HW137454   1.637   1.805   7.737  0.2201 -1.0333 -1.8830
 8664SOL    HW237455   1.756   1.873   7.797 -1.1591  1.6152 -0.4574
 8665SOL     OW37456   0.314   1.021   6.531  0.5833  0.2193 -0.0819
 8665SOL    HW137457   0.355   0.939   6.559  0.6290  1.0649  2.3232
 8665SOL    HW237458   0.233   0.995   6.486  1.5528 -0.0042 -1.6958
 8666SOL     OW37459   4.232   0.800  16.110  0.4000  0.1266 -1.2964
 8666SOL    HW137460   4.266   0.858  16.178  0.4193 -3.0125  1.3870
 8666SOL    HW237461   4.191   0.858  16.046 -1.4442  0.7580  0.4569
 8667SOL     OW37462   0.011   1.200   9.567 -0.9368 -0.2834 -0.5423
 8667SOL    HW137463   4.704   1.194   9.477  0.1879  1.4272 -1.0410
 8667SOL    HW237464   4.704   1.288   9.587  0.4329  0.3131 -0.9562
 8668SOL     OW37465   3.648   4.644   6.283  0.9556 -0.1144 -0.6038
 8668SOL    HW137466   3.674   4.718   6.337 -0.6396  0.2615 -0.3488
 8668SOL    HW237467   3.716   4.581   6.307 -0.8376 -0.8329  2.6171
 8669SOL     OW37468   2.901   1.823   4.359  0.4568 -0.4131 -0.6047
 8669SOL    HW137469   2.947   1.812   4.276  2.3340  0.1879  0.3407
 8669SOL    HW237470   2.817   1.783   4.337  0.1712  0.6286 -1.4440
 8670SOL     OW37471   0.613   3.863   2.319 -0.3369  0.5283  0.1807
 8670SOL    HW137472   0.626   3.776   2.356  3.6566  0.9919 -0.2170
 8670SOL    HW237473   0.670   3.911   2.378  0.0456 -0.1705  0.3804
 8671SOL     OW37474   1.927   3.856   1.640 -0.1532  0.0839 -0.5062
 8671SOL    HW137475   1.891   3.791   1.580  0.8059 -0.8323 -0.0832
 8671SOL    HW237476   1.887   3.933   1.598  0.2853  1.5242  1.7063
 8672SOL     OW37477   2.303   2.011   8.035 -0.3067  0.0328 -0.4684
 8672SOL    HW137478   2.251   2.085   8.067 -1.3498  0.2534 -2.6406
 8672SOL    HW237479   2.258   1.943   8.087  1.1589 -1.1791 -0.7975
 8673SOL     OW37480   0.020   0.898  16.053  0.4622  0.0202  0.3711
 8673SOL    HW137481   4.690   0.963  16.011 -1.6410 -1.0999  1.4441
 8673SOL    HW237482   0.090   0.901  15.988 -0.4361 -0.8065 -0.6407
 8674SOL     OW37483   1.332   3.837  12.748  0.1460 -0.0993  0.3121
 8674SOL    HW137484   1.282   3.901  12.799  0.8602 -0.4105  1.4058
 8674SOL    HW237485   1.420   3.872  12.764  0.1960 -0.6334  1.1931
 8675SOL     OW37486   1.554   4.111   3.412 -0.1329 -0.2961  0.1887
 8675SOL    HW137487   1.588   4.128   3.500  0.3591  1.7047 -0.3966
 8675SOL    HW237488   1.630   4.083   3.362  0.3142  0.4599  0.4483
 8676SOL     OW37489   0.819   1.678   9.148 -0.1728  0.1026  0.3393
 8676SOL    HW137490   0.735   1.724   9.142 -0.2179  0.0184  0.3219
 8676SOL    HW237491   0.812   1.618   9.222  0.6929  0.3808  0.6457
 8677SOL     OW37492   2.819   3.732   1.545 -0.2691  0.3435  0.0624
 8677SOL    HW137493   2.914   3.738   1.550 -0.2520  0.9808 -0.9961
 8677SOL    HW237494   2.792   3.815   1.504  0.1031 -0.1052 -1.0716
 8678SOL     OW37495   2.059   1.686   3.664 -0.1073  0.0960 -0.2627
 8678SOL    HW137496   2.045   1.743   3.739 -2.2785 -0.5453 -0.1911
 8678SOL    HW237497   2.054   1.743   3.588  2.3934  2.2614  1.2233
 8679SOL     OW37498   0.431   3.785   8.700  0.0381 -0.1722 -0.2131
 8679SOL    HW137499   0.370   3.855   8.725 -0.7913 -1.0663  0.2784
 8679SOL    HW237500   0.503   3.840   8.670  0.7844  0.2918  2.4328
 8680SOL     OW37501   4.516   4.343   6.122 -0.7099 -0.1606  0.4708
 8680SOL    HW137502   4.570   4.421   6.136 -0.2634 -0.2143 -0.9814
 8680SOL    HW237503   4.435   4.381   6.087  0.2305  1.2107 -0.2017
 8681SOL     OW37504   0.517   0.782   1.423 -0.2545 -0.5928 -0.0188
 8681SOL    HW137505   0.443   0.782   1.362  1.1192  1.4288 -1.6724
 8681SOL    HW237506   0.498   0.863   1.470  2.4640  0.5499 -0.9128
 8682SOL     OW37507   1.851   1.940  13.308  0.0032 -0.2825 -0.2371
 8682SOL    HW137508   1.774   1.885  13.293  0.7120 -2.4156  3.9842
 8682SOL    HW237509   1.880   1.935  13.217  1.5050 -1.4315  0.3120
 8683SOL     OW37510   2.240   0.576  16.811 -0.2511  0.0684 -0.1347
 8683SOL    HW137511   2.228   0.486  16.841 -2.1020  0.6847  0.9635
 8683SOL    HW237512   2.234   0.623  16.894  1.1191 -0.3061  0.1751
 8684SOL     OW37513   1.725   1.837   6.377 -0.1734  0.3293  0.0084
 8684SOL    HW137514   1.707   1.838   6.471 -0.9028 -1.5541 -0.1099
 8684SOL    HW237515   1.791   1.768   6.380 -0.3378  0.1646 -0.1863
 8685SOL     OW37516   4.548   1.319   1.067  0.1886  0.2467  0.0027
 8685SOL    HW137517   4.563   1.340   0.975  0.3640  2.5037  0.5462
 8685SOL    HW237518   4.620   1.359   1.116 -1.8328  1.6656  1.8748
 8686SOL     OW37519   3.341   1.703   7.184 -0.3073  0.1810  0.0871
 8686SOL    HW137520   3.307   1.708   7.095 -0.9860 -0.3600  0.3146
 8686SOL    HW237521   3.364   1.610   7.184 -1.2626 -0.0524 -2.0410
 8687SOL     OW37522   0.416   3.395   7.892 -0.0534  0.3363 -0.3766
 8687SOL    HW137523   0.462   3.476   7.868  1.2842 -0.3818 -0.2254
 8687SOL    HW237524   0.385   3.414   7.980 -0.1922  1.1878 -0.6101
 8688SOL     OW37525   1.189   4.098   2.836 -0.1026  0.4447 -0.0802
 8688SOL    HW137526   1.283   4.079   2.829  0.2803  2.3543 -0.0887
 8688SOL    HW237527   1.183   4.193   2.843  0.6585  0.4025  1.1129
 8689SOL     OW37528   2.115   2.661   5.262 -0.0515  0.2592 -0.0830
 8689SOL    HW137529   2.196   2.686   5.306 -0.2880 -0.6054  0.8533
 8689SOL    HW237530   2.088   2.591   5.323  1.7302 -1.1894 -0.9537
 8690SOL     OW37531   0.124   1.742   4.506  0.6535  0.3412 -0.8170
 8690SOL    HW137532   0.075   1.694   4.573  0.0182  0.2124 -1.3788
 8690SOL    HW237533   0.060   1.806   4.476  0.6350 -0.0198 -1.5425
 8691SOL     OW37534   1.384   3.723   6.104  0.2431 -0.7838 -0.0805
 8691SOL    HW137535   1.443   3.732   6.178  0.2839  0.4682 -0.2592
 8691SOL    HW237536   1.313   3.689   6.158  1.5067 -1.8083  0.9022
 8692SOL     OW37537   4.247   3.199  10.224 -0.1188 -0.1465  0.0866
 8692SOL    HW137538   4.199   3.132  10.273  0.8564 -0.3753  0.7334
 8692SOL    HW237539   4.194   3.274  10.251  1.6119  1.5323 -1.1672
 8693SOL     OW37540   0.299   4.222  13.551  0.2401 -0.2161  0.1917
 8693SOL    HW137541   0.337   4.187  13.632  0.5759  2.1404  1.0353
 8693SOL    HW237542   0.223   4.266  13.590 -0.6957 -0.3423 -1.4964
 8694SOL     OW37543   1.847   3.738   5.293 -0.1948  0.4488 -0.6547
 8694SOL    HW137544   1.782   3.799   5.329 -0.6811 -0.5720  0.1999
 8694SOL    HW237545   1.807   3.717   5.209  0.1618 -0.0694 -0.6939
 8695SOL     OW37546   2.879   3.865   7.753 -0.5694 -0.1321 -0.1884
 8695SOL    HW137547   2.897   3.948   7.796  1.9988  0.6386 -2.7311
 8695SOL    HW237548   2.785   3.848   7.762 -0.3140 -1.5060 -0.0279
 8696SOL     OW37549   2.973   0.673   1.743 -0.2179  0.1172 -0.4938
 8696SOL    HW137550   2.878   0.668   1.751 -0.4801  1.4389 -2.8650
 8696SOL    HW237551   2.988   0.604   1.679 -1.2440 -1.0810  0.5576
 8697SOL     OW37552   0.405   2.761   5.552  0.1324  0.4956  0.1200
 8697SOL    HW137553   0.456   2.842   5.546  1.4080 -0.2512  1.0078
 8697SOL    HW237554   0.349   2.767   5.474 -2.1064  0.5278  1.7157
 8698SOL     OW37555   4.092   4.374   8.675 -0.6715  0.4981 -0.6946
 8698SOL    HW137556   4.157   4.351   8.741 -0.4636  0.8438 -0.7839
 8698SOL    HW237557   4.137   4.441   8.625 -0.7944  0.7924 -0.4176
 8699SOL     OW37558   0.228   3.923   9.275 -0.5931 -0.0667 -0.0873
 8699SOL    HW137559   0.287   3.977   9.327  0.5532 -1.8570  0.5000
 8699SOL    HW237560   0.259   3.836   9.303  1.5975  0.6604 -0.2914
 8700SOL     OW37561   3.119   2.950   3.869  0.1189  0.2088 -0.0276
 8700SOL    HW137562   3.058   2.884   3.837  0.4554 -0.3999  0.5881
 8700SOL    HW237563   3.193   2.901   3.907 -0.3638  2.5969  3.9961
 8701SOL     OW37564   4.462   1.284   8.237  0.1361 -0.2967 -0.0703
 8701SOL    HW137565   4.418   1.266   8.320  0.0405 -1.5922 -0.3950
 8701SOL    HW237566   4.409   1.233   8.174 -1.1257 -0.1845  0.8922
 8702SOL     OW37567   2.973   3.762  14.958  0.1195 -0.3856  0.6312
 8702SOL    HW137568   2.995   3.844  14.915  1.3079 -1.8376 -1.5649
 8702SOL    HW237569   2.896   3.731  14.911  1.3693 -1.9498 -0.3867
 8703SOL     OW37570   2.085   0.063  11.782  0.0007  0.0705  0.1469
 8703SOL    HW137571   2.137   0.014  11.846 -1.3924 -1.3199  0.2061
 8703SOL    HW237572   2.018   0.001  11.754  1.7114 -0.4363 -2.8546
 8704SOL     OW37573   1.675   0.693   8.394  0.3227  0.1201 -0.2121
 8704SOL    HW137574   1.678   0.633   8.320  2.3216 -1.4804  1.1910
 8704SOL    HW237575   1.610   0.655   8.453  0.1097  2.4195  1.0500
 8705SOL     OW37576   4.364   1.727   3.375  0.3585 -0.2233  0.4910
 8705SOL    HW137577   4.363   1.820   3.396 -0.0588  0.1731 -1.3482
 8705SOL    HW237578   4.404   1.691   3.455 -1.7120  0.2342  1.7389
 8706SOL     OW37579   3.337   1.796  16.164  0.2248 -0.1829 -0.4847
 8706SOL    HW137580   3.293   1.748  16.094 -1.4261 -0.8112  1.0035
 8706SOL    HW237581   3.343   1.727  16.230  1.8753  0.4978  0.0813
 8707SOL     OW37582   1.373   2.527   7.235 -0.7264  0.4191  0.2773
 8707SOL    HW137583   1.429   2.604   7.243  1.7771 -1.5041  0.9518
 8707SOL    HW237584   1.314   2.542   7.309 -2.9603 -1.4041 -1.1148
 8708SOL     OW37585   0.814   0.869   6.379  0.1958 -0.4215 -0.8866
 8708SOL    HW137586   0.747   0.903   6.319 -0.0942 -0.4756 -0.5927
 8708SOL    HW237587   0.879   0.849   6.312 -1.4321  0.2653 -2.6880
 8709SOL     OW37588   2.274   3.156   5.355 -1.0266  0.1370  0.0639
 8709SOL    HW137589   2.299   3.245   5.330 -0.5892 -0.0727 -0.2487
 8709SOL    HW237590   2.200   3.121   5.306  0.9410 -1.1400 -1.9832
 8710SOL     OW37591   0.835   4.579   4.594 -0.1476  0.1952 -0.3608
 8710SOL    HW137592   0.911   4.625   4.630 -0.2363  0.8779 -1.0620
 8710SOL    HW237593   0.849   4.495   4.638  2.1155 -0.0779 -1.6186
 8711SOL     OW37594   4.029   2.633   5.107  0.1385 -0.1528 -0.2604
 8711SOL    HW137595   4.038   2.654   5.014 -3.5110  0.4455 -0.4775
 8711SOL    HW237596   4.121   2.621   5.128  0.4606  2.3410 -0.2790
 8712SOL     OW37597   1.516   4.623   3.792 -0.8654 -0.4005 -0.1832
 8712SOL    HW137598   1.526   4.593   3.702 -0.7386 -2.6403  0.5987
 8712SOL    HW237599   1.469   4.706   3.777  0.1453  0.3570  0.8651
 8713SOL     OW37600   2.887   2.475  12.733 -0.0150  0.7947 -0.4701
 8713SOL    HW137601   2.922   2.515  12.654  1.4071 -0.3150 -0.3959
 8713SOL    HW237602   2.963   2.480  12.791 -0.9166  1.2500  0.6874
 8714SOL     OW37603   4.443   4.527  13.147  0.5255  0.6508  0.0437
 8714SOL    HW137604   4.538   4.526  13.156  0.5100 -2.2459  0.0065
 8714SOL    HW237605   4.420   4.439  13.119 -0.6890  1.4272 -1.3658
 8715SOL     OW37606   2.272   3.892   2.956  0.2600  0.1045 -0.8331
 8715SOL    HW137607   2.353   3.857   2.994  0.6477  0.4993 -1.2887
 8715SOL    HW237608   2.297   3.958   2.892  1.4383  0.9093  0.4472
 8716SOL     OW37609   1.165   0.141   5.865  0.8538 -0.4062 -0.0421
 8716SOL    HW137610   1.167   0.065   5.807  2.5034 -0.3515 -0.0763
 8716SOL    HW237611   1.251   0.128   5.906  1.1047  0.9658 -0.1244
 8717SOL     OW37612   4.710   2.501   1.871  0.3471 -0.2324  0.3439
 8717SOL    HW137613   0.047   2.430   1.857  1.0227  0.1417  1.4636
 8717SOL    HW237614   0.020   2.580   1.831  1.2442 -0.5409  0.5339
 8718SOL     OW37615   0.463   0.889   2.326  0.3139  0.2846 -0.0489
 8718SOL    HW137616   0.397   0.902   2.258 -0.3467  0.9631  0.7283
 8718SOL    HW237617   0.527   0.961   2.330  0.6616 -0.1830  2.4811
 8719SOL     OW37618   3.401   0.897   4.395 -0.2871 -0.7342  0.4759
 8719SOL    HW137619   3.483   0.869   4.355  0.5964  0.1505  1.6775
 8719SOL    HW237620   3.339   0.847   4.342 -0.3701  0.4180 -0.5139
 8720SOL     OW37621   4.024   0.272   5.417  0.0160 -0.2712  1.0366
 8720SOL    HW137622   3.936   0.271   5.453 -0.7928  0.7194 -0.8818
 8720SOL    HW237623   4.014   0.273   5.321 -0.8401  0.0870  1.1300
 8721SOL     OW37624   1.631   0.134   7.861 -0.4800 -0.0808  0.1333
 8721SOL    HW137625   1.551   0.169   7.902 -0.4194  2.3725 -1.8757
 8721SOL    HW237626   1.587   0.067   7.808  0.2120 -1.6825  1.5604
 8722SOL     OW37627   2.218   0.505  14.520 -0.0728 -0.4114 -0.2778
 8722SOL    HW137628   2.283   0.563  14.557 -0.3281  0.9408 -1.9367
 8722SOL    HW237629   2.142   0.529  14.574 -1.4132  1.8239 -3.1157
 8723SOL     OW37630   2.929   0.012   1.663 -0.1422 -0.2827  0.1450
 8723SOL    HW137631   2.920   0.099   1.624  0.0595 -0.1093  0.4839
 8723SOL    HW237632   3.007   0.028   1.717  0.2021 -3.7553  0.6587
 8724SOL     OW37633   1.545   3.049   9.075 -0.5808 -0.2933 -0.0787
 8724SOL    HW137634   1.578   2.959   9.072  0.2753  0.0764 -1.6226
 8724SOL    HW237635   1.619   3.097   9.111 -0.8006 -1.6043  2.1211
 8725SOL     OW37636   2.277   3.729   8.854 -0.2871  0.4122  0.2688
 8725SOL    HW137637   2.212   3.683   8.907  0.9212 -1.5360  0.0536
 8725SOL    HW237638   2.247   3.818   8.871 -3.3770 -0.2009 -2.0957
 8726SOL     OW37639   1.976   2.558  10.641 -0.0367 -0.0070 -0.5278
 8726SOL    HW137640   1.907   2.558  10.575  1.6323 -0.2227 -2.2783
 8726SOL    HW237641   2.010   2.468  10.640  0.9566  0.3613 -0.0596
 8727SOL     OW37642   0.935   2.544   6.234 -0.0696  0.1786  1.1166
 8727SOL    HW137643   0.905   2.616   6.290 -0.1629  1.2887 -0.3755
 8727SOL    HW237644   0.858   2.524   6.181  0.0667  0.1584  0.9287
 8728SOL     OW37645   3.697   2.711   5.049 -0.1865 -0.0943 -0.1711
 8728SOL    HW137646   3.781   2.683   5.086  0.4571  1.2745 -0.6202
 8728SOL    HW237647   3.707   2.801   5.021  0.9627 -0.4246 -0.8292
 8729SOL     OW37648   3.101   4.685   4.479 -0.7509  0.3832  0.1569
 8729SOL    HW137649   3.052   4.633   4.416 -1.8941  1.1904  0.3808
 8729SOL    HW237650   3.171   4.719   4.423  1.1429 -3.0193  0.4555
 8730SOL     OW37651   3.875   4.223   8.624 -0.3012  0.2068  0.3573
 8730SOL    HW137652   3.951   4.280   8.634 -0.6710  0.6604  0.5600
 8730SOL    HW237653   3.809   4.290   8.639 -0.3105 -0.2043  2.0723
 8731SOL     OW37654   1.557   1.359   6.797 -0.0692 -0.0184  0.5930
 8731SOL    HW137655   1.516   1.328   6.716 -3.4599  2.5718  1.3110
 8731SOL    HW237656   1.571   1.452   6.779  1.6568 -0.4272 -0.1716
 8732SOL     OW37657   4.387   2.199   2.232 -0.2423 -1.0312 -0.8066
 8732SOL    HW137658   4.435   2.136   2.179  1.4433 -0.6998  0.3407
 8732SOL    HW237659   4.352   2.261   2.167  0.2615 -0.5357 -0.5989
 8733SOL     OW37660   0.087   0.624   6.623 -0.2100 -0.2833 -0.2481
 8733SOL    HW137661   0.031   0.664   6.689 -1.8141  0.2777 -1.9347
 8733SOL    HW237662   0.060   0.535   6.648  2.0718 -0.8125  0.3850
 8734SOL     OW37663   1.615   4.334   4.497 -0.4407 -0.1065  0.1353
 8734SOL    HW137664   1.625   4.428   4.514  0.0187 -0.0535 -0.4199
 8734SOL    HW237665   1.593   4.323   4.405  1.4569  0.6324 -0.4168
 8735SOL     OW37666   4.213   3.880  15.759  0.3746  0.1603 -0.6276
 8735SOL    HW137667   4.271   3.956  15.766 -2.0257  2.0593 -1.3022
 8735SOL    HW237668   4.220   3.868  15.665  0.1320  2.6105 -0.9538
 8736SOL     OW37669   0.009   2.092  12.936 -0.0805  0.5630 -0.7329
 8736SOL    HW137670   0.012   2.097  12.840 -2.8413  1.0473 -0.7884
 8736SOL    HW237671   0.067   2.017  12.952  1.2637  0.9834 -3.6164
 8737SOL     OW37672   4.089   3.104   2.427  0.0444 -0.3346 -0.2550
 8737SOL    HW137673   4.061   3.045   2.357 -1.3491 -1.1577  0.9995
 8737SOL    HW237674   4.013   3.143   2.469 -1.6409 -1.7412 -2.0045
 8738SOL     OW37675   4.406   3.961   8.137 -0.0395 -0.5387  0.5247
 8738SOL    HW137676   4.361   3.926   8.061 -0.8324 -1.4423  1.4167
 8738SOL    HW237677   4.483   3.995   8.092  0.8029  0.8027  2.9639
 8739SOL     OW37678   1.375   0.031   9.403  0.3822 -0.1692  0.1995
 8739SOL    HW137679   1.402   0.086   9.476  1.5041 -0.5331  0.0682
 8739SOL    HW237680   1.443   0.055   9.340  0.2092 -1.0930 -0.3380
 8740SOL     OW37681   1.530   3.824   9.046 -0.8914  0.0197 -0.7711
 8740SOL    HW137682   1.441   3.852   9.069 -0.6337  0.5919 -0.4664
 8740SOL    HW237683   1.573   3.806   9.130  0.7300  1.8536 -1.2215
 8741SOL     OW37684   2.273   0.720   4.021 -0.0680 -0.6466 -0.5063
 8741SOL    HW137685   2.225   0.699   4.101 -0.8609  1.2089 -0.4758
 8741SOL    HW237686   2.354   0.754   4.058 -0.8918  0.9109 -0.1037
 8742SOL     OW37687   0.222   1.702  10.026  0.1983 -0.3645 -0.4878
 8742SOL    HW137688   0.157   1.631  10.019 -0.0173 -0.2261  0.1399
 8742SOL    HW237689   0.299   1.656  10.058  0.9606  0.5869 -0.9603
 8743SOL     OW37690   0.579   3.960   5.127 -0.1280  0.3365  0.1306
 8743SOL    HW137691   0.612   4.017   5.196 -2.5347  1.5780  0.2509
 8743SOL    HW237692   0.648   3.982   5.064  0.3330  2.1322  1.2931
 8744SOL     OW37693   4.214   3.182   5.041  0.1921 -0.2410  0.2392
 8744SOL    HW137694   4.176   3.139   4.964 -0.2498  0.0644  0.2875
 8744SOL    HW237695   4.250   3.107   5.089  0.5240  0.6228  1.3288
 8745SOL     OW37696   0.640   1.423  13.985  0.1734 -0.6860  0.2597
 8745SOL    HW137697   0.664   1.346  14.038 -0.3019  0.3354  1.9605
 8745SOL    HW237698   0.713   1.419  13.923  2.5516  2.2516  2.8212
 8746SOL     OW37699   4.413   3.776   2.377  0.0433  0.1392  0.1345
 8746SOL    HW137700   4.483   3.721   2.341 -1.0700  0.2158 -2.1283
 8746SOL    HW237701   4.382   3.717   2.446 -2.1343  0.9939 -0.1153
 8747SOL     OW37702   4.060   3.372  12.601 -0.0103 -0.0424  0.3157
 8747SOL    HW137703   4.043   3.404  12.513 -0.7899 -1.3465  0.0065
 8747SOL    HW237704   4.136   3.428  12.620 -0.5716  0.4897  1.0097
 8748SOL     OW37705   0.676   4.035  17.654 -0.1852  0.1387 -0.1040
 8748SOL    HW137706   0.681   3.945  17.620  0.3511  0.3717 -0.6451
 8748SOL    HW237707   0.617   4.079  17.594  1.5947  1.4590 -0.9015
 8749SOL     OW37708   1.449   4.098   4.499  0.1278  0.1069 -0.1709
 8749SOL    HW137709   1.496   4.035   4.445 -2.3858  0.7678 -3.1425
 8749SOL    HW237710   1.515   4.167   4.503  0.3843 -0.1378 -0.1997
 8750SOL     OW37711   3.306   4.672   4.813 -0.0187 -0.2142  0.1301
 8750SOL    HW137712   3.364   0.019   4.836 -1.9234  1.8775 -1.6176
 8750SOL    HW237713   3.227   4.707   4.770  0.1310 -0.6092 -0.4676
 8751SOL     OW37714   3.278   3.156  13.739  0.2683  0.0218 -0.3205
 8751SOL    HW137715   3.333   3.083  13.769 -2.5624 -1.6901  0.6811
 8751SOL    HW237716   3.189   3.122  13.731  0.3571 -0.3321  0.1890
 8752SOL     OW37717   3.541   4.535  16.286  1.3286  0.5220 -0.5053
 8752SOL    HW137718   3.492   4.495  16.214  0.9134  1.2112 -0.6076
 8752SOL    HW237719   3.464   4.574  16.328  2.0487  1.0017  0.3839
 8753SOL     OW37720   0.470   0.328   5.329  0.2745  0.0612  0.1261
 8753SOL    HW137721   0.547   0.292   5.286  0.5087  0.9819 -0.2307
 8753SOL    HW237722   0.427   0.395   5.275  0.3965  0.1930  0.1934
 8754SOL     OW37723   2.685   1.640  14.252 -0.4264  0.0031 -0.3502
 8754SOL    HW137724   2.762   1.598  14.290  0.8873  1.5733 -1.2833
 8754SOL    HW237725   2.663   1.588  14.175 -1.0971 -0.0206 -0.1430
 8755SOL     OW37726   0.983   0.899   1.139  0.4657  0.2693 -0.2495
 8755SOL    HW137727   0.983   0.982   1.187 -0.3283  0.3560 -0.3928
 8755SOL    HW237728   1.075   0.893   1.114  0.6087 -1.8560  0.7920
 8756SOL     OW37729   0.546   1.868  17.231  0.5172 -0.4460 -0.0180
 8756SOL    HW137730   0.520   1.915  17.152 -1.3375  1.3605  1.6921
 8756SOL    HW237731   0.553   1.780  17.192 -1.3507 -0.5869 -0.0004
 8757SOL     OW37732   2.117   4.422   6.632  0.4258  0.1434 -0.6284
 8757SOL    HW137733   2.191   4.362   6.620  1.4030  1.0678  0.7808
 8757SOL    HW237734   2.074   4.426   6.547 -1.2977  0.1654  0.2590
 8758SOL     OW37735   0.450   0.197   0.816  0.3055 -0.0479  0.2484
 8758SOL    HW137736   0.390   0.244   0.875 -1.1115  0.6210 -1.7286
 8758SOL    HW237737   0.517   0.263   0.799  1.3790 -1.4508 -0.9752
 8759SOL     OW37738   3.196   2.649   0.726  0.0582  0.1176  0.4036
 8759SOL    HW137739   3.143   2.637   0.647  1.2838  1.9424 -0.7035
 8759SOL    HW237740   3.186   2.567   0.775  1.3778  0.2932  0.9617
 8760SOL     OW37741   1.034   1.355   4.782  0.2454 -0.1424  0.6155
 8760SOL    HW137742   1.012   1.433   4.731 -2.0633 -0.2088  1.5108
 8760SOL    HW237743   0.984   1.377   4.861 -0.5835  2.2614 -0.5788
 8761SOL     OW37744   0.787   3.809   7.719  0.0110 -0.0899 -0.0646
 8761SOL    HW137745   0.708   3.863   7.719  0.1179  0.0633 -0.5651
 8761SOL    HW237746   0.776   3.761   7.802  1.6298 -2.7133 -1.3741
 8762SOL     OW37747   2.732   2.443   8.282 -0.0395 -0.6465 -0.1270
 8762SOL    HW137748   2.704   2.427   8.192 -1.4990 -1.3716  0.4678
 8762SOL    HW237749   2.813   2.490   8.263 -0.6402  0.4469  0.0219
 8763SOL     OW37750   3.299   4.392  11.316 -0.0018  0.0265 -0.2029
 8763SOL    HW137751   3.288   4.427  11.228  2.5530 -0.8627 -0.8874
 8763SOL    HW237752   3.354   4.458  11.360  0.1105 -0.5069  0.4495
 8764SOL     OW37753   1.943   0.629  16.383 -0.0262  0.5281  0.1343
 8764SOL    HW137754   2.005   0.631  16.456  0.0320  0.0681  0.0966
 8764SOL    HW237755   1.921   0.536  16.386  0.0075  0.4650 -1.4283
 8765SOL     OW37756   2.244   2.923   2.736 -0.1084 -0.2824 -0.3078
 8765SOL    HW137757   2.332   2.928   2.701  0.2910  0.3624  0.7903
 8765SOL    HW237758   2.233   3.017   2.749  2.0920 -0.4133  2.4121
 8766SOL     OW37759   3.717   3.037  12.271 -0.0796  0.0694 -0.2806
 8766SOL    HW137760   3.803   3.076  12.289 -0.0508  1.0543 -2.4588
 8766SOL    HW237761   3.670   3.050  12.353  0.4805 -2.2734  0.3988
 8767SOL     OW37762   0.946   3.295   1.328  0.1153 -1.0701  0.1317
 8767SOL    HW137763   0.947   3.346   1.409  0.0228 -0.8809  0.0150
 8767SOL    HW237764   0.880   3.227   1.344 -2.2209  1.0648 -0.4409
 8768SOL     OW37765   0.397   2.755   1.153  0.0818  0.3228 -0.0482
 8768SOL    HW137766   0.375   2.724   1.065 -0.8337  2.8602 -0.7111
 8768SOL    HW237767   0.331   2.705   1.200  0.4584 -1.4717 -1.4184
 8769SOL     OW37768   0.212   0.577   0.670  0.3223 -0.1520 -0.1165
 8769SOL    HW137769   0.246   0.630   0.742  0.8268  1.1466 -1.3357
 8769SOL    HW237770   0.120   0.593   0.694  0.3886  0.5119 -0.3212
 8770SOL     OW37771   3.179   3.761   5.052 -0.0756 -0.6589  0.2174
 8770SOL    HW137772   3.267   3.725   5.047  0.3021  0.1435  1.1025
 8770SOL    HW237773   3.133   3.696   5.106  0.5760 -0.4406  1.0377
 8771SOL     OW37774   1.691   2.678   7.437  0.2591  0.2033  0.0050
 8771SOL    HW137775   1.614   2.718   7.479 -0.8812 -0.9931 -0.9398
 8771SOL    HW237776   1.739   2.758   7.416  0.1038  1.1395  3.0831
 8772SOL     OW37777   3.835   0.595   8.286  0.3303  0.4310  0.3127
 8772SOL    HW137778   3.883   0.650   8.224 -3.6120  0.4709 -2.7155
 8772SOL    HW237779   3.896   0.600   8.359 -0.5193  1.3531  0.9697
 8773SOL     OW37780   1.549   1.158  13.732  0.1805  0.6516 -0.3319
 8773SOL    HW137781   1.594   1.097  13.790 -1.4785 -0.7372 -0.5105
 8773SOL    HW237782   1.477   1.098  13.714  3.1396 -2.8305 -0.5834
 8774SOL     OW37783   1.765   4.153  13.332 -0.3904 -0.0223  0.6131
 8774SOL    HW137784   1.773   4.147  13.427  0.3865 -1.3196  0.4755
 8774SOL    HW237785   1.741   4.244  13.318  0.1355  0.1159  0.5922
 8775SOL     OW37786   4.643   3.334  10.837  0.1337 -0.2469 -0.1940
 8775SOL    HW137787   4.710   3.361  10.900 -1.6680  2.2544  0.6081
 8775SOL    HW237788   4.606   3.252  10.870  0.0351 -0.6008 -1.1816
 8776SOL     OW37789   0.063   4.380   7.123 -0.0991  0.0709 -0.6709
 8776SOL    HW137790   0.129   4.311   7.117  1.7204  1.6233  1.2138
 8776SOL    HW237791   0.085   4.418   7.209 -1.1489  0.5693 -0.6199
 8777SOL     OW37792   3.344   3.498   6.488 -0.4416  0.5371 -0.0825
 8777SOL    HW137793   3.264   3.550   6.483 -1.3600 -0.8319  0.3114
 8777SOL    HW237794   3.325   3.448   6.567  3.5099 -1.4449 -0.3819
 8778SOL     OW37795   1.655   2.041   2.800  0.2943  0.3122  0.0173
 8778SOL    HW137796   1.576   2.089   2.776  0.0445 -0.0572  0.1182
 8778SOL    HW237797   1.723   2.087   2.751  1.8965 -2.4080 -0.3144
 8779SOL     OW37798   4.565   1.675   7.971  0.0567 -0.2522 -0.1123
 8779SOL    HW137799   4.493   1.729   7.937 -0.2772  0.1576  1.2428
 8779SOL    HW237800   4.534   1.587   7.949  1.0559 -0.4176 -0.8606
 8780SOL     OW37801   4.356   2.645   6.811  0.3392  0.3079 -0.0600
 8780SOL    HW137802   4.442   2.683   6.829 -1.3206  2.6445  2.9679
 8780SOL    HW237803   4.325   2.705   6.744  2.3734 -0.7122 -1.9191
 8781SOL     OW37804   1.208   0.778   3.521 -0.0549  0.1479  0.0084
 8781SOL    HW137805   1.195   0.730   3.603  4.2477  1.0549  1.2090
 8781SOL    HW237806   1.136   0.842   3.518  1.2453  1.5529 -1.0794
 8782SOL     OW37807   1.534   3.312   5.962 -0.0537 -0.3229  0.5797
 8782SOL    HW137808   1.550   3.258   6.039 -1.6113 -1.3058  0.2193
 8782SOL    HW237809   1.522   3.243   5.897 -1.0384 -0.5411  0.9882
 8783SOL     OW37810   2.062   2.419   4.049  0.1324  0.1489  0.6892
 8783SOL    HW137811   2.042   2.338   4.002 -1.4393  1.0645 -0.1941
 8783SOL    HW237812   1.973   2.445   4.070  1.0244  1.9887  2.1609
 8784SOL     OW37813   4.376   3.384  16.312 -0.1826 -0.3854  0.4227
 8784SOL    HW137814   4.374   3.309  16.372  1.3185 -1.0078 -0.3050
 8784SOL    HW237815   4.465   3.369  16.280  0.1602  1.3105  0.5934
 8785SOL     OW37816   4.658   0.878  11.542 -0.0428  0.1043 -0.0185
 8785SOL    HW137817   4.676   0.876  11.448  1.0771 -0.2337  0.2032
 8785SOL    HW237818   4.613   0.793  11.541 -0.1416  0.1557  1.7076
 8786SOL     OW37819   3.513   1.033  17.433  0.0799  0.0261 -0.1828
 8786SOL    HW137820   3.581   1.025  17.501 -0.5882 -1.3145  0.3127
 8786SOL    HW237821   3.439   1.041  17.493  1.0767  3.1893  0.6587
 8787SOL     OW37822   0.960   2.940   4.079 -0.7922  0.0543 -0.3607
 8787SOL    HW137823   0.940   2.867   4.019 -0.6833 -2.2876  2.4346
 8787SOL    HW237824   1.024   2.901   4.138  0.5750  0.9021 -1.2771
 8788SOL     OW37825   4.097   0.918   9.693  0.5496  0.1322 -0.2793
 8788SOL    HW137826   4.055   0.844   9.648  0.6128 -0.2008  0.2156
 8788SOL    HW237827   4.188   0.888   9.691  0.6924  0.6978 -2.9962
 8789SOL     OW37828   3.820   0.036  17.257 -0.4842 -0.5767 -0.5521
 8789SOL    HW137829   3.756   0.095  17.296  0.9529  0.3220  0.4382
 8789SOL    HW237830   3.813   4.684  17.313  0.8685 -0.3210 -0.0313
 8790SOL     OW37831   1.960   4.468   1.110 -0.3880  0.0616 -0.4389
 8790SOL    HW137832   1.983   4.491   1.020 -2.7285 -0.1296 -1.0765
 8790SOL    HW237833   1.888   4.408   1.091  1.4408 -1.9510 -0.9959
 8791SOL     OW37834   3.754   3.962   2.218 -0.1879 -0.3073 -0.1174
 8791SOL    HW137835   3.832   4.007   2.186 -0.2177 -0.1744 -0.0045
 8791SOL    HW237836   3.788   3.937   2.304 -0.7822 -1.3345 -0.1729
 8792SOL     OW37837   4.432   2.490  13.141 -0.0186  0.9938  0.7364
 8792SOL    HW137838   4.427   2.463  13.049 -1.2158  1.2808  0.7226
 8792SOL    HW237839   4.345   2.524  13.162 -1.2971 -1.8064 -0.0044
 8793SOL     OW37840   2.952   4.456   6.704 -0.2080 -0.2260 -0.5026
 8793SOL    HW137841   2.955   4.549   6.726  0.1572 -0.3560 -0.0051
 8793SOL    HW237842   2.879   4.453   6.642 -0.4433  3.2765 -0.3870
 8794SOL     OW37843   0.282   2.789   5.809  0.1988 -0.3947 -0.3852
 8794SOL    HW137844   0.275   2.792   5.714 -0.6644  0.8555 -0.2806
 8794SOL    HW237845   0.369   2.749   5.809 -0.4162 -1.7338  0.4942
 8795SOL     OW37846   3.930   0.715   4.138  0.2255 -0.0743 -0.6462
 8795SOL    HW137847   3.929   0.724   4.043 -0.4547  0.4123 -0.6024
 8795SOL    HW237848   3.936   0.622   4.159 -0.7846  0.3523  1.6520
 8796SOL     OW37849   0.002   2.464   2.823  0.6686  0.1270  0.0523
 8796SOL    HW137850   4.673   2.402   2.774  2.1223 -0.1079 -1.2489
 8796SOL    HW237851   0.087   2.461   2.779  1.2533  0.2323  1.1619
 8797SOL     OW37852   0.157   0.064   3.109  0.1658 -0.2545  0.0194
 8797SOL    HW137853   0.148   0.034   3.200  0.6818 -0.0357  0.1441
 8797SOL    HW237854   0.107   0.146   3.107 -1.3393 -1.1969 -0.6609
 8798SOL     OW37855   3.606   0.519   7.295 -0.1160 -0.0764 -0.8257
 8798SOL    HW137856   3.667   0.571   7.243 -0.0209  0.5572 -0.0840
 8798SOL    HW237857   3.538   0.581   7.323 -2.6321 -2.8839 -0.6952
 8799SOL     OW37858   3.371   3.326  12.025 -0.1506  0.0671 -0.3041
 8799SOL    HW137859   3.403   3.390  11.962 -0.0227  0.5673  0.2610
 8799SOL    HW237860   3.460   3.298  12.048 -0.2917  1.0920  1.5122
 8800SOL     OW37861   4.119   1.750  13.894 -0.3348 -0.6005  0.1240
 8800SOL    HW137862   4.181   1.678  13.884  1.8555  1.0090  1.9414
 8800SOL    HW237863   4.169   1.806  13.954 -0.9279  0.1563 -0.0779
 8801SOL     OW37864   2.148   1.236   1.902 -0.1956  0.0426 -0.0085
 8801SOL    HW137865   2.239   1.242   1.931 -0.0838 -1.7354 -0.0034
 8801SOL    HW237866   2.151   1.294   1.826  1.7148  0.0467  0.0546
 8802SOL     OW37867   0.716   2.705  12.132  0.0322 -0.6023  0.2465
 8802SOL    HW137868   0.761   2.743  12.057  0.3898 -0.3690  0.5808
 8802SOL    HW237869   0.710   2.779  12.193 -1.5486  0.4562 -1.1805
 8803SOL     OW37870   0.485   0.513   6.104 -0.4183  0.3803  0.5103
 8803SOL    HW137871   0.463   0.599   6.140 -0.5163 -0.4063  2.3353
 8803SOL    HW237872   0.457   0.455   6.175 -0.3864 -4.1233 -3.2004
 8804SOL     OW37873   2.495   2.759  13.518 -0.1515  0.3990 -0.0751
 8804SOL    HW137874   2.485   2.670  13.552  0.8855 -0.7399 -2.7237
 8804SOL    HW237875   2.407   2.794  13.506  0.2268 -0.0179 -3.9122
 8805SOL     OW37876   3.445   2.327  16.741 -0.3659 -0.3161  0.0512
 8805SOL    HW137877   3.456   2.257  16.678  2.2785  0.2949 -0.1866
 8805SOL    HW237878   3.434   2.406  16.688 -0.2099 -0.9526 -0.9184
 8806SOL     OW37879   0.539   3.189   8.773 -0.0146 -0.1350  0.4956
 8806SOL    HW137880   0.615   3.170   8.828 -0.4948 -0.7992  0.9270
 8806SOL    HW237881   0.527   3.100   8.740 -0.0631 -0.1786  0.6317
 8807SOL     OW37882   0.079   2.462   6.455  0.3546  0.0880 -0.1873
 8807SOL    HW137883   0.172   2.447   6.441  0.2818  0.6959 -1.3318
 8807SOL    HW237884   0.070   2.533   6.391 -0.0143  0.1326 -0.0876
 8808SOL     OW37885   2.259   0.093   2.113  0.0109 -0.2970  0.3486
 8808SOL    HW137886   2.271   0.081   2.018 -0.1309 -1.0887  0.4304
 8808SOL    HW237887   2.272   0.006   2.151 -0.5171 -0.4306  0.2240
 8809SOL     OW37888   1.491   4.339   7.100 -0.1182  0.1114  0.4000
 8809SOL    HW137889   1.428   4.406   7.074 -1.2700 -1.6145 -1.2284
 8809SOL    HW237890   1.540   4.388   7.166  0.8067 -0.5408  0.1888
 8810SOL     OW37891   0.284   3.331   2.991  0.0335  0.2801  0.7029
 8810SOL    HW137892   0.277   3.359   3.082  3.7165 -1.9809  1.6941
 8810SOL    HW237893   0.193   3.333   2.962 -0.2218  1.5351  1.5866
 8811SOL     OW37894   4.126   3.292   9.252 -0.0200  0.0756 -0.0318
 8811SOL    HW137895   4.083   3.273   9.335 -1.9918 -1.9817 -1.4999
 8811SOL    HW237896   4.208   3.243   9.256 -0.4563 -0.5153  1.5400
 8812SOL     OW37897   2.778   3.732   4.861 -0.1025  0.6083 -0.5908
 8812SOL    HW137898   2.714   3.798   4.886 -1.5321 -1.7427  2.0172
 8812SOL    HW237899   2.717   3.682   4.808 -0.4569  1.2821 -0.8156
 8813SOL     OW37900   2.122   0.974   2.518 -0.4764  0.1321 -0.3873
 8813SOL    HW137901   2.153   0.905   2.576 -4.6245 -0.6883  0.8730
 8813SOL    HW237902   2.054   1.010   2.575  0.2050 -1.2095  1.2823
 8814SOL     OW37903   2.725   4.712  16.950  0.2861  0.5701  0.3764
 8814SOL    HW137904   2.744   4.650  17.021  0.3815 -2.3463 -2.2320
 8814SOL    HW237905   2.789   0.048  16.988  0.4439  0.4501  0.3054
 8815SOL     OW37906   2.046   3.393   1.849  0.2752 -0.1706  0.2378
 8815SOL    HW137907   2.050   3.420   1.757  0.6016 -0.8782  0.0494
 8815SOL    HW237908   1.979   3.325   1.836  1.9518 -1.9811  1.1212
 8816SOL     OW37909   2.815   4.428   4.132  0.3391 -0.6135  0.2573
 8816SOL    HW137910   2.819   4.367   4.058  0.2043 -2.3568  1.6729
 8816SOL    HW237911   2.737   4.475   4.103  0.3684 -0.3590  0.5981
 8817SOL     OW37912   2.271   4.528   1.733  0.2388 -0.3214 -0.2233
 8817SOL    HW137913   2.187   4.574   1.732  0.4775  0.1267  0.7279
 8817SOL    HW237914   2.329   4.590   1.777 -0.4516  1.6298 -2.0835
 8818SOL     OW37915   4.012   0.687   8.108  0.5002 -0.3920  0.0669
 8818SOL    HW137916   4.072   0.759   8.131  0.9850 -0.6589 -0.3707
 8818SOL    HW237917   4.064   0.618   8.067  0.7247 -0.0177 -0.2773
 8819SOL     OW37918   3.427   1.447   7.116  0.0860  0.2875 -0.4756
 8819SOL    HW137919   3.456   1.359   7.092  0.0638  0.3447 -0.7151
 8819SOL    HW237920   3.421   1.485   7.029  1.3772 -2.7938 -1.9169
 8820SOL     OW37921   2.934   0.167   1.253  0.7843 -0.0820 -0.3958
 8820SOL    HW137922   3.009   0.108   1.261 -0.3851 -1.2154  2.0993
 8820SOL    HW237923   2.868   0.107   1.219  0.1311 -0.3538  1.3541
 8821SOL     OW37924   4.360   3.269   2.726  0.0311  0.2310  0.1581
 8821SOL    HW137925   4.319   3.242   2.808 -0.2927 -2.3209 -0.8263
 8821SOL    HW237926   4.443   3.220   2.726 -0.9760 -1.4751  1.5475
 8822SOL     OW37927   2.482   2.478  16.379  0.3363  0.3463 -0.0457
 8822SOL    HW137928   2.524   2.558  16.409 -1.0574  1.7564 -1.8123
 8822SOL    HW237929   2.559   2.425  16.360 -0.0414 -0.2948  0.2155
 8823SOL     OW37930   3.742   0.670   5.878 -0.3230 -0.0816  0.7202
 8823SOL    HW137931   3.718   0.703   5.791  1.1304 -1.7892 -0.3166
 8823SOL    HW237932   3.786   0.586   5.868  2.1425  1.2813 -0.0074
 8824SOL     OW37933   1.846   1.550   3.037 -0.1148  0.2566  0.0290
 8824SOL    HW137934   1.758   1.514   3.043  0.8415 -2.1876 -0.5984
 8824SOL    HW237935   1.852   1.597   2.954 -2.0831  2.8169  1.3385
 8825SOL     OW37936   3.590   3.225   8.824  0.1975  0.0124  0.6457
 8825SOL    HW137937   3.591   3.318   8.844  1.8320 -0.0587  0.8569
 8825SOL    HW237938   3.623   3.236   8.735  1.8128 -1.3707  1.0726
 8826SOL     OW37939   2.168   2.881   4.840 -0.4592 -0.1038 -0.5969
 8826SOL    HW137940   2.204   2.948   4.898 -1.6354 -0.9390  1.0831
 8826SOL    HW237941   2.109   2.931   4.784 -1.6254 -1.6279 -0.7204
 8827SOL     OW37942   1.068   4.267   4.854  0.3690  0.5240 -0.4196
 8827SOL    HW137943   1.095   4.275   4.945 -3.9979  1.4168  0.8121
 8827SOL    HW237944   0.985   4.314   4.856  0.1962  0.1344  1.1729
 8828SOL     OW37945   1.241   1.124  17.403  0.7349 -0.0484  0.8256
 8828SOL    HW137946   1.306   1.193  17.415 -0.7055  1.2691  1.2160
 8828SOL    HW237947   1.238   1.104  17.497 -1.1027 -0.6148  0.6441
 8829SOL     OW37948   3.560   4.499  15.206  0.1284  0.4811  0.3476
 8829SOL    HW137949   3.508   4.533  15.278  0.7130 -3.0402  2.4272
 8829SOL    HW237950   3.644   4.477  15.246  0.9396  1.8811 -0.5776
 8830SOL     OW37951   1.725   2.724  16.027  0.0041 -0.1440 -0.6327
 8830SOL    HW137952   1.735   2.628  16.026 -2.8075 -0.4583  1.2507
 8830SOL    HW237953   1.803   2.757  15.982  0.3001  1.4418  1.0713
 8831SOL     OW37954   1.200   3.586   9.543  0.1659  0.0535  0.9180
 8831SOL    HW137955   1.152   3.532   9.480  3.1962  0.2098 -1.5602
 8831SOL    HW237956   1.259   3.518   9.577 -2.5133 -1.2190  3.0061
 8832SOL     OW37957   4.382   3.852  12.484 -0.4207 -0.3547  0.1917
 8832SOL    HW137958   4.398   3.833  12.576  0.1819 -1.0430 -0.0465
 8832SOL    HW237959   4.387   3.947  12.480  1.8973 -0.5135 -1.2157
 8833SOL     OW37960   3.017   0.959   9.347  0.5370 -1.0901  0.2166
 8833SOL    HW137961   2.927   0.938   9.374  0.4852  2.5199  2.7752
 8833SOL    HW237962   3.003   1.036   9.292 -0.0997 -1.1258  0.3252
 8834SOL     OW37963   3.387   0.186   8.329  0.1951  0.5907 -0.4808
 8834SOL    HW137964   3.378   0.098   8.367 -1.2470  1.1683  0.5183
 8834SOL    HW237965   3.475   0.214   8.353  0.8355 -1.0128 -0.9771
 8835SOL     OW37966   2.401   4.114   4.003  0.3930  0.1870  0.7495
 8835SOL    HW137967   2.351   4.064   4.068 -0.0798  0.0234  0.2587
 8835SOL    HW237968   2.409   4.055   3.927 -2.3432  1.5810 -0.5952
 8836SOL     OW37969   3.664   2.119   6.173  1.0120 -0.2673 -0.0547
 8836SOL    HW137970   3.720   2.133   6.097  3.1119 -0.1339  1.5243
 8836SOL    HW237971   3.640   2.026   6.169 -2.5363  0.6195  0.2676
 8837SOL     OW37972   2.265   4.160   6.883  0.0747  0.0838 -0.1607
 8837SOL    HW137973   2.281   4.254   6.893 -0.7629 -0.0585  2.4222
 8837SOL    HW237974   2.325   4.123   6.947 -0.5655 -1.5517 -0.5210
 8838SOL     OW37975   3.681   0.747  10.948  0.0316 -1.0243 -0.3547
 8838SOL    HW137976   3.715   0.833  10.922 -0.1888 -2.1204 -4.3780
 8838SOL    HW237977   3.747   0.688  10.912  1.1086  0.2197 -0.4613
 8839SOL     OW37978   2.743   1.259   1.462  0.6468  0.1967  0.4493
 8839SOL    HW137979   2.771   1.263   1.371 -2.8855 -0.0728 -0.6462
 8839SOL    HW237980   2.649   1.247   1.448  0.6860  0.7227 -0.2556
 8840SOL     OW37981   4.070   4.542   9.844 -0.1571 -0.1844  0.5708
 8840SOL    HW137982   3.992   4.520   9.894 -0.8684 -0.3817 -0.6185
 8840SOL    HW237983   4.061   4.503   9.757  0.4095 -0.2044  0.5222
 8841SOL     OW37984   0.064   0.750   7.439 -0.3014  0.0119 -0.1967
 8841SOL    HW137985   0.058   0.677   7.501  0.0960  1.0175  1.0447
 8841SOL    HW237986   0.153   0.783   7.445 -1.3508  2.5440  1.2805
 8842SOL     OW37987   0.908   2.693  11.900  0.1332 -0.3920  0.2055
 8842SOL    HW137988   0.896   2.605  11.864  1.1119 -0.8073  0.9023
 8842SOL    HW237989   0.985   2.716  11.848  0.6611  3.1050  2.5215
 8843SOL     OW37990   4.624   1.557   4.650  0.4386  0.0615  0.3602
 8843SOL    HW137991   4.534   1.564   4.681  0.3756 -0.7810  0.3618
 8843SOL    HW237992   4.609   1.494   4.579 -1.9028 -1.1234  1.9289
 8844SOL     OW37993   2.795   3.478   6.985 -0.4617  0.4825 -0.4543
 8844SOL    HW137994   2.718   3.452   7.036  0.0655 -1.3534 -0.6234
 8844SOL    HW237995   2.860   3.489   7.054 -0.0199 -1.1241 -0.6156
 8845SOL     OW37996   2.439   1.501   2.971 -0.4212 -0.5077  0.3458
 8845SOL    HW137997   2.351   1.488   3.005 -0.3128  0.9517  1.1829
 8845SOL    HW237998   2.434   1.584   2.925  0.2277 -1.0529 -0.7111
 8846SOL     OW37999   0.100   2.070   9.938  0.0641  0.3583  0.0018
 8846SOL    HW138000   0.029   2.109   9.990 -1.1726 -0.0078 -1.4314
 8846SOL    HW238001   0.091   2.109   9.852  0.3560  0.2355 -0.0843
 8847SOL     OW38002   1.200   0.351   2.604 -0.0670  0.4928 -0.3509
 8847SOL    HW138003   1.243   0.266   2.593 -0.6294  0.3306 -1.2587
 8847SOL    HW238004   1.189   0.397   2.521  0.9911  0.7374 -0.3593
 8848SOL     OW38005   1.929   3.680   3.250 -0.3588  0.0810 -0.6743
 8848SOL    HW138006   1.881   3.756   3.217  3.3115  2.3508 -0.7121
 8848SOL    HW238007   1.988   3.652   3.181  0.7384 -2.5127  1.2892
 8849SOL     OW38008   3.081   2.190   3.278  0.1889  0.0488  0.0844
 8849SOL    HW138009   3.038   2.274   3.260 -1.4788 -0.7554  0.3526
 8849SOL    HW238010   3.022   2.129   3.234 -0.1257  0.6285 -0.3108
 8850SOL     OW38011   1.471   2.037   5.876  0.2489 -0.0887 -0.4218
 8850SOL    HW138012   1.396   2.026   5.934 -1.4692 -1.4529 -2.8639
 8850SOL    HW238013   1.533   1.994   5.934  0.5639 -0.2476 -0.8788
 8851SOL     OW38014   0.105   0.773   3.845  0.6410  0.4042 -0.4393
 8851SOL    HW138015   0.152   0.779   3.928 -0.2311 -1.6859  0.2093
 8851SOL    HW238016   0.185   0.772   3.792 -0.3161  0.7427 -1.8964
 8852SOL     OW38017   3.042   0.497   3.598 -0.2703  0.0313  1.0623
 8852SOL    HW138018   2.959   0.505   3.550 -0.4586 -1.9601  1.0389
 8852SOL    HW238019   3.020   0.553   3.672 -2.2016 -0.0246  0.5441
 8853SOL     OW38020   3.384   4.067   7.238  0.8781  0.1134 -0.1291
 8853SOL    HW138021   3.353   4.137   7.180  3.9459  0.8200 -0.9025
 8853SOL    HW238022   3.320   4.062   7.309  1.1200 -0.6639  0.0271
 8854SOL     OW38023   1.352   1.985   6.403 -0.0906 -0.1422 -0.1662
 8854SOL    HW138024   1.389   2.033   6.329 -2.4259  1.4690 -0.3229
 8854SOL    HW238025   1.394   2.028   6.478  0.1580  0.9346 -0.9229
 8855SOL     OW38026   0.797   1.506   0.865 -0.0654  0.0926  0.3470
 8855SOL    HW138027   0.882   1.506   0.909 -1.3823  0.1120  2.9095
 8855SOL    HW238028   0.817   1.518   0.772 -3.9603  0.6001 -0.4210
 8856SOL     OW38029   1.112   0.256   6.424 -0.2964  0.1165 -0.3785
 8856SOL    HW138030   1.146   0.229   6.338 -0.8346  0.4069 -0.6791
 8856SOL    HW238031   1.017   0.252   6.412 -0.2591  1.3819 -1.1568
 8857SOL     OW38032   0.099   3.756   8.902 -0.3401 -0.1543  0.6153
 8857SOL    HW138033   0.044   3.762   8.979  0.7020  1.0401  1.2701
 8857SOL    HW238034   0.047   3.795   8.832  0.5845  1.8422  1.0527
 8858SOL     OW38035   3.966   0.225  14.780 -0.2218 -0.0376 -0.2303
 8858SOL    HW138036   3.876   0.193  14.780  0.0836 -0.9088  2.3539
 8858SOL    HW238037   3.990   0.213  14.688  1.1978 -0.0289  0.1306
 8859SOL     OW38038   1.328   3.178   8.544 -0.2194  0.1381 -0.2784
 8859SOL    HW138039   1.250   3.135   8.508 -0.0765  0.5334 -1.0504
 8859SOL    HW238040   1.395   3.151   8.481  0.7732  3.8881 -0.8529
 8860SOL     OW38041   0.309   3.148  13.101 -0.4417 -0.3799  0.1667
 8860SOL    HW138042   0.238   3.209  13.121  0.5287  0.9532 -0.4362
 8860SOL    HW238043   0.309   3.152  13.005  0.1861  0.7463  0.2020
 8861SOL     OW38044   3.395   3.129  12.796 -0.5987  0.3409 -0.3243
 8861SOL    HW138045   3.433   3.214  12.818  0.4959  0.1781 -1.5995
 8861SOL    HW238046   3.317   3.148  12.744 -0.7724  0.1071 -0.1518
 8862SOL     OW38047   2.099   0.367   6.627  0.4117  0.3959  0.5255
 8862SOL    HW138048   2.122   0.342   6.716  1.4724  0.0931  0.1667
 8862SOL    HW238049   2.039   0.441   6.638  0.1992  0.4823 -1.2492
 8863SOL     OW38050   0.373   4.674   5.298  0.3144 -0.4253 -0.0619
 8863SOL    HW138051   0.296   4.718   5.332  1.0122  0.6224  0.1604
 8863SOL    HW238052   0.441   0.010   5.327 -0.1164 -0.5573  1.2255
 8864SOL     OW38053   2.990   4.489   6.364  0.3475 -0.2097 -0.6438
 8864SOL    HW138054   2.944   4.567   6.334 -1.0078 -0.8744 -0.2769
 8864SOL    HW238055   2.923   4.467   6.429  3.3654 -2.2514  1.7849
 8865SOL     OW38056   3.200   2.996   4.818 -0.0352 -0.1133 -1.0039
 8865SOL    HW138057   3.156   3.080   4.830 -3.0681 -1.4072 -3.2474
 8865SOL    HW238058   3.115   2.955   4.805 -0.4584  0.7514 -0.9912
 8866SOL     OW38059   3.279   1.803   8.006 -0.3924 -0.5040  0.2109
 8866SOL    HW138060   3.323   1.851   7.936 -0.8027  1.4122  1.2830
 8866SOL    HW238061   3.351   1.794   8.069 -0.3591  2.4021  0.5871
 8867SOL     OW38062   0.676   3.620   2.419 -0.0970 -0.4299 -0.1901
 8867SOL    HW138063   0.691   3.589   2.508 -1.4183  0.3894  0.3271
 8867SOL    HW238064   0.750   3.578   2.375  1.5183  1.0830  1.0626
 8868SOL     OW38065   3.360   0.676  10.080  0.2063 -0.4871 -0.4070
 8868SOL    HW138066   3.291   0.743  10.085  1.4398  0.8620 -1.5855
 8868SOL    HW238067   3.378   0.667  10.173  2.3121  0.1181 -0.7636
 8869SOL     OW38068   4.034   3.862   6.812  0.4388 -0.3560 -0.2437
 8869SOL    HW138069   3.950   3.840   6.852  1.0129 -1.5656  0.2860
 8869SOL    HW238070   4.058   3.937   6.867 -0.6029 -1.3514  1.5443
 8870SOL     OW38071   4.563   3.213   1.980 -0.3710 -0.0599 -0.1482
 8870SOL    HW138072   4.522   3.206   2.066  1.8172  0.1122  0.9053
 8870SOL    HW238073   4.512   3.279   1.933  0.3820  1.0032  0.5362
 8871SOL     OW38074   1.885   3.259   0.543  0.1659 -0.0088  0.4323
 8871SOL    HW138075   1.907   3.172   0.510 -1.5833 -0.1197 -0.4817
 8871SOL    HW238076   1.794   3.248   0.572 -0.0765 -0.9962 -0.7127
 8872SOL     OW38077   1.675   0.259   2.186  0.3727  0.3815 -0.4285
 8872SOL    HW138078   1.596   0.312   2.194 -0.9665 -1.7790  0.6059
 8872SOL    HW238079   1.717   0.305   2.258  2.7356 -1.9550 -0.3092
 8873SOL     OW38080   3.323   2.848   6.532 -0.1000  0.4478 -0.4401
 8873SOL    HW138081   3.357   2.759   6.546  3.2514  2.1378  2.3302
 8873SOL    HW238082   3.243   2.843   6.584  0.2809  0.2612  0.1254
 8874SOL     OW38083   3.732   0.312   4.983  0.8366  1.1271  0.4653
 8874SOL    HW138084   3.780   0.373   4.927  2.0984  0.9544  1.3630
 8874SOL    HW238085   3.657   0.293   4.926  0.2117  2.2649  0.9033
 8875SOL     OW38086   0.488   4.565   2.731  0.0048 -0.0008  0.4257
 8875SOL    HW138087   0.437   4.484   2.739 -0.8295  0.3998 -0.7055
 8875SOL    HW238088   0.576   4.533   2.748  0.4376  0.8202 -0.2623
 8876SOL     OW38089   0.673   0.585   4.689  0.4766  1.0577 -0.4839
 8876SOL    HW138090   0.717   0.593   4.605 -0.2743  1.1915 -0.8697
 8876SOL    HW238091   0.742   0.606   4.751  0.1177 -0.4296  0.4242
 8877SOL     OW38092   0.575   0.704  12.726 -0.0477 -0.9819 -0.0659
 8877SOL    HW138093   0.503   0.716  12.664  2.1028 -2.1799 -2.7530
 8877SOL    HW238094   0.625   0.783  12.706 -1.8346  0.7770  2.3234
 8878SOL     OW38095   2.681   2.110  12.795 -0.5365 -0.1273 -0.4593
 8878SOL    HW138096   2.663   2.055  12.718 -2.1157 -0.6417  0.2710
 8878SOL    HW238097   2.717   2.046  12.856 -0.6696  0.3605  0.1218
 8879SOL     OW38098   2.406   0.399   4.588 -0.5992 -0.1943  0.1014
 8879SOL    HW138099   2.490   0.369   4.553 -0.5781 -1.2261  1.0190
 8879SOL    HW238100   2.357   0.316   4.587  1.2673 -1.3247  1.2079
 8880SOL     OW38101   4.098   3.664   9.781 -0.5403 -0.4924 -0.6871
 8880SOL    HW138102   4.120   3.588   9.834  1.4701  2.3164  2.4530
 8880SOL    HW238103   4.157   3.730   9.815 -0.2303 -0.4508 -1.2955
 8881SOL     OW38104   2.030   4.462  12.758 -0.4079 -0.0089  0.2370
 8881SOL    HW138105   2.034   4.497  12.847 -1.5488 -0.0056  0.2914
 8881SOL    HW238106   2.102   4.513  12.722  1.4031 -1.2559  2.1198
 8882SOL     OW38107   3.518   3.199   3.551  0.1232  0.0666 -0.4607
 8882SOL    HW138108   3.530   3.173   3.460 -1.3093  0.5133 -0.7833
 8882SOL    HW238109   3.587   3.148   3.593 -1.9857 -1.1768  1.4878
 8883SOL     OW38110   0.025   0.940   3.041 -0.4035 -0.1545 -0.3391
 8883SOL    HW138111   4.666   0.985   3.051 -0.8921 -1.4568  1.4768
 8883SOL    HW238112   0.020   0.906   2.952 -0.7855 -0.5054 -0.1813
 8884SOL     OW38113   3.040   3.382   8.790 -0.0200  0.1900 -0.1574
 8884SOL    HW138114   2.965   3.427   8.750 -1.3368 -1.2155  0.7389
 8884SOL    HW238115   3.020   3.392   8.883  1.1637 -2.1934  0.3475
 8885SOL     OW38116   1.163   0.306   5.178 -0.0481  0.2607  0.4949
 8885SOL    HW138117   1.127   0.395   5.172  1.6901  0.8720 -0.6383
 8885SOL    HW238118   1.082   0.255   5.175  0.3246 -0.4453  2.4695
 8886SOL     OW38119   3.568   3.921  11.595 -0.1994 -0.5192  0.1418
 8886SOL    HW138120   3.479   3.915  11.562 -0.2890 -2.5206  0.7518
 8886SOL    HW238121   3.603   3.954  11.512 -1.6513 -0.6398 -0.5185
 8887SOL     OW38122   4.439   3.669   4.061  0.6330  0.5910 -0.1404
 8887SOL    HW138123   4.423   3.728   3.987  0.6423 -0.8629 -1.2792
 8887SOL    HW238124   4.513   3.613   4.038 -0.7377 -0.8972 -0.9212
 8888SOL     OW38125   0.891   1.885   4.403 -0.2338 -0.1125 -0.6335
 8888SOL    HW138126   0.871   1.795   4.426  0.9922 -0.4869 -1.0375
 8888SOL    HW238127   0.817   1.920   4.353  1.1893  2.0129 -1.2597
 8889SOL     OW38128   0.562   0.604   6.951 -0.1383  0.6152 -0.4565
 8889SOL    HW138129   0.631   0.562   6.900 -0.2911  0.3733 -0.4646
 8889SOL    HW238130   0.487   0.601   6.891 -0.4548 -0.7661 -0.0041
 8890SOL     OW38131   1.275   1.016   7.654 -0.3704 -0.0600  0.4874
 8890SOL    HW138132   1.303   0.947   7.713  3.2118  2.9178  2.2653
 8890SOL    HW238133   1.336   1.086   7.677  0.5675 -0.4445 -0.8272
 8891SOL     OW38134   3.632   0.157  13.316 -0.7302 -0.1169 -0.1740
 8891SOL    HW138135   3.698   0.190  13.376  1.6739 -2.1984 -1.6637
 8891SOL    HW238136   3.697   0.128  13.252  2.5009  0.0320  3.0549
 8892SOL     OW38137   3.412   1.038   2.890 -0.1465 -0.0902 -0.1122
 8892SOL    HW138138   3.376   0.976   2.953  0.0064  1.0210  1.0683
 8892SOL    HW238139   3.489   0.984   2.873  1.0808  2.5198 -2.9116
 8893SOL     OW38140   0.225   2.830   6.930 -0.1854 -0.4081 -0.4180
 8893SOL    HW138141   0.236   2.885   7.007 -0.6398 -1.6846  0.5544
 8893SOL    HW238142   0.279   2.759   6.965  1.7417  1.9612  1.3807
 8894SOL     OW38143   0.804   1.190  14.073  0.0526 -0.2396  0.2592
 8894SOL    HW138144   0.873   1.223  14.130 -0.3436  0.2531  0.4499
 8894SOL    HW238145   0.780   1.113  14.125 -1.4289  0.5082  0.6959
 8895SOL     OW38146   4.320   2.620   4.712 -0.2134  0.1520  0.2530
 8895SOL    HW138147   4.246   2.605   4.653 -0.1494 -3.3092  1.0098
 8895SOL    HW238148   4.352   2.530   4.718 -2.8106 -0.8416 -0.6643
 8896SOL     OW38149   0.184   2.155  15.535  0.2341  0.0889 -0.1998
 8896SOL    HW138150   0.097   2.118  15.523  0.5963  0.0535 -2.7537
 8896SOL    HW238151   0.245   2.087  15.506 -0.3530 -1.0729  1.3328
 8897SOL     OW38152   3.709   3.294   8.424 -0.3432 -0.2931 -0.0591
 8897SOL    HW138153   3.745   3.278   8.511 -1.1767 -0.8905  0.1766
 8897SOL    HW238154   3.648   3.364   8.445  0.6789  0.6791 -0.3486
 8898SOL     OW38155   4.085   2.281  16.179  0.1256  0.2636 -0.2561
 8898SOL    HW138156   4.125   2.200  16.210  0.7408  1.2407  1.5609
 8898SOL    HW238157   4.163   2.330  16.152  0.7043  0.3832  1.6267
 8899SOL     OW38158   4.065   0.159   6.135  0.1430  0.2512  0.0112
 8899SOL    HW138159   3.988   0.117   6.096 -1.2439  1.2018  1.7666
 8899SOL    HW238160   4.044   0.247   6.103  0.1032 -0.4495 -1.9274
 8900SOL     OW38161   1.096   3.997   4.821  0.2730 -0.1090  0.1798
 8900SOL    HW138162   1.089   4.092   4.809  3.4040  0.0735 -0.0050
 8900SOL    HW238163   1.181   3.986   4.779  1.3717  0.2381  2.2805
 8901SOL     OW38164   2.050   1.512   8.252  0.2936 -0.7796  0.4414
 8901SOL    HW138165   2.022   1.497   8.162 -2.5787 -1.1770  1.4147
 8901SOL    HW238166   1.978   1.479   8.307  1.1040 -0.7162  1.5446
 8902SOL     OW38167   0.329   2.297   3.248  0.3394  0.4045  0.6435
 8902SOL    HW138168   0.266   2.358   3.210  0.4395  1.4512  2.1757
 8902SOL    HW238169   0.271   2.237   3.294  0.1474  1.3356  1.6094
 8903SOL     OW38170   4.083   0.292  10.590  0.6382 -0.1095 -0.5531
 8903SOL    HW138171   4.096   0.377  10.549 -1.2742  1.8403  2.8541
 8903SOL    HW238172   4.006   0.255  10.547 -0.1500 -0.5230  1.1992
 8904SOL     OW38173   2.710   2.480   8.612 -0.2686 -0.1723  0.1136
 8904SOL    HW138174   2.718   2.449   8.522  2.9400 -0.9301  0.6519
 8904SOL    HW238175   2.749   2.568   8.608  0.7120 -0.6924 -1.5381
 8905SOL     OW38176   4.086   2.643  10.480 -0.0468  0.0566  0.0222
 8905SOL    HW138177   4.163   2.684  10.440  0.5438  0.5244  1.6261
 8905SOL    HW238178   4.086   2.563  10.428  1.8544  0.0268  0.0734
 8906SOL     OW38179   2.020   3.312   7.604 -0.0344  0.2909 -0.6689
 8906SOL    HW138180   2.060   3.231   7.574 -1.8116 -0.0146 -2.2176
 8906SOL    HW238181   1.967   3.348   7.533  1.2571 -1.5522 -2.5692
 8907SOL     OW38182   0.113   0.465   2.409  0.6714  0.3411  0.1939
 8907SOL    HW138183   0.056   0.392   2.384  0.3634  0.7208 -0.2155
 8907SOL    HW238184   0.064   0.545   2.391 -1.4091 -0.1466  3.7898
 8908SOL     OW38185   0.894   0.037  15.852  0.1976  0.4107 -0.1302
 8908SOL    HW138186   0.934   4.685  15.813 -2.0482 -0.8930  0.1752
 8908SOL    HW238187   0.970   0.094  15.858  1.3563 -1.4363  2.6427
 8909SOL     OW38188   4.129   0.103   6.407  0.5530 -0.5072  0.0322
 8909SOL    HW138189   4.112   0.098   6.313 -0.0950 -3.7397  0.3370
 8909SOL    HW238190   4.204   0.163   6.405  0.6244 -0.5924  0.1434
 8910SOL     OW38191   0.183   3.646  11.969  0.2352 -0.3461  0.1909
 8910SOL    HW138192   0.228   3.730  11.976  0.1381 -0.2548 -0.2508
 8910SOL    HW238193   0.242   3.586  11.923 -1.7732 -1.0348 -1.5031
 8911SOL     OW38194   0.375   0.156   2.120 -0.3102 -0.4471  0.3460
 8911SOL    HW138195   0.365   0.063   2.141 -1.8595  0.4100  3.3866
 8911SOL    HW238196   0.379   0.147   2.025 -1.3808 -1.2265  0.3787
 8912SOL     OW38197   0.326   1.725  14.449  0.1686  0.7915 -0.2007
 8912SOL    HW138198   0.337   1.696  14.540  1.1289  1.3488 -0.1398
 8912SOL    HW238199   0.236   1.754  14.465 -0.5093 -1.1425 -0.4936
 8913SOL     OW38200   1.305   2.854   4.259 -0.0747  0.0007 -0.1572
 8913SOL    HW138201   1.293   2.843   4.165  0.5649 -0.5019 -0.1808
 8913SOL    HW238202   1.387   2.902   4.247  0.6979 -0.8607  1.6864
 8914SOL     OW38203   4.135   3.485   5.007  0.1970 -0.1514  0.6074
 8914SOL    HW138204   4.179   3.556   5.054 -0.2302  1.1848 -0.9881
 8914SOL    HW238205   4.172   3.406   5.045  0.8182  0.9153  2.2357
 8915SOL     OW38206   0.094   4.517   8.082 -0.4890 -0.0247 -0.6465
 8915SOL    HW138207   0.132   4.532   7.995  0.0233 -0.1551 -0.4488
 8915SOL    HW238208   0.129   4.599   8.117  2.3940 -1.1432 -0.8478
 8916SOL     OW38209   3.692   3.051   1.985 -0.3412 -0.3185  0.3960
 8916SOL    HW138210   3.699   3.138   2.026 -1.9823 -0.3029  0.6347
 8916SOL    HW238211   3.604   3.024   2.009 -0.3712 -0.7584 -0.2168
 8917SOL     OW38212   1.715   3.412  12.121 -0.2836 -0.2022 -0.6138
 8917SOL    HW138213   1.697   3.373  12.036  0.2901 -0.0652 -0.7962
 8917SOL    HW238214   1.784   3.354  12.154  0.6068  0.4848 -1.2427
 8918SOL     OW38215   1.216   3.291   7.233  0.6209 -0.0603 -0.2076
 8918SOL    HW138216   1.151   3.360   7.220  2.1599  0.9528 -2.4197
 8918SOL    HW238217   1.213   3.290   7.329  0.4122  1.0614 -0.2132
 8919SOL     OW38218   2.761   1.887   2.664  0.0875  0.4448 -0.5268
 8919SOL    HW138219   2.853   1.912   2.677  0.3027 -1.3060  1.4096
 8919SOL    HW238220   2.779   1.830   2.589 -1.3516  1.5744 -1.7186
 8920SOL     OW38221   1.291   4.122  11.968  0.4077  0.1783 -0.1059
 8920SOL    HW138222   1.297   4.076  12.052 -1.2576  3.5569  1.8314
 8920SOL    HW238223   1.213   4.074  11.939  2.1232 -1.8761 -1.3658
 8921SOL     OW38224   2.711   0.784   4.306  0.2593  0.2810  0.1400
 8921SOL    HW138225   2.732   0.829   4.388  2.5423  0.6594 -0.6503
 8921SOL    HW238226   2.645   0.726   4.344 -0.1076 -1.0793 -2.5305
 8922SOL     OW38227   3.721   1.432  13.199  0.3853 -0.0147 -0.2672
 8922SOL    HW138228   3.682   1.406  13.282 -0.0520 -0.3027 -0.5616
 8922SOL    HW238229   3.773   1.509  13.222 -0.7214  1.0749 -1.3871
 8923SOL     OW38230   1.866   2.444  11.583 -0.3141  0.4471  0.0955
 8923SOL    HW138231   1.798   2.504  11.552 -1.2362 -0.5321  0.2102
 8923SOL    HW238232   1.883   2.408  11.496 -2.0689  0.4118 -0.2404
 8924SOL     OW38233   1.110   0.655   3.114  0.6339  0.2890  0.5897
 8924SOL    HW138234   1.203   0.674   3.128  0.7865 -1.3558  1.7952
 8924SOL    HW238235   1.109   0.561   3.133  2.3841 -0.2977 -2.0707
 8925SOL     OW38236   3.070   2.171   0.423 -0.2280 -0.5175 -0.8964
 8925SOL    HW138237   3.165   2.162   0.434 -0.6179 -1.3625  1.5934
 8925SOL    HW238238   3.061   2.175   0.327  0.5401 -1.4853 -1.0048
 8926SOL     OW38239   1.536   1.835   0.062 -0.1721  0.1315  0.3267
 8926SOL    HW138240   1.493   1.902   0.009  1.2394  1.9147  1.4427
 8926SOL    HW238241   1.627   1.865   0.067 -0.2027  0.2110  0.4167
 8927SOL     OW38242   4.466   2.606   7.885 -0.0185  0.2187 -0.5727
 8927SOL    HW138243   4.429   2.535   7.833  1.8097 -0.3113 -1.1500
 8927SOL    HW238244   4.552   2.573   7.912 -0.9579  0.8703  3.2171
 8928SOL     OW38245   2.798   4.276   3.904 -0.3917  0.2966 -0.5680
 8928SOL    HW138246   2.776   4.303   3.815 -3.9690 -1.7589 -0.3152
 8928SOL    HW238247   2.777   4.183   3.898  0.1338  0.0659  1.1408
 8929SOL     OW38248   0.995   2.940  12.125  0.2260 -0.0847  0.0916
 8929SOL    HW138249   1.043   2.920  12.205  0.8342 -0.7605 -0.4483
 8929SOL    HW238250   1.002   3.036  12.124  1.7099 -0.1819  1.8103
 8930SOL     OW38251   4.518   3.560   6.259  0.4625  0.1735 -0.4654
 8930SOL    HW138252   4.487   3.631   6.202 -0.5216  0.4425  0.4104
 8930SOL    HW238253   4.443   3.540   6.314 -1.0595 -0.7312 -2.8914
 8931SOL     OW38254   0.438   1.309  13.777 -0.4044 -0.8265  0.0888
 8931SOL    HW138255   0.479   1.334  13.860 -2.9935  0.1212  1.0820
 8931SOL    HW238256   0.499   1.343  13.711 -1.3790 -1.6598 -1.2432
 8932SOL     OW38257   0.937   0.240   0.043  0.2851 -0.4175 -0.1377
 8932SOL    HW138258   0.929   0.173   0.111 -0.4087  0.9331  1.1200
 8932SOL    HW238259   0.854   0.226  17.700 -0.1157  1.8440 -0.1353
 8933SOL     OW38260   3.925   2.484  11.797  0.3851  0.2648  0.2205
 8933SOL    HW138261   3.978   2.538  11.738 -2.2181  0.7780 -1.6378
 8933SOL    HW238262   3.936   2.520  11.885 -0.1671  0.7059  0.1068
 8934SOL     OW38263   4.233   4.008  12.075  0.5162  0.1889  0.1286
 8934SOL    HW138264   4.265   3.984  11.988  0.3690 -3.0761  0.9701
 8934SOL    HW238265   4.288   3.952  12.129  1.6920  0.4367 -0.8117
 8935SOL     OW38266   4.003   2.825   6.464  0.3534 -0.2399 -0.4560
 8935SOL    HW138267   3.963   2.763   6.526  0.1784  0.5050  0.1728
 8935SOL    HW238268   4.053   2.756   6.420  0.1944 -1.2552  0.9394
 8936SOL     OW38269   1.098   2.071   1.204  0.2954  0.7828 -0.0847
 8936SOL    HW138270   1.066   2.088   1.292  2.3641 -0.4050  0.9073
 8936SOL    HW238271   1.025   2.031   1.157 -0.4819  2.3093 -0.1666
 8937SOL     OW38272   2.072   1.983   5.688  0.0316 -0.0172 -0.5328
 8937SOL    HW138273   2.014   1.908   5.689 -0.2613  0.2116 -0.4734
 8937SOL    HW238274   2.036   2.037   5.618 -2.4325 -1.5707 -0.4314
 8938SOL     OW38275   4.026   0.963  10.613  1.1854 -0.1022  0.6543
 8938SOL    HW138276   4.072   0.991  10.534 -0.0717  1.1677  0.3617
 8938SOL    HW238277   4.091   0.899  10.639  0.6689 -1.6507 -1.8457
 8939SOL     OW38278   2.417   2.934  11.543  0.3944 -0.1699 -0.0515
 8939SOL    HW138279   2.451   2.856  11.500 -0.9073 -0.4430 -0.6066
 8939SOL    HW238280   2.347   2.886  11.587  0.2494 -0.2209 -0.3333
 8940SOL     OW38281   3.408   2.143  15.293  0.3693 -0.2404  0.8585
 8940SOL    HW138282   3.356   2.067  15.267  0.1125  0.0847  0.4333
 8940SOL    HW238283   3.369   2.210  15.237  0.7356 -2.4729 -2.0553
 8941SOL     OW38284   4.014   0.229   9.859  0.0867 -0.3847 -0.1960
 8941SOL    HW138285   4.002   0.320   9.834  0.7468 -0.6744 -1.5413
 8941SOL    HW238286   4.088   0.233   9.920 -1.1051 -0.7408  1.2769
 8942SOL     OW38287   1.856   1.519   8.854 -0.6047 -0.7529  0.4981
 8942SOL    HW138288   1.828   1.443   8.802 -1.6811  0.8896 -1.3315
 8942SOL    HW238289   1.947   1.501   8.880 -0.3558  0.3973  0.4160
 8943SOL     OW38290   0.174   3.230  16.103  0.5424  0.1357 -0.3487
 8943SOL    HW138291   0.152   3.173  16.029 -1.1719 -0.7393  0.8305
 8943SOL    HW238292   0.210   3.165  16.163 -0.0513  0.7583  0.6922
 8944SOL     OW38293   0.471   1.276  10.911 -0.5413  0.6153 -0.1791
 8944SOL    HW138294   0.403   1.236  10.964  0.4594  0.3159  0.8682
 8944SOL    HW238295   0.535   1.206  10.900 -1.5917 -0.4245  0.3974
 8945SOL     OW38296   3.576   1.959   1.473 -0.1271  0.0796 -0.2509
 8945SOL    HW138297   3.624   1.889   1.429 -1.0401  0.0543 -1.1842
 8945SOL    HW238298   3.504   1.918   1.521  1.0739 -3.2757 -1.3009
 8946SOL     OW38299   3.770   1.853   3.281 -0.0409 -0.0436  0.1412
 8946SOL    HW138300   3.696   1.837   3.339  1.3339 -2.1021  1.3560
 8946SOL    HW238301   3.827   1.906   3.337 -1.6628  1.6241  0.2179
 8947SOL     OW38302   3.489   1.202   8.406 -0.4145  0.3769 -0.5604
 8947SOL    HW138303   3.394   1.200   8.392 -0.2545 -0.8187 -1.4597
 8947SOL    HW238304   3.501   1.109   8.388 -1.6354  0.3944 -1.5050
 8948SOL     OW38305   0.352   1.443   0.383 -0.5561  0.1008  0.5273
 8948SOL    HW138306   0.369   1.496   0.461 -1.5380  1.6617 -0.3273
 8948SOL    HW238307   0.431   1.389   0.378 -1.4958 -0.9713 -3.0223
 8949SOL     OW38308   4.049   3.959   3.029  0.4306 -0.0822  0.3377
 8949SOL    HW138309   4.038   3.963   3.124  2.4972 -1.2580  0.6282
 8949SOL    HW238310   3.987   3.891   3.003 -1.6833  2.9700 -2.7002
 8950SOL     OW38311   0.489   0.988   7.020  0.1744  0.1280  0.6775
 8950SOL    HW138312   0.476   1.070   7.068 -1.5645 -0.0401  0.4685
 8950SOL    HW238313   0.405   0.948   7.042  0.6897 -0.9425  0.7174
 8951SOL     OW38314   2.631   3.970   5.398  0.3583  0.2815 -0.2977
 8951SOL    HW138315   2.647   3.980   5.304 -1.5503  1.7794 -0.4765
 8951SOL    HW238316   2.703   3.918   5.434  0.7562 -0.3590 -2.0235
 8952SOL     OW38317   1.868   4.068   6.471 -0.5462 -0.3562  0.3210
 8952SOL    HW138318   1.863   4.108   6.558  0.2254 -2.3291  1.2636
 8952SOL    HW238319   1.963   4.061   6.461 -0.7069  0.9175 -1.9729
 8953SOL     OW38320   2.724   2.354  12.995 -0.5333  0.2908  0.1991
 8953SOL    HW138321   2.738   2.277  13.051  2.5673  0.2783 -0.5909
 8953SOL    HW238322   2.689   2.412  13.063 -0.3853  2.7251 -1.8286
 8954SOL     OW38323   3.401   0.080   3.648 -0.3626  0.4720 -0.3746
 8954SOL    HW138324   3.362   0.162   3.679  0.3675  0.0882  1.5866
 8954SOL    HW238325   3.341   0.007   3.664  0.5623 -0.7272 -2.3889
 8955SOL     OW38326   4.539   2.824   0.822  0.5661 -0.7652  0.4711
 8955SOL    HW138327   4.534   2.747   0.765 -1.1066  0.7433 -1.4430
 8955SOL    HW238328   4.511   2.790   0.907  2.1506  0.5667  1.5295
 8956SOL     OW38329   2.129   2.523   8.721 -0.1966 -0.2991  0.1127
 8956SOL    HW138330   2.141   2.606   8.673  2.5838 -0.5088  0.4169
 8956SOL    HW238331   2.171   2.541   8.805  0.3953  0.4932 -0.3493
 8957SOL     OW38332   2.312   4.139   5.715  0.2116 -0.1176  0.4339
 8957SOL    HW138333   2.401   4.141   5.752  0.6143  1.7030 -0.6708
 8957SOL    HW238334   2.323   4.195   5.638 -1.7256  0.6775  0.7438
 8958SOL     OW38335   2.422   2.979   0.136  0.2626  0.0152 -0.2152
 8958SOL    HW138336   2.467   3.004   0.216 -0.3634  2.4052 -0.6302
 8958SOL    HW238337   2.456   3.046   0.078 -0.4766  0.0919 -0.5566
 8959SOL     OW38338   2.126   3.236  14.510  0.0964 -0.4655  0.6221
 8959SOL    HW138339   2.221   3.221  14.504  0.5386  2.6609  0.2622
 8959SOL    HW238340   2.103   3.147  14.483  0.7274  0.1241 -1.8962
 8960SOL     OW38341   2.830   3.243   4.878  0.5327  0.3965 -0.5744
 8960SOL    HW138342   2.913   3.256   4.832  0.7570  2.0025  0.3048
 8960SOL    HW238343   2.848   3.283   4.963  0.4306  0.1235 -0.4217
 8961SOL     OW38344   0.881   3.107   3.079 -0.0025 -0.0026 -0.5994
 8961SOL    HW138345   0.929   3.168   3.134  0.8152 -2.3550  1.3292
 8961SOL    HW238346   0.793   3.128   3.111  0.1584  1.4911 -1.1631
 8962SOL     OW38347   3.088   0.923   7.994 -0.6795 -0.7379  0.0414
 8962SOL    HW138348   3.051   1.011   7.998  0.9587 -0.0629  0.1676
 8962SOL    HW238349   3.085   0.904   8.088 -0.1011 -0.9513  0.0177
 8963SOL     OW38350   0.771   3.418   3.356 -0.1853  0.4595  0.1208
 8963SOL    HW138351   0.854   3.431   3.311 -0.5021 -1.6803 -1.0815
 8963SOL    HW238352   0.749   3.335   3.315 -0.0058  0.6165 -0.2946
 8964SOL     OW38353   2.024   4.096   0.713 -0.1243  0.1840 -0.0776
 8964SOL    HW138354   1.974   4.111   0.633 -0.4908 -0.6130  0.0104
 8964SOL    HW238355   2.004   4.004   0.727 -0.5318  0.2779 -0.0341
 8965SOL     OW38356   4.069   0.524   9.600  0.3279  0.2325 -0.2904
 8965SOL    HW138357   4.149   0.574   9.613 -0.1979  1.3725 -1.3632
 8965SOL    HW238358   4.106   0.437   9.588 -2.4041 -1.2580  2.1025
 8966SOL     OW38359   0.889   1.172   7.404 -0.5451  0.4618 -0.1484
 8966SOL    HW138360   0.830   1.128   7.343  1.3360 -0.5391 -1.2636
 8966SOL    HW238361   0.860   1.263   7.402  1.2323  0.9835 -2.1363
 8967SOL     OW38362   0.997   4.088  17.527 -0.4384 -0.3693 -0.1559
 8967SOL    HW138363   0.921   4.043  17.492  1.7714 -3.2822 -1.2499
 8967SOL    HW238364   1.051   4.018  17.566 -1.9410 -2.0168 -1.0474
 8968SOL     OW38365   2.679   3.953   8.975  0.4105 -0.0834 -0.0900
 8968SOL    HW138366   2.657   4.046   8.983 -1.1618 -0.3651 -1.0434
 8968SOL    HW238367   2.609   3.920   9.031 -0.6261  0.2580 -1.1832
 8969SOL     OW38368   0.973   1.831  12.939  0.1126  0.7039  0.3998
 8969SOL    HW138369   0.946   1.751  12.984 -1.4138  1.9987  1.7917
 8969SOL    HW238370   0.899   1.891  12.945  0.8644  1.4344  2.2345
 8970SOL     OW38371   4.100   3.489   7.513 -0.1611  0.1185 -0.5174
 8970SOL    HW138372   4.099   3.555   7.582 -0.9469  0.3460 -0.7529
 8970SOL    HW238373   4.013   3.452   7.525 -0.7025  0.9782 -1.7300
 8971SOL     OW38374   0.086   4.198   8.036  0.0307  0.2629  0.0765
 8971SOL    HW138375   0.079   4.266   7.968 -0.2676  0.4092  0.2537
 8971SOL    HW238376   0.069   4.261   8.105  2.1581  0.7606  0.1604
 8972SOL     OW38377   0.256   1.414  12.826 -0.0921 -0.6449  0.4743
 8972SOL    HW138378   0.209   1.333  12.805 -1.5699  0.1245  0.8445
 8972SOL    HW238379   0.339   1.370  12.846 -0.7848 -1.5673  1.3805
 8973SOL     OW38380   3.423   0.231   6.098 -0.3181 -0.1266  0.5370
 8973SOL    HW138381   3.426   0.138   6.075  0.4147  0.1964 -0.6563
 8973SOL    HW238382   3.375   0.265   6.022 -0.4234  0.9474  1.0845
 8974SOL     OW38383   3.789   1.498   9.104 -0.0672  0.8359  0.5482
 8974SOL    HW138384   3.883   1.509   9.091 -0.0917 -1.2542 -1.3285
 8974SOL    HW238385   3.779   1.507   9.199  2.1499  1.9865  0.6652
 8975SOL     OW38386   1.071   2.793   1.314  0.2020  0.2626 -0.3360
 8975SOL    HW138387   1.127   2.802   1.238  0.0002 -1.8864 -0.7656
 8975SOL    HW238388   1.028   2.708   1.298  1.1250 -0.0393 -1.2346
 8976SOL     OW38389   2.274   0.966   4.712 -0.3386 -0.2464  0.2147
 8976SOL    HW138390   2.255   0.874   4.732  2.2175 -0.9982 -0.7916
 8976SOL    HW238391   2.248   1.020   4.786 -0.4258 -0.7529  0.5533
 8977SOL     OW38392   1.528   0.514   3.340  0.0570  0.4769 -0.1189
 8977SOL    HW138393   1.436   0.538   3.337 -0.0442  0.1859  0.7311
 8977SOL    HW238394   1.517   0.421   3.359  0.6382  0.5666  0.6747
 8978SOL     OW38395   4.335   1.066  12.178  0.0251  0.2874  0.2001
 8978SOL    HW138396   4.397   1.110  12.120 -1.2086  1.7948  0.0177
 8978SOL    HW238397   4.287   1.011  12.116  0.9386  0.1465 -0.3701
 8979SOL     OW38398   0.590   1.290   0.523 -0.1936 -0.3631  0.3040
 8979SOL    HW138399   0.684   1.299   0.508 -0.1959  1.3757  1.3465
 8979SOL    HW238400   0.564   1.223   0.459 -0.3343  1.8338 -1.9454
 8980SOL     OW38401   0.061   2.743   9.782  0.3106  0.4112 -0.2297
 8980SOL    HW138402   0.041   2.649   9.780  0.1791  0.4252  0.3062
 8980SOL    HW238403   0.152   2.738   9.812 -0.4558  1.0940  2.1843
 8981SOL     OW38404   4.668   1.154   3.682  0.1083 -0.0693  0.3077
 8981SOL    HW138405   4.709   1.075   3.647  0.9354  0.0123  1.0813
 8981SOL    HW238406   4.628   1.118   3.761 -0.4294  2.6295  1.2665
 8982SOL     OW38407   1.477   2.351  11.631 -0.0326  0.4867  0.4870
 8982SOL    HW138408   1.541   2.296  11.586  1.4558  0.9441  2.0667
 8982SOL    HW238409   1.493   2.338  11.725 -0.7057 -0.3686  0.4891
 8983SOL     OW38410   2.577   0.677   2.215 -0.0382 -0.2539 -0.2427
 8983SOL    HW138411   2.506   0.641   2.160 -0.0705  0.2725 -0.5451
 8983SOL    HW238412   2.528   0.693   2.295 -1.6713  1.6189 -1.6049
 8984SOL     OW38413   1.356   3.814  15.173 -0.3048 -0.2197 -0.4856
 8984SOL    HW138414   1.449   3.807  15.195 -0.6956  2.0818  1.7966
 8984SOL    HW238415   1.349   3.772  15.087  0.6659 -0.2125 -0.5720
 8985SOL     OW38416   3.056   4.620   0.015 -0.1317  0.4631 -0.3500
 8985SOL    HW138417   3.141   4.625  17.675 -0.1542 -1.0135 -0.5529
 8985SOL    HW238418   3.045   4.715   0.027  0.7537  0.6259 -0.8377
 8986SOL     OW38419   0.271   4.656   2.216  0.6647  0.8092 -0.2533
 8986SOL    HW138420   0.294   4.584   2.157  0.0534  0.4591 -0.0579
 8986SOL    HW238421   0.320   4.635   2.296  1.7653  0.9527 -0.8823
 8987SOL     OW38422   2.293   1.939   1.061  0.7176 -0.0204 -0.4228
 8987SOL    HW138423   2.299   2.034   1.057  1.4886 -0.0453  0.1197
 8987SOL    HW238424   2.214   1.922   1.113  0.4932  0.2498 -0.6806
 8988SOL     OW38425   3.170   0.538  12.282 -0.0986 -0.5081  0.2180
 8988SOL    HW138426   3.199   0.629  12.289  1.2966 -0.7087 -3.0124
 8988SOL    HW238427   3.253   0.497  12.259  0.8836  2.1329 -0.8726
 8989SOL     OW38428   3.347   1.118   4.521  0.2847 -0.0342  0.1912
 8989SOL    HW138429   3.346   1.036   4.471  0.4253  1.3436 -2.0633
 8989SOL    HW238430   3.411   1.153   4.458  0.1894 -0.0867  0.0657
 8990SOL     OW38431   1.553   3.400   8.196  0.5554 -0.1594  0.2262
 8990SOL    HW138432   1.468   3.355   8.197  0.1046  0.6755 -2.7054
 8990SOL    HW238433   1.556   3.426   8.288  1.5902 -2.5187  0.8668
 8991SOL     OW38434   1.246   1.782   3.143  0.0438 -0.1851  0.7022
 8991SOL    HW138435   1.334   1.762   3.175  0.7609  3.4673  1.0529
 8991SOL    HW238436   1.268   1.859   3.090 -1.0228  0.9001  1.8527
 8992SOL     OW38437   3.542   1.288  10.397 -0.6039 -0.0655  0.3630
 8992SOL    HW138438   3.489   1.360  10.432 -0.4486 -0.4511  1.3929
 8992SOL    HW238439   3.507   1.270  10.310 -0.8642 -3.3602  1.1628
 8993SOL     OW38440   0.112   0.109   7.756 -0.2774  0.2651 -0.5049
 8993SOL    HW138441   0.137   0.190   7.712 -0.8247 -0.2745 -1.8125
 8993SOL    HW238442   0.057   0.136   7.829  0.6634  0.6581  0.0620
 8994SOL     OW38443   2.584   2.964  11.802 -0.3593  0.2534 -0.2285
 8994SOL    HW138444   2.652   2.915  11.756 -1.5545 -2.4108  0.8270
 8994SOL    HW238445   2.530   2.898  11.845 -0.0318 -0.5144 -1.0016
 8995SOL     OW38446   2.601   1.371   5.286  0.2076 -0.2988  0.0329
 8995SOL    HW138447   2.644   1.303   5.235 -0.2953 -0.9964  0.5421
 8995SOL    HW238448   2.537   1.399   5.221 -1.4816 -0.6695  1.5164
 8996SOL     OW38449   2.974   1.271   5.089 -0.1772 -0.3449 -0.2618
 8996SOL    HW138450   3.038   1.333   5.125  1.4028 -1.3489 -1.3312
 8996SOL    HW238451   3.031   1.226   5.026 -1.1317 -0.8941 -0.7300
 8997SOL     OW38452   0.722   2.549   2.303  0.9003 -0.1170  0.0285
 8997SOL    HW138453   0.655   2.608   2.269  0.0097 -1.3134 -0.2795
 8997SOL    HW238454   0.752   2.604   2.376 -0.9228  1.8638 -0.7111
 8998SOL     OW38455   0.223   2.504   8.636  0.3564 -0.0977  0.2541
 8998SOL    HW138456   0.276   2.507   8.716 -1.0384  2.0309  1.0842
 8998SOL    HW238457   0.153   2.568   8.648 -0.4314 -1.0891  0.9509
 8999SOL     OW38458   0.821   2.486  11.491  0.2338 -0.0418  0.0143
 8999SOL    HW138459   0.887   2.497  11.422  0.8322  1.2005  0.7686
 8999SOL    HW238460   0.756   2.446  11.434  0.2407  2.5207 -1.8084
 9000SOL     OW38461   0.430   1.647   8.744 -0.2538 -0.0335  0.5658
 9000SOL    HW138462   0.336   1.649   8.727 -0.0033  0.9621 -0.7000
 9000SOL    HW238463   0.450   1.741   8.747  0.9353 -0.2330 -1.2704
 9001SOL     OW38464   3.783   3.625  12.379 -0.3891 -0.0378 -0.3996
 9001SOL    HW138465   3.731   3.547  12.401  0.6704 -0.3943  0.8612
 9001SOL    HW238466   3.714   3.690  12.391 -0.7384 -0.7999  1.8472
 9002SOL     OW38467   0.654   2.201   9.315 -0.3412  0.3028  0.1396
 9002SOL    HW138468   0.647   2.220   9.222  0.4792 -1.6174 -0.2982
 9002SOL    HW238469   0.610   2.116   9.316  0.2575 -0.0042  0.7914
 9003SOL     OW38470   3.754   3.943   9.101 -0.2263  0.3150  0.3598
 9003SOL    HW138471   3.711   3.935   9.016  0.4586  3.8659 -0.3341
 9003SOL    HW238472   3.686   3.971   9.163 -1.2465 -0.8330 -0.2320
 9004SOL     OW38473   3.050   3.028   3.078  0.2607  0.3751  0.0956
 9004SOL    HW138474   2.986   3.088   3.040  2.0615  2.9383  1.1364
 9004SOL    HW238475   3.082   2.972   3.007  2.0093 -0.7198  1.7454
 9005SOL     OW38476   1.988   1.973  13.071 -0.8000 -0.5259 -0.1273
 9005SOL    HW138477   2.066   1.964  13.016 -1.0438  0.9714 -0.7195
 9005SOL    HW238478   1.919   1.929  13.020  0.3955 -2.5818  0.0014
 9006SOL     OW38479   2.068   2.210  10.394  0.1984  0.7128 -0.1032
 9006SOL    HW138480   1.973   2.197  10.389 -0.0842  2.5803  0.3572
 9006SOL    HW238481   2.083   2.218  10.489 -0.4320 -1.2791  0.1857
 9007SOL     OW38482   0.687   3.697   0.333 -0.5539  0.2464  0.0877
 9007SOL    HW138483   0.674   3.609   0.367  0.0824  0.9048  2.0222
 9007SOL    HW238484   0.700   3.746   0.414 -0.3620 -1.1582  0.9070
 9008SOL     OW38485   1.371   4.480   3.080  0.1575 -0.1564  0.0074
 9008SOL    HW138486   1.308   4.552   3.091 -0.8728 -0.7914 -1.7718
 9008SOL    HW238487   1.372   4.453   2.988 -0.0617  1.9899 -0.6276
 9009SOL     OW38488   2.668   2.094   2.811 -0.3039  0.0951  0.5130
 9009SOL    HW138489   2.754   2.130   2.835 -1.4798  2.6751  0.8197
 9009SOL    HW238490   2.690   2.018   2.757 -1.2507  2.0448 -2.6083
 9010SOL     OW38491   1.142   2.183  13.002 -0.0927  0.4558 -0.3561
 9010SOL    HW138492   1.090   2.260  12.982  0.8671  1.7423  2.0573
 9010SOL    HW238493   1.173   2.213  13.088 -0.3651  2.9448 -1.1332
 9011SOL     OW38494   1.388   1.797   6.995  0.3917  0.7270 -0.2676
 9011SOL    HW138495   1.316   1.816   7.055 -0.8019 -2.7091 -0.6031
 9011SOL    HW238496   1.401   1.703   7.011  2.0655  0.9088 -0.5325
 9012SOL     OW38497   0.819   1.507   3.323  0.2116 -0.2301 -0.9446
 9012SOL    HW138498   0.893   1.452   3.353  0.8426  1.3479  0.4020
 9012SOL    HW238499   0.753   1.438   3.317  0.5932 -0.7246  0.3567
 9013SOL     OW38500   2.836   3.180   2.966  0.0110  0.1607  0.4921
 9013SOL    HW138501   2.772   3.246   2.990 -0.4366  0.1247 -0.6204
 9013SOL    HW238502   2.826   3.193   2.872  1.4657 -1.2531  0.1362
 9014SOL     OW38503   1.020   4.265  12.802  0.0276  0.2587 -0.0396
 9014SOL    HW138504   1.091   4.251  12.740  0.7442  0.3289  0.7726
 9014SOL    HW238505   1.048   4.350  12.835  0.1247 -0.2003  1.0761
 9015SOL     OW38506   4.166   2.632   6.333  0.7885 -0.1228  0.0514
 9015SOL    HW138507   4.224   2.585   6.394 -2.3305 -2.0243  1.5269
 9015SOL    HW238508   4.220   2.622   6.254  0.1976  2.3732 -0.6473
 9016SOL     OW38509   0.487   1.202  16.928  0.4954  0.3573 -0.0682
 9016SOL    HW138510   0.475   1.124  16.983  2.3774 -0.0243 -0.1770
 9016SOL    HW238511   0.578   1.225  16.947  0.3902  0.1387  0.6951
 9017SOL     OW38512   0.995   2.517   8.744  0.1532  0.1678  0.0169
 9017SOL    HW138513   1.056   2.567   8.799 -1.7666  0.3199  2.0103
 9017SOL    HW238514   0.916   2.571   8.751 -0.1937 -0.1303 -1.6442
 9018SOL     OW38515   3.279   1.061  11.921 -0.9193 -0.0225  0.3856
 9018SOL    HW138516   3.210   1.001  11.949 -0.5060 -0.7292 -0.1037
 9018SOL    HW238517   3.251   1.136  11.973  0.1401  0.8190 -0.2395
 9019SOL     OW38518   2.735   0.734  14.559  0.1956 -0.1830  0.2661
 9019SOL    HW138519   2.786   0.739  14.640 -1.3959  3.7104  1.0370
 9019SOL    HW238520   2.750   0.821  14.521 -0.4324 -0.2819 -0.2206
 9020SOL     OW38521   1.878   1.458   8.469 -0.2637 -0.1168  0.1571
 9020SOL    HW138522   1.809   1.393   8.463 -0.3298 -0.1592  1.4709
 9020SOL    HW238523   1.938   1.411   8.527  2.7193  0.7897 -2.1661
 9021SOL     OW38524   0.609   0.565  15.035  0.4264  0.6199  0.2807
 9021SOL    HW138525   0.631   0.603  15.120  1.0976  1.2469 -0.1716
 9021SOL    HW238526   0.680   0.603  14.983  1.8243  0.0552  1.7557
 9022SOL     OW38527   4.648   2.652   1.590 -0.0250  0.1819  0.3670
 9022SOL    HW138528   4.568   2.658   1.642 -1.4628 -1.4725 -1.6984
 9022SOL    HW238529   4.706   2.713   1.637 -1.1758  0.4628  1.4315
 9023SOL     OW38530   3.023   1.086   3.996  0.4766  0.7254  1.0052
 9023SOL    HW138531   3.003   1.059   4.086  0.4929  1.8622  1.3517
 9023SOL    HW238532   2.936   1.068   3.960  1.3324 -0.4758 -0.4141
 9024SOL     OW38533   2.485   2.423   2.978  0.1251  0.0367  0.3816
 9024SOL    HW138534   2.488   2.517   2.996  0.3332 -0.0628  0.8749
 9024SOL    HW238535   2.522   2.438   2.891  1.0115 -0.0114  0.7463
 9025SOL     OW38536   1.782   1.337  11.315 -0.6313 -0.7007  0.1341
 9025SOL    HW138537   1.775   1.267  11.380  0.2757 -0.8576  0.0671
 9025SOL    HW238538   1.805   1.415  11.365  0.0714  0.3433 -1.8012
 9026SOL     OW38539   1.160   4.341   5.131  0.5078  0.0725 -0.2863
 9026SOL    HW138540   1.226   4.273   5.123  0.6518  0.0568  1.0525
 9026SOL    HW238541   1.228   4.408   5.137  0.4216 -0.0934  2.3691
 9027SOL     OW38542   4.220   2.858   6.014 -0.3674 -0.3833 -0.2581
 9027SOL    HW138543   4.261   2.812   5.941  2.0217 -0.8460  1.3801
 9027SOL    HW238544   4.167   2.786   6.048 -1.7244  1.0570  0.7198
 9028SOL     OW38545   3.038   0.145  12.098 -0.3518 -0.4547  0.0798
 9028SOL    HW138546   3.062   0.202  12.026 -0.9693  0.0323  0.2590
 9028SOL    HW238547   3.101   0.174  12.164  0.3256 -2.5076  0.3499
 9029SOL     OW38548   1.259   0.193  16.721  0.0612  1.1877 -0.5028
 9029SOL    HW138549   1.220   0.248  16.789 -1.9464 -1.4730  0.4510
 9029SOL    HW238550   1.184   0.141  16.692  2.9895 -1.4943 -3.2973
 9030SOL     OW38551   3.047   3.949   4.192  0.0347 -0.3607 -0.1135
 9030SOL    HW138552   3.095   3.873   4.161  1.7399  0.4982  0.4207
 9030SOL    HW238553   3.006   3.986   4.114 -1.5659  3.6569  2.6114
 9031SOL     OW38554   3.788   3.479   1.560 -0.4127  0.4400  0.3486
 9031SOL    HW138555   3.739   3.445   1.635  0.5358  2.0849  1.6984
 9031SOL    HW238556   3.793   3.406   1.497  1.6155 -0.0176  1.0543
 9032SOL     OW38557   3.902   2.366   1.939  0.8220 -0.2655 -0.3866
 9032SOL    HW138558   3.828   2.376   1.879  1.9364 -0.7046 -1.8141
 9032SOL    HW238559   3.865   2.287   1.979  1.3955 -0.7965 -0.9015
 9033SOL     OW38560   2.937   0.109   0.495 -0.5391  0.1060 -0.1993
 9033SOL    HW138561   2.948   0.015   0.487  0.2482 -0.1707  3.9740
 9033SOL    HW238562   2.878   0.120   0.570 -0.6605 -1.5131 -0.0544
 9034SOL     OW38563   3.136   1.826   2.114 -0.4711  0.2092  0.2146
 9034SOL    HW138564   3.231   1.829   2.101 -0.1639 -0.6955  2.2483
 9034SOL    HW238565   3.113   1.783   2.032 -0.6272 -0.3310  0.5460
 9035SOL     OW38566   3.752   0.108   8.782  0.1312  0.0543  0.1804
 9035SOL    HW138567   3.748   0.072   8.870 -0.2285 -0.7620 -0.1588
 9035SOL    HW238568   3.847   0.104   8.775  0.0417 -0.2087 -0.9664
 9036SOL     OW38569   1.660   2.146   0.027  0.0719 -0.1098  0.1044
 9036SOL    HW138570   1.716   2.216   0.061 -1.2473  1.1098 -0.2458
 9036SOL    HW238571   1.684   2.075   0.086  0.9525  0.2455  0.1815
 9037SOL     OW38572   2.199   4.400   0.967  0.6480 -0.8454 -0.1675
 9037SOL    HW138573   2.283   4.436   0.936  1.4630 -0.6618  2.3023
 9037SOL    HW238574   2.205   4.426   1.059 -0.2043  3.1583 -1.2131
 9038SOL     OW38575   2.898   1.009   7.150  0.0167 -0.4760 -0.2218
 9038SOL    HW138576   2.919   0.917   7.130 -0.4720 -0.6369 -0.0122
 9038SOL    HW238577   2.913   1.056   7.069 -3.9069 -1.3053 -1.4115
 9039SOL     OW38578   2.698   3.150   6.510 -0.8286 -0.0670 -0.3905
 9039SOL    HW138579   2.738   3.216   6.453 -0.4665 -1.0266 -1.2412
 9039SOL    HW238580   2.668   3.081   6.452 -0.1800 -1.2708  0.6972
 9040SOL     OW38581   2.895   0.133   3.870 -0.7664  0.4076 -0.0669
 9040SOL    HW138582   2.902   0.065   3.936  0.5976 -0.0855 -0.7360
 9040SOL    HW238583   2.801   0.154   3.866 -0.7936 -0.0130 -1.6914
 9041SOL     OW38584   3.486   1.214  13.916  0.1780 -0.5188 -0.0136
 9041SOL    HW138585   3.561   1.162  13.942  0.4953 -0.8918 -1.6901
 9041SOL    HW238586   3.463   1.180  13.830  0.0533  3.3387 -1.5188
 9042SOL     OW38587   1.849   0.856  15.666  0.8011  0.5315  0.7513
 9042SOL    HW138588   1.910   0.789  15.637  0.9490  1.6703 -1.5821
 9042SOL    HW238589   1.830   0.818  15.752  0.4485  0.3403  0.5934
 9043SOL     OW38590   4.348   1.100   5.406  0.5743 -0.2108  0.1103
 9043SOL    HW138591   4.428   1.085   5.456  0.5648  1.5643  0.6493
 9043SOL    HW238592   4.289   1.035   5.444  0.6918  0.8735  2.1112
 9044SOL     OW38593   3.270   1.511  13.847  0.1003  0.0966 -0.4193
 9044SOL    HW138594   3.245   1.595  13.809  0.7663  1.1823  1.5578
 9044SOL    HW238595   3.186   1.467  13.859  0.0792  0.1596 -0.3326
 9045SOL     OW38596   1.503   0.658  17.621  0.2753  0.3440  0.1243
 9045SOL    HW138597   1.515   0.566  17.643  0.8537  1.1951  3.3115
 9045SOL    HW238598   1.592   0.693  17.627 -0.2575  1.7617 -0.1517
 9046SOL     OW38599   4.076   0.727   4.572 -0.0082 -0.1309 -0.2397
 9046SOL    HW138600   4.153   0.700   4.623 -0.6972 -0.7870  0.4609
 9046SOL    HW238601   4.015   0.737   4.645  1.2183  2.0166  0.5047
 9047SOL     OW38602   1.008   4.222   0.477  0.5238  0.1225 -0.1136
 9047SOL    HW138603   1.063   4.255   0.406 -1.6820  0.2598 -1.7790
 9047SOL    HW238604   0.942   4.292   0.483  1.8624  1.4489 -0.8524
 9048SOL     OW38605   0.042   2.317   4.349 -0.1383  0.7957 -0.3146
 9048SOL    HW138606   0.007   2.289   4.264  0.4393 -0.6294 -0.0829
 9048SOL    HW238607   0.001   2.247   4.400 -0.0305 -0.0654 -1.4111
 9049SOL     OW38608   2.904   0.512   8.387  0.2729 -0.7739  1.3628
 9049SOL    HW138609   2.944   0.472   8.310 -2.1715  0.1904 -0.3774
 9049SOL    HW238610   2.968   0.495   8.457 -0.2600 -0.9920  1.7930
 9050SOL     OW38611   3.862   1.481  10.501  0.4894  0.7071  0.4864
 9050SOL    HW138612   3.783   1.526  10.532 -0.9456  0.1162 -2.3329
 9050SOL    HW238613   3.856   1.389  10.528 -0.6424  0.6824  0.1534
 9051SOL     OW38614   0.649   2.265   7.214 -0.1906 -0.0026  0.3463
 9051SOL    HW138615   0.641   2.245   7.120  3.9089  1.0381 -0.2297
 9051SOL    HW238616   0.710   2.198   7.244  0.0750 -0.1639 -0.5521
 9052SOL     OW38617   1.533   1.967   4.868  0.2617 -0.0423 -0.2726
 9052SOL    HW138618   1.619   2.008   4.875  0.6530 -0.6568 -1.4449
 9052SOL    HW238619   1.573   1.880   4.869  3.1936  1.3038  0.0106
 9053SOL     OW38620   3.277   2.109   2.577 -0.1561 -0.1436  0.4181
 9053SOL    HW138621   3.218   2.090   2.505  0.3953 -0.5791  0.0819
 9053SOL    HW238622   3.285   2.034   2.636  0.7926  0.7980  1.4866
 9054SOL     OW38623   1.663   2.731   3.772  0.3134  0.1322  0.3507
 9054SOL    HW138624   1.640   2.798   3.708 -1.3950 -1.1770 -0.4153
 9054SOL    HW238625   1.618   2.649   3.754 -1.5904  1.6176 -1.5758
 9055SOL     OW38626   2.959   2.435   3.623 -0.6282  0.2073  0.4810
 9055SOL    HW138627   2.967   2.340   3.619  2.6186  0.5368 -1.2824
 9055SOL    HW238628   2.866   2.452   3.609 -1.2041 -2.3481  1.2852
 9056SOL     OW38629   0.251   2.282   5.364  0.2977  0.3555  0.0186
 9056SOL    HW138630   0.172   2.337   5.362  1.3863  1.9433  0.3657
 9056SOL    HW238631   0.282   2.304   5.453  0.5236  0.5939 -0.1176
 9057SOL     OW38632   3.729   1.713   4.833  0.6219  0.2954 -0.0089
 9057SOL    HW138633   3.816   1.677   4.852  1.1708  0.8971 -1.4838
 9057SOL    HW238634   3.673   1.668   4.897 -0.1638  1.0967 -0.1437
 9058SOL     OW38635   0.695   3.734  11.443 -0.4151  0.1565  0.3591
 9058SOL    HW138636   0.626   3.776  11.493 -0.4221  0.9411 -0.2951
 9058SOL    HW238637   0.645   3.725  11.361  0.9303  0.8606 -0.5504
 9059SOL     OW38638   1.938   1.238  13.733  0.1300 -0.1962  0.6819
 9059SOL    HW138639   2.004   1.270  13.794 -1.5578 -0.1589  2.5051
 9059SOL    HW238640   1.866   1.302  13.734  0.9358  0.7076 -0.0689
 9060SOL     OW38641   2.553   2.109   8.074 -0.0871 -0.0661 -0.0281
 9060SOL    HW138642   2.461   2.091   8.055 -0.4286  1.3118  0.3033
 9060SOL    HW238643   2.563   2.053   8.151  0.9776  1.7748  1.1604
 9061SOL     OW38644   0.759   3.314  16.091 -0.6848  0.4680  0.6904
 9061SOL    HW138645   0.696   3.375  16.052  2.3885  0.4835 -4.2980
 9061SOL    HW238646   0.720   3.273  16.168 -1.9537 -0.9304 -0.6929
 9062SOL     OW38647   3.233   2.223   8.431 -0.0474  0.2055 -0.2563
 9062SOL    HW138648   3.188   2.274   8.363  0.9824 -1.1977 -1.9813
 9062SOL    HW238649   3.163   2.198   8.492  0.4148 -3.0852 -1.0741
 9063SOL     OW38650   1.440   3.949  16.005 -0.4863  0.0786 -0.0147
 9063SOL    HW138651   1.425   3.976  15.915  2.0514 -1.4931 -0.9143
 9063SOL    HW238652   1.403   4.023  16.053 -0.3829  0.7837 -1.0405
 9064SOL     OW38653   2.597   4.657  17.261 -0.5011  0.1742  0.0369
 9064SOL    HW138654   2.629   4.590  17.201 -0.7960  1.4241 -1.5133
 9064SOL    HW238655   2.570   4.598  17.331 -2.1785  3.2911  2.0411
 9065SOL     OW38656   4.444   4.361   6.798  0.4221  0.0239 -0.4092
 9065SOL    HW138657   4.458   4.347   6.892  0.2637 -0.8210 -0.5050
 9065SOL    HW238658   4.350   4.373   6.787  0.5902  0.7863 -0.9932
 9066SOL     OW38659   2.111   2.507   0.213  0.1967 -0.1863 -0.0395
 9066SOL    HW138660   2.189   2.492   0.160  1.4103  1.1020  1.3931
 9066SOL    HW238661   2.112   2.602   0.225 -1.5631 -0.1015 -0.5167
 9067SOL     OW38662   1.899   1.403  15.211 -0.3307 -0.5916 -0.0943
 9067SOL    HW138663   1.947   1.362  15.282  0.7827  1.7130  0.4769
 9067SOL    HW238664   1.809   1.401  15.246 -0.0150 -0.3965  0.7296
 9068SOL     OW38665   3.664   2.478   8.986  0.0091  0.2325  0.7972
 9068SOL    HW138666   3.579   2.439   8.966  0.5234 -0.1268 -0.7408
 9068SOL    HW238667   3.692   2.415   9.052 -0.1763 -2.1824 -1.3914
 9069SOL     OW38668   0.920   3.356   4.881  0.3989 -0.4593 -0.3535
 9069SOL    HW138669   0.972   3.277   4.890  1.6168  0.3070 -0.6954
 9069SOL    HW238670   0.882   3.349   4.969 -1.6798 -1.5356 -1.3220
 9070SOL     OW38671   0.528   3.042  14.455 -0.3475 -0.0264  0.3203
 9070SOL    HW138672   0.465   3.045  14.383 -1.1779 -0.9267  1.0280
 9070SOL    HW238673   0.476   3.079  14.526  0.2282  0.6540  0.3902
 9071SOL     OW38674   0.859   0.159  17.308 -0.0066  0.3227 -0.1193
 9071SOL    HW138675   0.864   0.089  17.243  3.8111  0.1755  0.3268
 9071SOL    HW238676   0.948   0.184  17.331  0.7056 -1.4566 -0.9655
 9072SOL     OW38677   2.651   4.149   6.542 -0.0116  0.0612 -0.0801
 9072SOL    HW138678   2.682   4.062   6.515 -1.6195 -0.3391 -0.6645
 9072SOL    HW238679   2.615   4.120   6.626 -1.4351  0.1329 -0.6673
 9073SOL     OW38680   3.506   0.405  15.427  0.5115 -0.3650  0.3026
 9073SOL    HW138681   3.560   0.388  15.504  1.2633  1.1887  0.1310
 9073SOL    HW238682   3.559   0.473  15.385 -0.1442  0.7185  1.2498
 9074SOL     OW38683   2.222   0.495   5.563  0.0075 -0.7526 -0.0918
 9074SOL    HW138684   2.317   0.497   5.565 -0.0005 -1.0385  0.7276
 9074SOL    HW238685   2.201   0.506   5.470  0.2807 -2.0886 -0.3215
 9075SOL     OW38686   2.467   0.421   0.390 -0.1922  0.2906  0.4245
 9075SOL    HW138687   2.480   0.372   0.472 -1.5559  0.5654  0.7995
 9075SOL    HW238688   2.465   0.345   0.332 -2.5606  0.0087  0.8512
 9076SOL     OW38689   0.975   0.236  14.984  0.2771 -0.2191 -0.3517
 9076SOL    HW138690   1.055   0.197  14.950  0.6772 -1.0291  1.5143
 9076SOL    HW238691   0.995   0.234  15.078 -2.5136  1.1201  0.2737
 9077SOL     OW38692   3.538   4.012   2.043 -0.1530  0.1266  0.2611
 9077SOL    HW138693   3.612   3.986   2.097 -0.9616 -2.5822  0.0832
 9077SOL    HW238694   3.571   4.090   1.999 -0.6402  0.0124 -0.3178
 9078SOL     OW38695   2.946   1.843  16.962 -0.3586  0.0782  0.5952
 9078SOL    HW138696   2.861   1.843  16.920  0.7229 -0.8361 -1.5977
 9078SOL    HW238697   2.964   1.749  16.960 -2.9478 -0.4540  2.1832
 9079SOL     OW38698   4.188   1.147  14.637 -0.3947 -0.3334  0.6313
 9079SOL    HW138699   4.198   1.105  14.723  0.4678 -3.3522 -0.9491
 9079SOL    HW238700   4.152   1.076  14.584 -0.1018 -0.1895  0.2415
 9080SOL     OW38701   2.005   0.834   7.157 -0.5678  0.2222 -0.2928
 9080SOL    HW138702   2.007   0.738   7.163 -1.8214  0.2246  0.0250
 9080SOL    HW238703   1.975   0.846   7.067  0.0416  0.3220 -0.4852
 9081SOL     OW38704   4.566   3.402   3.154 -1.5523  0.2482  0.4398
 9081SOL    HW138705   4.590   3.405   3.247 -0.0583  1.8220  0.0123
 9081SOL    HW238706   4.583   3.496   3.144 -0.4721 -0.1428 -1.3693
 9082SOL     OW38707   4.721   4.447   6.874  0.3611 -0.2998  0.8442
 9082SOL    HW138708   4.627   4.428   6.880 -0.1919  2.6382  1.3938
 9082SOL    HW238709   0.020   4.425   6.964  0.9956  0.6897  0.9110
 9083SOL     OW38710   0.820   0.769   1.395 -0.4567 -0.9679 -0.4854
 9083SOL    HW138711   0.731   0.741   1.415 -0.1715  0.2305  2.4270
 9083SOL    HW238712   0.810   0.854   1.353 -1.6701 -1.4777 -1.2325
 9084SOL     OW38713   3.109   1.998  17.116  0.0195  0.0559 -0.1020
 9084SOL    HW138714   3.051   1.925  17.096 -0.5338  0.5144 -0.1987
 9084SOL    HW238715   3.091   2.066  17.050 -0.0586 -0.2584 -0.4063
 9085SOL     OW38716   2.025   3.898   4.876 -0.3801  0.4738 -0.0569
 9085SOL    HW138717   2.096   3.960   4.890  1.5492 -1.9708  1.0670
 9085SOL    HW238718   2.065   3.831   4.820  0.6213  1.3123 -0.3483
 9086SOL     OW38719   3.724   0.227   9.913  0.0563  0.1784 -0.5367
 9086SOL    HW138720   3.813   0.223   9.878  0.1459  2.0640 -0.5207
 9086SOL    HW238721   3.695   0.137   9.896 -2.4333  0.9843 -0.5837
 9087SOL     OW38722   0.580   3.196   7.443 -0.2441 -0.1677 -0.3677
 9087SOL    HW138723   0.488   3.169   7.440 -0.2713 -0.3353  1.8351
 9087SOL    HW238724   0.599   3.190   7.349 -0.1262 -0.1718 -0.3436
 9088SOL     OW38725   3.125   0.846  11.948 -0.5234  0.2945  0.4260
 9088SOL    HW138726   3.166   0.831  11.862 -1.2607  0.2209  0.0855
 9088SOL    HW238727   3.079   0.762  11.953  0.1991 -0.0774  0.7559
 9089SOL     OW38728   2.543   4.536  14.515  0.6591  0.4586  0.9122
 9089SOL    HW138729   2.568   4.622  14.550  1.7175  0.7612 -0.5724
 9089SOL    HW238730   2.464   4.515  14.564 -1.0072 -1.4730 -2.6332
 9090SOL     OW38731   2.606   4.628   3.745  0.1034  0.5380 -0.5460
 9090SOL    HW138732   2.660   4.681   3.686  1.1105  0.3758  0.2233
 9090SOL    HW238733   2.529   4.635   3.689  0.2845  0.2663 -0.8294
 9091SOL     OW38734   4.450   1.825   3.649 -0.3487  1.0214 -0.0243
 9091SOL    HW138735   4.464   1.827   3.743 -0.6652  2.6565 -0.0214
 9091SOL    HW238736   4.358   1.799   3.645 -0.2770  0.7244  0.2224
 9092SOL     OW38737   0.978   0.418   5.480  0.3980 -0.3471 -0.2285
 9092SOL    HW138738   1.064   0.383   5.505  0.5171  0.2550  0.2010
 9092SOL    HW238739   0.950   0.453   5.565 -0.6764 -1.5801 -0.0718
 9093SOL     OW38740   0.843   0.977  14.280  0.0360  0.4084 -0.4670
 9093SOL    HW138741   0.812   0.932  14.359  0.2363  0.8307 -0.1501
 9093SOL    HW238742   0.881   0.900  14.237 -2.8338 -0.8260 -0.8286
 9094SOL     OW38743   1.190   3.996   3.700 -0.0036  0.8800 -0.2621
 9094SOL    HW138744   1.261   3.933   3.684 -0.7585  0.6364 -2.6300
 9094SOL    HW238745   1.123   3.970   3.637 -0.0993  0.4208  0.0328
 9095SOL     OW38746   2.543   0.192  16.900 -0.0437  0.5666 -0.3200
 9095SOL    HW138747   2.477   0.122  16.902  2.9323 -2.1718  1.6150
 9095SOL    HW238748   2.613   0.170  16.961 -0.6612  3.1161  1.3648
 9096SOL     OW38749   4.005   3.894   8.073  0.0239  0.3576  0.1843
 9096SOL    HW138750   3.947   3.965   8.101 -0.7042  0.3110 -1.2134
 9096SOL    HW238751   4.016   3.853   8.158  0.8155 -1.8151 -0.9691
 9097SOL     OW38752   1.394   4.611   9.084 -0.3646 -0.5074 -0.0187
 9097SOL    HW138753   1.427   4.701   9.089 -3.3373  0.6898 -2.1102
 9097SOL    HW238754   1.369   4.594   9.175 -0.1292 -2.0370 -0.2316
 9098SOL     OW38755   0.580   2.999   4.513 -0.3196 -0.7175 -0.3626
 9098SOL    HW138756   0.558   3.073   4.456 -1.5820 -1.5485 -0.9371
 9098SOL    HW238757   0.633   2.945   4.455 -0.7491 -2.1129  0.5398
 9099SOL     OW38758   3.267   4.314   7.719 -0.4562 -0.1492  0.3611
 9099SOL    HW138759   3.263   4.309   7.623 -2.1749  0.8789  0.3758
 9099SOL    HW238760   3.329   4.387   7.727  0.7260 -1.1159 -0.0356
 9100SOL     OW38761   3.690   3.039   8.036  0.3340 -0.0982 -0.2566
 9100SOL    HW138762   3.691   2.958   8.087 -2.6195  0.5618  0.8108
 9100SOL    HW238763   3.664   3.102   8.104  0.7625  0.7986 -0.9201
 9101SOL     OW38764   1.997   2.241  13.115  0.1093 -0.2466  0.1350
 9101SOL    HW138765   2.092   2.248  13.110 -0.0489  1.5926 -0.0513
 9101SOL    HW238766   1.987   2.145  13.114 -0.6123 -0.1664 -0.3085
 9102SOL     OW38767   0.977   3.183  16.770 -0.6304 -0.3049  0.2941
 9102SOL    HW138768   0.952   3.123  16.699  0.0638 -0.7817  0.4475
 9102SOL    HW238769   1.063   3.146  16.786 -1.7483 -1.6966  3.0702
 9103SOL     OW38770   1.287   3.818   7.260 -0.0126  0.1464  0.2293
 9103SOL    HW138771   1.374   3.819   7.298  0.2865 -2.5544 -0.3615
 9103SOL    HW238772   1.245   3.754   7.318  0.5240  0.8166  1.3513
 9104SOL     OW38773   2.050   3.006   5.229 -0.5496 -0.3098 -0.0568
 9104SOL    HW138774   2.008   2.955   5.160 -0.4616 -0.8469  0.2914
 9104SOL    HW238775   1.977   3.024   5.289  2.6917  2.7682  2.9438
 9105SOL     OW38776   1.034   4.669   1.665  0.1207  0.3377  0.3262
 9105SOL    HW138777   1.064   0.001   1.735  1.1517 -0.8429  0.8544
 9105SOL    HW238778   1.078   4.587   1.689  0.7196  0.3904 -0.5668
 9106SOL     OW38779   2.869   0.148   5.585 -0.2374 -0.3436  0.4097
 9106SOL    HW138780   2.880   0.058   5.555 -0.4356  0.0073 -0.7248
 9106SOL    HW238781   2.785   0.147   5.631  0.4649 -1.3014  1.6736
 9107SOL     OW38782   3.204   1.083   1.034 -0.0401  0.4127 -0.5591
 9107SOL    HW138783   3.146   1.126   1.096 -0.8388 -2.1355  0.4642
 9107SOL    HW238784   3.211   1.155   0.971 -1.8542  0.5055 -0.6482
 9108SOL     OW38785   1.686   4.452   6.904 -0.2845  0.4873  0.0276
 9108SOL    HW138786   1.775   4.418   6.898 -0.1345  0.7859  0.5826
 9108SOL    HW238787   1.657   4.399   6.978 -2.3026  0.6504 -0.6521
 9109SOL     OW38788   3.312   4.645   0.167  0.4852 -0.2761  0.0206
 9109SOL    HW138789   3.232   4.612   0.209  0.8603 -0.2671  0.7376
 9109SOL    HW238790   3.369   4.658   0.243  1.2672  0.6638 -0.7243
 9110SOL     OW38791   1.357   2.432  13.167  0.0652 -0.0429  0.0991
 9110SOL    HW138792   1.428   2.370  13.184  1.6371  2.0597  1.0682
 9110SOL    HW238793   1.292   2.408  13.233 -0.4143  1.0868  0.0276
 9111SOL     OW38794   2.444   2.003   8.306  0.7376 -0.6680 -0.2039
 9111SOL    HW138795   2.488   2.001   8.391  2.2249 -1.7298 -0.9942
 9111SOL    HW238796   2.370   2.059   8.328  1.2515  0.1045 -0.4574
 9112SOL     OW38797   3.768   3.665   0.589  0.9086 -0.3088 -1.0181
 9112SOL    HW138798   3.673   3.661   0.601  1.0219  1.2292  0.3833
 9112SOL    HW238799   3.787   3.759   0.588  0.9944 -0.2832  3.0599
 9113SOL     OW38800   2.039   1.762   8.882 -0.8828 -0.1579 -0.4021
 9113SOL    HW138801   1.950   1.752   8.848 -0.5481 -0.0901 -1.3055
 9113SOL    HW238802   2.023   1.844   8.928  0.5515  0.7331 -1.4648
 9114SOL     OW38803   4.330   4.268   2.030  0.2224 -0.5478  0.9916
 9114SOL    HW138804   4.273   4.335   2.068  0.8834  0.8387 -0.4771
 9114SOL    HW238805   4.328   4.311   1.944  1.4108 -0.6066  0.9408
 9115SOL     OW38806   0.264   0.437  15.523  0.4656 -0.3659  0.0704
 9115SOL    HW138807   0.192   0.500  15.519  0.1916 -0.7160 -0.5589
 9115SOL    HW238808   0.334   0.497  15.497  2.0217 -1.3710  1.9818
 9116SOL     OW38809   3.405   4.543   5.072  0.0390 -0.2199  0.5011
 9116SOL    HW138810   3.422   4.453   5.045  1.0966 -0.2337  1.2001
 9116SOL    HW238811   3.459   4.555   5.150 -1.9935 -0.8128  2.0010
 9117SOL     OW38812   2.214   4.384   5.040  0.0322  0.0121  1.0126
 9117SOL    HW138813   2.145   4.400   4.975 -1.5519 -0.3830  2.5758
 9117SOL    HW238814   2.265   4.319   4.993 -0.5372  0.8385 -0.7381
 9118SOL     OW38815   4.406   0.116   1.905 -0.3189  0.5862 -0.1662
 9118SOL    HW138816   4.336   0.065   1.946  0.6472 -0.1442  0.5619
 9118SOL    HW238817   4.446   0.151   1.985 -3.3949  1.3155  1.0456
 9119SOL     OW38818   4.204   1.384   0.700  0.2463 -0.4745  0.4759
 9119SOL    HW138819   4.290   1.423   0.721 -0.1891 -0.5505  2.3262
 9119SOL    HW238820   4.200   1.316   0.767  0.3981 -0.1744  0.7925
 9120SOL     OW38821   4.217   0.681   6.288 -0.6671  0.5413  0.2838
 9120SOL    HW138822   4.173   0.679   6.373  0.5730  0.6472  0.9280
 9120SOL    HW238823   4.282   0.612   6.302 -2.0082 -0.8309 -0.3141
 9121SOL     OW38824   3.229   0.552   0.413 -0.0063  0.1323 -0.7531
 9121SOL    HW138825   3.206   0.619   0.477  0.2844  1.6540 -2.2383
 9121SOL    HW238826   3.250   0.483   0.477 -0.1441 -0.5825 -1.4791
 9122SOL     OW38827   1.740   3.823  16.769 -0.6281 -0.1015 -0.0928
 9122SOL    HW138828   1.744   3.741  16.818 -1.1913 -0.4023 -0.5621
 9122SOL    HW238829   1.705   3.877  16.840 -1.4071 -2.7734  1.5667
 9123SOL     OW38830   0.725   2.850   6.203 -0.9704 -0.1351 -0.3340
 9123SOL    HW138831   0.648   2.803   6.236  0.8563 -1.7386  1.6536
 9123SOL    HW238832   0.703   2.942   6.193 -1.0175 -0.1644 -0.5080
 9124SOL     OW38833   1.337   0.076  13.554 -0.7309  0.1645  0.0921
 9124SOL    HW138834   1.309   0.149  13.498  1.1650  2.3237  1.9542
 9124SOL    HW238835   1.430   0.077  13.533 -0.7883 -0.5007 -0.1725
 9125SOL     OW38836   4.490   3.300   0.914  0.0018  0.3076 -0.5792
 9125SOL    HW138837   4.438   3.313   0.993  1.0746 -0.0515  0.1809
 9125SOL    HW238838   4.572   3.348   0.925  0.3781 -0.4764  0.0514
 9126SOL     OW38839   2.121   0.942  13.167 -0.5558 -0.4943  0.1961
 9126SOL    HW138840   2.143   0.870  13.108 -1.0824 -0.9092  0.4977
 9126SOL    HW238841   2.096   0.896  13.247 -0.2679 -0.9042  0.0509
 9127SOL     OW38842   1.603   2.013   5.433 -0.0207 -0.6386 -0.2542
 9127SOL    HW138843   1.646   1.929   5.419  0.7021 -0.1717 -0.8768
 9127SOL    HW238844   1.592   2.043   5.342  2.2379  2.1706  0.4143
 9128SOL     OW38845   2.350   3.225   4.533 -0.0793 -0.3213 -0.0288
 9128SOL    HW138846   2.288   3.184   4.473  1.1970  0.1364 -1.6598
 9128SOL    HW238847   2.384   3.154   4.589  0.0210  2.1937  3.1024
 9129SOL     OW38848   0.665   1.421   1.905 -0.1128  0.1479 -0.6291
 9129SOL    HW138849   0.737   1.479   1.931 -0.6788 -0.0602  1.3713
 9129SOL    HW238850   0.696   1.333   1.926  1.0696  0.2570 -1.8893
 9130SOL     OW38851   0.606   4.583   0.571 -0.0003  1.0125 -0.2101
 9130SOL    HW138852   0.582   4.567   0.662  0.4828 -0.0929 -0.2770
 9130SOL    HW238853   0.667   4.656   0.582 -1.1872  1.9981 -0.2884
 9131SOL     OW38854   2.301   0.771  15.584 -0.0658 -0.2120 -0.3296
 9131SOL    HW138855   2.288   0.825  15.507  4.7867 -0.8803 -1.6548
 9131SOL    HW238856   2.372   0.825  15.620  0.4230 -0.7339 -0.5071
 9132SOL     OW38857   4.367   0.904  10.397  0.6304  0.4254  0.9599
 9132SOL    HW138858   4.403   0.960  10.465  0.3701  0.3362  1.1741
 9132SOL    HW238859   4.287   0.950  10.373 -0.9405 -2.9613 -0.3248
 9133SOL     OW38860   4.210   1.900   4.898 -0.5768  0.6269  0.2532
 9133SOL    HW138861   4.213   1.854   4.982 -1.5358  2.6175  1.3942
 9133SOL    HW238862   4.118   1.927   4.896 -0.3989  1.2238 -0.0047
 9134SOL     OW38863   3.050   3.331  13.534  0.1896 -0.0801  0.2198
 9134SOL    HW138864   3.049   3.351  13.628 -0.2315 -2.8447  0.8007
 9134SOL    HW238865   3.061   3.236  13.539 -0.7783 -0.2598 -1.2965
 9135SOL     OW38866   4.270   2.907   3.207  0.1327  0.0748 -0.3021
 9135SOL    HW138867   4.322   2.980   3.241  0.8040  0.1849 -1.5924
 9135SOL    HW238868   4.271   2.918   3.112  2.2450  2.8128  0.0520
 9136SOL     OW38869   2.546   1.066   2.140 -0.2696  0.0689 -0.2898
 9136SOL    HW138870   2.578   0.987   2.183  0.6059  0.4284 -0.2865
 9136SOL    HW238871   2.547   1.127   2.214  0.1673 -0.7491  0.3735
 9137SOL     OW38872   2.144   4.078   6.469 -0.2617  0.0995  0.2149
 9137SOL    HW138873   2.227   4.117   6.495 -1.5830  2.2724  1.1381
 9137SOL    HW238874   2.147   4.012   6.538  0.0612 -0.5944 -0.4611
 9138SOL     OW38875   0.200   3.081  16.336  0.5192  0.5676  0.5303
 9138SOL    HW138876   0.151   3.142  16.391  2.4530  0.9897  1.7739
 9138SOL    HW238877   0.285   3.074  16.380  1.0434  0.1552 -0.5530
 9139SOL     OW38878   2.322   0.807   9.859 -0.0109 -0.4195 -0.3977
 9139SOL    HW138879   2.395   0.772   9.910 -1.3742 -1.5852  0.7404
 9139SOL    HW238880   2.262   0.733   9.858  0.2407 -0.6267  0.3810
 9140SOL     OW38881   4.037   2.300  12.355 -0.2976  0.0115 -0.2594
 9140SOL    HW138882   4.079   2.385  12.368 -0.5021 -0.1377  1.4470
 9140SOL    HW238883   3.973   2.316  12.286  0.0427 -0.9441 -0.7932
 9141SOL     OW38884   3.013   3.469   9.058  0.0618 -0.0056  0.1581
 9141SOL    HW138885   3.032   3.397   9.118 -0.4252 -0.6418 -0.4646
 9141SOL    HW238886   3.084   3.529   9.080  0.5556  0.5871 -3.0000
 9142SOL     OW38887   2.392   4.018   2.289 -0.2867 -0.0916 -0.3015
 9142SOL    HW138888   2.427   3.977   2.209  2.6671  1.3725  0.2290
 9142SOL    HW238889   2.391   4.111   2.269 -0.7411 -0.3622 -1.5796
 9143SOL     OW38890   0.300   1.058  17.216 -0.0947 -0.0409 -0.4691
 9143SOL    HW138891   0.236   1.114  17.172 -2.8991 -1.1477  2.2152
 9143SOL    HW238892   0.337   1.020  17.136 -2.4986 -0.0998 -1.5483
 9144SOL     OW38893   0.767   1.369  17.481  0.1573 -0.2887  0.0217
 9144SOL    HW138894   0.819   1.331  17.552 -0.4375 -1.1667  0.0002
 9144SOL    HW238895   0.682   1.328  17.500  1.1412 -2.4469 -0.2447
 9145SOL     OW38896   0.950   3.376   1.079 -0.1968  0.4220  0.0338
 9145SOL    HW138897   1.026   3.321   1.060 -0.2977  0.5468 -0.7203
 9145SOL    HW238898   0.948   3.351   1.172  1.6963 -0.7727 -0.2376
 9146SOL     OW38899   3.501   1.529   8.188  0.0565 -0.5284 -0.1071
 9146SOL    HW138900   3.465   1.612   8.157 -0.6523 -0.6824  0.3104
 9146SOL    HW238901   3.466   1.526   8.277  0.3801  0.3753  0.0532
 9147SOL     OW38902   0.104   3.212   9.268  0.3109 -0.3008 -0.0392
 9147SOL    HW138903   0.056   3.163   9.201 -0.6899 -0.8698  1.0827
 9147SOL    HW238904   0.058   3.177   9.345  2.0269 -0.8681  0.7258
 9148SOL     OW38905   0.407   0.788   6.587 -0.1353 -0.4889  0.6679
 9148SOL    HW138906   0.394   0.732   6.664 -0.0495  0.2977  1.2568
 9148SOL    HW238907   0.475   0.742   6.537 -0.6779 -0.3627 -0.1843
 9149SOL     OW38908   0.042   4.405  16.314  0.9928  0.4588 -0.2442
 9149SOL    HW138909   0.030   4.484  16.260  0.5035 -0.0673 -0.9027
 9149SOL    HW238910   4.673   4.391  16.319  0.8208  1.7227  0.0513
 9150SOL     OW38911   2.333   4.591   2.245  0.2925 -0.0056 -0.4862
 9150SOL    HW138912   2.259   4.591   2.305  1.6578  0.3995  1.2009
 9150SOL    HW238913   2.337   4.496   2.240 -1.7197 -0.1136 -0.1565
 9151SOL     OW38914   1.160   1.359  13.891 -0.1849 -0.6541 -0.1185
 9151SOL    HW138915   1.218   1.314  13.952 -0.3045 -1.7043 -0.7798
 9151SOL    HW238916   1.146   1.292  13.824 -0.4228 -2.0887  1.3533
 9152SOL     OW38917   0.698   4.160   0.409  0.2271 -0.1308 -0.0022
 9152SOL    HW138918   0.682   4.172   0.503 -0.1341  0.4329 -0.1317
 9152SOL    HW238919   0.609   4.167   0.373  0.2124  1.2024  0.3086
 9153SOL     OW38920   4.314   2.371   3.528 -0.0075  0.0251 -0.4219
 9153SOL    HW138921   4.265   2.405   3.453 -2.2134  1.1807  1.5438
 9153SOL    HW238922   4.237   2.377   3.585  0.7474 -2.5866  0.8556
 9154SOL     OW38923   2.624   2.393   1.186  0.4080 -0.1821 -0.5290
 9154SOL    HW138924   2.618   2.342   1.267 -0.6506 -1.6570 -1.5390
 9154SOL    HW238925   2.714   2.381   1.156  1.2064 -0.5024  2.0175
 9155SOL     OW38926   4.058   1.472   9.067  0.1847 -0.0595 -0.4650
 9155SOL    HW138927   4.103   1.404   9.118 -0.6823  0.0990  0.5096
 9155SOL    HW238928   4.042   1.427   8.984 -0.1079  0.3337 -0.6175
 9156SOL     OW38929   4.656   2.663   5.000  0.3193  0.2984  0.2783
 9156SOL    HW138930   4.573   2.702   4.973  0.3851  0.9619  1.0616
 9156SOL    HW238931   4.634   2.571   4.982 -3.1649  1.2039 -0.1356
 9157SOL     OW38932   3.402   1.518   4.031  0.1006  0.4844 -0.1970
 9157SOL    HW138933   3.338   1.580   4.065  1.0283  1.8101 -0.8349
 9157SOL    HW238934   3.351   1.438   4.020  1.1239 -0.4056  1.6168
 9158SOL     OW38935   0.856   4.362  14.134 -0.2736  0.0832 -0.2713
 9158SOL    HW138936   0.943   4.394  14.158  0.3569 -1.2449 -0.7831
 9158SOL    HW238937   0.808   4.404  14.206  1.7601  3.7491 -1.0513
 9159SOL     OW38938   3.404   1.366  16.427  0.0264 -0.4063  0.0884
 9159SOL    HW138939   3.341   1.310  16.471 -0.4241  0.0720  0.0529
 9159SOL    HW238940   3.477   1.351  16.488  0.6164  1.8297 -0.0482
 9160SOL     OW38941   1.589   2.768   4.639  0.1298  0.0305  0.0542
 9160SOL    HW138942   1.612   2.751   4.547  1.4780 -0.1929  0.4261
 9160SOL    HW238943   1.656   2.720   4.687  1.1901  1.2211 -0.2270
 9161SOL     OW38944   2.099   0.729   8.152  0.1515 -0.4975 -0.3612
 9161SOL    HW138945   2.126   0.803   8.099 -1.2348 -2.1211 -3.3312
 9161SOL    HW238946   2.176   0.673   8.156 -0.8511 -1.8113  0.7462
 9162SOL     OW38947   2.638   0.828   6.161 -0.7253  0.3363 -0.1271
 9162SOL    HW138948   2.671   0.745   6.126  1.3094  0.2316  1.9737
 9162SOL    HW238949   2.554   0.800   6.196  0.2010 -0.8356  1.1523
 9163SOL     OW38950   1.215   4.148  14.888 -0.0887  0.7314  0.1323
 9163SOL    HW138951   1.310   4.155  14.878  0.1028 -3.3868 -1.2524
 9163SOL    HW238952   1.217   4.097  14.969  1.0727 -1.0345 -1.0004
 9164SOL     OW38953   4.463   4.414   0.200 -0.0727  0.3687  0.5378
 9164SOL    HW138954   4.534   4.459   0.154 -0.0772 -0.5393 -0.3669
 9164SOL    HW238955   4.498   4.402   0.288  1.7880  0.1871 -0.2358
 9165SOL     OW38956   0.090   1.120   4.590  0.4294 -0.2247  0.2102
 9165SOL    HW138957   0.092   1.135   4.495 -1.7106  0.8714  0.3428
 9165SOL    HW238958   0.038   1.040   4.585 -3.0111  1.9855  0.9816
 9166SOL     OW38959   0.583   4.510   6.561  0.1510  0.0591  0.2577
 9166SOL    HW138960   0.524   4.438   6.537  1.9313 -1.3062 -0.0867
 9166SOL    HW238961   0.599   4.547   6.474 -2.5631  0.0720 -0.2357
 9167SOL     OW38962   2.013   2.600   6.988  0.1975 -0.3601 -0.7300
 9167SOL    HW138963   2.031   2.519   7.034 -0.9455 -0.5836 -0.6579
 9167SOL    HW238964   2.004   2.653   7.068 -1.4575 -2.8438  0.7429
 9168SOL     OW38965   4.381   3.473   0.705 -0.0308 -0.2087  0.3036
 9168SOL    HW138966   4.425   3.397   0.744 -0.5946  0.3941  2.0767
 9168SOL    HW238967   4.440   3.539   0.742  1.3191 -1.7991  0.9952
 9169SOL     OW38968   0.918   2.148  16.324 -0.6946  0.6480  0.3538
 9169SOL    HW138969   0.846   2.210  16.332  0.3166  1.7454  0.8577
 9169SOL    HW238970   0.983   2.203  16.366 -0.1832 -0.4091  0.9645
 9170SOL     OW38971   1.679   0.136   6.270  0.3341  0.4585  0.3882
 9170SOL    HW138972   1.689   0.042   6.279 -1.0871  0.2928  0.1810
 9170SOL    HW238973   1.610   0.155   6.333  1.3299  2.3842  0.9041
 9171SOL     OW38974   3.125   2.805   7.202 -0.3208  0.6710  0.3232
 9171SOL    HW138975   3.168   2.860   7.136 -0.2154  1.2281  0.8534
 9171SOL    HW238976   3.072   2.867   7.253 -0.9701 -0.8103  1.4501
 9172SOL     OW38977   0.171   2.334  12.012 -0.2195 -0.1808  0.5714
 9172SOL    HW138978   0.209   2.364  12.094  1.5421 -0.0776 -0.2790
 9172SOL    HW238979   0.228   2.383  11.952  0.1134 -1.3895 -0.0975
 9173SOL     OW38980   4.665   2.871   8.425  0.0260 -0.2077  0.5709
 9173SOL    HW138981   4.579   2.883   8.386  0.1759 -0.5643  0.1251
 9173SOL    HW238982   4.639   2.875   8.517  1.0599  1.2981  0.8070
 9174SOL     OW38983   3.114   3.943   1.311 -0.5225 -0.0187  0.0627
 9174SOL    HW138984   3.203   3.977   1.308 -1.9111  3.4894 -0.8786
 9174SOL    HW238985   3.122   3.866   1.367 -0.6168  0.9737  1.4535
 9175SOL     OW38986   4.141   4.700   5.744  0.6089  0.0580  0.0174
 9175SOL    HW138987   4.235   4.716   5.748  0.5137  0.8583 -0.8237
 9175SOL    HW238988   4.126   0.010   5.656  2.5713 -2.3311 -1.2765
 9176SOL     OW38989   0.363   0.087  11.781 -0.1097  0.0471  0.6907
 9176SOL    HW138990   0.353   0.178  11.808 -0.1205  0.0329  0.7364
 9176SOL    HW238991   0.372   0.048  11.868 -1.4169 -0.5584  0.5665
 9177SOL     OW38992   3.150   1.281   4.618 -0.0158  0.0470  0.3101
 9177SOL    HW138993   3.212   1.220   4.579 -1.7443 -1.4175 -0.1788
 9177SOL    HW238994   3.144   1.236   4.702 -0.3608 -0.7766 -0.1598
 9178SOL     OW38995   2.436   4.521   6.466 -0.0952  0.5967  0.2383
 9178SOL    HW138996   2.405   4.453   6.406  2.1000  0.3244 -0.6159
 9178SOL    HW238997   2.437   4.594   6.405  0.1638 -1.4561 -2.2230
 9179SOL     OW38998   1.107   2.756   5.255 -0.1967 -0.1123 -0.2041
 9179SOL    HW138999   1.171   2.710   5.200  0.4613  0.9841 -0.3543
 9179SOL    HW239000   1.034   2.743   5.194 -0.4121 -0.7409  0.1892
 9180SOL     OW39001   2.100   3.309   4.643 -0.0507  0.3295 -0.0560
 9180SOL    HW139002   2.112   3.402   4.626  0.5424 -0.1538 -2.3666
 9180SOL    HW239003   2.189   3.275   4.631 -0.1131  0.2381 -0.2701
 9181SOL     OW39004   2.503   4.071   5.919  0.2993  0.3414  0.0793
 9181SOL    HW139005   2.585   4.031   5.947 -2.0672 -2.2562  3.4345
 9181SOL    HW239006   2.520   4.158   5.956  0.9057  0.3214 -0.1502
 9182SOL     OW39007   4.108   2.499   6.610  0.3235 -0.4862  0.8170
 9182SOL    HW139008   4.054   2.429   6.575  1.0209 -1.7055  2.1955
 9182SOL    HW239009   4.193   2.466   6.582 -0.0900 -0.1145 -0.8772
 9183SOL     OW39010   0.139   0.341   4.551 -0.1201  0.6095  0.4176
 9183SOL    HW139011   0.116   0.276   4.484  1.7666  0.9970 -0.6117
 9183SOL    HW239012   0.198   0.292   4.607  2.2851  1.5424 -1.2898
 9184SOL     OW39013   2.218   2.531   8.347 -0.6956 -0.1845 -0.2222
 9184SOL    HW139014   2.269   2.491   8.277  1.5584  1.3512  0.5654
 9184SOL    HW239015   2.287   2.538   8.413  0.4133 -2.3511 -1.1739
 9185SOL     OW39016   0.211   4.096  17.266 -0.1050 -0.0944 -0.1759
 9185SOL    HW139017   0.172   4.013  17.240  0.1105 -0.4060  0.5053
 9185SOL    HW239018   0.260   4.110  17.184 -0.9502 -0.5323 -0.7585
 9186SOL     OW39019   1.037   1.704   4.873  0.1384  0.5947 -0.0680
 9186SOL    HW139020   1.077   1.648   4.807 -1.1248  1.5263 -1.6173
 9186SOL    HW239021   1.012   1.783   4.825 -0.5109  1.7000  2.1041
 9187SOL     OW39022   2.137   0.574   5.301  0.0379 -0.3801  0.1726
 9187SOL    HW139023   2.053   0.618   5.316  0.4950  0.1753  1.1125
 9187SOL    HW239024   2.120   0.501   5.242 -0.3224  1.1725 -1.6458
 9188SOL     OW39025   1.016   3.270   3.286 -0.3452 -0.2070  0.1389
 9188SOL    HW139026   0.980   3.203   3.345 -1.6676  0.6481  0.3126
 9188SOL    HW239027   1.095   3.223   3.259  0.9962  0.8740  2.2487
 9189SOL     OW39028   3.712   2.346   5.887  0.7428  0.0831  0.5893
 9189SOL    HW139029   3.703   2.438   5.912  0.8972  0.4247 -0.5983
 9189SOL    HW239030   3.804   2.342   5.912  0.9957  1.2742 -0.1293
 9190SOL     OW39031   2.449   3.687   0.681  0.4076 -0.3229 -0.2581
 9190SOL    HW139032   2.443   3.717   0.772  2.3278  1.1317 -0.6205
 9190SOL    HW239033   2.366   3.641   0.665  0.5399 -0.7537  0.2874
 9191SOL     OW39034   1.023   0.195   1.421  0.4840 -0.1106 -0.1000
 9191SOL    HW139035   0.933   0.163   1.418  0.9559 -1.3618 -0.8251
 9191SOL    HW239036   1.027   0.259   1.350 -0.1999 -1.7818 -1.6284
 9192SOL     OW39037   1.435   4.208  10.178  0.1122 -0.1333 -0.7268
 9192SOL    HW139038   1.519   4.174  10.146  1.0285 -1.3592  3.0025
 9192SOL    HW239039   1.466   4.236  10.264 -0.0878 -1.9520 -0.0553
 9193SOL     OW39040   1.217   3.879  12.223 -0.2418  0.0200  0.0876
 9193SOL    HW139041   1.202   3.840  12.309  0.2270 -0.7092 -0.1519
 9193SOL    HW239042   1.312   3.868  12.217 -0.4176 -2.4815  1.8885
 9194SOL     OW39043   1.045   2.985   6.173 -0.3744  0.3742  0.4929
 9194SOL    HW139044   1.042   2.984   6.077  2.2764 -1.7588  0.4368
 9194SOL    HW239045   1.134   3.014   6.191 -0.7961  0.9554  1.6241
 9195SOL     OW39046   1.627   2.717   5.301  0.4507  0.3236 -0.0342
 9195SOL    HW139047   1.648   2.709   5.208  1.3197 -2.6548  0.3981
 9195SOL    HW239048   1.707   2.758   5.333 -0.4683  1.8623  0.2843
 9196SOL     OW39049   1.095   2.053  16.541 -0.8451  0.7341  0.1953
 9196SOL    HW139050   1.149   1.982  16.507 -0.6460  1.8226 -1.7605
 9196SOL    HW239051   1.017   2.028  16.492  0.1547 -1.0947 -0.4544
 9197SOL     OW39052   2.633   3.940  11.421  0.3943 -0.0083 -0.1293
 9197SOL    HW139053   2.653   3.965  11.511 -2.1754 -0.0798  0.4750
 9197SOL    HW239054   2.701   3.978  11.366  0.5415 -0.7690 -0.4656
 9198SOL     OW39055   2.956   2.105   4.412 -0.0877 -0.1629  0.1338
 9198SOL    HW139056   3.008   2.171   4.364  1.2492 -0.8227  0.6708
 9198SOL    HW239057   2.950   2.027   4.358 -3.1162  0.6269 -0.6348
 9199SOL     OW39058   2.924   0.089   7.155 -0.0527 -0.2175  0.2843
 9199SOL    HW139059   2.934   0.093   7.060 -0.0674 -1.7710  0.2121
 9199SOL    HW239060   2.996   0.132   7.202  1.1107 -0.2150 -1.5201
 9200SOL     OW39061   4.027   3.722   8.293  0.5291  0.1694  0.1279
 9200SOL    HW139062   3.962   3.726   8.363 -1.3522  1.1735 -1.6822
 9200SOL    HW239063   4.046   3.628   8.283  0.5379  0.0843  0.9234
 9201SOL     OW39064   1.345   2.207   8.580 -0.2352 -0.1357  0.0196
 9201SOL    HW139065   1.270   2.267   8.580 -1.1926 -1.3315 -0.1615
 9201SOL    HW239066   1.371   2.234   8.492 -1.9939 -0.6106 -0.6538
 9202SOL     OW39067   4.176   0.404  12.559 -0.2417  0.1129 -0.4063
 9202SOL    HW139068   4.140   0.402  12.470 -3.1911 -0.1135  0.7711
 9202SOL    HW239069   4.265   0.377  12.540 -1.1175 -0.7656 -3.1762
 9203SOL     OW39070   4.298   4.309  11.020  0.0251  0.9203 -0.2434
 9203SOL    HW139071   4.350   4.382  10.988  1.4552  0.3175  0.7256
 9203SOL    HW239072   4.361   4.280  11.085 -0.8607  3.9045  1.9489
 9204SOL     OW39073   2.417   0.809   7.033  0.1006  0.0633 -0.7868
 9204SOL    HW139074   2.498   0.799   6.983 -0.3671  0.5596 -1.6394
 9204SOL    HW239075   2.449   0.768   7.114  0.9988  1.8406 -0.2455
 9205SOL     OW39076   0.810   0.001  14.714  0.1728  0.8421 -0.0761
 9205SOL    HW139077   0.763   0.043  14.786  3.1714  0.7935  1.9313
 9205SOL    HW239078   0.876   4.676  14.760 -1.9365  0.0491  2.0158
 9206SOL     OW39079   0.908   4.125   6.829 -0.1711  0.6778  0.8460
 9206SOL    HW139080   0.832   4.165   6.787  0.1591 -0.4447 -0.7994
 9206SOL    HW239081   0.897   4.036   6.797  1.9158  0.8949 -0.4491
 9207SOL     OW39082   0.861   3.094  10.363 -0.2301  0.3557 -0.0817
 9207SOL    HW139083   0.826   3.040  10.291  0.5923  0.4958 -0.5856
 9207SOL    HW239084   0.786   3.092  10.422 -0.0029  1.9249  0.2532
 9208SOL     OW39085   1.386   3.855   8.051 -0.3343 -0.4113 -0.6096
 9208SOL    HW139086   1.443   3.922   8.014 -1.0272 -0.5129 -1.8696
 9208SOL    HW239087   1.378   3.803   7.971  2.4910 -0.9060 -0.5616
 9209SOL     OW39088   0.394   3.416   0.056  0.1258 -0.1076 -0.1404
 9209SOL    HW139089   0.318   3.420   0.114 -1.4803 -1.3570 -2.1500
 9209SOL    HW239090   0.407   3.323   0.040 -0.8702 -0.2223 -0.3127
 9210SOL     OW39091   4.138   1.988   7.296 -0.2573 -0.3997  0.2231
 9210SOL    HW139092   4.155   2.071   7.341  1.4017 -0.7344  0.1903
 9210SOL    HW239093   4.056   1.949   7.329 -1.1710 -0.3416 -2.0236
 9211SOL     OW39094   2.531   1.981   1.313  0.5093 -0.5880  0.3235
 9211SOL    HW139095   2.591   2.038   1.361  0.8319 -0.4234 -0.2671
 9211SOL    HW239096   2.506   1.926   1.387 -2.5293 -1.6982 -1.5453
 9212SOL     OW39097   4.424   1.999   3.462  0.0917 -0.0193  0.2581
 9212SOL    HW139098   4.439   1.934   3.531  0.5781  0.4988  0.6412
 9212SOL    HW239099   4.458   2.080   3.499  0.6786 -0.1312 -0.0366
 9213SOL     OW39100   3.707   3.049   6.211  0.0722 -0.5598  0.4022
 9213SOL    HW139101   3.734   3.133   6.175  0.3730 -0.5534  0.6441
 9213SOL    HW239102   3.743   3.050   6.300  0.8287 -0.6711  0.0934
 9214SOL     OW39103   4.226   1.827   7.761  0.3187  0.2189 -0.5901
 9214SOL    HW139104   4.131   1.821   7.753  0.2540 -0.9579  1.2365
 9214SOL    HW239105   4.223   1.776   7.842  2.9455  0.4520 -0.3425
 9215SOL     OW39106   4.245   0.236   4.957  0.1979 -0.1774  0.4481
 9215SOL    HW139107   4.202   0.208   4.876  1.7338 -0.4763 -0.2518
 9215SOL    HW239108   4.220   0.328   4.965  1.1306  0.2658 -1.6659
 9216SOL     OW39109   4.404   0.443   1.058  0.3289 -1.0427 -0.0293
 9216SOL    HW139110   4.475   0.412   1.115  1.0223 -1.9517 -1.3609
 9216SOL    HW239111   4.328   0.393   1.087 -0.6077  0.3264 -0.1486
 9217SOL     OW39112   3.091   0.267   0.724  0.5664 -0.0157 -0.0322
 9217SOL    HW139113   3.130   0.247   0.809 -0.0269 -0.2540  0.1793
 9217SOL    HW239114   3.024   0.200   0.728 -0.0443  0.6422  0.6498
 9218SOL     OW39115   3.712   2.730  14.897  0.3565 -0.4296  0.4170
 9218SOL    HW139116   3.663   2.737  14.816  0.7867 -0.6944  0.1353
 9218SOL    HW239117   3.708   2.818  14.934  0.3516 -0.1985 -0.1358
 9219SOL     OW39118   2.800   1.567   5.259  0.1250 -0.2418  0.0818
 9219SOL    HW139119   2.762   1.532   5.341  1.2215 -1.7206 -0.0356
 9219SOL    HW239120   2.771   1.505   5.192  0.6407 -1.0499  0.6044
 9220SOL     OW39121   0.326   2.883   4.206  0.2934  0.6969 -0.0242
 9220SOL    HW139122   0.302   2.895   4.298  0.4860 -2.3096  0.4308
 9220SOL    HW239123   0.242   2.858   4.168 -0.3004  0.9184  1.1713
 9221SOL     OW39124   3.916   0.441   5.842 -0.3476 -0.0595  0.1288
 9221SOL    HW139125   3.868   0.363   5.814  0.7855 -0.2746 -1.1786
 9221SOL    HW239126   3.985   0.402   5.895 -2.1646  0.4381  2.8796
 9222SOL     OW39127   1.984   3.917  13.729 -0.2088  0.5148 -0.0660
 9222SOL    HW139128   1.920   3.874  13.672 -3.0800  3.1607  1.1420
 9222SOL    HW239129   2.007   3.982  13.663  0.9752  1.3369  1.1530
 9223SOL     OW39130   0.699   2.855   7.578 -0.3681 -0.1288  0.3382
 9223SOL    HW139131   0.788   2.873   7.550  0.0359 -1.2432  0.9005
 9223SOL    HW239132   0.684   2.935   7.627  2.4035  0.4258  0.2386
 9224SOL     OW39133   3.370   1.129  13.690  0.0251 -0.2372  0.0099
 9224SOL    HW139134   3.389   1.054  13.634  0.7982 -0.8576  1.1134
 9224SOL    HW239135   3.291   1.123  13.744  0.7522  1.7831  1.3114
 9225SOL     OW39136   4.638   0.482   8.278  0.0304  0.2150 -0.0097
 9225SOL    HW139137   4.564   0.478   8.218  0.3850  1.8020 -0.5600
 9225SOL    HW239138   4.641   0.390   8.304 -0.7421 -0.2231 -1.4650
 9226SOL     OW39139   2.649   2.701  13.984 -0.1317  0.1425  0.0880
 9226SOL    HW139140   2.587   2.630  13.968  0.1760  0.3306 -1.9555
 9226SOL    HW239141   2.612   2.770  13.929  0.3022  0.5825  0.3428
 9227SOL     OW39142   3.010   3.071  15.653  0.1703  1.1443 -0.1546
 9227SOL    HW139143   3.096   3.109  15.671  1.3260 -1.8961  0.7949
 9227SOL    HW239144   3.006   3.055  15.559  0.9845 -0.1765  0.0311
 9228SOL     OW39145   3.605   4.294   3.409  0.1268  0.5787 -0.2877
 9228SOL    HW139146   3.513   4.313   3.391  0.1593 -0.2500 -1.3036
 9228SOL    HW239147   3.630   4.362   3.473  0.7533 -1.7620  1.9483
 9229SOL     OW39148   4.684   0.715   2.461  0.1736  0.0596  0.1043
 9229SOL    HW139149   4.716   0.805   2.467  0.2236  0.0227  0.4271
 9229SOL    HW239150   4.622   0.732   2.390 -0.4231 -2.0128  0.1276
 9230SOL     OW39151   2.979   4.435  12.337  0.1865 -0.3416  0.2808
 9230SOL    HW139152   2.886   4.432  12.359  0.4569 -0.5610  1.4425
 9230SOL    HW239153   2.977   4.515  12.285  0.6938  0.4440  1.4602
 9231SOL     OW39154   1.332   3.254   8.166 -0.3175 -0.5498  0.4946
 9231SOL    HW139155   1.264   3.289   8.223  0.4633  1.3956  0.2066
 9231SOL    HW239156   1.299   3.288   8.083  0.6922  0.4924  0.5365
 9232SOL     OW39157   3.827   1.442   6.609  0.1375 -0.5797  0.3484
 9232SOL    HW139158   3.752   1.397   6.569  0.3447 -0.1113 -0.5867
 9232SOL    HW239159   3.902   1.400   6.568 -0.4708 -0.7759 -0.5890
 9233SOL     OW39160   1.187   2.520   0.482 -0.6988  0.2852  0.3074
 9233SOL    HW139161   1.184   2.604   0.437 -1.5998 -0.1334 -0.4326
 9233SOL    HW239162   1.191   2.545   0.574 -0.4469  0.9504  0.1141
 9234SOL     OW39163   0.398   2.258  17.689 -0.4856  0.1170 -0.2945
 9234SOL    HW139164   0.466   2.325  17.679 -0.2114 -0.2629 -0.9713
 9234SOL    HW239165   0.453   2.185   0.013 -0.5398  0.5266  0.8816
 9235SOL     OW39166   0.955   4.527   7.832  0.2341 -0.1441  0.4443
 9235SOL    HW139167   0.892   4.582   7.878  1.1173  2.0001 -0.9182
 9235SOL    HW239168   0.942   4.444   7.879 -0.1313 -0.3040  0.0583
 9236SOL     OW39169   4.685   2.916   4.361  0.0682  0.4625  0.1108
 9236SOL    HW139170   4.635   2.852   4.311 -0.2340  0.0563  0.9328
 9236SOL    HW239171   4.630   2.993   4.346  1.6872  1.2290 -1.9422
 9237SOL     OW39172   4.165   3.330   6.157 -0.4270  0.3375 -0.4348
 9237SOL    HW139173   4.138   3.245   6.122 -2.8817  0.4698  1.0796
 9237SOL    HW239174   4.079   3.369   6.175 -0.6665 -1.2715  1.9052
 9238SOL     OW39175   0.074   4.589   1.823  0.3038 -0.1790 -0.3196
 9238SOL    HW139176   0.015   4.570   1.896 -0.2101  1.5497 -0.2835
 9238SOL    HW239177   0.112   4.501   1.820 -1.7343 -1.1170  1.6046
 9239SOL     OW39178   2.350   1.682   4.073 -0.4517 -0.4023 -0.2602
 9239SOL    HW139179   2.278   1.623   4.051 -2.2933  2.2738 -1.4111
 9239SOL    HW239180   2.352   1.740   3.996 -0.0600 -0.4016 -0.2504
 9240SOL     OW39181   3.626   0.420  10.609 -0.5455  0.1732 -0.3505
 9240SOL    HW139182   3.535   0.406  10.637 -0.7003  0.7742 -0.5457
 9240SOL    HW239183   3.677   0.371  10.673 -1.3851  1.5336  1.3654
 9241SOL     OW39184   3.286   0.332   8.115  0.2159  0.1758 -0.4766
 9241SOL    HW139185   3.322   0.286   8.191 -0.3381  2.0560  0.9394
 9241SOL    HW239186   3.267   0.259   8.056 -2.4212  0.7457 -0.3528
 9242SOL     OW39187   0.923   2.248   2.615  0.5153  0.1308  0.2112
 9242SOL    HW139188   0.946   2.332   2.575 -2.7149  1.2892  0.8300
 9242SOL    HW239189   0.884   2.195   2.546  2.8543  0.7921 -1.6424
 9243SOL     OW39190   2.534   1.576  10.892 -0.1920  0.7783  0.4296
 9243SOL    HW139191   2.570   1.502  10.843  0.2037  0.9643  0.4409
 9243SOL    HW239192   2.439   1.569  10.878  0.1062 -1.5894 -0.4266
 9244SOL     OW39193   4.212   4.637   2.368  0.3747  0.6110  1.1195
 9244SOL    HW139194   4.160   4.614   2.444  0.1193 -1.4097  0.3378
 9244SOL    HW239195   4.224   0.003   2.392  1.1539  0.6153  0.7154
 9245SOL     OW39196   4.242   1.025   6.633  0.6583 -0.0095 -0.0524
 9245SOL    HW139197   4.260   1.104   6.582 -0.2537 -1.0176 -1.9325
 9245SOL    HW239198   4.164   1.051   6.682  0.3582 -0.3949 -0.3275
 9246SOL     OW39199   2.234   0.840   5.397 -0.2594 -0.3254  0.3964
 9246SOL    HW139200   2.206   0.759   5.355  1.1379  0.7738 -2.6703
 9246SOL    HW239201   2.164   0.903   5.377  2.0085  1.7486 -1.0025
 9247SOL     OW39202   4.301   3.309   2.447  0.5178 -0.2282  1.1253
 9247SOL    HW139203   4.366   3.261   2.499  3.5343 -0.2339 -2.6375
 9247SOL    HW239204   4.237   3.239   2.437  0.9988 -0.4943 -0.1441
 9248SOL     OW39205   1.036   2.008   2.974 -0.1409  0.0272  0.4500
 9248SOL    HW139206   1.004   1.918   2.969  1.4619 -0.4005 -1.9883
 9248SOL    HW239207   0.976   2.053   3.033  0.9774  1.9650  0.1289
 9249SOL     OW39208   3.891   3.099  11.094  0.1538  0.1600 -0.8751
 9249SOL    HW139209   3.919   3.086  11.185  0.7627 -1.6545 -1.3054
 9249SOL    HW239210   3.841   3.180  11.098  0.9203  0.9146 -6.2204
 9250SOL     OW39211   2.546   2.139   1.046  0.0814  0.3566  0.2532
 9250SOL    HW139212   2.462   2.183   1.044  0.5254  1.3266  3.1140
 9250SOL    HW239213   2.600   2.213   1.074  0.0976 -0.1420  1.5252
 9251SOL     OW39214   0.679   2.853   4.719  0.5802 -0.1616 -0.0085
 9251SOL    HW139215   0.634   2.905   4.652  2.1777 -2.5452 -2.9692
 9251SOL    HW239216   0.756   2.910   4.723  1.2012 -0.9770 -0.1510
 9252SOL     OW39217   1.831   3.433   7.455  0.1227 -0.5892 -0.2169
 9252SOL    HW139218   1.804   3.503   7.395  1.9495 -0.9018 -1.3989
 9252SOL    HW239219   1.761   3.369   7.440  0.7912 -1.1890 -0.7800
 9253SOL     OW39220   4.430   1.276   1.620  0.0782 -0.0758  0.1839
 9253SOL    HW139221   4.384   1.214   1.675 -0.5125  1.1600  1.0765
 9253SOL    HW239222   4.424   1.355   1.674  1.7834  0.2400 -0.0991
 9254SOL     OW39223   1.478   2.873   9.826  0.4073  0.1032  0.4554
 9254SOL    HW139224   1.390   2.874   9.789  0.2341  0.6540  0.8743
 9254SOL    HW239225   1.493   2.779   9.831 -1.1928 -0.1554  0.3554
 9255SOL     OW39226   3.260   1.387   7.704 -0.7869 -0.0438 -0.1573
 9255SOL    HW139227   3.344   1.424   7.730 -1.5774  1.2763  0.5273
 9255SOL    HW239228   3.239   1.442   7.629 -1.2060  0.4055  0.2904
 9256SOL     OW39229   4.159   2.364   3.276 -0.0259  0.1024  0.0969
 9256SOL    HW139230   4.217   2.362   3.200  0.3698 -0.5482  0.4202
 9256SOL    HW239231   4.127   2.274   3.270 -0.4200  0.1931  0.7590
 9257SOL     OW39232   1.398   2.907   6.770 -0.0378  0.3248  0.0367
 9257SOL    HW139233   1.373   2.976   6.831 -0.6276 -1.4702  1.8446
 9257SOL    HW239234   1.374   2.943   6.685 -1.7015 -1.0716 -0.0894
 9258SOL     OW39235   3.820   2.659   9.701 -0.6375 -0.3890 -0.3442
 9258SOL    HW139236   3.850   2.601   9.771 -1.7171  2.7967  2.7727
 9258SOL    HW239237   3.732   2.622   9.691 -0.9882  0.8721 -1.9918
 9259SOL     OW39238   2.665   0.663   7.693  0.0066  0.2471  0.3839
 9259SOL    HW139239   2.645   0.734   7.631 -0.9846 -1.5659 -1.3911
 9259SOL    HW239240   2.640   0.582   7.648 -0.0903 -1.1397  2.9782
 9260SOL     OW39241   2.038   3.428   2.514 -0.1257  0.3516  0.0622
 9260SOL    HW139242   1.981   3.460   2.445 -1.0269 -2.7554 -0.6394
 9260SOL    HW239243   2.124   3.464   2.492 -2.2665  4.3674 -1.4882
 9261SOL     OW39244   2.436   2.669  13.211 -0.3869  0.4280 -0.0406
 9261SOL    HW139245   2.450   2.760  13.184  1.4778  0.7963  2.2824
 9261SOL    HW239246   2.357   2.672  13.265 -0.7371 -0.3177 -0.5109
 9262SOL     OW39247   3.934   3.991   3.280 -0.4955  0.8467 -0.1363
 9262SOL    HW139248   3.946   4.042   3.360 -1.3976 -0.6986  0.9888
 9262SOL    HW239249   3.887   4.059   3.231  1.8423  1.3554 -1.7216
 9263SOL     OW39250   0.838   2.291   8.721  0.1730 -0.2442 -0.8174
 9263SOL    HW139251   0.917   2.329   8.760 -0.4230  0.2520 -0.0836
 9263SOL    HW239252   0.826   2.350   8.646  0.2186  2.3993  1.2367
 9264SOL     OW39253   1.054   1.571   4.598  0.3025 -0.3914  0.1945
 9264SOL    HW139254   0.972   1.609   4.565  0.9983  0.5628 -0.4379
 9264SOL    HW239255   1.085   1.511   4.530 -1.9896 -2.7038  1.1936
 9265SOL     OW39256   3.000   1.274  10.349  0.0858 -0.1274  0.1417
 9265SOL    HW139257   3.084   1.304  10.315  0.5253 -0.1364  1.2215
 9265SOL    HW239258   2.933   1.307  10.289  1.5460 -1.7117 -2.3717
 9266SOL     OW39259   0.732   1.107  14.736 -0.6521  0.1258 -0.4981
 9266SOL    HW139260   0.805   1.074  14.683 -1.9227  0.7354 -2.6209
 9266SOL    HW239261   0.774   1.100  14.822  0.0808 -0.7348 -0.9218
 9267SOL     OW39262   1.524   2.896  12.998 -0.4347  0.1713 -0.0168
 9267SOL    HW139263   1.516   2.948  13.078 -0.6724 -0.1565  0.1706
 9267SOL    HW239264   1.477   2.958  12.942  0.3164  0.4475 -0.3442
 9268SOL     OW39265   2.432   3.058   4.715  0.1207 -0.1073  0.0473
 9268SOL    HW139266   2.416   2.964   4.702 -1.4065  0.0315  0.9354
 9268SOL    HW239267   2.471   3.059   4.803 -1.3159 -1.2298  0.7021
 9269SOL     OW39268   1.404   0.155   3.820  0.2566  0.2102 -0.2154
 9269SOL    HW139269   1.497   0.181   3.820  0.3482 -0.1160  0.2519
 9269SOL    HW239270   1.364   0.226   3.770  1.8144  1.1652 -0.1401
 9270SOL     OW39271   2.204   4.436  17.478  0.3483 -0.4454 -0.1556
 9270SOL    HW139272   2.294   4.417  17.449  0.5654 -1.3168  1.0721
 9270SOL    HW239273   2.189   4.527  17.455 -0.0016 -0.9290 -1.9024
 9271SOL     OW39274   2.980   1.976   2.302  0.0230  0.2559  0.3572
 9271SOL    HW139275   3.007   1.934   2.220  1.4561 -3.0991  2.5401
 9271SOL    HW239276   2.895   2.014   2.282  0.5416  0.6087 -1.1431
 9272SOL     OW39277   0.449   3.513   8.744 -0.6198 -0.1393  0.1377
 9272SOL    HW139278   0.432   3.604   8.721  3.2382  0.4490 -0.4148
 9272SOL    HW239279   0.533   3.523   8.788 -0.3453  0.2657 -0.4798
 9273SOL     OW39280   0.246   0.649   8.846 -0.4008 -0.2150 -0.1845
 9273SOL    HW139281   0.309   0.584   8.879  0.9311  0.3079 -1.7205
 9273SOL    HW239282   0.232   0.705   8.923  0.4114 -2.5632  1.6919
 9274SOL     OW39283   2.056   1.466   7.347  0.0000  0.0598 -0.2133
 9274SOL    HW139284   2.083   1.438   7.434 -1.5270  1.6442  0.7869
 9274SOL    HW239285   2.029   1.556   7.367 -2.9895 -0.6112 -1.2338
 9275SOL     OW39286   3.075   3.509   8.429 -0.0581  0.1223 -0.2172
 9275SOL    HW139287   3.033   3.423   8.431  0.2146 -0.0459 -1.3081
 9275SOL    HW239288   3.064   3.513   8.334  0.1172  1.3713 -0.1827
 9276SOL     OW39289   0.631   1.406   3.779  0.4717  0.2680  0.1182
 9276SOL    HW139290   0.650   1.410   3.685 -1.2548 -1.1319 -0.3037
 9276SOL    HW239291   0.537   1.423   3.784  0.9278  2.2101  2.0475
 9277SOL     OW39292   3.013   3.774  12.706 -0.1381 -0.0888 -0.1058
 9277SOL    HW139293   3.060   3.761  12.789 -0.4035 -0.1492  0.0348
 9277SOL    HW239294   3.089   3.802  12.655 -0.8060 -1.3217 -1.7696
 9278SOL     OW39295   2.134   0.353   8.248 -0.6049 -0.4085 -0.2184
 9278SOL    HW139296   2.068   0.290   8.218 -0.6868 -0.0357 -0.8349
 9278SOL    HW239297   2.157   0.385   8.160  0.6274 -1.1117 -0.1457
 9279SOL     OW39298   1.635   0.981   8.830  0.2913 -0.5238  0.5253
 9279SOL    HW139299   1.670   0.926   8.900 -1.6922  0.0738  1.9732
 9279SOL    HW239300   1.694   0.953   8.759 -0.0621  0.3724 -0.1181
 9280SOL     OW39301   4.584   3.104  16.374  0.4919  0.2796  0.3155
 9280SOL    HW139302   4.613   3.187  16.338  0.9524  0.7439  1.7701
 9280SOL    HW239303   4.582   3.054  16.292 -0.6631  2.2789 -0.8709
 9281SOL     OW39304   1.580   0.792   3.575 -0.3079 -0.1976 -0.5315
 9281SOL    HW139305   1.632   0.785   3.495  1.7187 -1.8496  0.9564
 9281SOL    HW239306   1.565   0.702   3.603  0.4213 -0.3879 -0.7774
 9282SOL     OW39307   1.109   3.453   4.400 -0.4408 -0.6971 -0.5486
 9282SOL    HW139308   1.134   3.368   4.363 -1.0325 -0.8004 -0.7139
 9282SOL    HW239309   1.062   3.431   4.480 -1.6777 -0.3203 -1.1672
 9283SOL     OW39310   3.547   2.450   5.319 -0.4428  0.0745  0.3029
 9283SOL    HW139311   3.541   2.497   5.402 -0.7718  0.3670  0.1127
 9283SOL    HW239312   3.497   2.376   5.354 -0.8480  0.4580  0.5234
 9284SOL     OW39313   2.710   2.684   6.355 -0.1403  0.2040  0.0034
 9284SOL    HW139314   2.685   2.657   6.443 -0.0865 -0.4090 -0.1667
 9284SOL    HW239315   2.681   2.775   6.356 -0.1801  0.2109 -1.1149
 9285SOL     OW39316   4.336   3.140   3.788  0.2568  0.2759  0.1831
 9285SOL    HW139317   4.426   3.161   3.764  0.6492 -0.4885  1.0061
 9285SOL    HW239318   4.308   3.216   3.839  0.7519 -0.4360  1.5208
 9286SOL     OW39319   0.297   2.731  17.494 -0.0607  0.7881 -0.5297
 9286SOL    HW139320   0.220   2.773  17.531 -0.4805  1.0242 -1.6605
 9286SOL    HW239321   0.266   2.640  17.497  0.5637  0.5616 -0.8204
 9287SOL     OW39322   2.970   2.942   7.404 -0.5676  0.1102  0.1049
 9287SOL    HW139323   2.928   2.857   7.395  2.5858 -1.3877 -0.1208
 9287SOL    HW239324   2.913   2.999   7.457  1.0145 -0.0311  1.9549
 9288SOL     OW39325   3.746   2.697   9.158 -0.4802 -0.2870 -0.6423
 9288SOL    HW139326   3.659   2.736   9.164  0.3413  1.7723 -2.1425
 9288SOL    HW239327   3.722   2.620   9.106 -0.5148 -1.1004  0.5725
 9289SOL     OW39328   0.622   0.010   0.270 -0.0764 -0.0973 -0.1193
 9289SOL    HW139329   0.627   0.105   0.254  2.1782 -0.3771 -1.0073
 9289SOL    HW239330   0.647   4.693   0.188 -1.6605 -1.7836  0.2707
 9290SOL     OW39331   2.312   3.218  12.069  0.0896 -0.3108 -0.3700
 9290SOL    HW139332   2.364   3.172  12.135  0.2377  1.6123  0.8831
 9290SOL    HW239333   2.303   3.308  12.100 -1.0239 -0.7203  0.5325
 9291SOL     OW39334   3.800   1.034   4.990 -0.2839  0.6070  0.3186
 9291SOL    HW139335   3.706   1.047   4.981 -0.2987  0.1670 -0.2107
 9291SOL    HW239336   3.830   1.064   4.904 -0.6271 -1.9327 -0.6883
 9292SOL     OW39337   1.714   2.890   7.159 -0.7523  0.2680  0.4442
 9292SOL    HW139338   1.767   2.906   7.237 -0.0733 -0.8212  0.2093
 9292SOL    HW239339   1.628   2.896   7.201 -0.5895  0.6057  0.7291
 9293SOL     OW39340   2.921   1.719   4.105 -1.0645  0.2931 -0.0101
 9293SOL    HW139341   2.826   1.715   4.097 -1.1504 -0.8152  1.6880
 9293SOL    HW239342   2.954   1.789   4.048 -3.0111  0.7034 -0.6193
 9294SOL     OW39343   1.795   1.368   0.683 -0.5703  0.3679  0.0209
 9294SOL    HW139344   1.775   1.275   0.670  0.5834 -0.0700  1.3561
 9294SOL    HW239345   1.889   1.360   0.670 -0.6359  0.3389 -0.4240
 9295SOL     OW39346   3.401   0.028   6.728 -0.2562 -0.0858  0.1210
 9295SOL    HW139347   3.472   0.067   6.678 -0.4719  0.5633  0.3151
 9295SOL    HW239348   3.370   4.688   6.666 -1.2731  0.7093 -0.2184
 9296SOL     OW39349   4.699   3.894   9.177  0.1304 -0.4483  0.0036
 9296SOL    HW139350   0.064   3.897   9.205  0.2498  0.2245 -0.4643
 9296SOL    HW239351   4.659   3.907   9.263 -1.6139  1.6807 -1.1316
 9297SOL     OW39352   1.583   4.542   0.048 -0.2918  0.1695  0.3707
 9297SOL    HW139353   1.616   4.461   0.085 -0.5889 -0.9568 -1.8336
 9297SOL    HW239354   1.492   4.517   0.029  0.3511 -0.8167 -1.3449
 9298SOL     OW39355   0.744   2.719   3.766  0.0006 -0.2700  0.4023
 9298SOL    HW139356   0.812   2.685   3.824  0.7647  0.5121 -0.0316
 9298SOL    HW239357   0.676   2.758   3.821 -0.2728  0.4182 -0.4220
 9299SOL     OW39358   1.044   0.364   9.173 -0.0965 -0.4466 -0.5380
 9299SOL    HW139359   1.119   0.306   9.166 -0.4367 -0.9054 -0.3392
 9299SOL    HW239360   1.002   0.352   9.088  0.3672  0.9810 -0.9765
 9300SOL     OW39361   4.659   4.544   2.055  0.3046 -0.1740 -0.4692
 9300SOL    HW139362   4.708   4.488   2.115  1.7227 -0.8830 -2.2717
 9300SOL    HW239363   4.579   4.568   2.102  1.3683  1.4299  0.5268
 9301SOL     OW39364   2.042   2.316   8.860  0.9593 -0.2373 -0.0294
 9301SOL    HW139365   1.959   2.289   8.819  0.2903 -0.6528  1.6052
 9301SOL    HW239366   2.063   2.401   8.822  0.2720  0.1759  0.5224
 9302SOL     OW39367   4.704   4.469   4.078 -0.2164  0.2782  0.1882
 9302SOL    HW139368   0.017   4.423   4.152 -0.0253 -1.3443 -0.9197
 9302SOL    HW239369   4.685   4.389   4.028 -0.3789 -0.1504  0.9478
 9303SOL     OW39370   0.329   3.864   3.876  0.0072 -0.3756  0.1055
 9303SOL    HW139371   0.267   3.874   3.804 -1.6826  2.9366  2.0315
 9303SOL    HW239372   0.415   3.902   3.854 -0.6856 -0.1598 -2.2229
 9304SOL     OW39373   0.487   3.392  14.540 -0.1611  0.1268  0.1027
 9304SOL    HW139374   0.543   3.390  14.462 -0.9062  1.3249 -0.4685
 9304SOL    HW239375   0.454   3.481  14.529  1.9799  0.9809  0.4528
 9305SOL     OW39376   1.533   2.198   8.792  0.1414 -0.4301  0.1706
 9305SOL    HW139377   1.498   2.115   8.824  2.3210 -0.4966  2.3801
 9305SOL    HW239378   1.478   2.219   8.716 -1.3651 -0.4554  1.2406
 9306SOL     OW39379   0.775   4.636   5.808 -0.0905  0.3034  0.3000
 9306SOL    HW139380   0.797   0.002   5.793  0.9882  0.4310  2.6117
 9306SOL    HW239381   0.700   4.652   5.866 -0.0285  1.3529  0.0781
 9307SOL     OW39382   0.792   1.484   7.677  0.4061  0.3936  0.2094
 9307SOL    HW139383   0.808   1.425   7.752  2.2380 -2.1044 -2.1575
 9307SOL    HW239384   0.884   1.482   7.650  0.5138  1.5724  0.4777
 9308SOL     OW39385   1.001   3.570   5.748  0.2856  0.4772  0.6211
 9308SOL    HW139386   1.090   3.578   5.781 -0.0047 -0.1378  1.5550
 9308SOL    HW239387   0.998   3.475   5.743 -1.4766  0.5815 -0.6507
 9309SOL     OW39388   0.917   0.514  16.792 -0.2481 -0.1054  0.6703
 9309SOL    HW139389   0.996   0.541  16.745 -1.7417  0.2085 -1.6587
 9309SOL    HW239390   0.895   0.433  16.746  0.4105 -0.3576  0.7922
 9310SOL     OW39391   1.390   1.415   3.204 -0.0888 -0.1396  0.0215
 9310SOL    HW139392   1.395   1.504   3.170 -0.4140 -0.5365 -1.0833
 9310SOL    HW239393   1.317   1.397   3.145 -0.0537 -1.2425  0.3170
 9311SOL     OW39394   2.642   3.154   8.549 -0.0139 -0.2352 -0.4540
 9311SOL    HW139395   2.567   3.176   8.605 -1.3133  1.2281 -2.7769
 9311SOL    HW239396   2.645   3.224   8.483  0.5998  0.7247  0.5945
 9312SOL     OW39397   1.215   0.993   5.294 -0.2887 -0.3872 -0.1336
 9312SOL    HW139398   1.230   0.986   5.199 -2.7429 -2.0997 -0.4094
 9312SOL    HW239399   1.243   0.904   5.315  3.3326  0.7131 -0.3845
 9313SOL     OW39400   3.803   4.452   7.850  0.1266  0.5817  0.1056
 9313SOL    HW139401   3.726   4.484   7.898 -0.5813 -2.6537  1.0887
 9313SOL    HW239402   3.766   4.391   7.786  2.0278  0.5827 -1.0165
 9314SOL     OW39403   4.056   4.504   3.095 -0.4517 -0.3313  0.3378
 9314SOL    HW139404   4.101   4.517   3.178 -1.4233 -1.1854  1.0011
 9314SOL    HW239405   4.015   4.587   3.071  0.0499  0.3954  2.0038
 9315SOL     OW39406   3.888   3.408  12.810  0.2265 -0.6466  0.1470
 9315SOL    HW139407   3.953   3.375  12.871  1.8979  3.2769  0.5080
 9315SOL    HW239408   3.942   3.394  12.732  0.2403 -0.8211  0.1889
 9316SOL     OW39409   1.738   3.886   1.939 -0.5161  0.6045 -0.2751
 9316SOL    HW139410   1.692   3.812   1.979  0.1099 -0.2824 -1.1859
 9316SOL    HW239411   1.729   3.873   1.845 -0.5025  0.1631 -0.2148
 9317SOL     OW39412   3.748   2.932   2.568 -0.0994 -0.4695 -0.2292
 9317SOL    HW139413   3.783   2.917   2.656  0.3848  0.3995 -0.2776
 9317SOL    HW239414   3.732   2.842   2.538 -1.5164  0.8938 -3.5360
 9318SOL     OW39415   0.109   3.901  14.719  0.9708 -0.3777  0.4867
 9318SOL    HW139416   0.151   3.958  14.655  1.2237 -0.6937  0.3677
 9318SOL    HW239417   0.108   3.820  14.668  1.8766  1.0747 -1.8615
 9319SOL     OW39418   0.746   1.059   7.183 -0.7838 -0.2048 -0.1454
 9319SOL    HW139419   0.790   1.105   7.113  0.5764 -1.7828 -0.3333
 9319SOL    HW239420   0.745   0.969   7.151  1.5307 -0.2240 -0.1323
 9320SOL     OW39421   3.247   1.302   5.429  0.1371  0.0650  0.3527
 9320SOL    HW139422   3.234   1.286   5.336 -0.0183  1.8265  0.0762
 9320SOL    HW239423   3.188   1.375   5.447 -0.2466 -0.0788 -0.3519
 9321SOL     OW39424   1.273   1.309   3.937 -0.0668 -0.6496  0.4384
 9321SOL    HW139425   1.287   1.220   3.906  0.6588 -0.3985  0.0546
 9321SOL    HW239426   1.334   1.324   4.010  0.8023 -1.5307 -0.1076
 9322SOL     OW39427   4.425   3.401   2.214  0.0302 -0.0984 -0.0396
 9322SOL    HW139428   4.366   3.369   2.282 -0.1067 -0.6803 -0.4324
 9322SOL    HW239429   4.505   3.372   2.256 -0.5526  0.3994  1.3892
 9323SOL     OW39430   0.540   2.963   3.614 -0.1575  0.0274  0.3897
 9323SOL    HW139431   0.617   2.910   3.595 -1.1105 -0.2858 -2.5340
 9323SOL    HW239432   0.573   3.047   3.583 -3.7161  0.8956 -1.0418
 9324SOL     OW39433   2.880   3.052   5.512  0.1611  0.3584 -0.3672
 9324SOL    HW139434   2.935   2.985   5.472 -0.7740 -0.2302 -0.6763
 9324SOL    HW239435   2.865   3.013   5.598 -2.7434 -0.1152 -1.0516
 9325SOL     OW39436   1.279   4.456   6.592  0.2081  0.0683  0.3604
 9325SOL    HW139437   1.310   4.547   6.594  0.9852 -0.1633 -0.9599
 9325SOL    HW239438   1.347   4.430   6.654 -0.0854  0.6486  0.9303
 9326SOL     OW39439   3.540   4.590   6.882  0.4116 -0.4582  0.3255
 9326SOL    HW139440   3.546   4.607   6.976 -3.4606 -1.7050  0.7884
 9326SOL    HW239441   3.490   4.661   6.843 -0.2139 -0.1354  1.7233
 9327SOL     OW39442   2.538   0.708   3.356  0.4538  0.0756  0.1818
 9327SOL    HW139443   2.468   0.699   3.421  1.3025 -1.4243  0.8994
 9327SOL    HW239444   2.517   0.637   3.296 -1.3746 -0.4041  1.3974
 9328SOL     OW39445   2.061   0.874   0.900 -0.4161 -0.0506 -0.9387
 9328SOL    HW139446   2.068   0.860   0.806 -1.8624  3.1978 -1.5045
 9328SOL    HW239447   1.966   0.865   0.902 -0.4514  0.4188 -0.3705
 9329SOL     OW39448   2.074   3.777   6.540  0.0780  0.4730  0.6933
 9329SOL    HW139449   2.116   3.725   6.471  0.0237 -0.3403  1.2792
 9329SOL    HW239450   1.985   3.783   6.506  0.5206  0.5560 -0.4778
 9330SOL     OW39451   1.793   2.039   7.025  0.2542  0.2106  0.2037
 9330SOL    HW139452   1.772   2.123   7.065  0.4183  0.8744 -1.1142
 9330SOL    HW239453   1.780   2.043   6.931  1.3008 -0.6593  0.0219
 9331SOL     OW39454   2.606   1.870   5.222  0.1220 -0.0008 -0.0376
 9331SOL    HW139455   2.522   1.911   5.200 -0.0166 -0.4084 -0.2672
 9331SOL    HW239456   2.588   1.854   5.314 -0.1263  0.6875  0.0362
 9332SOL     OW39457   4.543   2.001   8.779 -0.2559  0.1968  0.5688
 9332SOL    HW139458   4.546   2.096   8.790  0.3531  0.3630 -1.0733
 9332SOL    HW239459   4.510   1.987   8.690 -0.7827  0.2785  0.7473
 9333SOL     OW39460   1.523   1.170   5.097  0.0315 -0.1090 -0.4125
 9333SOL    HW139461   1.534   1.113   5.173 -1.1353 -0.5496 -0.5742
 9333SOL    HW239462   1.519   1.256   5.138 -0.8119 -0.2121 -0.2906
 9334SOL     OW39463   4.472   4.113   7.561 -0.5678 -0.3003  0.1063
 9334SOL    HW139464   4.460   4.026   7.600 -0.5101 -0.2015  0.3449
 9334SOL    HW239465   4.380   4.137   7.552 -0.7179 -1.0516 -0.3807
 9335SOL     OW39466   4.222   2.532   2.664 -0.3788 -0.5116 -0.0644
 9335SOL    HW139467   4.141   2.567   2.700  0.3369  0.4575  0.6135
 9335SOL    HW239468   4.203   2.539   2.571 -0.0583 -0.1063 -0.0993
 9336SOL     OW39469   4.070   1.137   4.534  0.1741 -0.2224  0.2699
 9336SOL    HW139470   4.119   1.219   4.542 -2.0849  0.9197  2.3042
 9336SOL    HW239471   4.059   1.115   4.441  1.8119 -1.7281  0.4243
 9337SOL     OW39472   2.915   3.133   6.678 -0.2858  0.0372  0.0685
 9337SOL    HW139473   2.900   3.125   6.773  0.3490 -1.5520  0.0436
 9337SOL    HW239474   2.828   3.147   6.640 -0.9469 -0.8049  1.2509
 9338SOL     OW39475   0.100   2.589   7.815  0.0742 -0.1571  0.3520
 9338SOL    HW139476   0.164   2.531   7.774  1.1814  0.9247  0.5706
 9338SOL    HW239477   0.134   2.594   7.904  1.2099  1.3825 -0.1541
 9339SOL     OW39478   1.079   4.597  11.369  0.0964  0.6919 -0.3271
 9339SOL    HW139479   1.103   4.516  11.416 -0.7352  0.3799 -0.4331
 9339SOL    HW239480   0.991   4.616  11.402  0.1214 -0.5618  0.4733
 9340SOL     OW39481   4.364   1.458   5.118  0.6069 -0.6739  0.6002
 9340SOL    HW139482   4.342   1.399   5.046  0.5006  0.2611 -0.1409
 9340SOL    HW239483   4.460   1.452   5.122  0.8349  2.3259 -0.1966
 9341SOL     OW39484   0.847   2.792   7.265 -0.3203 -0.1915 -0.0911
 9341SOL    HW139485   0.803   2.708   7.263 -0.7370 -0.0602  2.7144
 9341SOL    HW239486   0.914   2.773   7.199 -0.6800 -0.4013 -0.3901
 9342SOL     OW39487   2.014   3.192   7.121 -0.1847 -0.6907  0.3971
 9342SOL    HW139488   1.919   3.204   7.112 -0.2016 -0.7216  0.5231
 9342SOL    HW239489   2.015   3.097   7.109 -0.1066 -0.7766  1.0532
 9343SOL     OW39490   4.192   0.399   7.517 -0.0280 -0.2081 -0.4369
 9343SOL    HW139491   4.143   0.406   7.599  2.2011 -0.7058  0.9201
 9343SOL    HW239492   4.273   0.366   7.555  0.2298 -0.9536 -1.6293
 9344SOL     OW39493   3.003   2.733   6.059  0.6877 -0.2967 -0.1860
 9344SOL    HW139494   2.996   2.824   6.033 -1.4229 -0.2755  0.4580
 9344SOL    HW239495   3.062   2.698   5.992 -0.8262 -3.0346 -0.1316
 9345SOL     OW39496   1.234   0.161   2.299 -0.6575  0.5375 -0.0348
 9345SOL    HW139497   1.155   0.168   2.352  0.5503  2.2829  1.5759
 9345SOL    HW239498   1.292   0.145   2.374 -0.1160 -1.7836 -0.9662
 9346SOL     OW39499   3.299   4.150   6.349 -0.3340  0.1800  0.2047
 9346SOL    HW139500   3.359   4.217   6.382 -1.0882  1.5132 -1.0946
 9346SOL    HW239501   3.237   4.206   6.302 -0.6725 -1.3907 -1.2316
 9347SOL     OW39502   2.714   0.835   5.572  0.2683  0.2043  0.1586
 9347SOL    HW139503   2.721   0.924   5.538  1.4208  0.8939  2.1715
 9347SOL    HW239504   2.620   0.819   5.576  0.3735  0.1250  2.3136
 9348SOL     OW39505   0.277   2.692   8.379 -0.3991  0.4973 -0.1183
 9348SOL    HW139506   0.330   2.731   8.447 -0.6894  2.6900 -1.1661
 9348SOL    HW239507   0.317   2.605   8.383  0.9630  1.1147 -0.2375
 9349SOL     OW39508   1.696   1.215   6.289  0.2532 -0.1205  0.7993
 9349SOL    HW139509   1.686   1.296   6.339  2.0028  0.1171  0.7515
 9349SOL    HW239510   1.717   1.143   6.348  3.4046 -0.7396 -1.1069
 9350SOL     OW39511   0.108   4.020   3.710 -0.1330 -0.6477  0.0967
 9350SOL    HW139512   0.019   4.032   3.744  0.8976 -0.2013  2.6605
 9350SOL    HW239513   0.088   3.993   3.621 -1.5148  1.5036 -0.2609
 9351SOL     OW39514   1.960   0.560   7.266  0.0001  0.5670 -0.1249
 9351SOL    HW139515   2.021   0.516   7.325  0.6210  2.6217  0.7592
 9351SOL    HW239516   1.876   0.518   7.287  0.1730  0.2396 -0.0872
 9352SOL     OW39517   4.513   1.697  10.707  0.3166  0.2634 -0.0452
 9352SOL    HW139518   4.540   1.644  10.782 -0.5040  0.3770  0.3251
 9352SOL    HW239519   4.561   1.780  10.715  4.1820 -1.8436 -1.2580
 9353SOL     OW39520   1.216   4.058   4.327 -0.3121  0.2168  0.1928
 9353SOL    HW139521   1.274   4.086   4.398 -0.9946  2.6869 -0.1911
 9353SOL    HW239522   1.150   4.128   4.332 -0.5257 -0.1514  2.6620
 9354SOL     OW39523   0.382   4.676  10.308 -0.3137  0.2017 -0.4321
 9354SOL    HW139524   0.462   0.001  10.295  0.7578 -1.4653 -0.3509
 9354SOL    HW239525   0.392   4.649  10.399  1.2979  0.2736 -0.6017
 9355SOL     OW39526   0.683   2.881  14.722 -0.6000 -0.1657  0.1222
 9355SOL    HW139527   0.660   2.790  14.738  0.7171 -1.0551 -3.0397
 9355SOL    HW239528   0.594   2.910  14.702 -0.8795 -0.7681  0.4975
 9356SOL     OW39529   4.349   4.112   9.271  0.3920 -0.1516  0.0056
 9356SOL    HW139530   4.394   4.063   9.202  1.1628 -0.6348  0.8625
 9356SOL    HW239531   4.293   4.164   9.213  2.7837  0.7215 -1.5187
 9357SOL     OW39532   4.054   3.569   1.620 -0.2623 -0.1039  0.0965
 9357SOL    HW139533   4.092   3.482   1.632  1.2891  0.4651 -0.8157
 9357SOL    HW239534   3.965   3.555   1.586 -0.3801  0.2965  0.2379
 9358SOL     OW39535   1.188   0.512   8.463 -0.2854  0.2313 -0.6311
 9358SOL    HW139536   1.137   0.461   8.400 -1.1625 -0.0823  0.3494
 9358SOL    HW239537   1.171   0.604   8.444  0.7921  0.6154  0.2344
 9359SOL     OW39538   0.365   0.536  16.505  0.0507 -0.2275 -0.3590
 9359SOL    HW139539   0.270   0.529  16.505  0.1125 -1.0767 -0.5197
 9359SOL    HW239540   0.375   0.618  16.554  0.2933  0.0903 -0.9437
 9360SOL     OW39541   1.034   4.143   7.757 -0.1943  0.0020  0.4207
 9360SOL    HW139542   1.085   4.063   7.743  0.2544  0.0696  1.7200
 9360SOL    HW239543   1.054   4.138   7.850  1.3308 -0.6212  0.0520
 9361SOL     OW39544   2.611   3.680  13.781  0.8019 -0.3068 -0.1837
 9361SOL    HW139545   2.628   3.774  13.783  0.6974 -0.2764 -0.6562
 9361SOL    HW239546   2.663   3.669  13.701 -0.7675 -0.7818 -1.1478
 9362SOL     OW39547   4.454   2.195   5.648 -0.2039 -0.1997  0.0847
 9362SOL    HW139548   4.398   2.265   5.614  1.9757  1.8976  0.7879
 9362SOL    HW239549   4.402   2.116   5.630  1.5631 -1.0385 -1.2304
 9363SOL     OW39550   3.406   1.686   6.450 -0.3161 -0.2324 -0.3316
 9363SOL    HW139551   3.321   1.723   6.423  0.4292  0.3377 -1.9221
 9363SOL    HW239552   3.458   1.762   6.476 -0.5981  0.0781 -0.6711
 9364SOL     OW39553   1.045   3.968   8.938  0.4092 -0.1162  0.2677
 9364SOL    HW139554   1.049   4.057   8.975  0.4806 -0.4203  0.9852
 9364SOL    HW239555   1.046   3.985   8.844  2.4544  1.4109  0.5774
 9365SOL     OW39556   3.722   2.816   7.584  0.3873 -0.6570  0.2716
 9365SOL    HW139557   3.638   2.832   7.542  0.1610 -0.2613  0.8684
 9365SOL    HW239558   3.722   2.900   7.630 -3.9999  1.1951 -3.0907
 9366SOL     OW39559   3.318   3.480  13.708  0.8548 -0.6146 -0.0090
 9366SOL    HW139560   3.405   3.520  13.699  1.1486 -1.2261  0.0544
 9366SOL    HW239561   3.266   3.546  13.663  0.0964 -0.3969  1.1890
 9367SOL     OW39562   1.956   1.110   8.263 -0.4106  0.8227  0.3344
 9367SOL    HW139563   1.897   1.065   8.324  0.5384 -1.3778 -0.3631
 9367SOL    HW239564   2.025   1.150   8.316  0.8346 -0.5413 -0.2620
 9368SOL     OW39565   3.554   4.586  14.348  0.0044 -0.1822  0.2027
 9368SOL    HW139566   3.636   4.632  14.368  1.1326 -0.9286 -2.6391
 9368SOL    HW239567   3.502   4.662  14.320  1.0735 -0.4845 -2.6098
 9369SOL     OW39568   0.052   4.205   1.309 -0.0943 -0.9460  0.2428
 9369SOL    HW139569   0.057   4.291   1.350 -0.3254 -0.9606  0.2968
 9369SOL    HW239570   0.146   4.187   1.299 -0.2140 -0.5530 -1.6830
 9370SOL     OW39571   1.690   4.284   3.653  0.5631  0.3379 -0.0564
 9370SOL    HW139572   1.663   4.274   3.745  0.4777  2.1482  0.1263
 9370SOL    HW239573   1.764   4.223   3.648  1.0793  1.4280 -5.1570
 9371SOL     OW39574   3.535   2.497   7.600 -0.4692  0.0652  0.0610
 9371SOL    HW139575   3.458   2.508   7.544  1.9731 -0.2878 -3.3056
 9371SOL    HW239576   3.571   2.585   7.609 -2.6079  0.6096  3.3291
 9372SOL     OW39577   1.169   3.437  15.238  0.1903  0.0493 -0.0557
 9372SOL    HW139578   1.121   3.371  15.289 -1.7764  0.4335 -1.4212
 9372SOL    HW239579   1.127   3.519  15.263 -0.5063 -1.1986  2.8849
 9373SOL     OW39580   0.346   4.600   7.546 -0.2017 -0.0905  0.2979
 9373SOL    HW139581   0.434   4.603   7.508 -0.2669 -0.8698  0.0789
 9373SOL    HW239582   0.345   4.681   7.597 -1.6091  1.3545 -2.0191
 9374SOL     OW39583   2.130   2.631   9.672 -0.1386 -0.2851 -0.6641
 9374SOL    HW139584   2.205   2.644   9.729  1.1574  0.9830 -2.6371
 9374SOL    HW239585   2.064   2.608   9.737 -0.0153  0.4586 -0.2793
 9375SOL     OW39586   4.211   0.591  11.638  0.5676 -0.2779 -0.0476
 9375SOL    HW139587   4.177   0.675  11.606  0.1155 -0.6149 -0.4591
 9375SOL    HW239588   4.260   0.616  11.715  1.6749 -0.2768 -0.7530
 9376SOL     OW39589   4.515   2.162   2.981 -0.1999 -0.5661 -0.0422
 9376SOL    HW139590   4.609   2.146   2.990  0.2303  0.4734 -2.7006
 9376SOL    HW239591   4.509   2.246   3.025  0.1986 -0.0920 -0.8990
 9377SOL     OW39592   1.215   2.749   2.452 -0.2199  0.0833  0.0412
 9377SOL    HW139593   1.197   2.707   2.367  2.4834 -0.7640 -0.1063
 9377SOL    HW239594   1.309   2.763   2.446 -0.2475  0.3711  0.3137
 9378SOL     OW39595   4.591   3.361   1.391  0.4293 -0.6508 -0.4996
 9378SOL    HW139596   4.653   3.395   1.456 -1.2447  0.8496  0.3078
 9378SOL    HW239597   4.655   3.313   1.338  3.5614  0.1404  2.5500
 9379SOL     OW39598   1.482   3.968   2.522 -0.2142 -0.6882 -0.2102
 9379SOL    HW139599   1.523   3.902   2.465  1.1649  0.4599 -0.5223
 9379SOL    HW239600   1.473   3.922   2.606  1.0324  1.5773  1.1652
 9380SOL     OW39601   3.630   1.627  13.862  0.2311  0.2273 -0.2049
 9380SOL    HW139602   3.596   1.573  13.791 -0.4191  2.1525 -1.3550
 9380SOL    HW239603   3.561   1.693  13.870 -0.1301 -0.1615 -0.1335
 9381SOL     OW39604   2.180   3.768  15.504  0.0125  0.7574  0.2486
 9381SOL    HW139605   2.160   3.861  15.517  0.5037  0.8116  0.6132
 9381SOL    HW239606   2.274   3.768  15.520  0.4484 -2.9440 -2.4823
 9382SOL     OW39607   1.201   4.375   3.369  0.1774  0.4438 -0.1827
 9382SOL    HW139608   1.273   4.339   3.317  0.5220  1.6689 -0.5616
 9382SOL    HW239609   1.195   4.297   3.425  1.7709  0.8328  0.5249
 9383SOL     OW39610   1.991   3.050   4.657  0.1461 -0.6792  0.7284
 9383SOL    HW139611   2.024   3.138   4.641 -0.8587 -0.4179  0.0165
 9383SOL    HW239612   1.949   3.025   4.574  0.8673  0.9555 -0.1178
 9384SOL     OW39613   3.240   2.007  16.298  0.3144  0.0037  0.1222
 9384SOL    HW139614   3.276   1.936  16.245 -0.4181  0.2078 -0.6512
 9384SOL    HW239615   3.321   2.049  16.327  0.0689  0.8537 -0.4003
 9385SOL     OW39616   0.347   0.770   6.245 -0.3386  0.7222  0.1002
 9385SOL    HW139617   0.309   0.707   6.306  1.8982 -0.8271 -0.1259
 9385SOL    HW239618   0.293   0.849   6.254 -0.6710  0.2355  2.5069
 9386SOL     OW39619   2.972   2.251   6.423  0.3375 -0.4861  0.0589
 9386SOL    HW139620   2.896   2.301   6.452  0.3131 -0.6490  0.2775
 9386SOL    HW239621   2.951   2.165   6.460 -0.7595  0.1095  0.8420
 9387SOL     OW39622   3.552   1.159  11.820 -0.0527 -0.0520 -0.0443
 9387SOL    HW139623   3.477   1.163  11.878 -0.1217 -0.7533 -0.0845
 9387SOL    HW239624   3.546   1.069  11.786  0.6035  0.2129 -0.8681
 9388SOL     OW39625   3.557   4.587   4.332  0.1088 -0.6294  0.2840
 9388SOL    HW139626   3.551   4.602   4.426 -0.4550  1.3860 -0.0708
 9388SOL    HW239627   3.594   4.669   4.300  0.6192  0.0039  2.4931
 9389SOL     OW39628   2.213   0.757   6.410  0.4852  0.1082  0.2168
 9389SOL    HW139629   2.293   0.789   6.368  1.0765  0.6175  1.7269
 9389SOL    HW239630   2.250   0.695   6.473 -1.4378 -0.2579  1.0004
 9390SOL     OW39631   2.163   1.686   5.945 -0.9494  0.6808 -0.4487
 9390SOL    HW139632   2.129   1.733   6.022  0.5614  0.2626  0.4647
 9390SOL    HW239633   2.090   1.705   5.886 -1.8858 -0.7827  0.2489
 9391SOL     OW39634   0.254   0.837   8.638  0.7510  0.5448  0.8252
 9391SOL    HW139635   0.237   0.770   8.572  0.8192  0.0503  1.3151
 9391SOL    HW239636   0.252   0.778   8.712 -0.7598  0.5509  0.7943
 9392SOL     OW39637   2.712   2.196  13.633 -0.4463 -0.8063 -0.1723
 9392SOL    HW139638   2.652   2.200  13.558  0.9123  0.8084 -1.1833
 9392SOL    HW239639   2.724   2.291  13.634 -0.0487 -0.8501 -1.5610
 9393SOL     OW39640   4.096   2.066   6.095 -0.6693 -0.2993  0.5113
 9393SOL    HW139641   4.189   2.057   6.116 -0.5340  0.0727  0.0685
 9393SOL    HW239642   4.089   2.002   6.024  0.4953  0.8660 -0.6630
 9394SOL     OW39643   1.807   1.691   0.238 -0.3147  0.1548 -0.3402
 9394SOL    HW139644   1.835   1.647   0.158  0.6257  1.9272 -0.9911
 9394SOL    HW239645   1.888   1.664   0.281  0.4026  1.9976 -0.5069
 9395SOL     OW39646   1.636   1.392  15.245  0.0654 -0.8638 -0.2386
 9395SOL    HW139647   1.617   1.311  15.293 -0.4411 -1.3565 -1.2585
 9395SOL    HW239648   1.562   1.400  15.184  0.2880 -0.6565 -0.4831
 9396SOL     OW39649   3.138   4.455  13.565  0.0023  0.4947 -0.5492
 9396SOL    HW139650   3.197   4.381  13.575 -1.3943 -0.5329  0.1664
 9396SOL    HW239651   3.151   4.455  13.471  0.5834 -0.4869 -0.4679
 9397SOL     OW39652   1.521   1.199  15.607 -0.0812 -0.0541  0.5037
 9397SOL    HW139653   1.441   1.232  15.566  1.0207  0.0690 -1.5276
 9397SOL    HW239654   1.489   1.211  15.696 -1.2467  1.3797 -0.1060
 9398SOL     OW39655   0.521   1.394   4.062  0.4246 -0.1655  0.0096
 9398SOL    HW139656   0.600   1.367   4.015 -0.0291  1.3794 -1.6322
 9398SOL    HW239657   0.462   1.416   3.990  2.0929 -0.5781 -1.4809
 9399SOL     OW39658   2.303   2.946   0.843 -0.2237 -0.7032 -0.2955
 9399SOL    HW139659   2.248   3.004   0.790  0.7587 -0.0151 -0.5456
 9399SOL    HW239660   2.366   2.912   0.780  1.3341  0.2663  0.7556
 9400SOL     OW39661   4.475   0.989   0.984 -0.1301 -0.0746  0.1053
 9400SOL    HW139662   4.439   1.046   0.916  0.4603  2.2676  1.7352
 9400SOL    HW239663   4.405   0.923   0.989 -0.8455  0.5822 -1.1806
 9401SOL     OW39664   1.433   0.488  17.338 -0.0997 -0.0351 -0.1996
 9401SOL    HW139665   1.472   0.492  17.251 -0.4755  0.6448 -0.3355
 9401SOL    HW239666   1.367   0.557  17.329 -2.2001 -2.1511 -1.1375
 9402SOL     OW39667   4.194   2.510   1.615 -0.5095  0.0493 -0.1593
 9402SOL    HW139668   4.167   2.585   1.668 -4.3577 -1.6834  0.3117
 9402SOL    HW239669   4.110   2.478   1.581 -0.7965 -0.0065  0.5998
 9403SOL     OW39670   1.925   2.693   6.039 -0.3486  0.3027 -0.4976
 9403SOL    HW139671   1.911   2.611   6.086 -0.0596 -0.7081 -2.1769
 9403SOL    HW239672   1.917   2.665   5.948  2.0884  0.0996 -0.6597
 9404SOL     OW39673   2.081   3.799   7.796  0.6224 -0.7079  0.5634
 9404SOL    HW139674   2.097   3.704   7.797  0.4734 -0.7151  1.6159
 9404SOL    HW239675   2.167   3.835   7.819  0.9274 -0.4509 -0.9772
 9405SOL     OW39676   1.721   0.144   8.711  0.4502 -0.6882 -0.0064
 9405SOL    HW139677   1.658   0.155   8.783 -0.5545  0.0827 -1.0028
 9405SOL    HW239678   1.696   0.056   8.681 -2.0777 -0.7119  2.1555
 9406SOL     OW39679   3.408   4.394  14.457  0.3347 -0.0827  0.2847
 9406SOL    HW139680   3.490   4.410  14.410  1.1449 -0.2409  1.6622
 9406SOL    HW239681   3.404   4.483  14.490  0.6070  0.2316 -0.5239
 9407SOL     OW39682   4.241   1.468   8.044  0.0550 -0.0735 -0.4611
 9407SOL    HW139683   4.261   1.560   8.063 -1.1646  0.4362 -1.6809
 9407SOL    HW239684   4.170   1.450   8.105  1.8256 -0.8043  1.4033
 9408SOL     OW39685   0.514   1.351   3.505 -0.3126 -0.7038  0.5461
 9408SOL    HW139686   0.519   1.286   3.434  1.5693 -1.5374  1.4547
 9408SOL    HW239687   0.428   1.335   3.544 -0.2717 -0.9658  0.5296
 9409SOL     OW39688   0.168   2.142   3.977 -0.0679 -0.0128 -0.0823
 9409SOL    HW139689   0.121   2.105   3.902  0.1948 -2.3464  0.8991
 9409SOL    HW239690   0.106   2.177   4.041 -0.6392 -3.0033  1.0046
 9410SOL     OW39691   1.148   2.772   3.428 -0.1529 -0.3288 -0.7015
 9410SOL    HW139692   1.085   2.765   3.356 -0.6987 -1.1224 -0.1470
 9410SOL    HW239693   1.153   2.678   3.445  0.1093 -0.1456  0.2402
 9411SOL     OW39694   1.323   3.479   2.395  0.0564  0.1522 -0.0532
 9411SOL    HW139695   1.229   3.464   2.402 -0.1482  1.8056  0.6118
 9411SOL    HW239696   1.365   3.448   2.475 -1.6384  0.3861  0.9091
 9412SOL     OW39697   0.451   2.687   6.225  0.0267  0.2177 -0.4317
 9412SOL    HW139698   0.438   2.770   6.271 -1.1396  1.2249 -2.6025
 9412SOL    HW239699   0.427   2.626   6.295  2.5067  2.0915  2.0928
 9413SOL     OW39700   0.665   0.920   4.394  0.6118  0.1153  0.4450
 9413SOL    HW139701   0.599   0.855   4.369  0.4591  0.2196  0.5830
 9413SOL    HW239702   0.603   0.990   4.374  0.0608 -0.5000 -0.0146
 9414SOL     OW39703   1.858   0.944  13.766  0.4877  0.2981  0.4038
 9414SOL    HW139704   1.924   0.971  13.830 -0.6203  1.3497  1.0894
 9414SOL    HW239705   1.781   0.936  13.823  0.7104  0.5976  0.7499
 9415SOL     OW39706   4.172   1.805   3.758  0.5384  0.1139  0.3274
 9415SOL    HW139707   4.170   1.757   3.841  0.1125 -1.3105 -0.5168
 9415SOL    HW239708   4.117   1.749   3.704  1.0763  2.4839 -2.6815
 9416SOL     OW39709   3.532   2.852  17.354  0.2472 -0.2729 -0.7617
 9416SOL    HW139710   3.510   2.938  17.389 -0.6899 -0.1590 -1.6490
 9416SOL    HW239711   3.447   2.809  17.348 -0.5265  1.1446  0.0579
 9417SOL     OW39712   2.617   4.226   6.973 -0.0558 -0.6154  0.5025
 9417SOL    HW139713   2.586   4.261   6.890  1.8611  2.8376  1.2254
 9417SOL    HW239714   2.574   4.140   6.975  0.2040 -0.7768 -1.1928
 9418SOL     OW39715   0.762   3.709   3.475 -0.6202 -0.5324 -0.4968
 9418SOL    HW139716   0.744   3.633   3.531 -2.4142  1.6410  1.8934
 9418SOL    HW239717   0.830   3.679   3.415 -0.9741 -2.8673  0.2543
 9419SOL     OW39718   3.002   2.497   5.650 -0.1551  0.7246 -0.1567
 9419SOL    HW139719   2.914   2.463   5.663 -0.4639  0.1938 -3.6130
 9419SOL    HW239720   3.012   2.515   5.556  0.8691  0.5630 -0.0813
 9420SOL     OW39721   3.578   1.151  14.294 -0.3468  0.0615 -0.0800
 9420SOL    HW139722   3.584   1.080  14.230 -0.3628  0.8173 -0.9070
 9420SOL    HW239723   3.630   1.127  14.371 -1.4911  0.2408  0.7352
 9421SOL     OW39724   3.085   4.521   0.266  0.1955  0.7393 -0.4818
 9421SOL    HW139725   3.052   4.560   0.185  0.4495 -0.3290 -1.0909
 9421SOL    HW239726   3.017   4.535   0.333  0.2233  1.5066 -0.6166
 9422SOL     OW39727   0.807   1.305   7.898 -0.0687  0.3585 -0.3547
 9422SOL    HW139728   0.727   1.331   7.945 -0.5746 -0.9354 -0.5162
 9422SOL    HW239729   0.774   1.244   7.832 -2.2794  0.0876  0.9972
 9423SOL     OW39730   3.545   1.172   7.686  0.2251  0.3127  0.2914
 9423SOL    HW139731   3.638   1.189   7.702  0.9399 -1.5542 -1.7684
 9423SOL    HW239732   3.504   1.196   7.769 -0.7569  0.7394 -0.3213
 9424SOL     OW39733   0.077   1.560   6.629  0.6249 -0.0500 -0.1650
 9424SOL    HW139734   0.118   1.480   6.661  1.6845  0.2782 -0.7235
 9424SOL    HW239735   0.005   1.518   6.582 -0.0524 -0.9246  1.6435
 9425SOL     OW39736   4.667   3.237   9.688 -0.2134  0.0650  0.6150
 9425SOL    HW139737   4.658   3.227   9.783 -1.8819 -3.1422  0.1513
 9425SOL    HW239738   0.011   3.302   9.679  0.8447 -1.0270  0.9413
 9426SOL     OW39739   0.434   0.794  11.866  0.1782  0.2124  0.1249
 9426SOL    HW139740   0.452   0.718  11.811 -0.5729 -0.6294  1.0512
 9426SOL    HW239741   0.500   0.791  11.935 -0.8340 -0.1678  1.0633
 9427SOL     OW39742   1.643   4.476   9.975 -0.0075 -0.8123  0.0110
 9427SOL    HW139743   1.734   4.447   9.978  0.5605  1.1330  2.2291
 9427SOL    HW239744   1.608   4.404  10.029 -0.1338 -0.7079  0.0701
 9428SOL     OW39745   4.032   1.183   6.695  0.0772 -0.6884 -0.1312
 9428SOL    HW139746   4.032   1.229   6.611  0.3426  1.2321  0.9223
 9428SOL    HW239747   3.962   1.235   6.733 -1.5012 -2.3457 -0.8017
 9429SOL     OW39748   1.779   1.242   3.296  0.6605 -0.5132  0.5562
 9429SOL    HW139749   1.710   1.199   3.347 -0.7011  0.6101 -0.3502
 9429SOL    HW239750   1.763   1.332   3.323  0.4904  0.0254 -1.3915
 9430SOL     OW39751   2.907   3.308   5.159 -0.0697  0.2773 -0.0585
 9430SOL    HW139752   2.877   3.334   5.247 -0.9459  1.3462 -0.6646
 9430SOL    HW239753   2.939   3.222   5.187 -0.7655  0.1088  0.2208
 9431SOL     OW39754   2.008   0.566  14.686 -0.3380  0.1517  0.0349
 9431SOL    HW139755   2.051   0.541  14.768 -0.6467 -0.6403 -0.0476
 9431SOL    HW239756   1.917   0.586  14.706 -0.2013  0.3728  0.4510
 9432SOL     OW39757   0.083   0.865   6.483  0.3778  0.4896 -0.2736
 9432SOL    HW139758   0.118   0.785   6.522 -2.1693 -0.5198 -0.0312
 9432SOL    HW239759   0.009   0.880   6.543  1.4620 -0.2615  1.2479
 9433SOL     OW39760   2.048   2.022   7.125 -0.0886  0.1536  0.0402
 9433SOL    HW139761   1.954   2.009   7.108 -0.2234  0.5828  0.4485
 9433SOL    HW239762   2.062   2.116   7.116 -1.5088  0.3279 -0.5014
 9434SOL     OW39763   1.132   2.463   8.247  0.3094  0.2540 -0.5763
 9434SOL    HW139764   1.071   2.402   8.205 -2.1588  1.7505  0.8369
 9434SOL    HW239765   1.208   2.464   8.188  0.8732  1.3242  0.1644
 9435SOL     OW39766   1.726   0.050  16.284 -0.1310 -0.1588  0.4778
 9435SOL    HW139767   1.665   0.124  16.289  2.0365  1.5868  1.2342
 9435SOL    HW239768   1.752   0.067  16.194 -0.9153  1.2485  0.5124
 9436SOL     OW39769   3.192   0.523  16.573 -0.4218  0.1890  0.2174
 9436SOL    HW139770   3.150   0.576  16.505  2.0807  0.6016 -1.0005
 9436SOL    HW239771   3.179   0.586  16.644 -0.0063  2.3303 -1.6318
 9437SOL     OW39772   4.290   0.502  14.574  0.2055 -0.0283 -0.2863
 9437SOL    HW139773   4.300   0.443  14.648 -1.3761 -0.2668 -0.2689
 9437SOL    HW239774   4.344   0.581  14.583  0.3384  0.4480 -5.1420
 9438SOL     OW39775   2.885   3.911  15.387 -0.1250  0.2267  0.0283
 9438SOL    HW139776   2.873   3.819  15.363 -0.3636  0.6846 -1.6025
 9438SOL    HW239777   2.815   3.916  15.453 -1.1481 -1.8996 -0.8914
 9439SOL     OW39778   4.686   2.947  14.784 -0.3351  0.1492  0.5761
 9439SOL    HW139779   0.013   2.984  14.713 -0.1367 -3.0283 -0.9519
 9439SOL    HW239780   4.599   2.953  14.745  0.3824  2.2811 -0.6478
 9440SOL     OW39781   3.939   1.951   5.007 -0.4057 -0.0487  0.1271
 9440SOL    HW139782   3.931   1.860   5.035  1.0437  0.3620  1.9163
 9440SOL    HW239783   3.849   1.976   5.028 -0.7030 -0.3003 -0.8545
 9441SOL     OW39784   0.477   0.378   4.591  0.5913  0.3714  0.6878
 9441SOL    HW139785   0.560   0.402   4.632  1.0796 -1.2493  0.6582
 9441SOL    HW239786   0.477   0.433   4.513  1.6933  2.0578  1.8739
 9442SOL     OW39787   4.491   2.292  12.833  0.2299 -0.3934  0.0102
 9442SOL    HW139788   4.442   2.275  12.752 -1.4381  0.4102  0.8533
 9442SOL    HW239789   4.419   2.282  12.896  1.9132 -0.8126  1.8549
 9443SOL     OW39790   0.509   0.043   7.754  0.6476 -0.3627 -0.4317
 9443SOL    HW139791   0.518   4.684   7.797  0.5275 -0.4087 -0.4985
 9443SOL    HW239792   0.500   0.103   7.828  1.4418 -1.8947  0.9040
 9444SOL     OW39793   2.524   4.238   8.813  0.0657 -0.7261  0.1874
 9444SOL    HW139794   2.515   4.317   8.867  0.4227  1.3073 -2.7211
 9444SOL    HW239795   2.619   4.238   8.801  0.1862  1.0901  1.0592
 9445SOL     OW39796   0.040   4.262   5.959  0.6902  0.3460  0.2110
 9445SOL    HW139797   0.021   4.210   6.037 -1.1753  1.4903  0.5225
 9445SOL    HW239798   0.013   4.204   5.889  0.0573 -0.4251  1.0998
 9446SOL     OW39799   2.902   1.395   1.692  0.3564 -0.2057  0.4418
 9446SOL    HW139800   2.866   1.351   1.615  1.0094 -1.9195  1.1148
 9446SOL    HW239801   2.907   1.328   1.761 -1.2427  0.2351  0.9954
 9447SOL     OW39802   1.031   0.262   3.678 -0.3464 -0.2640  0.0093
 9447SOL    HW139803   1.049   0.263   3.772 -0.4127  1.0088  0.0111
 9447SOL    HW239804   0.981   0.182   3.667 -0.4555 -0.6185  3.0569
 9448SOL     OW39805   1.116   0.203  12.548  0.5950  0.5784  0.0539
 9448SOL    HW139806   1.191   0.262  12.543  1.2881 -0.2857  0.2443
 9448SOL    HW239807   1.156   0.157  12.622  0.4637  1.2619  0.5454
 9449SOL     OW39808   2.766   0.021   1.098  0.7433  0.3621  0.2616
 9449SOL    HW139809   2.704   0.080   1.055 -0.9541 -1.0207  0.8056
 9449SOL    HW239810   2.697   4.698   1.143  1.9492 -2.0020 -0.4171
 9450SOL     OW39811   1.714   2.405   7.461 -0.2381  0.3414 -0.3620
 9450SOL    HW139812   1.621   2.399   7.483 -0.1867  2.5024  0.4682
 9450SOL    HW239813   1.709   2.500   7.460 -1.8755  0.2682  1.3355
 9451SOL     OW39814   3.183   1.904   7.335  0.3311 -0.0622  0.5761
 9451SOL    HW139815   3.122   1.837   7.366 -1.1617  1.4493  0.9379
 9451SOL    HW239816   3.242   1.855   7.278  0.2274 -0.4086  0.7709
 9452SOL     OW39817   1.573   4.564  12.845  0.1512  0.7627  0.1513
 9452SOL    HW139818   1.615   4.542  12.762 -2.0508  0.1186 -0.7919
 9452SOL    HW239819   1.581   4.484  12.898  3.1665 -0.6740 -2.4905
 9453SOL     OW39820   1.835   2.268   7.257 -0.4177 -0.3457  0.2744
 9453SOL    HW139821   1.812   2.325   7.330  0.0468  1.3583 -0.9109
 9453SOL    HW239822   1.793   2.186   7.282 -0.8094 -0.5494 -1.0560
 9454SOL     OW39823   2.554   1.088   3.344  0.1788 -0.2592 -0.3263
 9454SOL    HW139824   2.487   1.154   3.363  0.5871  0.1490 -0.3046
 9454SOL    HW239825   2.622   1.145   3.306 -0.6202 -0.1039 -1.5432
 9455SOL     OW39826   4.707   4.663  11.598  0.4027  0.4483 -0.0595
 9455SOL    HW139827   0.076   4.665  11.590  0.4612  1.4062  0.9334
 9455SOL    HW239828   4.677   4.588  11.546  0.7858  0.8950 -0.9206
 9456SOL     OW39829   0.709   1.607   1.183 -0.1438  0.5481  0.1681
 9456SOL    HW139830   0.735   1.623   1.092  2.2448 -0.5998  0.6772
 9456SOL    HW239831   0.739   1.688   1.225 -1.2548  1.1541 -0.1980
 9457SOL     OW39832   1.696   2.561   7.036  0.4728  0.5074 -0.5238
 9457SOL    HW139833   1.664   2.645   7.004 -3.3236  0.0278  2.0259
 9457SOL    HW239834   1.766   2.594   7.092 -0.4709 -0.1580  1.0575
 9458SOL     OW39835   2.832   1.233   9.929 -0.6727 -0.3333  0.5726
 9458SOL    HW139836   2.769   1.162   9.937  0.4427 -1.2203  1.5736
 9458SOL    HW239837   2.909   1.181   9.903 -0.8662 -0.4890  0.3104
 9459SOL     OW39838   0.449   1.840   2.846 -0.2331 -0.6034  0.3213
 9459SOL    HW139839   0.466   1.840   2.751  0.0913 -0.2629  0.3801
 9459SOL    HW239840   0.430   1.932   2.863 -1.0071 -0.7286  0.1314
 9460SOL     OW39841   3.061   1.825   3.800  0.6350  0.3079  0.5045
 9460SOL    HW139842   3.078   1.913   3.834  0.7421  0.5472 -0.1745
 9460SOL    HW239843   3.140   1.833   3.746 -0.4757 -0.3336 -1.2148
 9461SOL     OW39844   3.788   4.421   0.974  0.2946  0.2606  0.0329
 9461SOL    HW139845   3.710   4.460   1.012 -0.1490  0.9761 -1.6265
 9461SOL    HW239846   3.749   4.347   0.928  0.9187  0.4217 -0.7473
 9462SOL     OW39847   4.072   0.241   3.052 -0.2879 -0.2463  0.2623
 9462SOL    HW139848   4.145   0.185   3.078 -0.7666 -1.3697 -0.8185
 9462SOL    HW239849   4.106   0.322   3.091  1.9878 -0.1057 -2.0586
 9463SOL     OW39850   3.798   4.072   8.229  0.1872 -0.1206 -0.1909
 9463SOL    HW139851   3.872   4.085   8.289 -0.9096 -1.6312  1.4963
 9463SOL    HW239852   3.743   4.006   8.272  1.1675  0.5467  2.0549
 9464SOL     OW39853   1.509   1.608   9.674 -0.2082  0.1010  0.9467
 9464SOL    HW139854   1.598   1.574   9.665 -0.3883 -0.5208  1.5593
 9464SOL    HW239855   1.502   1.644   9.585 -1.6768 -1.7192  0.3266
 9465SOL     OW39856   3.369   3.458   6.208 -0.0693  0.4250 -0.1980
 9465SOL    HW139857   3.342   3.455   6.300  0.5106  1.6394  0.0197
 9465SOL    HW239858   3.340   3.546   6.184  0.2180  0.0132 -2.0455
 9466SOL     OW39859   2.365   2.208   6.831  0.2622 -0.1937  0.2540
 9466SOL    HW139860   2.306   2.140   6.861  0.7418 -0.0367  1.5392
 9466SOL    HW239861   2.416   2.164   6.763  1.5502 -1.7016  2.2068
 9467SOL     OW39862   0.614   4.518   7.772 -0.3383 -0.0571  0.2749
 9467SOL    HW139863   0.623   4.538   7.678  0.1322 -1.7030 -0.0230
 9467SOL    HW239864   0.663   4.437   7.768  1.5891  1.2143 -1.9959
 9468SOL     OW39865   2.375   0.604   2.833  0.5948 -0.0269 -0.0400
 9468SOL    HW139866   2.408   0.678   2.781  0.6842  0.2300  0.3841
 9468SOL    HW239867   2.373   0.529   2.774  0.1247  0.7450 -1.0094
 9469SOL     OW39868   2.155   1.311   9.919 -0.3802  0.6770  0.3243
 9469SOL    HW139869   2.199   1.236   9.880 -0.3340  0.6366  0.4521
 9469SOL    HW239870   2.099   1.324   9.843 -0.5644  2.4553  0.7714
 9470SOL     OW39871   0.850   0.910   0.506  0.4036 -0.2067  0.4370
 9470SOL    HW139872   0.773   0.959   0.533  1.5522  0.6388  2.2101
 9470SOL    HW239873   0.925   0.944   0.556  0.7609  0.0140 -0.2383
 9471SOL     OW39874   3.920   1.430   3.702 -0.2299 -0.1169 -0.2621
 9471SOL    HW139875   3.924   1.469   3.789  0.4138 -0.1549 -0.2804
 9471SOL    HW239876   3.879   1.347   3.726  0.4870 -0.6037 -0.7370
 9472SOL     OW39877   4.122   3.550   7.944  0.1804 -0.3871  0.1321
 9472SOL    HW139878   4.148   3.471   7.992  0.9874 -1.1947 -1.6246
 9472SOL    HW239879   4.105   3.502   7.863 -0.8955 -0.6224  0.5015
 9473SOL     OW39880   0.610   0.626   8.567  0.0975  0.0673  0.5454
 9473SOL    HW139881   0.549   0.554   8.551  0.3120 -0.0625  0.3056
 9473SOL    HW239882   0.572   0.677   8.638  1.4568  1.0238  0.5703
 9474SOL     OW39883   2.303   3.303  17.110 -0.5428 -0.5636  0.2896
 9474SOL    HW139884   2.221   3.325  17.065  0.7143  0.3523 -1.5554
 9474SOL    HW239885   2.261   3.262  17.185 -1.3306 -0.4157 -0.0733
 9475SOL     OW39886   3.743   0.084   4.364  0.1306 -0.1059 -0.0189
 9475SOL    HW139887   3.748   0.067   4.270 -0.5142 -0.0503 -0.0604
 9475SOL    HW239888   3.831   0.063   4.398 -0.4464 -1.2145  0.8187
 9476SOL     OW39889   1.038   1.019   2.008  0.1211 -0.2781  0.3706
 9476SOL    HW139890   0.962   1.049   2.059  0.2205 -1.2915  1.1147
 9476SOL    HW239891   1.079   0.952   2.062 -0.6028 -1.6132 -0.7627
 9477SOL     OW39892   0.862   0.594   2.427  0.6464  0.4805 -0.1189
 9477SOL    HW139893   0.892   0.627   2.512  0.5978 -1.7323  0.7615
 9477SOL    HW239894   0.769   0.616   2.433  0.3641 -0.6768 -0.1458
 9478SOL     OW39895   2.120   2.788   8.675 -0.9448 -0.3198  0.1843
 9478SOL    HW139896   2.111   2.883   8.686 -1.6575 -0.2191 -1.2369
 9478SOL    HW239897   2.043   2.773   8.620 -1.4704  1.4300  0.4239
 9479SOL     OW39898   0.595   1.794  10.309 -0.3180  0.8202 -0.0731
 9479SOL    HW139899   0.516   1.769  10.261 -0.7003 -2.6856  2.3753
 9479SOL    HW239900   0.557   1.827  10.391  0.9748  0.1988  0.7731
 9480SOL     OW39901   1.859   0.206  12.356 -0.1933 -0.1897 -0.2260
 9480SOL    HW139902   1.840   0.292  12.393  1.1309  1.2821 -2.9094
 9480SOL    HW239903   1.833   0.159  12.435  0.1021 -0.9744 -0.5992
 9481SOL     OW39904   4.326   0.546  16.072  0.0848 -0.2155 -0.2277
 9481SOL    HW139905   4.269   0.623  16.073 -0.2894 -0.4827 -0.8068
 9481SOL    HW239906   4.405   0.584  16.110 -1.8018  3.0254  0.4732
 9482SOL     OW39907   0.567   1.611   3.557  0.2843  0.0378  0.2107
 9482SOL    HW139908   0.480   1.635   3.526 -0.1756 -0.4998  1.0942
 9482SOL    HW239909   0.566   1.517   3.539  0.7565  0.1353 -0.3569
 9483SOL     OW39910   3.147   2.660   5.132 -0.1239 -0.1243 -0.0377
 9483SOL    HW139911   3.240   2.647   5.115  0.1815 -0.5419  1.9872
 9483SOL    HW239912   3.115   2.650   5.042 -3.0783 -2.8576  1.3272
 9484SOL     OW39913   3.420   1.222  10.173  0.1558 -0.2020  0.3303
 9484SOL    HW139914   3.357   1.150  10.176 -0.6775  0.5379  0.5843
 9484SOL    HW239915   3.403   1.249  10.082  0.1309  0.2457  0.4668
 9485SOL     OW39916   2.437   4.451   5.191  0.0342  0.2370  0.0781
 9485SOL    HW139917   2.343   4.440   5.201 -0.0151  0.4303 -0.1657
 9485SOL    HW239918   2.450   4.414   5.103  0.8020 -0.9885  0.7041
 9486SOL     OW39919   2.286   0.173  10.667  0.3911 -0.2790 -0.2876
 9486SOL    HW139920   2.360   0.232  10.682 -0.4188  0.4522  0.7810
 9486SOL    HW239921   2.265   0.154  10.758  0.6368 -0.9793 -0.3843
 9487SOL     OW39922   4.012   2.062   1.052  0.1305 -0.4415 -0.2766
 9487SOL    HW139923   3.970   2.027   1.130  0.2939  0.8386  0.3785
 9487SOL    HW239924   3.939   2.083   0.994  0.0092 -0.6973 -0.2189
 9488SOL     OW39925   1.819   2.035   1.156  0.2403 -0.2472 -0.4208
 9488SOL    HW139926   1.768   1.982   1.218  0.4853 -0.2512 -0.2205
 9488SOL    HW239927   1.764   2.027   1.078  0.6347  1.2460 -0.8360
 9489SOL     OW39928   0.906   0.340  17.017 -0.4942  0.0388 -0.4438
 9489SOL    HW139929   0.906   0.250  17.048  2.3273  0.1849 -0.0370
 9489SOL    HW239930   0.996   0.346  16.986 -0.1742  0.3403  0.5445
 9490SOL     OW39931   1.088   3.381   2.336 -0.7092 -0.0079  0.3279
 9490SOL    HW139932   1.067   3.461   2.289  3.0791  1.6959  1.5133
 9490SOL    HW239933   1.044   3.321   2.276 -1.0792 -1.7057  2.2935
 9491SOL     OW39934   2.710   1.139   8.326 -0.1697  0.0580 -0.2741
 9491SOL    HW139935   2.705   1.103   8.415 -1.8001  1.9895  0.4240
 9491SOL    HW239936   2.615   1.139   8.319 -0.2045 -2.3457  0.3031
 9492SOL     OW39937   2.859   4.574   5.544 -0.1117  0.3524 -0.1300
 9492SOL    HW139938   2.807   4.565   5.624 -1.4435  2.4709 -0.7559
 9492SOL    HW239939   2.796   4.549   5.476  2.1038 -0.4910 -1.8763
 9493SOL     OW39940   3.551   1.420  11.843 -0.1702 -0.3018 -0.1237
 9493SOL    HW139941   3.617   1.441  11.909  0.5366 -2.0588 -0.2633
 9493SOL    HW239942   3.545   1.325  11.850  1.4149 -0.3969 -0.1266
 9494SOL     OW39943   0.405   4.009   8.300  0.0834 -0.0781 -0.4423
 9494SOL    HW139944   0.341   3.977   8.364 -0.1658  0.6330 -0.3241
 9494SOL    HW239945   0.402   4.098   8.335 -0.5388 -0.8663  1.5141
 9495SOL     OW39946   4.257   3.739   2.762 -1.0656  0.3036  0.0134
 9495SOL    HW139947   4.162   3.746   2.750 -1.0346  1.4366  0.4607
 9495SOL    HW239948   4.275   3.674   2.694 -2.7499  1.3987 -1.4630
 9496SOL     OW39949   4.695   0.607  12.354 -0.1729 -0.0369  0.4173
 9496SOL    HW139950   4.672   0.520  12.322 -3.2505  0.6115  0.8506
 9496SOL    HW239951   4.618   0.659  12.329 -0.3339 -0.3518  0.2600
 9497SOL     OW39952   2.971   2.906   8.867  0.5125 -0.2179  0.4216
 9497SOL    HW139953   2.888   2.927   8.910  1.2311  1.9232  0.7361
 9497SOL    HW239954   2.971   2.975   8.801  0.3007  0.2424  0.8955
 9498SOL     OW39955   1.784   3.939   6.946 -0.0178  0.3259  0.3881
 9498SOL    HW139956   1.783   3.861   7.002 -0.8523 -1.0286 -1.5190
 9498SOL    HW239957   1.796   3.899   6.861  2.4253 -1.1829  1.4369
 9499SOL     OW39958   0.764   2.573   9.053  0.0412  0.3020 -0.0046
 9499SOL    HW139959   0.858   2.568   9.069  0.2128  4.0998  0.3573
 9499SOL    HW239960   0.743   2.480   9.060 -0.9458  0.5871  0.8530
 9500SOL     OW39961   2.318   1.065   9.403  0.0564  0.3617 -0.2932
 9500SOL    HW139962   2.384   1.133   9.390 -0.4381  0.9165  0.1051
 9500SOL    HW239963   2.361   1.004   9.463  2.0383  2.2247  0.1954
 9501SOL     OW39964   3.862   3.053  11.398  0.1482  0.3150 -0.0974
 9501SOL    HW139965   3.957   3.045  11.402  0.2220  0.9905 -0.4156
 9501SOL    HW239966   3.828   3.077  11.483  1.6741  2.6318 -0.1568
 9502SOL     OW39967   0.024   2.158   7.226  0.1733 -0.3211  0.3282
 9502SOL    HW139968   4.708   2.123   7.304  1.2298 -0.4583  0.8265
 9502SOL    HW239969   4.715   2.092   7.166 -0.9713 -0.4704  1.1442
 9503SOL     OW39970   3.500   0.048  10.716 -0.6410 -0.5379  0.0103
 9503SOL    HW139971   3.593   0.072  10.720 -0.5834 -0.5745 -1.2580
 9503SOL    HW239972   3.484   4.718  10.792 -0.1155  0.5196  0.9012
 9504SOL     OW39973   3.764   4.461   7.169 -0.6976 -0.1356 -0.5679
 9504SOL    HW139974   3.784   4.369   7.153 -0.1391 -0.0793 -0.1793
 9504SOL    HW239975   3.668   4.457   7.170 -0.7665  0.7547 -3.1164
 9505SOL     OW39976   1.930   2.321   3.716  0.2770 -0.4742 -0.2145
 9505SOL    HW139977   2.024   2.301   3.709  0.7986  2.1634 -0.8628
 9505SOL    HW239978   1.926   2.417   3.721 -0.4871 -0.5220  0.1106
 9506SOL     OW39979   0.307   0.933  10.973 -0.3311  0.6458 -0.1177
 9506SOL    HW139980   0.360   0.964  11.047 -0.3024 -1.3875  0.7144
 9506SOL    HW239981   0.266   1.012  10.939  0.7413 -0.0731 -3.1049
 9507SOL     OW39982   0.533   2.317   5.658  0.5684 -0.4615 -0.6568
 9507SOL    HW139983   0.577   2.277   5.582 -1.0554  0.0728 -1.8850
 9507SOL    HW239984   0.590   2.394   5.664 -2.1216  1.5529 -0.8560
 9508SOL     OW39985   3.283   0.590  15.944  0.6376 -0.2852 -0.2148
 9508SOL    HW139986   3.241   0.658  15.891  0.8927 -0.8868 -1.1939
 9508SOL    HW239987   3.312   0.528  15.877 -2.2819 -0.2106 -1.5528
 9509SOL     OW39988   1.733   3.457   7.730 -0.0391 -1.1823  0.0593
 9509SOL    HW139989   1.724   3.548   7.758 -1.4680 -1.0925 -0.7076
 9509SOL    HW239990   1.770   3.473   7.643  0.7679  0.2625  0.6777
 9510SOL     OW39991   3.056   1.845   2.752 -0.5620  0.0208 -0.2939
 9510SOL    HW139992   3.146   1.871   2.734 -0.5539  0.3122  0.1712
 9510SOL    HW239993   3.044   1.766   2.699  0.8230 -0.7945  0.6144
 9511SOL     OW39994   2.772   0.194   6.529  0.0870  0.3361  0.0607
 9511SOL    HW139995   2.726   0.195   6.613  1.5185 -0.8760  0.8557
 9511SOL    HW239996   2.748   0.271   6.478  1.7424  1.7447  1.3966
 9512SOL     OW39997   2.450   3.587   5.577 -0.1635 -0.1884 -0.1302
 9512SOL    HW139998   2.401   3.659   5.616  0.1545 -0.2934  0.4629
 9512SOL    HW239999   2.464   3.627   5.491 -0.4848 -0.4475 -0.3074
 9513SOL     OW40000   1.852   2.926  14.275 -0.5791  0.2403 -0.0448
 9513SOL    HW140001   1.827   2.960  14.189 -0.6031 -0.6541 -0.3936
 9513SOL    HW240002   1.804   2.843  14.276  0.3736 -0.2885  2.1653
 9514SOL     OW40003   0.248   2.979   3.309 -0.4773 -0.2424  0.4112
 9514SOL    HW140004   0.266   2.899   3.261  0.7902  0.3945 -0.1913
 9514SOL    HW240005   0.193   3.019   3.241 -0.2468 -1.6892 -0.6302
 9515SOL     OW40006   1.528   4.695   6.433  0.0780  0.7375 -0.2654
 9515SOL    HW140007   1.607   4.668   6.480  0.4887  1.5267 -0.5008
 9515SOL    HW240008   1.506   4.618   6.379 -1.4881  1.6533 -0.9351
 9516SOL     OW40009   0.032   0.985   5.274  0.1440 -0.0390 -0.5305
 9516SOL    HW140010   0.078   0.965   5.355  0.4883 -2.1705 -1.2410
 9516SOL    HW240011   0.059   1.077   5.269  2.8454 -0.8368 -1.1170
 9517SOL     OW40012   0.392   0.296   6.658  0.1398  0.1109 -0.3334
 9517SOL    HW140013   0.459   0.229   6.672  1.5701  1.5220 -0.4519
 9517SOL    HW240014   0.370   0.338   6.741  0.1108  0.4557 -0.5132
 9518SOL     OW40015   3.939   3.052   1.849 -0.3035  0.3230  0.0309
 9518SOL    HW140016   3.846   3.031   1.854 -0.0861 -0.7490 -0.4239
 9518SOL    HW240017   3.940   3.140   1.885  0.8430  1.2208 -2.1786
 9519SOL     OW40018   2.467   2.507  14.442  0.0934  0.1226 -0.0946
 9519SOL    HW140019   2.396   2.460  14.398 -0.2645  0.5716 -0.0068
 9519SOL    HW240020   2.529   2.436  14.455  1.7251  1.3179 -1.2360
 9520SOL     OW40021   0.852   4.517   4.127  0.1933  0.3703  0.5216
 9520SOL    HW140022   0.913   4.544   4.058 -0.1111  0.4325  0.2776
 9520SOL    HW240023   0.864   4.592   4.186  0.9150 -1.4678  2.7239
 9521SOL     OW40024   3.441   2.846   9.386 -0.1029 -0.4031  0.5410
 9521SOL    HW140025   3.365   2.787   9.385  0.6868 -1.4235 -0.0249
 9521SOL    HW240026   3.514   2.786   9.400  0.1272 -0.3511 -0.4320
 9522SOL     OW40027   0.268   3.469   6.400 -0.4790  0.4967 -0.1322
 9522SOL    HW140028   0.306   3.526   6.334 -2.4117  0.1354 -1.5770
 9522SOL    HW240029   0.193   3.528   6.404 -0.9629 -0.2353  1.5770
 9523SOL     OW40030   4.553   3.574   5.399 -0.1210 -0.3941 -0.1190
 9523SOL    HW140031   4.563   3.622   5.481 -1.9279  1.5130 -1.0293
 9523SOL    HW240032   4.637   3.528   5.388  0.7058 -0.0170  4.3563
 9524SOL     OW40033   2.089   0.217   9.528  0.3780  0.0996  0.1400
 9524SOL    HW140034   2.090   0.306   9.492 -0.3170 -0.0967 -0.3676
 9524SOL    HW240035   2.164   0.230   9.586  1.0980  1.4214 -1.1018
 9525SOL     OW40036   2.772   1.166  13.813 -0.4188 -0.1459  0.6642
 9525SOL    HW140037   2.791   1.079  13.848 -0.5066 -0.3471  0.2177
 9525SOL    HW240038   2.836   1.178  13.743 -0.6172  1.5382  0.7607
 9526SOL     OW40039   3.407   4.323   8.979 -0.2542  0.7103 -0.2670
 9526SOL    HW140040   3.491   4.330   8.935 -0.4183  3.3207 -0.1167
 9526SOL    HW240041   3.343   4.349   8.913 -1.4111 -0.0488  0.5395
 9527SOL     OW40042   1.676   0.070   3.503  0.5416  0.1206 -0.4073
 9527SOL    HW140043   1.674   0.077   3.408  3.3390  1.1841 -0.3854
 9527SOL    HW240044   1.644   4.707   3.520 -1.6193  1.1064  0.6217
 9528SOL     OW40045   4.242   3.238  15.329  0.1027 -0.2130 -0.4209
 9528SOL    HW140046   4.220   3.247  15.421 -1.6603  1.4925 -1.0267
 9528SOL    HW240047   4.214   3.148  15.312 -0.5831  0.3293 -2.1801
 9529SOL     OW40048   1.910   1.217  14.689 -0.0120 -0.0461 -0.1633
 9529SOL    HW140049   1.841   1.167  14.732  0.0340  0.2023  0.2049
 9529SOL    HW240050   1.911   1.163  14.610  1.2421 -0.8800  0.4209
 9530SOL     OW40051   3.871   2.354   4.936  0.6173  0.4373  0.7231
 9530SOL    HW140052   3.809   2.408   4.985 -0.8666  0.3617 -1.0623
 9530SOL    HW240053   3.910   2.307   5.010  1.0736 -4.2865 -2.5019
 9531SOL     OW40054   0.107   0.520   5.165 -0.1630 -0.6535  0.4021
 9531SOL    HW140055   0.069   0.435   5.142 -1.2845 -0.0452 -0.0517
 9531SOL    HW240056   0.083   0.523   5.257 -3.3648  1.0758 -0.4686
 9532SOL     OW40057   0.220   4.492   4.495  0.4114 -0.1563 -0.0017
 9532SOL    HW140058   0.311   4.521   4.503  1.0488 -1.4590 -2.5811
 9532SOL    HW240059   0.191   4.548   4.567 -0.1672  2.5507 -2.3505
 9533SOL     OW40060   2.024   2.686   4.953  0.1588  0.1169  0.4826
 9533SOL    HW140061   2.081   2.752   4.914 -1.6399  0.2660 -1.9193
 9533SOL    HW240062   2.042   2.698   5.046  0.0237 -1.0596  0.6608
 9534SOL     OW40063   2.811   0.413   0.570  0.0131 -0.2197  1.4495
 9534SOL    HW140064   2.746   0.445   0.633  0.5238  1.5888  1.0532
 9534SOL    HW240065   2.890   0.409   0.624  2.1260  2.2365 -1.4476
 9535SOL     OW40066   4.549   4.368   7.548  0.7385  0.1351 -0.3084
 9535SOL    HW140067   4.519   4.277   7.547  0.4313  0.2376 -0.6132
 9535SOL    HW240068   4.617   4.351   7.483 -0.2597 -0.3437 -1.2300
 9536SOL     OW40069   0.604   3.085   6.578  0.6067 -0.1787 -0.1675
 9536SOL    HW140070   0.671   3.017   6.580  0.7001 -0.0714  0.4454
 9536SOL    HW240071   0.623   3.137   6.656 -3.6954  0.7828  0.2256
 9537SOL     OW40072   1.410   3.779   2.703 -0.0012  0.2545 -0.1741
 9537SOL    HW140073   1.345   3.709   2.707  0.5975 -0.3473 -0.8845
 9537SOL    HW240074   1.490   3.727   2.703 -1.0246 -1.3351 -1.8401
 9538SOL     OW40075   2.699   4.515   0.624  0.2723 -0.5425 -0.3011
 9538SOL    HW140076   2.678   4.595   0.577  0.3228  0.4047  1.2867
 9538SOL    HW240077   2.672   4.527   0.715 -0.7672  1.1892 -0.8442
 9539SOL     OW40078   1.096   3.545  14.983  0.0390 -0.1400 -0.2008
 9539SOL    HW140079   1.063   3.460  14.955 -0.7397 -0.1571  0.7591
 9539SOL    HW240080   1.142   3.515  15.062 -0.2677  1.8455  0.7333
 9540SOL     OW40081   1.819   4.395   5.454 -0.1373 -0.3491  0.7102
 9540SOL    HW140082   1.800   4.332   5.384 -2.6082  0.9898  0.1723
 9540SOL    HW240083   1.729   4.427   5.461 -0.2959 -0.0810 -3.0334
 9541SOL     OW40084   0.641   1.171   8.117  0.8412  0.0353  0.3535
 9541SOL    HW140085   0.701   1.229   8.165  2.5613 -1.4726 -0.0030
 9541SOL    HW240086   0.589   1.140   8.191 -1.4560  1.0604 -0.8114
 9542SOL     OW40087   3.232   2.694   9.383 -0.6152 -0.1102  0.1186
 9542SOL    HW140088   3.166   2.664   9.321 -0.4044 -1.6054  0.6084
 9542SOL    HW240089   3.173   2.710   9.456 -1.2590  0.9223 -0.6159
 9543SOL     OW40090   4.481   3.510   4.503 -0.2303 -0.6686  0.1988
 9543SOL    HW140091   4.564   3.557   4.503 -1.4680  1.5332  1.6180
 9543SOL    HW240092   4.422   3.577   4.468 -0.3216 -1.0671 -0.4099
 9544SOL     OW40093   0.631   1.108  17.294  0.6819  0.1856 -0.3115
 9544SOL    HW140094   0.721   1.118  17.326  0.5099 -0.4342  0.3655
 9544SOL    HW240095   0.636   1.177  17.228  1.2676 -2.0435 -2.5628
 9545SOL     OW40096   4.575   4.496  17.323 -0.2383 -0.7075  0.0686
 9545SOL    HW140097   4.642   4.443  17.281  0.1223  0.2054 -0.5013
 9545SOL    HW240098   4.620   4.581  17.325 -0.1676 -0.7479  0.1966
 9546SOL     OW40099   3.017   2.156   5.395 -0.0680 -0.6535  0.4014
 9546SOL    HW140100   3.101   2.202   5.403 -0.7536  0.8062 -0.9263
 9546SOL    HW240101   2.961   2.220   5.352  0.2693 -1.5001 -1.3098
 9547SOL     OW40102   3.625   2.454   5.045  0.0042  0.0441 -0.2718
 9547SOL    HW140103   3.568   2.447   5.121  1.1062  0.7029  0.6085
 9547SOL    HW240104   3.631   2.550   5.047 -2.0069  0.1676 -0.1684
 9548SOL     OW40105   4.297   1.484   6.254 -0.5003  0.3534  0.2022
 9548SOL    HW140106   4.316   1.395   6.225  0.3217  0.4315  0.5127
 9548SOL    HW240107   4.319   1.532   6.174 -1.7600  0.0235 -0.3518
 9549SOL     OW40108   3.436   3.353   3.011 -0.0077  0.5755  0.0581
 9549SOL    HW140109   3.514   3.358   2.956  0.2350  1.5543  0.4979
 9549SOL    HW240110   3.441   3.263   3.045  0.1922  0.9920  1.1362
 9550SOL     OW40111   1.960   2.738   8.887  0.7026 -0.1760 -0.3399
 9550SOL    HW140112   1.977   2.783   8.804  1.5303 -0.9387 -0.5808
 9550SOL    HW240113   2.051   2.725   8.915  0.2306 -3.2608 -0.2664
 9551SOL     OW40114   1.596   3.287   4.819  0.0528 -0.0011  0.5503
 9551SOL    HW140115   1.638   3.212   4.776  1.9304  1.6359 -0.4498
 9551SOL    HW240116   1.656   3.359   4.800 -1.4973  1.2145  0.2716
 9552SOL     OW40117   4.029   2.477   0.220  0.2704  0.6803 -0.6762
 9552SOL    HW140118   4.005   2.492   0.312  2.1049  0.7679 -0.2131
 9552SOL    HW240119   3.967   2.405   0.208 -1.6557  1.6903  3.1850
 9553SOL     OW40120   0.380   0.494   9.053  0.8721 -0.7686 -0.6627
 9553SOL    HW140121   0.459   0.548   9.062 -1.1761  2.1486 -0.3577
 9553SOL    HW240122   0.353   0.487   9.145 -0.1241  0.7389 -0.8499
 9554SOL     OW40123   3.434   0.009   7.193 -0.5601 -0.2146 -0.1694
 9554SOL    HW140124   3.384   0.068   7.250  0.1970 -0.9862  1.3102
 9554SOL    HW240125   3.472   0.074   7.135 -2.2833  0.5264 -0.4529
 9555SOL     OW40126   4.217   2.346   4.163  0.2336  0.3185 -0.0353
 9555SOL    HW140127   4.244   2.400   4.238 -0.7411  1.0476 -0.2199
 9555SOL    HW240128   4.123   2.336   4.175  0.0973  3.5885  1.4665
 9556SOL     OW40129   1.401   2.882   2.883  1.1917 -0.2959 -0.0695
 9556SOL    HW140130   1.372   2.836   2.804  0.9216 -0.1102 -0.0764
 9556SOL    HW240131   1.424   2.809   2.941  2.9258 -0.6745 -1.2178
 9557SOL     OW40132   2.583   2.841   3.562  0.5505 -0.0816 -0.1365
 9557SOL    HW140133   2.495   2.810   3.544  1.3655 -1.4178 -1.9146
 9557SOL    HW240134   2.590   2.925   3.518 -0.5729  0.6240  1.0398
 9558SOL     OW40135   4.360   0.762   7.193 -0.3122  0.4739 -0.2776
 9558SOL    HW140136   4.440   0.709   7.192  0.5124  1.7964 -2.6653
 9558SOL    HW240137   4.326   0.742   7.281 -2.2505 -1.1366 -1.4012
 9559SOL     OW40138   4.408   0.251   8.465  0.2087 -0.4637  0.5128
 9559SOL    HW140139   4.315   0.273   8.477 -0.2365 -0.9749 -2.0955
 9559SOL    HW240140   4.419   0.200   8.545  1.8496  0.4828  0.8849
 9560SOL     OW40141   3.542   0.582   6.762  0.2182  0.4622 -0.2729
 9560SOL    HW140142   3.491   0.581   6.681 -1.5584 -0.3834  0.8598
 9560SOL    HW240143   3.615   0.640   6.740 -1.7605  2.0719 -2.4570
 9561SOL     OW40144   2.282   3.761  11.524  0.1989 -0.1330  0.5786
 9561SOL    HW140145   2.314   3.845  11.559 -0.7581 -0.0157  1.1844
 9561SOL    HW240146   2.336   3.746  11.447 -0.6217 -1.2155  0.2238
 9562SOL     OW40147   4.320   4.349  15.208  0.2121  0.0948  0.1131
 9562SOL    HW140148   4.344   4.284  15.142 -0.8030 -0.7412  0.5759
 9562SOL    HW240149   4.283   4.418  15.152 -0.0005  0.2276  0.4171
 9563SOL     OW40150   1.108   2.174   6.972 -0.0690  1.1090 -0.2493
 9563SOL    HW140151   1.086   2.255   6.926 -2.4077 -0.2146 -1.4583
 9563SOL    HW240152   1.190   2.155   6.926 -0.0764  0.0347  0.1774
 9564SOL     OW40153   2.925   2.057   9.648  0.4481  0.4941 -0.1433
 9564SOL    HW140154   2.999   2.055   9.709 -0.1501  1.1834  0.5862
 9564SOL    HW240155   2.964   2.021   9.568 -1.0554 -1.5799  0.0525
 9565SOL     OW40156   4.296   4.020  13.485  0.5116 -0.1245  0.0576
 9565SOL    HW140157   4.385   4.053  13.480 -0.0619  1.4154 -0.0348
 9565SOL    HW240158   4.281   4.027  13.580 -0.3813 -0.4581 -0.0527
 9566SOL     OW40159   1.740   4.087   6.023 -0.1406  0.6294 -0.9821
 9566SOL    HW140160   1.768   3.998   6.002 -1.5273 -0.4142  1.5594
 9566SOL    HW240161   1.647   4.068   6.011 -0.8089  1.2135  3.1441
 9567SOL     OW40162   1.177   2.327   3.088  0.6359 -0.3869 -0.8240
 9567SOL    HW140163   1.112   2.322   3.019  0.8338  0.5230 -1.0772
 9567SOL    HW240164   1.144   2.289   3.169 -1.3390  0.3504 -1.3020
 9568SOL     OW40165   3.841   2.481  16.046  0.4524 -0.0110  0.1872
 9568SOL    HW140166   3.849   2.423  16.122  0.5048  0.6307  0.6736
 9568SOL    HW240167   3.867   2.566  16.080  2.7547 -1.3978  1.8966
   4.72562   4.72562  17.70370
